<event>
 4    1  0.3752836E+003  0.4130170E+02  0.7546771E-02  0.1341022E+00
          2   -1    0    0  502    0  0.00000000000E+00  0.00000000000E+00  0.74243024893E+03  0.74243024893E+03  0.00000000000E+00 0. -1.
          1   -1    0    0  501    0 -0.00000000000E+00 -0.00000000000E+00 -0.30731964013E+01  0.30731964013E+01  0.00000000000E+00 0.  1.
          2    1    1    2  501    0 -0.38083537701E+02 -0.15983581219E+02  0.55693365898E+03  0.55846300792E+03  0.00000000000E+00 0. -1.
          1    1    1    2  502    0  0.38083537701E+02  0.15983581219E+02  0.18242339355E+03  0.18704043741E+03  0.00000000000E+00 0.  1.
</event>
<event>
 4    1  0.3752836E+003  0.3155634E+02  0.7546771E-02  0.1406537E+00
          2   -1    0    0  502    0  0.00000000000E+00  0.00000000000E+00  0.17692734806E+03  0.17692734806E+03  0.00000000000E+00 0.  1.
          1   -1    0    0  501    0 -0.00000000000E+00 -0.00000000000E+00 -0.30165688410E+02  0.30165688410E+02  0.00000000000E+00 0. -1.
          2    1    1    2  501    0 -0.28558380274E+02 -0.13424671083E+02  0.16676922544E+03  0.16972854041E+03  0.00000000000E+00 0.  1.
          1    1    1    2  502    0  0.28558380274E+02  0.13424671083E+02 -0.20007565782E+02  0.37364496063E+02  0.00000000000E+00 0. -1.
</event>
<event>
 4    1  0.3752836E+003  0.2184716E+02  0.7546771E-02  0.1507505E+00
          2   -1    0    0  502    0  0.00000000000E+00  0.00000000000E+00  0.47871398590E+03  0.47871398590E+03  0.00000000000E+00 0. -1.
          1   -1    0    0  501    0 -0.00000000000E+00 -0.00000000000E+00 -0.99863204167E+00  0.99863204167E+00  0.00000000000E+00 0. -1.
          2    1    1    2  501    0  0.20796354745E+02  0.66939904541E+01  0.22928633314E+03  0.23032481509E+03  0.00000000000E+00 0. -1.
          1    1    1    2  502    0 -0.20796354745E+02 -0.66939904541E+01  0.24842902071E+03  0.24938780285E+03  0.00000000000E+00 0. -1.
</event>
<event>
 4    1  0.3752836E+003  0.2479111E+02  0.7546771E-02  0.1471154E+00
          2   -1    0    0  502    0  0.00000000000E+00  0.00000000000E+00  0.30623520840E+03  0.30623520840E+03  0.00000000000E+00 0.  1.
          1   -1    0    0  501    0 -0.00000000000E+00 -0.00000000000E+00 -0.30194060869E+01  0.30194060869E+01  0.00000000000E+00 0.  1.
          2    1    1    2  501    0 -0.24135786623E+02  0.56623658906E+01  0.62068611343E+02  0.66836450365E+02  0.00000000000E+00 0.  1.
          1    1    1    2  502    0  0.24135786623E+02 -0.56623658906E+01  0.24114719097E+03  0.24241816413E+03  0.00000000000E+00 0.  1.
</event>
<event>
 4    1  0.3752836E+003  0.2708420E+02  0.7546771E-02  0.1446764E+00
          2   -1    0    0  502    0  0.00000000000E+00  0.00000000000E+00  0.38305050851E+03  0.38305050851E+03  0.00000000000E+00 0. -1.
          1   -1    0    0  501    0 -0.00000000000E+00 -0.00000000000E+00 -0.10920211592E+02  0.10920211592E+02  0.00000000000E+00 0. -1.
          2    1    1    2  501    0 -0.23446602416E+02  0.13557672282E+02  0.36494632162E+03  0.36594995738E+03  0.00000000000E+00 0. -1.
          1    1    1    2  502    0  0.23446602416E+02 -0.13557672282E+02  0.71839753017E+01  0.28020762725E+02  0.00000000000E+00 0. -1.
</event>
<event>
 4    1  0.3752836E+003  0.2170370E+02  0.7546771E-02  0.1509451E+00
          2   -1    0    0  502    0  0.00000000000E+00  0.00000000000E+00  0.54432209808E+03  0.54432209808E+03  0.00000000000E+00 0. -1.
          1   -1    0    0  501    0 -0.00000000000E+00 -0.00000000000E+00 -0.33430331292E+01  0.33430331292E+01  0.00000000000E+00 0.  1.
          2    1    1    2  501    0 -0.79366548376E+01 -0.20200496802E+02  0.50623002472E+03  0.50669506460E+03  0.00000000000E+00 0. -1.
          1    1    1    2  502    0  0.79366548376E+01  0.20200496802E+02  0.34749040229E+02  0.40970066609E+02  0.00000000000E+00 0.  1.
</event>
<event>
 4    1  0.3752836E+003  0.2086455E+02  0.7546771E-02  0.1521208E+00
          2   -1    0    0  502    0  0.00000000000E+00  0.00000000000E+00  0.64646240896E+03  0.64646240896E+03  0.00000000000E+00 0.  1.
          1   -1    0    0  501    0 -0.00000000000E+00 -0.00000000000E+00 -0.13807226596E+01  0.13807226596E+01  0.00000000000E+00 0. -1.
          2    1    1    2  501    0  0.13251739818E+02  0.16115853666E+02  0.55438421324E+03  0.55477669854E+03  0.00000000000E+00 0.  1.
          1    1    1    2  502    0 -0.13251739818E+02 -0.16115853666E+02  0.90697473059E+02  0.93066433083E+02  0.00000000000E+00 0. -1.
</event>
<event>
 4    1  0.3752836E+003  0.2158182E+02  0.7546771E-02  0.1511118E+00
          2   -1    0    0  502    0  0.00000000000E+00  0.00000000000E+00  0.46404816263E+03  0.46404816263E+03  0.00000000000E+00 0.  1.
          1   -1    0    0  501    0 -0.00000000000E+00 -0.00000000000E+00 -0.86171284657E+03  0.86171284657E+03  0.00000000000E+00 0.  1.
          2    1    1    2  501    0  0.21524888376E+02  0.15665707308E+01  0.46366198929E+03  0.46416399610E+03  0.00000000000E+00 0.  1.
          1    1    1    2  502    0 -0.21524888376E+02 -0.15665707308E+01 -0.86132667323E+03  0.86159701310E+03  0.00000000000E+00 0.  1.
</event>
<event>
 4    1  0.3752836E+003  0.2021098E+02  0.7546771E-02  0.1530835E+00
          2   -1    0    0  502    0  0.00000000000E+00  0.00000000000E+00  0.80023444720E+01  0.80023444720E+01  0.00000000000E+00 0. -1.
          1   -1    0    0  501    0 -0.00000000000E+00 -0.00000000000E+00 -0.19825909824E+03  0.19825909824E+03  0.00000000000E+00 0.  1.
          2    1    1    2  501    0 -0.13634004158E+02 -0.14919704260E+02 -0.62603655448E+01  0.21158351101E+02  0.00000000000E+00 0. -1.
          1    1    1    2  502    0  0.13634004158E+02  0.14919704260E+02 -0.18399638822E+03  0.18510309161E+03  0.00000000000E+00 0.  1.
</event>
<event>
 4    1  0.3752836E+003  0.2315759E+02  0.7546771E-02  0.1490529E+00
          2   -1    0    0  502    0  0.00000000000E+00  0.00000000000E+00  0.11147732707E+04  0.11147732707E+04  0.00000000000E+00 0.  1.
          1   -1    0    0  501    0 -0.00000000000E+00 -0.00000000000E+00 -0.15738617423E+01  0.15738617423E+01  0.00000000000E+00 0.  1.
          2    1    1    2  501    0 -0.90420042479E+01 -0.21319385935E+02  0.10217105287E+04  0.10219729344E+04  0.00000000000E+00 0.  1.
          1    1    1    2  502    0  0.90420042479E+01  0.21319385935E+02  0.91488880241E+02  0.94374198091E+02  0.00000000000E+00 0.  1.
</event>
<event>
 4    1  0.3752836E+003  0.4440236E+02  0.7546771E-02  0.1324455E+00
          2   -1    0    0  502    0  0.00000000000E+00  0.00000000000E+00  0.11318301918E+03  0.11318301918E+03  0.00000000000E+00 0. -1.
          1   -1    0    0  501    0 -0.00000000000E+00 -0.00000000000E+00 -0.60737927873E+03  0.60737927873E+03  0.00000000000E+00 0. -1.
          2    1    1    2  501    0 -0.32778050522E+02  0.29952774493E+02  0.10797910402E+03  0.11675211433E+03  0.00000000000E+00 0. -1.
          1    1    1    2  502    0  0.32778050522E+02 -0.29952774493E+02 -0.60217536357E+03  0.60381018358E+03  0.00000000000E+00 0. -1.
</event>
<event>
 4    1  0.3752836E+003  0.2015362E+02  0.7546771E-02  0.1531700E+00
          2   -1    0    0  502    0  0.00000000000E+00  0.00000000000E+00  0.57417904700E+03  0.57417904700E+03  0.00000000000E+00 0.  1.
          1   -1    0    0  501    0 -0.00000000000E+00 -0.00000000000E+00 -0.17777046389E+01  0.17777046389E+01  0.00000000000E+00 0.  1.
          2    1    1    2  501    0 -0.20091482454E+02 -0.15813400095E+01  0.50965351334E+03  0.51005183263E+03  0.00000000000E+00 0.  1.
          1    1    1    2  502    0  0.20091482454E+02  0.15813400095E+01  0.62747829014E+02  0.65904919007E+02  0.00000000000E+00 0.  1.
</event>
<event>
 4    1  0.3752836E+003  0.4619099E+02  0.7546771E-02  0.1315589E+00
          2   -1    0    0  502    0  0.00000000000E+00  0.00000000000E+00  0.37431602037E+03  0.37431602037E+03  0.00000000000E+00 0. -1.
          1   -1    0    0  501    0 -0.00000000000E+00 -0.00000000000E+00 -0.31526882849E+03  0.31526882849E+03  0.00000000000E+00 0.  1.
          2    1    1    2  501    0  0.38160111297E+01 -0.46033094428E+02  0.37118490343E+03  0.37404791172E+03  0.00000000000E+00 0. -1.
          1    1    1    2  502    0 -0.38160111297E+01  0.46033094428E+02 -0.31213771156E+03  0.31553693714E+03  0.00000000000E+00 0.  1.
</event>
<event>
 4    1  0.3752836E+003  0.3617381E+02  0.7546771E-02  0.1372494E+00
          2   -1    0    0  502    0  0.00000000000E+00  0.00000000000E+00  0.17042432724E+01  0.17042432724E+01  0.00000000000E+00 0. -1.
          1   -1    0    0  501    0 -0.00000000000E+00 -0.00000000000E+00 -0.15054496943E+04  0.15054496943E+04  0.00000000000E+00 0. -1.
          2    1    1    2  501    0 -0.26641608570E+02  0.24469763006E+02 -0.22438181870E+03  0.22727900293E+03  0.00000000000E+00 0. -1.
          1    1    1    2  502    0  0.26641608570E+02 -0.24469763006E+02 -0.12793636323E+04  0.12798749346E+04  0.00000000000E+00 0. -1.
</event>
<event>
 4    1  0.3752836E+003  0.2385301E+02  0.7546771E-02  0.1482056E+00
          2   -1    0    0  502    0  0.00000000000E+00  0.00000000000E+00  0.17067699833E+02  0.17067699833E+02  0.00000000000E+00 0.  1.
          1   -1    0    0  501    0 -0.00000000000E+00 -0.00000000000E+00 -0.71708784416E+03  0.71708784416E+03  0.00000000000E+00 0. -1.
          2    1    1    2  501    0  0.79757754475E+00 -0.23839667515E+02  0.84338470943E+01  0.25300111739E+02  0.00000000000E+00 0.  1.
          1    1    1    2  502    0 -0.79757754475E+00  0.23839667515E+02 -0.70845399142E+03  0.70885543225E+03  0.00000000000E+00 0. -1.
</event>
<event>
 4    1  0.3752836E+003  0.2074054E+02  0.7546771E-02  0.1523002E+00
          2   -1    0    0  502    0  0.00000000000E+00  0.00000000000E+00  0.25029357568E+03  0.25029357568E+03  0.00000000000E+00 0. -1.
          1   -1    0    0  501    0 -0.00000000000E+00 -0.00000000000E+00 -0.50425804285E+02  0.50425804285E+02  0.00000000000E+00 0.  1.
          2    1    1    2  501    0  0.18465621935E+02 -0.94440985910E+01  0.24770900788E+03  0.24857578880E+03  0.00000000000E+00 0. -1.
          1    1    1    2  502    0 -0.18465621935E+02  0.94440985910E+01 -0.47841236484E+02  0.52143591168E+02  0.00000000000E+00 0.  1.
</event>
<event>
 4    1  0.3752836E+003  0.2899607E+02  0.7546771E-02  0.1428526E+00
          2   -1    0    0  502    0  0.00000000000E+00  0.00000000000E+00  0.34869147454E+02  0.34869147454E+02  0.00000000000E+00 0. -1.
          1   -1    0    0  501    0 -0.00000000000E+00 -0.00000000000E+00 -0.55302704863E+02  0.55302704863E+02  0.00000000000E+00 0.  1.
          2    1    1    2  501    0 -0.28345651787E+02 -0.61070467405E+01  0.23642599896E+02  0.37413159783E+02  0.00000000000E+00 0. -1.
          1    1    1    2  502    0  0.28345651787E+02  0.61070467405E+01 -0.44076157305E+02  0.52758692534E+02  0.00000000000E+00 0.  1.
</event>
<event>
 4    1  0.3752836E+003  0.2427206E+02  0.7546771E-02  0.1477114E+00
          2   -1    0    0  502    0  0.00000000000E+00  0.00000000000E+00  0.11611016480E+03  0.11611016480E+03  0.00000000000E+00 0. -1.
          1   -1    0    0  501    0 -0.00000000000E+00 -0.00000000000E+00 -0.54657934240E+03  0.54657934240E+03  0.00000000000E+00 0. -1.
          2    1    1    2  501    0  0.19931520950E+02 -0.13851614318E+02  0.11456863746E+03  0.11711150856E+03  0.00000000000E+00 0. -1.
          1    1    1    2  502    0 -0.19931520950E+02  0.13851614318E+02 -0.54503781507E+03  0.54557799864E+03  0.00000000000E+00 0. -1.
</event>
<event>
 4    1  0.3752836E+003  0.2500735E+02  0.7546771E-02  0.1468721E+00
          2   -1    0    0  502    0  0.00000000000E+00  0.00000000000E+00  0.13188425173E+04  0.13188425173E+04  0.00000000000E+00 0.  1.
          1   -1    0    0  501    0 -0.00000000000E+00 -0.00000000000E+00 -0.16031145811E+02  0.16031145811E+02  0.00000000000E+00 0. -1.
          2    1    1    2  501    0  0.54378146897E+01  0.24408965574E+02  0.13088974986E+04  0.13091363677E+04  0.00000000000E+00 0.  1.
          1    1    1    2  502    0 -0.54378146897E+01 -0.24408965574E+02 -0.60861271456E+01  0.25737295363E+02  0.00000000000E+00 0. -1.
</event>
<event>
 4    1  0.3752836E+003  0.2621490E+02  0.7546771E-02  0.1455658E+00
          2   -1    0    0  502    0  0.00000000000E+00  0.00000000000E+00  0.56125723995E+03  0.56125723995E+03  0.00000000000E+00 0. -1.
          1   -1    0    0  501    0 -0.00000000000E+00 -0.00000000000E+00 -0.12365030018E+01  0.12365030018E+01  0.00000000000E+00 0. -1.
          2    1    1    2  501    0 -0.23825033876E+02 -0.10935652719E+02  0.30779985529E+03  0.30891418170E+03  0.00000000000E+00 0. -1.
          1    1    1    2  502    0  0.23825033876E+02  0.10935652719E+02  0.25222088166E+03  0.25357956126E+03  0.00000000000E+00 0. -1.
</event>
<event>
 4    1  0.3752836E+003  0.2236411E+02  0.7546771E-02  0.1500641E+00
          2   -1    0    0  502    0  0.00000000000E+00  0.00000000000E+00  0.37683075078E+02  0.37683075078E+02  0.00000000000E+00 0. -1.
          1   -1    0    0  501    0 -0.00000000000E+00 -0.00000000000E+00 -0.65932946599E+03  0.65932946599E+03  0.00000000000E+00 0. -1.
          2    1    1    2  501    0  0.21609991499E+02 -0.57586172484E+01  0.34157440175E+02  0.40827492263E+02  0.00000000000E+00 0. -1.
          1    1    1    2  502    0 -0.21609991499E+02  0.57586172484E+01 -0.65580383108E+03  0.65618504880E+03  0.00000000000E+00 0. -1.
</event>
<event>
 4    1  0.3752836E+003  0.5465926E+02  0.7546771E-02  0.1279144E+00
          2   -1    0    0  502    0  0.00000000000E+00  0.00000000000E+00  0.16996547182E+04  0.16996547182E+04  0.00000000000E+00 0.  1.
          1   -1    0    0  501    0 -0.00000000000E+00 -0.00000000000E+00 -0.47964069389E+01  0.47964069389E+01  0.00000000000E+00 0. -1.
          2    1    1    2  501    0 -0.51364297936E+02  0.18690741546E+02  0.15257490753E+04  0.15267278329E+04  0.00000000000E+00 0.  1.
          1    1    1    2  502    0  0.51364297936E+02 -0.18690741546E+02  0.16910923592E+03  0.17772329221E+03  0.00000000000E+00 0. -1.
</event>
<event>
 4    1  0.3752836E+003  0.2732781E+02  0.7546771E-02  0.1444343E+00
          2   -1    0    0  502    0  0.00000000000E+00  0.00000000000E+00  0.12938393755E+02  0.12938393755E+02  0.00000000000E+00 0. -1.
          1   -1    0    0  501    0 -0.00000000000E+00 -0.00000000000E+00 -0.74994611278E+02  0.74994611278E+02  0.00000000000E+00 0.  1.
          2    1    1    2  501    0  0.25339876202E+02 -0.10232302448E+02 -0.99269682487E+01  0.29074972707E+02  0.00000000000E+00 0. -1.
          1    1    1    2  502    0 -0.25339876202E+02  0.10232302448E+02 -0.52129249275E+02  0.58858032326E+02  0.00000000000E+00 0.  1.
</event>
<event>
 4    1  0.3752836E+003  0.2427631E+02  0.7546771E-02  0.1477065E+00
          2   -1    0    0  502    0  0.00000000000E+00  0.00000000000E+00  0.19982750309E+02  0.19982750309E+02  0.00000000000E+00 0. -1.
          1   -1    0    0  501    0 -0.00000000000E+00 -0.00000000000E+00 -0.11261390056E+04  0.11261390056E+04  0.00000000000E+00 0. -1.
          2    1    1    2  501    0  0.23760892142E+02  0.49758495695E+01  0.12429036866E+02  0.27273064216E+02  0.00000000000E+00 0. -1.
          1    1    1    2  502    0 -0.23760892142E+02 -0.49758495695E+01 -0.11185852922E+04  0.11188486917E+04  0.00000000000E+00 0. -1.
</event>
<event>
 4    1  0.3752836E+003  0.2010736E+02  0.7546771E-02  0.1532401E+00
          2   -1    0    0  502    0  0.00000000000E+00  0.00000000000E+00  0.12276681142E+03  0.12276681142E+03  0.00000000000E+00 0.  1.
          1   -1    0    0  501    0 -0.00000000000E+00 -0.00000000000E+00 -0.47539870916E+01  0.47539870916E+01  0.00000000000E+00 0.  1.
          2    1    1    2  501    0  0.97278698851E+01 -0.17597565226E+02  0.94349400810E+02  0.96468208170E+02  0.00000000000E+00 0.  1.
          1    1    1    2  502    0 -0.97278698851E+01  0.17597565226E+02  0.23663423523E+02  0.31052590346E+02  0.00000000000E+00 0.  1.
</event>
<event>
 4    1  0.3752836E+003  0.2720974E+02  0.7546771E-02  0.1445513E+00
          2   -1    0    0  502    0  0.00000000000E+00  0.00000000000E+00  0.77374826459E+02  0.77374826459E+02  0.00000000000E+00 0.  1.
          1   -1    0    0  501    0 -0.00000000000E+00 -0.00000000000E+00 -0.19402110579E+03  0.19402110579E+03  0.00000000000E+00 0.  1.
          2    1    1    2  501    0  0.26250842455E+02  0.71598384169E+01  0.73986385666E+02  0.78831182153E+02  0.00000000000E+00 0.  1.
          1    1    1    2  502    0 -0.26250842455E+02 -0.71598384169E+01 -0.19063266500E+03  0.19256475010E+03  0.00000000000E+00 0.  1.
</event>
<event>
 4    1  0.3752836E+003  0.2126973E+02  0.7546771E-02  0.1515448E+00
          2   -1    0    0  502    0  0.00000000000E+00  0.00000000000E+00  0.49637232361E+03  0.49637232361E+03  0.00000000000E+00 0. -1.
          1   -1    0    0  501    0 -0.00000000000E+00 -0.00000000000E+00 -0.16638878341E+01  0.16638878341E+01  0.00000000000E+00 0.  1.
          2    1    1    2  501    0 -0.19815802257E+02 -0.77288744105E+01  0.41481538689E+03  0.41536033359E+03  0.00000000000E+00 0. -1.
          1    1    1    2  502    0  0.19815802257E+02  0.77288744105E+01  0.79893048885E+02  0.82675877854E+02  0.00000000000E+00 0.  1.
</event>
<event>
 4    1  0.3752836E+003  0.3044418E+02  0.7546771E-02  0.1415775E+00
          2   -1    0    0  502    0  0.00000000000E+00  0.00000000000E+00  0.20547516812E+02  0.20547516812E+02  0.00000000000E+00 0. -1.
          1   -1    0    0  501    0 -0.00000000000E+00 -0.00000000000E+00 -0.14399305977E+03  0.14399305977E+03  0.00000000000E+00 0.  1.
          2    1    1    2  501    0 -0.18208758072E+02 -0.24398554634E+02  0.64543320266E+01  0.31120840937E+02  0.00000000000E+00 0. -1.
          1    1    1    2  502    0  0.18208758072E+02  0.24398554634E+02 -0.12989987498E+03  0.13341973564E+03  0.00000000000E+00 0.  1.
</event>
<event>
 4    1  0.3752836E+003  0.2125870E+02  0.7546771E-02  0.1515603E+00
          2   -1    0    0  502    0  0.00000000000E+00  0.00000000000E+00  0.38838204513E+01  0.38838204513E+01  0.00000000000E+00 0. -1.
          1   -1    0    0  501    0 -0.00000000000E+00 -0.00000000000E+00 -0.13044647121E+03  0.13044647121E+03  0.00000000000E+00 0. -1.
          2    1    1    2  501    0  0.15267517593E+02  0.14793083407E+02 -0.41212206811E+02  0.46372172695E+02  0.00000000000E+00 0. -1.
          1    1    1    2  502    0 -0.15267517593E+02 -0.14793083407E+02 -0.85350443951E+02  0.87958118970E+02  0.00000000000E+00 0. -1.
</event>
<event>
 4    1  0.3752836E+003  0.3188133E+02  0.7546771E-02  0.1403923E+00
          2   -1    0    0  502    0  0.00000000000E+00  0.00000000000E+00  0.18758092866E+04  0.18758092866E+04  0.00000000000E+00 0. -1.
          1   -1    0    0  501    0 -0.00000000000E+00 -0.00000000000E+00 -0.42414962457E+01  0.42414962457E+01  0.00000000000E+00 0.  1.
          2    1    1    2  501    0 -0.26962672395E+02  0.17012748682E+02  0.18137136404E+04  0.18139938227E+04  0.00000000000E+00 0. -1.
          1    1    1    2  502    0  0.26962672395E+02 -0.17012748682E+02  0.57854149955E+02  0.66056960174E+02  0.00000000000E+00 0.  1.
</event>
<event>
 4    1  0.3752836E+003  0.2505821E+02  0.7546771E-02  0.1468153E+00
          2   -1    0    0  502    0  0.00000000000E+00  0.00000000000E+00  0.31320982572E+02  0.31320982572E+02  0.00000000000E+00 0.  1.
          1   -1    0    0  501    0 -0.00000000000E+00 -0.00000000000E+00 -0.35841616593E+03  0.35841616593E+03  0.00000000000E+00 0. -1.
          2    1    1    2  501    0 -0.14327537088E+02  0.20558098907E+02  0.25792660932E+02  0.35960743980E+02  0.00000000000E+00 0.  1.
          1    1    1    2  502    0  0.14327537088E+02 -0.20558098907E+02 -0.35288784429E+03  0.35377640452E+03  0.00000000000E+00 0. -1.
</event>
<event>
 4    1  0.3752836E+003  0.2571874E+02  0.7546771E-02  0.1460921E+00
          2   -1    0    0  502    0  0.00000000000E+00  0.00000000000E+00  0.70546534380E+03  0.70546534380E+03  0.00000000000E+00 0.  1.
          1   -1    0    0  501    0 -0.00000000000E+00 -0.00000000000E+00 -0.54582906258E+02  0.54582906258E+02  0.00000000000E+00 0. -1.
          2    1    1    2  501    0 -0.25479566433E+02 -0.34993329122E+01  0.70218721945E+03  0.70265805680E+03  0.00000000000E+00 0.  1.
          1    1    1    2  502    0  0.25479566433E+02  0.34993329122E+01 -0.51304781900E+02  0.57390193258E+02  0.00000000000E+00 0. -1.
</event>
<event>
 4    1  0.3752836E+003  0.2664331E+02  0.7546771E-02  0.1451224E+00
          2   -1    0    0  502    0  0.00000000000E+00  0.00000000000E+00  0.16260894475E+02  0.16260894475E+02  0.00000000000E+00 0.  1.
          1   -1    0    0  501    0 -0.00000000000E+00 -0.00000000000E+00 -0.58584060421E+03  0.58584060421E+03  0.00000000000E+00 0. -1.
          2    1    1    2  501    0 -0.25959738975E+02  0.59965038607E+01  0.48271440824E+01  0.27077064579E+02  0.00000000000E+00 0.  1.
          1    1    1    2  502    0  0.25959738975E+02 -0.59965038607E+01 -0.57440685382E+03  0.57502443411E+03  0.00000000000E+00 0. -1.
</event>
<event>
 4    1  0.3752836E+003  0.2178672E+02  0.7546771E-02  0.1508322E+00
          2   -1    0    0  502    0  0.00000000000E+00  0.00000000000E+00  0.56388003984E+00  0.56388003984E+00  0.00000000000E+00 0.  1.
          1   -1    0    0  501    0 -0.00000000000E+00 -0.00000000000E+00 -0.93823170245E+03  0.93823170245E+03  0.00000000000E+00 0.  1.
          2    1    1    2  501    0 -0.21783346984E+01  0.21677549171E+02 -0.31833007641E+03  0.31907475429E+03  0.00000000000E+00 0.  1.
          1    1    1    2  502    0  0.21783346984E+01 -0.21677549171E+02 -0.61933774600E+03  0.61972082820E+03  0.00000000000E+00 0.  1.
</event>
<event>
 4    1  0.3752836E+003  0.4357536E+02  0.7546771E-02  0.1328719E+00
          2   -1    0    0  502    0  0.00000000000E+00  0.00000000000E+00  0.23072473528E+03  0.23072473528E+03  0.00000000000E+00 0. -1.
          1   -1    0    0  501    0 -0.00000000000E+00 -0.00000000000E+00 -0.23975288548E+03  0.23975288548E+03  0.00000000000E+00 0.  1.
          2    1    1    2  501    0  0.36501976518E+02  0.23799528856E+02  0.22665206989E+03  0.23080288700E+03  0.00000000000E+00 0. -1.
          1    1    1    2  502    0 -0.36501976518E+02 -0.23799528856E+02 -0.23568022008E+03  0.23967473376E+03  0.00000000000E+00 0.  1.
</event>
<event>
 4    1  0.3752836E+003  0.2354301E+02  0.7546771E-02  0.1485790E+00
          2   -1    0    0  502    0  0.00000000000E+00  0.00000000000E+00  0.93968792109E+03  0.93968792109E+03  0.00000000000E+00 0.  1.
          1   -1    0    0  501    0 -0.00000000000E+00 -0.00000000000E+00 -0.10111711418E+01  0.10111711418E+01  0.00000000000E+00 0. -1.
          2    1    1    2  501    0  0.77727786208E+01  0.22222900957E+02  0.77294821860E+03  0.77330668047E+03  0.00000000000E+00 0.  1.
          1    1    1    2  502    0 -0.77727786208E+01 -0.22222900957E+02  0.16572853135E+03  0.16739241177E+03  0.00000000000E+00 0. -1.
</event>
<event>
 4    1  0.3752836E+003  0.2162252E+02  0.7546771E-02  0.1510560E+00
          2   -1    0    0  502    0  0.00000000000E+00  0.00000000000E+00  0.78051538280E+03  0.78051538280E+03  0.00000000000E+00 0.  1.
          1   -1    0    0  501    0 -0.00000000000E+00 -0.00000000000E+00 -0.69988190156E+00  0.69988190156E+00  0.00000000000E+00 0. -1.
          2    1    1    2  501    0  0.11150852180E+02 -0.18525434194E+02  0.53820140127E+03  0.53863557397E+03  0.00000000000E+00 0.  1.
          1    1    1    2  502    0 -0.11150852180E+02  0.18525434194E+02  0.24161409963E+03  0.24257969073E+03  0.00000000000E+00 0. -1.
</event>
<event>
 4    1  0.3752836E+003  0.2179282E+02  0.7546771E-02  0.1508240E+00
          2   -1    0    0  502    0  0.00000000000E+00  0.00000000000E+00  0.12662845808E+03  0.12662845808E+03  0.00000000000E+00 0. -1.
          1   -1    0    0  501    0 -0.00000000000E+00 -0.00000000000E+00 -0.73601716776E+01  0.73601716776E+01  0.00000000000E+00 0. -1.
          2    1    1    2  501    0 -0.17250571193E+02 -0.13317089808E+02  0.10655052123E+03  0.10875633619E+03  0.00000000000E+00 0. -1.
          1    1    1    2  502    0  0.17250571193E+02  0.13317089808E+02  0.12717765165E+02  0.25232293559E+02  0.00000000000E+00 0. -1.
</event>
<event>
 4    1  0.3752836E+003  0.2000272E+02  0.7546771E-02  0.1533994E+00
          2   -1    0    0  502    0  0.00000000000E+00  0.00000000000E+00  0.23110555520E+01  0.23110555520E+01  0.00000000000E+00 0.  1.
          1   -1    0    0  501    0 -0.00000000000E+00 -0.00000000000E+00 -0.14306654517E+04  0.14306654517E+04  0.00000000000E+00 0.  1.
          2    1    1    2  501    0  0.41891903595E+01 -0.19559131255E+02 -0.42438364009E+02  0.46916134443E+02  0.00000000000E+00 0.  1.
          1    1    1    2  502    0 -0.41891903595E+01  0.19559131255E+02 -0.13859160322E+04  0.13860603728E+04  0.00000000000E+00 0.  1.
</event>
<event>
 4    1  0.3752836E+003  0.2589198E+02  0.7546771E-02  0.1459067E+00
          2   -1    0    0  502    0  0.00000000000E+00  0.00000000000E+00  0.73543680019E+03  0.73543680019E+03  0.00000000000E+00 0. -1.
          1   -1    0    0  501    0 -0.00000000000E+00 -0.00000000000E+00 -0.42228765977E+01  0.42228765977E+01  0.00000000000E+00 0.  1.
          2    1    1    2  501    0 -0.19259409476E+02 -0.17305192032E+02  0.69309702520E+03  0.69358047901E+03  0.00000000000E+00 0. -1.
          1    1    1    2  502    0  0.19259409476E+02  0.17305192032E+02  0.38116898390E+02  0.46079197774E+02  0.00000000000E+00 0.  1.
</event>
<event>
 4    1  0.3752836E+003  0.4165083E+02  0.7546771E-02  0.1339074E+00
          2   -1    0    0  502    0  0.00000000000E+00  0.00000000000E+00  0.20143158323E+04  0.20143158323E+04  0.00000000000E+00 0.  1.
          1   -1    0    0  501    0 -0.00000000000E+00 -0.00000000000E+00 -0.40032818385E+01  0.40032818385E+01  0.00000000000E+00 0. -1.
          2    1    1    2  501    0 -0.40692618558E+02 -0.88827275181E+01  0.18991991168E+04  0.18996557786E+04  0.00000000000E+00 0.  1.
          1    1    1    2  502    0  0.40692618558E+02  0.88827275181E+01  0.11111343372E+03  0.11866333556E+03  0.00000000000E+00 0. -1.
</event>
<event>
 4    1  0.3752836E+003  0.2128938E+02  0.7546771E-02  0.1515173E+00
          2   -1    0    0  502    0  0.00000000000E+00  0.00000000000E+00  0.23912184762E+03  0.23912184762E+03  0.00000000000E+00 0.  1.
          1   -1    0    0  501    0 -0.00000000000E+00 -0.00000000000E+00 -0.10301348184E+03  0.10301348184E+03  0.00000000000E+00 0.  1.
          2    1    1    2  501    0  0.12696654583E+02 -0.17088966292E+02  0.23754073650E+03  0.23849284959E+03  0.00000000000E+00 0.  1.
          1    1    1    2  502    0 -0.12696654583E+02  0.17088966292E+02 -0.10143237071E+03  0.10364247987E+03  0.00000000000E+00 0.  1.
</event>
<event>
 4    1  0.3752836E+003  0.2273584E+02  0.7546771E-02  0.1495842E+00
          2   -1    0    0  502    0  0.00000000000E+00  0.00000000000E+00  0.14311856986E+04  0.14311856986E+04  0.00000000000E+00 0. -1.
          1   -1    0    0  501    0 -0.00000000000E+00 -0.00000000000E+00 -0.74766269199E+01  0.74766269199E+01  0.00000000000E+00 0.  1.
          2    1    1    2  501    0  0.21758350627E+02  0.65948942938E+01  0.14135958599E+04  0.14137786862E+04  0.00000000000E+00 0. -1.
          1    1    1    2  502    0 -0.21758350627E+02 -0.65948942938E+01  0.10113211776E+02  0.24883639307E+02  0.00000000000E+00 0.  1.
</event>
<event>
 4    1  0.3752836E+003  0.2166362E+02  0.7546771E-02  0.1509997E+00
          2   -1    0    0  502    0  0.00000000000E+00  0.00000000000E+00  0.18227646340E+03  0.18227646340E+03  0.00000000000E+00 0. -1.
          1   -1    0    0  501    0 -0.00000000000E+00 -0.00000000000E+00 -0.55001511146E+02  0.55001511146E+02  0.00000000000E+00 0. -1.
          2    1    1    2  501    0  0.20517323887E+02  0.69535365408E+01  0.17946632138E+03  0.18076911451E+03  0.00000000000E+00 0. -1.
          1    1    1    2  502    0 -0.20517323887E+02 -0.69535365408E+01 -0.52191369135E+02  0.56508860031E+02  0.00000000000E+00 0. -1.
</event>
<event>
 4    1  0.3752836E+003  0.2298666E+02  0.7546771E-02  0.1492666E+00
          2   -1    0    0  502    0  0.00000000000E+00  0.00000000000E+00  0.13554158768E+03  0.13554158768E+03  0.00000000000E+00 0.  1.
          1   -1    0    0  501    0 -0.00000000000E+00 -0.00000000000E+00 -0.11244367899E+03  0.11244367899E+03  0.00000000000E+00 0. -1.
          2    1    1    2  501    0  0.97744702516E+01  0.20804958717E+02  0.13337326399E+03  0.13533962511E+03  0.00000000000E+00 0.  1.
          1    1    1    2  502    0 -0.97744702516E+01 -0.20804958717E+02 -0.11027535530E+03  0.11264564156E+03  0.00000000000E+00 0. -1.
</event>
<event>
 4    1  0.3752836E+003  0.2168885E+02  0.7546771E-02  0.1509653E+00
          2   -1    0    0  502    0  0.00000000000E+00  0.00000000000E+00  0.62963052283E+03  0.62963052283E+03  0.00000000000E+00 0.  1.
          1   -1    0    0  501    0 -0.00000000000E+00 -0.00000000000E+00 -0.17222403505E+01  0.17222403505E+01  0.00000000000E+00 0.  1.
          2    1    1    2  501    0  0.86237048698E+01 -0.19900698151E+02  0.55148801532E+03  0.55191433857E+03  0.00000000000E+00 0.  1.
          1    1    1    2  502    0 -0.86237048698E+01  0.19900698151E+02  0.76420267157E+02  0.79438424612E+02  0.00000000000E+00 0.  1.
</event>
<event>
 4    1  0.3752836E+003  0.2221079E+02  0.7546771E-02  0.1502653E+00
          2   -1    0    0  502    0  0.00000000000E+00  0.00000000000E+00  0.64431024510E+03  0.64431024510E+03  0.00000000000E+00 0.  1.
          1   -1    0    0  501    0 -0.00000000000E+00 -0.00000000000E+00 -0.43495556690E+01  0.43495556690E+01  0.00000000000E+00 0. -1.
          2    1    1    2  501    0  0.11291592511E+01  0.22182073243E+02  0.61438354236E+03  0.61478488636E+03  0.00000000000E+00 0.  1.
          1    1    1    2  502    0 -0.11291592511E+01 -0.22182073243E+02  0.25577147073E+02  0.33874914411E+02  0.00000000000E+00 0. -1.
</event>
<event>
 4    1  0.3752836E+003  0.2898061E+02  0.7546771E-02  0.1428667E+00
          2   -1    0    0  502    0  0.00000000000E+00  0.00000000000E+00  0.26842647869E+01  0.26842647869E+01  0.00000000000E+00 0.  1.
          1   -1    0    0  501    0 -0.00000000000E+00 -0.00000000000E+00 -0.77064325449E+03  0.77064325449E+03  0.00000000000E+00 0.  1.
          2    1    1    2  501    0 -0.27861615428E+02  0.79753465186E+01 -0.85974750558E+02  0.90727798937E+02  0.00000000000E+00 0.  1.
          1    1    1    2  502    0  0.27861615428E+02 -0.79753465186E+01 -0.68198423914E+03  0.68259972034E+03  0.00000000000E+00 0.  1.
</event>
<event>
 4    1  0.3752836E+003  0.2212048E+02  0.7546771E-02  0.1503848E+00
          2   -1    0    0  502    0  0.00000000000E+00  0.00000000000E+00  0.34361420235E+00  0.34361420235E+00  0.00000000000E+00 0. -1.
          1   -1    0    0  501    0 -0.00000000000E+00 -0.00000000000E+00 -0.16266469296E+04  0.16266469296E+04  0.00000000000E+00 0. -1.
          2    1    1    2  501    0  0.20302483362E+02  0.87820748430E+01 -0.52604042124E+03  0.52650530904E+03  0.00000000000E+00 0. -1.
          1    1    1    2  502    0 -0.20302483362E+02 -0.87820748430E+01 -0.11002628942E+04  0.11004852348E+04  0.00000000000E+00 0. -1.
</event>
<event>
 4    1  0.3752836E+003  0.2416204E+02  0.7546771E-02  0.1478400E+00
          2   -1    0    0  502    0  0.00000000000E+00  0.00000000000E+00  0.70143158595E+01  0.70143158595E+01  0.00000000000E+00 0.  1.
          1   -1    0    0  501    0 -0.00000000000E+00 -0.00000000000E+00 -0.45055967960E+03  0.45055967960E+03  0.00000000000E+00 0.  1.
          2    1    1    2  501    0 -0.23278190475E+02  0.64753295113E+01 -0.15195202705E+02  0.28542919075E+02  0.00000000000E+00 0.  1.
          1    1    1    2  502    0  0.23278190475E+02 -0.64753295113E+01 -0.42835016104E+03  0.42903107639E+03  0.00000000000E+00 0.  1.
</event>
<event>
 4    1  0.3752836E+003  0.2070293E+02  0.7546771E-02  0.1523549E+00
          2   -1    0    0  502    0  0.00000000000E+00  0.00000000000E+00  0.94411908392E+02  0.94411908392E+02  0.00000000000E+00 0. -1.
          1   -1    0    0  501    0 -0.00000000000E+00 -0.00000000000E+00 -0.78506970668E+01  0.78506970668E+01  0.00000000000E+00 0. -1.
          2    1    1    2  501    0 -0.58476827536E+01  0.19859906535E+02  0.76485761171E+02  0.79238140710E+02  0.00000000000E+00 0. -1.
          1    1    1    2  502    0  0.58476827536E+01 -0.19859906535E+02  0.10075450154E+02  0.23024464749E+02  0.00000000000E+00 0. -1.
</event>
<event>
 4    1  0.3752836E+003  0.9380894E+02  0.7546771E-02  0.1174991E+00
          2   -1    0    0  502    0  0.00000000000E+00  0.00000000000E+00  0.68281390091E+02  0.68281390091E+02  0.00000000000E+00 0. -1.
          1   -1    0    0  501    0 -0.00000000000E+00 -0.00000000000E+00 -0.23977099810E+03  0.23977099810E+03  0.00000000000E+00 0.  1.
          2    1    1    2  501    0 -0.57704157532E+02  0.73961799438E+02  0.19002790999E+02  0.95714281267E+02  0.00000000000E+00 0. -1.
          1    1    1    2  502    0  0.57704157532E+02 -0.73961799438E+02 -0.19049239901E+03  0.21233810693E+03  0.00000000000E+00 0.  1.
</event>
<event>
 4    1  0.3752836E+003  0.2255405E+02  0.7546771E-02  0.1498175E+00
          2   -1    0    0  502    0  0.00000000000E+00  0.00000000000E+00  0.44377247881E+03  0.44377247881E+03  0.00000000000E+00 0. -1.
          1   -1    0    0  501    0 -0.00000000000E+00 -0.00000000000E+00 -0.38308636484E+03  0.38308636484E+03  0.00000000000E+00 0. -1.
          2    1    1    2  501    0 -0.15643245117E+02 -0.16247279997E+02  0.44315348160E+03  0.44372704840E+03  0.00000000000E+00 0. -1.
          1    1    1    2  502    0  0.15643245117E+02  0.16247279997E+02 -0.38246736763E+03  0.38313179525E+03  0.00000000000E+00 0. -1.
</event>
<event>
 4    1  0.3752836E+003  0.5392650E+02  0.7546771E-02  0.1281991E+00
          2   -1    0    0  502    0  0.00000000000E+00  0.00000000000E+00  0.23961856214E+02  0.23961856214E+02  0.00000000000E+00 0. -1.
          1   -1    0    0  501    0 -0.00000000000E+00 -0.00000000000E+00 -0.10372125125E+04  0.10372125125E+04  0.00000000000E+00 0.  1.
          2    1    1    2  501    0  0.47292375646E+02  0.25913288592E+02 -0.80450513761E+01  0.54523299345E+02  0.00000000000E+00 0. -1.
          1    1    1    2  502    0 -0.47292375646E+02 -0.25913288592E+02 -0.10052056049E+04  0.10066510694E+04  0.00000000000E+00 0.  1.
</event>
<event>
 4    1  0.3752836E+003  0.2617936E+02  0.7546771E-02  0.1456030E+00
          2   -1    0    0  502    0  0.00000000000E+00  0.00000000000E+00  0.24976818408E+03  0.24976818408E+03  0.00000000000E+00 0.  1.
          1   -1    0    0  501    0 -0.00000000000E+00 -0.00000000000E+00 -0.45986840163E+02  0.45986840163E+02  0.00000000000E+00 0. -1.
          2    1    1    2  501    0  0.64753206078E+00  0.26171346795E+02  0.24528849577E+03  0.24668158596E+03  0.00000000000E+00 0.  1.
          1    1    1    2  502    0 -0.64753206078E+00 -0.26171346795E+02 -0.41507151852E+02  0.49073438291E+02  0.00000000000E+00 0. -1.
</event>
<event>
 4    1  0.3752836E+003  0.2034719E+02  0.7546771E-02  0.1528793E+00
          2   -1    0    0  502    0  0.00000000000E+00  0.00000000000E+00  0.30919375514E+02  0.30919375514E+02  0.00000000000E+00 0.  1.
          1   -1    0    0  501    0 -0.00000000000E+00 -0.00000000000E+00 -0.79573708638E+03  0.79573708638E+03  0.00000000000E+00 0. -1.
          2    1    1    2  501    0  0.91994991460E+01  0.18148761438E+02  0.27427068225E+02  0.34150437738E+02  0.00000000000E+00 0.  1.
          1    1    1    2  502    0 -0.91994991460E+01 -0.18148761438E+02 -0.79224477909E+03  0.79250602416E+03  0.00000000000E+00 0. -1.
</event>
<event>
 4    1  0.3752836E+003  0.2557701E+02  0.7546771E-02  0.1462451E+00
          2   -1    0    0  502    0  0.00000000000E+00  0.00000000000E+00  0.14444090589E+03  0.14444090589E+03  0.00000000000E+00 0.  1.
          1   -1    0    0  501    0 -0.00000000000E+00 -0.00000000000E+00 -0.22601551240E+03  0.22601551240E+03  0.00000000000E+00 0. -1.
          2    1    1    2  501    0  0.47209877643E+01  0.25137537660E+02  0.14257564107E+03  0.14485163772E+03  0.00000000000E+00 0.  1.
          1    1    1    2  502    0 -0.47209877643E+01 -0.25137537660E+02 -0.22415024757E+03  0.22560478056E+03  0.00000000000E+00 0. -1.
</event>
<event>
 4    1  0.3752836E+003  0.2343999E+02  0.7546771E-02  0.1487046E+00
          2   -1    0    0  502    0  0.00000000000E+00  0.00000000000E+00  0.17270900179E+04  0.17270900179E+04  0.00000000000E+00 0.  1.
          1   -1    0    0  501    0 -0.00000000000E+00 -0.00000000000E+00 -0.81540433389E+00  0.81540433389E+00  0.00000000000E+00 0.  1.
          2    1    1    2  501    0  0.60387139238E+01 -0.22648775729E+02  0.15378253493E+04  0.15380039786E+04  0.00000000000E+00 0.  1.
          1    1    1    2  502    0 -0.60387139238E+01  0.22648775729E+02  0.18844926420E+03  0.18990144361E+03  0.00000000000E+00 0.  1.
</event>
<event>
 4    1  0.3752836E+003  0.2369846E+02  0.7546771E-02  0.1483909E+00
          2   -1    0    0  502    0  0.00000000000E+00  0.00000000000E+00  0.99874101762E+03  0.99874101762E+03  0.00000000000E+00 0. -1.
          1   -1    0    0  501    0 -0.00000000000E+00 -0.00000000000E+00 -0.35192905344E+01  0.35192905344E+01  0.00000000000E+00 0.  1.
          2    1    1    2  501    0  0.99715246359E+00 -0.23677471599E+02  0.95696339232E+03  0.95725678436E+03  0.00000000000E+00 0. -1.
          1    1    1    2  502    0 -0.99715246359E+00  0.23677471599E+02  0.38258334770E+02  0.45003523793E+02  0.00000000000E+00 0.  1.
</event>
<event>
 4    1  0.3752836E+003  0.5665970E+02  0.7546771E-02  0.1271624E+00
          2   -1    0    0  502    0  0.00000000000E+00  0.00000000000E+00  0.32928896629E+04  0.32928896629E+04  0.00000000000E+00 0.  1.
          1   -1    0    0  501    0 -0.00000000000E+00 -0.00000000000E+00 -0.41399440952E+03  0.41399440952E+03  0.00000000000E+00 0.  1.
          2    1    1    2  501    0  0.41088189538E+02 -0.39013867027E+02  0.32907060194E+04  0.32911937693E+04  0.00000000000E+00 0.  1.
          1    1    1    2  502    0 -0.41088189538E+02  0.39013867027E+02 -0.41181076598E+03  0.41569030314E+03  0.00000000000E+00 0.  1.
</event>
<event>
 4    1  0.3752836E+003  0.2205276E+02  0.7546771E-02  0.1504748E+00
          2   -1    0    0  502    0  0.00000000000E+00  0.00000000000E+00  0.40423053100E+02  0.40423053100E+02  0.00000000000E+00 0.  1.
          1   -1    0    0  501    0 -0.00000000000E+00 -0.00000000000E+00 -0.31256647271E+03  0.31256647271E+03  0.00000000000E+00 0.  1.
          2    1    1    2  501    0  0.21285362164E+01 -0.21949800165E+02  0.36993029691E+02  0.43067489356E+02  0.00000000000E+00 0.  1.
          1    1    1    2  502    0 -0.21285362164E+01  0.21949800165E+02 -0.30913644930E+03  0.30992203646E+03  0.00000000000E+00 0.  1.
</event>
<event>
 4    1  0.3752836E+003  0.2560910E+02  0.7546771E-02  0.1462103E+00
          2   -1    0    0  502    0  0.00000000000E+00  0.00000000000E+00  0.10856414206E+02  0.10856414206E+02  0.00000000000E+00 0. -1.
          1   -1    0    0  501    0 -0.00000000000E+00 -0.00000000000E+00 -0.60635407273E+02  0.60635407273E+02  0.00000000000E+00 0.  1.
          2    1    1    2  501    0  0.21375094650E+02  0.14104286761E+02 -0.27073576804E+02  0.37266662546E+02  0.00000000000E+00 0. -1.
          1    1    1    2  502    0 -0.21375094650E+02 -0.14104286761E+02 -0.22705416263E+02  0.34225158934E+02  0.00000000000E+00 0.  1.
</event>
<event>
 4    1  0.3752836E+003  0.2690704E+02  0.7546771E-02  0.1448544E+00
          2   -1    0    0  502    0  0.00000000000E+00  0.00000000000E+00  0.13957831439E+04  0.13957831439E+04  0.00000000000E+00 0.  1.
          1   -1    0    0  501    0 -0.00000000000E+00 -0.00000000000E+00 -0.36262721743E+01  0.36262721743E+01  0.00000000000E+00 0.  1.
          2    1    1    2  501    0  0.21350226410E+02  0.16375481620E+02  0.13438105315E+04  0.13440798835E+04  0.00000000000E+00 0.  1.
          1    1    1    2  502    0 -0.21350226410E+02 -0.16375481620E+02  0.48346340263E+02  0.55329532646E+02  0.00000000000E+00 0.  1.
</event>
<event>
 4    1  0.3752836E+003  0.4145885E+02  0.7546771E-02  0.1340143E+00
          2   -1    0    0  502    0  0.00000000000E+00  0.00000000000E+00  0.57949243286E+03  0.57949243286E+03  0.00000000000E+00 0. -1.
          1   -1    0    0  501    0 -0.00000000000E+00 -0.00000000000E+00 -0.21012062843E+03  0.21012062843E+03  0.00000000000E+00 0.  1.
          2    1    1    2  501    0  0.41137916574E+02 -0.51485890893E+01  0.57669594347E+03  0.57818426766E+03  0.00000000000E+00 0. -1.
          1    1    1    2  502    0 -0.41137916574E+02  0.51485890893E+01 -0.20732413904E+03  0.21142879363E+03  0.00000000000E+00 0.  1.
</event>
<event>
 4    1  0.3752836E+003  0.2248077E+02  0.7546771E-02  0.1499123E+00
          2   -1    0    0  502    0  0.00000000000E+00  0.00000000000E+00  0.22328959002E+03  0.22328959002E+03  0.00000000000E+00 0. -1.
          1   -1    0    0  501    0 -0.00000000000E+00 -0.00000000000E+00 -0.21750198032E+02  0.21750198032E+02  0.00000000000E+00 0. -1.
          2    1    1    2  501    0 -0.46564243226E+01 -0.21993242651E+02  0.21673970165E+03  0.21790246277E+03  0.00000000000E+00 0. -1.
          1    1    1    2  502    0  0.46564243226E+01  0.21993242651E+02 -0.15200309660E+02  0.27137325284E+02  0.00000000000E+00 0. -1.
</event>
<event>
 4    1  0.3752836E+003  0.4590037E+02  0.7546771E-02  0.1316998E+00
          2   -1    0    0  502    0  0.00000000000E+00  0.00000000000E+00  0.16823183889E+03  0.16823183889E+03  0.00000000000E+00 0.  1.
          1   -1    0    0  501    0 -0.00000000000E+00 -0.00000000000E+00 -0.48576093771E+03  0.48576093771E+03  0.00000000000E+00 0.  1.
          2    1    1    2  501    0 -0.32856208837E+02 -0.32051732822E+02  0.16398915014E+03  0.17029176551E+03  0.00000000000E+00 0.  1.
          1    1    1    2  502    0  0.32856208837E+02  0.32051732822E+02 -0.48151824897E+03  0.48370101108E+03  0.00000000000E+00 0.  1.
</event>
<event>
 4    1  0.3752836E+003  0.4553709E+02  0.7546771E-02  0.1318775E+00
          2   -1    0    0  502    0  0.00000000000E+00  0.00000000000E+00  0.43267250049E+01  0.43267250049E+01  0.00000000000E+00 0.  1.
          1   -1    0    0  501    0 -0.00000000000E+00 -0.00000000000E+00 -0.10948701092E+04  0.10948701092E+04  0.00000000000E+00 0. -1.
          2    1    1    2  501    0  0.18484049565E+02  0.41616903402E+02 -0.13315803837E+03  0.14072913671E+03  0.00000000000E+00 0.  1.
          1    1    1    2  502    0 -0.18484049565E+02 -0.41616903402E+02 -0.95738534580E+03  0.95846769747E+03  0.00000000000E+00 0. -1.
</event>
<event>
 4    1  0.3752836E+003  0.2620847E+02  0.7546771E-02  0.1455725E+00
          2   -1    0    0  502    0  0.00000000000E+00  0.00000000000E+00  0.55950245358E+03  0.55950245358E+03  0.00000000000E+00 0.  1.
          1   -1    0    0  501    0 -0.00000000000E+00 -0.00000000000E+00 -0.19260524957E+03  0.19260524957E+03  0.00000000000E+00 0.  1.
          2    1    1    2  501    0 -0.12462968530E+02  0.23055551201E+02  0.55830205063E+03  0.55891686659E+03  0.00000000000E+00 0.  1.
          1    1    1    2  502    0  0.12462968530E+02 -0.23055551201E+02 -0.19140484662E+03  0.19319083657E+03  0.00000000000E+00 0.  1.
</event>
<event>
 4    1  0.3752836E+003  0.2047403E+02  0.7546771E-02  0.1526908E+00
          2   -1    0    0  502    0  0.00000000000E+00  0.00000000000E+00  0.86104287231E+03  0.86104287231E+03  0.00000000000E+00 0. -1.
          1   -1    0    0  501    0 -0.00000000000E+00 -0.00000000000E+00 -0.12525056938E+04  0.12525056938E+04  0.00000000000E+00 0.  1.
          2    1    1    2  501    0 -0.11697267499E+02 -0.16803569954E+02  0.86083747405E+03  0.86108091534E+03  0.00000000000E+00 0. -1.
          1    1    1    2  502    0  0.11697267499E+02  0.16803569954E+02 -0.12523002955E+04  0.12524676507E+04  0.00000000000E+00 0.  1.
</event>
<event>
 4    1  0.3752836E+003  0.2955930E+02  0.7546771E-02  0.1423465E+00
          2   -1    0    0  502    0  0.00000000000E+00  0.00000000000E+00  0.21050021626E+03  0.21050021626E+03  0.00000000000E+00 0. -1.
          1   -1    0    0  501    0 -0.00000000000E+00 -0.00000000000E+00 -0.15887291688E+03  0.15887291688E+03  0.00000000000E+00 0.  1.
          2    1    1    2  501    0  0.52833977318E+01  0.29083293723E+02  0.20807161569E+03  0.21016077065E+03  0.00000000000E+00 0. -1.
          1    1    1    2  502    0 -0.52833977318E+01 -0.29083293723E+02 -0.15644431631E+03  0.15921236250E+03  0.00000000000E+00 0.  1.
</event>
<event>
 4    1  0.3752836E+003  0.2176169E+02  0.7546771E-02  0.1508662E+00
          2   -1    0    0  502    0  0.00000000000E+00  0.00000000000E+00  0.27378440059E+03  0.27378440059E+03  0.00000000000E+00 0.  1.
          1   -1    0    0  501    0 -0.00000000000E+00 -0.00000000000E+00 -0.93533554069E+01  0.93533554069E+01  0.00000000000E+00 0. -1.
          2    1    1    2  501    0  0.20871624697E+02 -0.61600635019E+01  0.26002558685E+03  0.26093462192E+03  0.00000000000E+00 0.  1.
          1    1    1    2  502    0 -0.20871624697E+02  0.61600635019E+01  0.44054583369E+01  0.22203134081E+02  0.00000000000E+00 0. -1.
</event>
<event>
 4    1  0.3752836E+003  0.2008299E+02  0.7546771E-02  0.1532771E+00
          2   -1    0    0  502    0  0.00000000000E+00  0.00000000000E+00  0.10720239781E+04  0.10720239781E+04  0.00000000000E+00 0.  1.
          1   -1    0    0  501    0 -0.00000000000E+00 -0.00000000000E+00 -0.88132783292E+02  0.88132783292E+02  0.00000000000E+00 0. -1.
          2    1    1    2  501    0 -0.18918321614E+02  0.67397110140E+01  0.10707845088E+04  0.10709728245E+04  0.00000000000E+00 0.  1.
          1    1    1    2  502    0  0.18918321614E+02 -0.67397110140E+01 -0.86893313936E+02  0.89183936917E+02  0.00000000000E+00 0. -1.
</event>
<event>
 4    1  0.3752836E+003  0.2985133E+02  0.7546771E-02  0.1420893E+00
          2   -1    0    0  502    0  0.00000000000E+00  0.00000000000E+00  0.19189420715E+02  0.19189420715E+02  0.00000000000E+00 0.  1.
          1   -1    0    0  501    0 -0.00000000000E+00 -0.00000000000E+00 -0.10842072994E+03  0.10842072994E+03  0.00000000000E+00 0.  1.
          2    1    1    2  501    0 -0.18808829727E+02  0.23180379785E+02  0.36276864123E+01  0.30070952619E+02  0.00000000000E+00 0.  1.
          1    1    1    2  502    0  0.18808829727E+02 -0.23180379785E+02 -0.92858995638E+02  0.97539198036E+02  0.00000000000E+00 0.  1.
</event>
<event>
 4    1  0.3752836E+003  0.3873415E+02  0.7546771E-02  0.1356068E+00
          2   -1    0    0  502    0  0.00000000000E+00  0.00000000000E+00  0.61518584131E+03  0.61518584131E+03  0.00000000000E+00 0.  1.
          1   -1    0    0  501    0 -0.00000000000E+00 -0.00000000000E+00 -0.62807687426E+01  0.62807687426E+01  0.00000000000E+00 0.  1.
          2    1    1    2  501    0 -0.17815662203E+02 -0.34393850256E+02  0.54748065361E+03  0.54884916036E+03  0.00000000000E+00 0.  1.
          1    1    1    2  502    0  0.17815662203E+02  0.34393850256E+02  0.61424418966E+02  0.72617449697E+02  0.00000000000E+00 0.  1.
</event>
<event>
 4    1  0.3752836E+003  0.2704143E+02  0.7546771E-02  0.1447192E+00
          2   -1    0    0  502    0  0.00000000000E+00  0.00000000000E+00  0.52121610264E+01  0.52121610264E+01  0.00000000000E+00 0.  1.
          1   -1    0    0  501    0 -0.00000000000E+00 -0.00000000000E+00 -0.18273273112E+04  0.18273273112E+04  0.00000000000E+00 0. -1.
          2    1    1    2  501    0 -0.23342430258E+02  0.13651740862E+02 -0.30663936258E+02  0.40884178673E+02  0.00000000000E+00 0.  1.
          1    1    1    2  502    0  0.23342430258E+02 -0.13651740862E+02 -0.17914512139E+04  0.17916552935E+04  0.00000000000E+00 0. -1.
</event>
<event>
 4    1  0.3752836E+003  0.2529042E+02  0.7546771E-02  0.1465581E+00
          2   -1    0    0  502    0  0.00000000000E+00  0.00000000000E+00  0.10147887223E+02  0.10147887223E+02  0.00000000000E+00 0. -1.
          1   -1    0    0  501    0 -0.00000000000E+00 -0.00000000000E+00 -0.19936799430E+03  0.19936799430E+03  0.00000000000E+00 0. -1.
          2    1    1    2  501    0 -0.24679931732E+02  0.55232577307E+01 -0.79796808391E+01  0.26519440276E+02  0.00000000000E+00 0. -1.
          1    1    1    2  502    0  0.24679931732E+02 -0.55232577307E+01 -0.18124042624E+03  0.18299644125E+03  0.00000000000E+00 0. -1.
</event>
<event>
 4    1  0.3752836E+003  0.3627424E+02  0.7546771E-02  0.1371820E+00
          2   -1    0    0  502    0  0.00000000000E+00  0.00000000000E+00  0.54210387662E+03  0.54210387662E+03  0.00000000000E+00 0. -1.
          1   -1    0    0  501    0 -0.00000000000E+00 -0.00000000000E+00 -0.28983673684E+03  0.28983673684E+03  0.00000000000E+00 0. -1.
          2    1    1    2  501    0  0.15369219629E+01 -0.36241663226E+02  0.54035843596E+03  0.54157461129E+03  0.00000000000E+00 0. -1.
          1    1    1    2  502    0 -0.15369219629E+01  0.36241663226E+02 -0.28809129618E+03  0.29036600217E+03  0.00000000000E+00 0. -1.
</event>
<event>
 4    1  0.3752836E+003  0.2083106E+02  0.7546771E-02  0.1521691E+00
          2   -1    0    0  502    0  0.00000000000E+00  0.00000000000E+00  0.99918692832E+01  0.99918692832E+01  0.00000000000E+00 0. -1.
          1   -1    0    0  501    0 -0.00000000000E+00 -0.00000000000E+00 -0.12904508182E+03  0.12904508182E+03  0.00000000000E+00 0.  1.
          2    1    1    2  501    0 -0.66937265942E+01 -0.19726308326E+02 -0.29016188384E+01  0.21032180291E+02  0.00000000000E+00 0. -1.
          1    1    1    2  502    0  0.66937265942E+01  0.19726308326E+02 -0.11615159370E+03  0.11800477082E+03  0.00000000000E+00 0.  1.
</event>
<event>
 4    1  0.3752836E+003  0.2272380E+02  0.7546771E-02  0.1495996E+00
          2   -1    0    0  502    0  0.00000000000E+00  0.00000000000E+00  0.10116700168E+02  0.10116700168E+02  0.00000000000E+00 0. -1.
          1   -1    0    0  501    0 -0.00000000000E+00 -0.00000000000E+00 -0.97830526102E+03  0.97830526102E+03  0.00000000000E+00 0.  1.
          2    1    1    2  501    0  0.94525075741E+01  0.20664491431E+02 -0.29483133622E+01  0.22914267547E+02  0.00000000000E+00 0. -1.
          1    1    1    2  502    0 -0.94525075741E+01 -0.20664491431E+02 -0.96524024749E+03  0.96550769364E+03  0.00000000000E+00 0.  1.
</event>
<event>
 4    1  0.3752836E+003  0.2107009E+02  0.7546771E-02  0.1518266E+00
          2   -1    0    0  502    0  0.00000000000E+00  0.00000000000E+00  0.85515491390E+01  0.85515491390E+01  0.00000000000E+00 0.  1.
          1   -1    0    0  501    0 -0.00000000000E+00 -0.00000000000E+00 -0.21310729305E+03  0.21310729305E+03  0.00000000000E+00 0.  1.
          2    1    1    2  501    0  0.17384044793E+02 -0.11905615243E+02 -0.58885710127E+01  0.21877476003E+02  0.00000000000E+00 0.  1.
          1    1    1    2  502    0 -0.17384044793E+02  0.11905615243E+02 -0.19866717290E+03  0.19978136618E+03  0.00000000000E+00 0.  1.
</event>
<event>
 4    1  0.3752836E+003  0.2949305E+02  0.7546771E-02  0.1424054E+00
          2   -1    0    0  502    0  0.00000000000E+00  0.00000000000E+00  0.17979503697E+04  0.17979503697E+04  0.00000000000E+00 0. -1.
          1   -1    0    0  501    0 -0.00000000000E+00 -0.00000000000E+00 -0.50827123862E+00  0.50827123862E+00  0.00000000000E+00 0. -1.
          2    1    1    2  501    0 -0.17850479264E+02 -0.23477658575E+02  0.10960504329E+04  0.10964471676E+04  0.00000000000E+00 0. -1.
          1    1    1    2  502    0  0.17850479264E+02  0.23477658575E+02  0.70139166561E+03  0.70201147330E+03  0.00000000000E+00 0. -1.
</event>
<event>
 4    1  0.3752836E+003  0.2039150E+02  0.7546771E-02  0.1528133E+00
          2   -1    0    0  502    0  0.00000000000E+00  0.00000000000E+00  0.70382931816E+03  0.70382931816E+03  0.00000000000E+00 0. -1.
          1   -1    0    0  501    0 -0.00000000000E+00 -0.00000000000E+00 -0.16833563052E+02  0.16833563052E+02  0.00000000000E+00 0.  1.
          2    1    1    2  501    0 -0.19755071175E+02 -0.50547551819E+01  0.69744978567E+03  0.69774781756E+03  0.00000000000E+00 0. -1.
          1    1    1    2  502    0  0.19755071175E+02  0.50547551819E+01 -0.10454030560E+02  0.22915063648E+02  0.00000000000E+00 0.  1.
</event>
<event>
 4    1  0.3752836E+003  0.2157726E+02  0.7546771E-02  0.1511180E+00
          2   -1    0    0  502    0  0.00000000000E+00  0.00000000000E+00  0.17162447396E+01  0.17162447396E+01  0.00000000000E+00 0. -1.
          1   -1    0    0  501    0 -0.00000000000E+00 -0.00000000000E+00 -0.84479105026E+03  0.84479105026E+03  0.00000000000E+00 0.  1.
          2    1    1    2  501    0  0.30166215864E+01  0.21365345805E+02 -0.72800403856E+02  0.75930736917E+02  0.00000000000E+00 0. -1.
          1    1    1    2  502    0 -0.30166215864E+01 -0.21365345805E+02 -0.77027440167E+03  0.77057655809E+03  0.00000000000E+00 0.  1.
</event>
<event>
 4    1  0.3752836E+003  0.2775982E+02  0.7546771E-02  0.1440121E+00
          2   -1    0    0  502    0  0.00000000000E+00  0.00000000000E+00  0.92265773194E+03  0.92265773194E+03  0.00000000000E+00 0.  1.
          1   -1    0    0  501    0 -0.00000000000E+00 -0.00000000000E+00 -0.11887691291E+03  0.11887691291E+03  0.00000000000E+00 0.  1.
          2    1    1    2  501    0  0.21505473465E+02  0.17553405257E+02  0.92082510694E+03  0.92124344502E+03  0.00000000000E+00 0.  1.
          1    1    1    2  502    0 -0.21505473465E+02 -0.17553405257E+02 -0.11704428791E+03  0.12029119983E+03  0.00000000000E+00 0.  1.
</event>
<event>
 4    1  0.3752836E+003  0.2057026E+02  0.7546771E-02  0.1525490E+00
          2   -1    0    0  502    0  0.00000000000E+00  0.00000000000E+00  0.15969971927E+03  0.15969971927E+03  0.00000000000E+00 0.  1.
          1   -1    0    0  501    0 -0.00000000000E+00 -0.00000000000E+00 -0.17694212466E+02  0.17694212466E+02  0.00000000000E+00 0.  1.
          2    1    1    2  501    0  0.11955569354E+02  0.16739174531E+02  0.15278971587E+03  0.15416819671E+03  0.00000000000E+00 0.  1.
          1    1    1    2  502    0 -0.11955569354E+02 -0.16739174531E+02 -0.10784209059E+02  0.23225735028E+02  0.00000000000E+00 0.  1.
</event>
<event>
 4    1  0.3752836E+003  0.4454019E+02  0.7546771E-02  0.1323755E+00
          2   -1    0    0  502    0  0.00000000000E+00  0.00000000000E+00  0.16901667123E+03  0.16901667123E+03  0.00000000000E+00 0.  1.
          1   -1    0    0  501    0 -0.00000000000E+00 -0.00000000000E+00 -0.11949561622E+02  0.11949561622E+02  0.00000000000E+00 0.  1.
          2    1    1    2  501    0  0.33796770221E+02  0.29010424004E+02  0.66478649643E+02  0.80020230171E+02  0.00000000000E+00 0.  1.
          1    1    1    2  502    0 -0.33796770221E+02 -0.29010424004E+02  0.90588459963E+02  0.10094600268E+03  0.00000000000E+00 0.  1.
</event>
<event>
 4    1  0.3752836E+003  0.3482146E+02  0.7546771E-02  0.1381823E+00
          2   -1    0    0  502    0  0.00000000000E+00  0.00000000000E+00  0.32256057313E+03  0.32256057313E+03  0.00000000000E+00 0.  1.
          1   -1    0    0  501    0 -0.00000000000E+00 -0.00000000000E+00 -0.11789093334E+04  0.11789093334E+04  0.00000000000E+00 0. -1.
          2    1    1    2  501    0 -0.15730008864E+02  0.31066075571E+02  0.32136271448E+03  0.32324376017E+03  0.00000000000E+00 0.  1.
          1    1    1    2  502    0  0.15730008864E+02 -0.31066075571E+02 -0.11777114748E+04  0.11782261464E+04  0.00000000000E+00 0. -1.
</event>
<event>
 4    1  0.3752836E+003  0.2600828E+02  0.7546771E-02  0.1457833E+00
          2   -1    0    0  502    0  0.00000000000E+00  0.00000000000E+00  0.77225353776E+02  0.77225353776E+02  0.00000000000E+00 0. -1.
          1   -1    0    0  501    0 -0.00000000000E+00 -0.00000000000E+00 -0.83964307251E+02  0.83964307251E+02  0.00000000000E+00 0. -1.
          2    1    1    2  501    0 -0.89810117847E+01 -0.24408441125E+02  0.72905760056E+02  0.77405945639E+02  0.00000000000E+00 0. -1.
          1    1    1    2  502    0  0.89810117847E+01  0.24408441125E+02 -0.79644713531E+02  0.83783715389E+02  0.00000000000E+00 0. -1.
</event>
<event>
 4    1  0.3752836E+003  0.2325890E+02  0.7546771E-02  0.1489273E+00
          2   -1    0    0  502    0  0.00000000000E+00  0.00000000000E+00  0.12096945269E+03  0.12096945269E+03  0.00000000000E+00 0. -1.
          1   -1    0    0  501    0 -0.00000000000E+00 -0.00000000000E+00 -0.52238547695E+02  0.52238547695E+02  0.00000000000E+00 0. -1.
          2    1    1    2  501    0 -0.23028122931E+02 -0.32683062566E+01  0.11717955490E+03  0.11946557813E+03  0.00000000000E+00 0. -1.
          1    1    1    2  502    0  0.23028122931E+02  0.32683062566E+01 -0.48448649908E+02  0.53742422251E+02  0.00000000000E+00 0. -1.
</event>
<event>
 4    1  0.3752836E+003  0.2078308E+02  0.7546771E-02  0.1522385E+00
          2   -1    0    0  502    0  0.00000000000E+00  0.00000000000E+00  0.65884183531E+00  0.65884183531E+00  0.00000000000E+00 0.  1.
          1   -1    0    0  501    0 -0.00000000000E+00 -0.00000000000E+00 -0.12564066554E+04  0.12564066554E+04  0.00000000000E+00 0.  1.
          2    1    1    2  501    0  0.16367367645E+02 -0.12808035852E+02 -0.19323332387E+03  0.19434776551E+03  0.00000000000E+00 0.  1.
          1    1    1    2  502    0 -0.16367367645E+02  0.12808035852E+02 -0.10625144897E+04  0.10627177317E+04  0.00000000000E+00 0.  1.
</event>
<event>
 4    1  0.3752836E+003  0.2656307E+02  0.7546771E-02  0.1452047E+00
          2   -1    0    0  502    0  0.00000000000E+00  0.00000000000E+00  0.17146393158E+01  0.17146393158E+01  0.00000000000E+00 0. -1.
          1   -1    0    0  501    0 -0.00000000000E+00 -0.00000000000E+00 -0.71002705486E+03  0.71002705486E+03  0.00000000000E+00 0. -1.
          2    1    1    2  501    0 -0.21886047844E+02 -0.15053158235E+02 -0.12340858771E+03  0.12623500379E+03  0.00000000000E+00 0. -1.
          1    1    1    2  502    0  0.21886047844E+02  0.15053158235E+02 -0.58490382784E+03  0.58550669038E+03  0.00000000000E+00 0. -1.
</event>
<event>
 4    1  0.3752836E+003  0.3878583E+02  0.7546771E-02  0.1355751E+00
          2   -1    0    0  502    0  0.00000000000E+00  0.00000000000E+00  0.11221902780E+04  0.11221902780E+04  0.00000000000E+00 0. -1.
          1   -1    0    0  501    0 -0.00000000000E+00 -0.00000000000E+00 -0.34945770886E+02  0.34945770886E+02  0.00000000000E+00 0. -1.
          2    1    1    2  501    0 -0.28718539131E+01  0.38679362215E+02  0.11109846642E+04  0.11116614883E+04  0.00000000000E+00 0. -1.
          1    1    1    2  502    0  0.28718539131E+01 -0.38679362215E+02 -0.23740157019E+02  0.45474560598E+02  0.00000000000E+00 0. -1.
</event>
<event>
 4    1  0.3752836E+003  0.3483493E+02  0.7546771E-02  0.1381727E+00
          2   -1    0    0  502    0  0.00000000000E+00  0.00000000000E+00  0.16886487720E+01  0.16886487720E+01  0.00000000000E+00 0.  1.
          1   -1    0    0  501    0 -0.00000000000E+00 -0.00000000000E+00 -0.10559538485E+04  0.10559538485E+04  0.00000000000E+00 0.  1.
          2    1    1    2  501    0  0.25492094768E+02 -0.23740798118E+02 -0.22823275731E+03  0.23087586253E+03  0.00000000000E+00 0.  1.
          1    1    1    2  502    0 -0.25492094768E+02  0.23740798118E+02 -0.82603244243E+03  0.82676663475E+03  0.00000000000E+00 0.  1.
</event>
<event>
 4    1  0.3752836E+003  0.4536387E+02  0.7546771E-02  0.1319630E+00
          2   -1    0    0  502    0  0.00000000000E+00  0.00000000000E+00  0.16755551678E+02  0.16755551678E+02  0.00000000000E+00 0.  1.
          1   -1    0    0  501    0 -0.00000000000E+00 -0.00000000000E+00 -0.29849963900E+03  0.29849963900E+03  0.00000000000E+00 0. -1.
          2    1    1    2  501    0  0.34373128739E+02  0.29603525200E+02 -0.19944918374E+02  0.49554822697E+02  0.00000000000E+00 0.  1.
          1    1    1    2  502    0 -0.34373128739E+02 -0.29603525200E+02 -0.26179916894E+03  0.26570036798E+03  0.00000000000E+00 0. -1.
</event>
<event>
 4    1  0.3752836E+003  0.2015364E+02  0.7546771E-02  0.1531700E+00
          2   -1    0    0  502    0  0.00000000000E+00  0.00000000000E+00  0.26619904792E+01  0.26619904792E+01  0.00000000000E+00 0.  1.
          1   -1    0    0  501    0 -0.00000000000E+00 -0.00000000000E+00 -0.32892459683E+03  0.32892459683E+03  0.00000000000E+00 0.  1.
          2    1    1    2  501    0 -0.73397521674E+01  0.18769581353E+02 -0.41736906245E+02  0.46348014941E+02  0.00000000000E+00 0.  1.
          1    1    1    2  502    0  0.73397521674E+01 -0.18769581353E+02 -0.28452570011E+03  0.28523857237E+03  0.00000000000E+00 0.  1.
</event>
<event>
 4    1  0.3752836E+003  0.2074904E+02  0.7546771E-02  0.1522878E+00
          2   -1    0    0  502    0  0.00000000000E+00  0.00000000000E+00  0.21200776064E+03  0.21200776064E+03  0.00000000000E+00 0. -1.
          1   -1    0    0  501    0 -0.00000000000E+00 -0.00000000000E+00 -0.62385411742E+02  0.62385411742E+02  0.00000000000E+00 0. -1.
          2    1    1    2  501    0  0.10476152974E+02 -0.17910130564E+02  0.20975636144E+03  0.21078010751E+03  0.00000000000E+00 0. -1.
          1    1    1    2  502    0 -0.10476152974E+02  0.17910130564E+02 -0.60134012541E+02  0.63613064871E+02  0.00000000000E+00 0. -1.
</event>
<event>
 4    1  0.3752836E+003  0.2868703E+02  0.7546771E-02  0.1431360E+00
          2   -1    0    0  502    0  0.00000000000E+00  0.00000000000E+00  0.17790609291E+04  0.17790609291E+04  0.00000000000E+00 0. -1.
          1   -1    0    0  501    0 -0.00000000000E+00 -0.00000000000E+00 -0.31616120688E+02  0.31616120688E+02  0.00000000000E+00 0. -1.
          2    1    1    2  501    0 -0.31352298852E+00 -0.28685313475E+02  0.17724135569E+04  0.17726456956E+04  0.00000000000E+00 0. -1.
          1    1    1    2  502    0  0.31352298852E+00  0.28685313475E+02 -0.24968748435E+02  0.38031354225E+02  0.00000000000E+00 0. -1.
</event>
<event>
 4    1  0.3752836E+003  0.2341800E+02  0.7546771E-02  0.1487315E+00
          2   -1    0    0  502    0  0.00000000000E+00  0.00000000000E+00  0.13431405029E+03  0.13431405029E+03  0.00000000000E+00 0.  1.
          1   -1    0    0  501    0 -0.00000000000E+00 -0.00000000000E+00 -0.10137067123E+03  0.10137067123E+03  0.00000000000E+00 0. -1.
          2    1    1    2  501    0  0.17265427260E+02  0.15821117708E+02  0.13191644345E+03  0.13397891923E+03  0.00000000000E+00 0.  1.
          1    1    1    2  502    0 -0.17265427260E+02 -0.15821117708E+02 -0.98973064396E+02  0.10170580229E+03  0.00000000000E+00 0. -1.
</event>
<event>
 4    1  0.3752836E+003  0.2639392E+02  0.7546771E-02  0.1453793E+00
          2   -1    0    0  502    0  0.00000000000E+00  0.00000000000E+00  0.29997551170E+01  0.29997551170E+01  0.00000000000E+00 0. -1.
          1   -1    0    0  501    0 -0.00000000000E+00 -0.00000000000E+00 -0.13020926116E+04  0.13020926116E+04  0.00000000000E+00 0. -1.
          2    1    1    2  501    0 -0.24043275370E+02 -0.10888524890E+02 -0.58047556795E+02  0.63766432507E+02  0.00000000000E+00 0. -1.
          1    1    1    2  502    0  0.24043275370E+02  0.10888524890E+02 -0.12410452996E+04  0.12413259342E+04  0.00000000000E+00 0. -1.
</event>
<event>
 4    1  0.3752836E+003  0.2472586E+02  0.7546771E-02  0.1471894E+00
          2   -1    0    0  502    0  0.00000000000E+00  0.00000000000E+00  0.23946604354E+02  0.23946604354E+02  0.00000000000E+00 0. -1.
          1   -1    0    0  501    0 -0.00000000000E+00 -0.00000000000E+00 -0.28045845954E+03  0.28045845954E+03  0.00000000000E+00 0. -1.
          2    1    1    2  501    0 -0.57777110094E+01 -0.24041341628E+02  0.16853746240E+02  0.29923516072E+02  0.00000000000E+00 0. -1.
          1    1    1    2  502    0  0.57777110094E+01  0.24041341628E+02 -0.27336560143E+03  0.27448154782E+03  0.00000000000E+00 0. -1.
</event>
<event>
 4    1  0.3752836E+003  0.2273724E+02  0.7546771E-02  0.1495824E+00
          2   -1    0    0  502    0  0.00000000000E+00  0.00000000000E+00  0.81782504851E+00  0.81782504851E+00  0.00000000000E+00 0. -1.
          1   -1    0    0  501    0 -0.00000000000E+00 -0.00000000000E+00 -0.11484673690E+04  0.11484673690E+04  0.00000000000E+00 0.  1.
          2    1    1    2  501    0  0.19931071891E+02 -0.10942327913E+02 -0.18852397536E+03  0.18989015628E+03  0.00000000000E+00 0. -1.
          1    1    1    2  502    0 -0.19931071891E+02  0.10942327913E+02 -0.95912556857E+03  0.95939503774E+03  0.00000000000E+00 0.  1.
</event>
<event>
 4    1  0.3752836E+003  0.2310861E+02  0.7546771E-02  0.1491139E+00
          2   -1    0    0  502    0  0.00000000000E+00  0.00000000000E+00  0.15540773119E+03  0.15540773119E+03  0.00000000000E+00 0. -1.
          1   -1    0    0  501    0 -0.00000000000E+00 -0.00000000000E+00 -0.39415276635E+01  0.39415276635E+01  0.00000000000E+00 0. -1.
          2    1    1    2  501    0  0.98991450586E+01  0.20880958213E+02  0.47204078700E+02  0.52556945637E+02  0.00000000000E+00 0. -1.
          1    1    1    2  502    0 -0.98991450586E+01 -0.20880958213E+02  0.10426212483E+03  0.10679231322E+03  0.00000000000E+00 0. -1.
</event>
<event>
 4    1  0.3752836E+003  0.4411386E+02  0.7546771E-02  0.1325930E+00
          2   -1    0    0  502    0  0.00000000000E+00  0.00000000000E+00  0.73657922064E+01  0.73657922064E+01  0.00000000000E+00 0.  1.
          1   -1    0    0  501    0 -0.00000000000E+00 -0.00000000000E+00 -0.10653876504E+04  0.10653876504E+04  0.00000000000E+00 0. -1.
          2    1    1    2  501    0  0.31374524182E+02  0.31010832114E+02 -0.63871048742E+02  0.77624373385E+02  0.00000000000E+00 0.  1.
          1    1    1    2  502    0 -0.31374524182E+02 -0.31010832114E+02 -0.99415080944E+03  0.99512906921E+03  0.00000000000E+00 0. -1.
</event>
<event>
 4    1  0.3752836E+003  0.2321665E+02  0.7546771E-02  0.1489795E+00
          2   -1    0    0  502    0  0.00000000000E+00  0.00000000000E+00  0.29896085463E+03  0.29896085463E+03  0.00000000000E+00 0. -1.
          1   -1    0    0  501    0 -0.00000000000E+00 -0.00000000000E+00 -0.16177883080E+02  0.16177883080E+02  0.00000000000E+00 0. -1.
          2    1    1    2  501    0 -0.23166477427E+02 -0.15255151285E+01  0.28992135351E+03  0.29084945262E+03  0.00000000000E+00 0. -1.
          1    1    1    2  502    0  0.23166477427E+02  0.15255151285E+01 -0.71383819594E+01  0.24289285082E+02  0.00000000000E+00 0. -1.
</event>
<event>
 4    1  0.3752836E+003  0.3406663E+02  0.7546771E-02  0.1387246E+00
          2   -1    0    0  502    0  0.00000000000E+00  0.00000000000E+00  0.18993772811E+03  0.18993772811E+03  0.00000000000E+00 0. -1.
          1   -1    0    0  501    0 -0.00000000000E+00 -0.00000000000E+00 -0.12045792473E+02  0.12045792473E+02  0.00000000000E+00 0.  1.
          2    1    1    2  501    0  0.17064194048E+02  0.29484717430E+02  0.15983916653E+03  0.16342917254E+03  0.00000000000E+00 0. -1.
          1    1    1    2  502    0 -0.17064194048E+02 -0.29484717430E+02  0.18052769103E+02  0.38554348038E+02  0.00000000000E+00 0.  1.
</event>
<event>
 4    1  0.3752836E+003  0.2115892E+02  0.7546771E-02  0.1517008E+00
          2   -1    0    0  502    0  0.00000000000E+00  0.00000000000E+00  0.11891187428E+03  0.11891187428E+03  0.00000000000E+00 0.  1.
          1   -1    0    0  501    0 -0.00000000000E+00 -0.00000000000E+00 -0.24382752951E+03  0.24382752951E+03  0.00000000000E+00 0. -1.
          2    1    1    2  501    0  0.21154613037E+02  0.42684703902E+00  0.11750615041E+03  0.11939595988E+03  0.00000000000E+00 0.  1.
          1    1    1    2  502    0 -0.21154613037E+02 -0.42684703902E+00 -0.24242180564E+03  0.24334344392E+03  0.00000000000E+00 0. -1.
</event>
<event>
 4    1  0.3752836E+003  0.2405213E+02  0.7546771E-02  0.1479693E+00
          2   -1    0    0  502    0  0.00000000000E+00  0.00000000000E+00  0.92088657799E+00  0.92088657799E+00  0.00000000000E+00 0.  1.
          1   -1    0    0  501    0 -0.00000000000E+00 -0.00000000000E+00 -0.62859656007E+03  0.62859656007E+03  0.00000000000E+00 0. -1.
          2    1    1    2  501    0  0.17123310657E+02 -0.16890739070E+02 -0.30597420311E+03  0.30691809624E+03  0.00000000000E+00 0.  1.
          1    1    1    2  502    0 -0.17123310657E+02  0.16890739070E+02 -0.32170147039E+03  0.32259935041E+03  0.00000000000E+00 0. -1.
</event>
<event>
 4    1  0.3752836E+003  0.3188339E+02  0.7546771E-02  0.1403906E+00
          2   -1    0    0  502    0  0.00000000000E+00  0.00000000000E+00  0.77806541246E+03  0.77806541246E+03  0.00000000000E+00 0. -1.
          1   -1    0    0  501    0 -0.00000000000E+00 -0.00000000000E+00 -0.18364455759E+02  0.18364455759E+02  0.00000000000E+00 0.  1.
          2    1    1    2  501    0 -0.25521442021E+02 -0.19110380657E+02  0.76363890117E+03  0.76430420778E+03  0.00000000000E+00 0. -1.
          1    1    1    2  502    0  0.25521442021E+02  0.19110380657E+02 -0.39379444728E+01  0.32125660434E+02  0.00000000000E+00 0.  1.
</event>
<event>
 4    1  0.3752836E+003  0.2083915E+02  0.7546771E-02  0.1521574E+00
          2   -1    0    0  502    0  0.00000000000E+00  0.00000000000E+00  0.64758476873E+00  0.64758476873E+00  0.00000000000E+00 0. -1.
          1   -1    0    0  501    0 -0.00000000000E+00 -0.00000000000E+00 -0.11721154113E+04  0.11721154113E+04  0.00000000000E+00 0.  1.
          2    1    1    2  501    0 -0.15282627811E+02 -0.14167266828E+02 -0.20217035843E+03  0.20324154101E+03  0.00000000000E+00 0. -1.
          1    1    1    2  502    0  0.15282627811E+02  0.14167266828E+02 -0.96929746812E+03  0.96952145508E+03  0.00000000000E+00 0.  1.
</event>
<event>
 4    1  0.3752836E+003  0.2480647E+02  0.7546771E-02  0.1470980E+00
          2   -1    0    0  502    0  0.00000000000E+00  0.00000000000E+00  0.26305343983E+03  0.26305343983E+03  0.00000000000E+00 0.  1.
          1   -1    0    0  501    0 -0.00000000000E+00 -0.00000000000E+00 -0.38229791963E+01  0.38229791963E+01  0.00000000000E+00 0. -1.
          2    1    1    2  501    0  0.14231895080E+01 -0.24765609173E+02  0.21274360085E+03  0.21418496812E+03  0.00000000000E+00 0.  1.
          1    1    1    2  502    0 -0.14231895080E+01  0.24765609173E+02  0.46486859788E+02  0.52691450910E+02  0.00000000000E+00 0. -1.
</event>
<event>
 4    1  0.3752836E+003  0.2735620E+02  0.7546771E-02  0.1444062E+00
          2   -1    0    0  502    0  0.00000000000E+00  0.00000000000E+00  0.11166733825E+03  0.11166733825E+03  0.00000000000E+00 0.  1.
          1   -1    0    0  501    0 -0.00000000000E+00 -0.00000000000E+00 -0.27411944656E+02  0.27411944656E+02  0.00000000000E+00 0. -1.
          2    1    1    2  501    0  0.46961468665E+01  0.26950096171E+02  0.10257196080E+03  0.10615728247E+03  0.00000000000E+00 0.  1.
          1    1    1    2  502    0 -0.46961468665E+01 -0.26950096171E+02 -0.18316567201E+02  0.32922000441E+02  0.00000000000E+00 0. -1.
</event>
<event>
 4    1  0.3752836E+003  0.2135907E+02  0.7546771E-02  0.1514200E+00
          2   -1    0    0  502    0  0.00000000000E+00  0.00000000000E+00  0.11739538774E+02  0.11739538774E+02  0.00000000000E+00 0. -1.
          1   -1    0    0  501    0 -0.00000000000E+00 -0.00000000000E+00 -0.33420027632E+03  0.33420027632E+03  0.00000000000E+00 0. -1.
          2    1    1    2  501    0 -0.13356530004E+02 -0.16667724349E+02  0.13723385034E+01  0.21403112897E+02  0.00000000000E+00 0. -1.
          1    1    1    2  502    0  0.13356530004E+02  0.16667724349E+02 -0.32383307605E+03  0.32453670219E+03  0.00000000000E+00 0. -1.
</event>
<event>
 4    1  0.3752836E+003  0.3775797E+02  0.7546771E-02  0.1362150E+00
          2   -1    0    0  502    0  0.00000000000E+00  0.00000000000E+00  0.98416149614E+03  0.98416149614E+03  0.00000000000E+00 0. -1.
          1   -1    0    0  501    0 -0.00000000000E+00 -0.00000000000E+00 -0.19301554594E+01  0.19301554594E+01  0.00000000000E+00 0. -1.
          2    1    1    2  501    0 -0.31295304667E+02  0.21125060562E+02  0.73738518891E+03  0.73835125862E+03  0.00000000000E+00 0. -1.
          1    1    1    2  502    0  0.31295304667E+02 -0.21125060562E+02  0.24484615177E+03  0.24774039298E+03  0.00000000000E+00 0. -1.
</event>
<event>
 4    1  0.3752836E+003  0.2730559E+02  0.7546771E-02  0.1444562E+00
          2   -1    0    0  502    0  0.00000000000E+00  0.00000000000E+00  0.25080469231E+01  0.25080469231E+01  0.00000000000E+00 0.  1.
          1   -1    0    0  501    0 -0.00000000000E+00 -0.00000000000E+00 -0.29825489871E+03  0.29825489871E+03  0.00000000000E+00 0.  1.
          2    1    1    2  501    0  0.13355281641E+02 -0.23816624302E+02 -0.13928095628E+03  0.14193230754E+03  0.00000000000E+00 0.  1.
          1    1    1    2  502    0 -0.13355281641E+02  0.23816624302E+02 -0.15646589551E+03  0.15883063810E+03  0.00000000000E+00 0.  1.
</event>
<event>
 4    1  0.3752836E+003  0.2109955E+02  0.7546771E-02  0.1517848E+00
          2   -1    0    0  502    0  0.00000000000E+00  0.00000000000E+00  0.51683806781E+03  0.51683806781E+03  0.00000000000E+00 0. -1.
          1   -1    0    0  501    0 -0.00000000000E+00 -0.00000000000E+00 -0.19950266810E+01  0.19950266810E+01  0.00000000000E+00 0.  1.
          2    1    1    2  501    0 -0.81323853108E+01  0.19469342058E+02  0.45297398537E+03  0.45346512808E+03  0.00000000000E+00 0. -1.
          1    1    1    2  502    0  0.81323853108E+01 -0.19469342058E+02  0.61869055760E+02  0.65367966403E+02  0.00000000000E+00 0.  1.
</event>
<event>
 4    1  0.3752836E+003  0.2036114E+02  0.7546771E-02  0.1528585E+00
          2   -1    0    0  502    0  0.00000000000E+00  0.00000000000E+00  0.12762959799E+03  0.12762959799E+03  0.00000000000E+00 0.  1.
          1   -1    0    0  501    0 -0.00000000000E+00 -0.00000000000E+00 -0.85772168149E+01  0.85772168149E+01  0.00000000000E+00 0. -1.
          2    1    1    2  501    0  0.20242159260E+02  0.21979244208E+01  0.11320664507E+03  0.11502312972E+03  0.00000000000E+00 0.  1.
          1    1    1    2  502    0 -0.20242159260E+02 -0.21979244208E+01  0.58457361121E+01  0.21183685089E+02  0.00000000000E+00 0. -1.
</event>
<event>
 4    1  0.3752836E+003  0.3146262E+02  0.7546771E-02  0.1407298E+00
          2   -1    0    0  502    0  0.00000000000E+00  0.00000000000E+00  0.12469159062E+04  0.12469159062E+04  0.00000000000E+00 0.  1.
          1   -1    0    0  501    0 -0.00000000000E+00 -0.00000000000E+00 -0.59982816781E+01  0.59982816781E+01  0.00000000000E+00 0.  1.
          2    1    1    2  501    0 -0.27388391128E+02  0.15484584252E+02  0.12039892095E+04  0.12044002295E+04  0.00000000000E+00 0.  1.
          1    1    1    2  502    0  0.27388391128E+02 -0.15484584252E+02  0.36928415031E+02  0.48513958349E+02  0.00000000000E+00 0.  1.
</event>
<event>
 4    1  0.3752836E+003  0.2077174E+02  0.7546771E-02  0.1522549E+00
          2   -1    0    0  502    0  0.00000000000E+00  0.00000000000E+00  0.21585696886E+01  0.21585696886E+01  0.00000000000E+00 0.  1.
          1   -1    0    0  501    0 -0.00000000000E+00 -0.00000000000E+00 -0.30772889150E+03  0.30772889150E+03  0.00000000000E+00 0. -1.
          2    1    1    2  501    0  0.13015298604E+02 -0.16188486562E+02 -0.61060056667E+02  0.64496477540E+02  0.00000000000E+00 0.  1.
          1    1    1    2  502    0 -0.13015298604E+02  0.16188486562E+02 -0.24451026514E+03  0.24539098365E+03  0.00000000000E+00 0. -1.
</event>
<event>
 4    1  0.3752836E+003  0.2703417E+02  0.7546771E-02  0.1447265E+00
          2   -1    0    0  502    0  0.00000000000E+00  0.00000000000E+00  0.18491184142E+03  0.18491184142E+03  0.00000000000E+00 0.  1.
          1   -1    0    0  501    0 -0.00000000000E+00 -0.00000000000E+00 -0.57768462499E+01  0.57768462499E+01  0.00000000000E+00 0. -1.
          2    1    1    2  501    0 -0.21809372078E+02 -0.15974898632E+02  0.14314897967E+03  0.14567936188E+03  0.00000000000E+00 0.  1.
          1    1    1    2  502    0  0.21809372078E+02  0.15974898632E+02  0.35986015506E+02  0.45009325797E+02  0.00000000000E+00 0. -1.
</event>
<event>
 4    1  0.3752836E+003  0.3212703E+02  0.7546771E-02  0.1401970E+00
          2   -1    0    0  502    0  0.00000000000E+00  0.00000000000E+00  0.31004396969E+02  0.31004396969E+02  0.00000000000E+00 0.  1.
          1   -1    0    0  501    0 -0.00000000000E+00 -0.00000000000E+00 -0.43295448365E+02  0.43295448365E+02  0.00000000000E+00 0.  1.
          2    1    1    2  501    0  0.28429999881E+02 -0.14962650759E+02  0.11713117712E+02  0.34195656706E+02  0.00000000000E+00 0.  1.
          1    1    1    2  502    0 -0.28429999881E+02  0.14962650759E+02 -0.24004169108E+02  0.40104188629E+02  0.00000000000E+00 0.  1.
</event>
<event>
 4    1  0.3752836E+003  0.2871236E+02  0.7546771E-02  0.1431126E+00
          2   -1    0    0  502    0  0.00000000000E+00  0.00000000000E+00  0.31504508292E+03  0.31504508292E+03  0.00000000000E+00 0.  1.
          1   -1    0    0  501    0 -0.00000000000E+00 -0.00000000000E+00 -0.40842370777E+01  0.40842370777E+01  0.00000000000E+00 0. -1.
          2    1    1    2  501    0 -0.14452676839E+02 -0.24809674925E+02  0.25112618767E+03  0.25276226374E+03  0.00000000000E+00 0.  1.
          1    1    1    2  502    0  0.14452676839E+02  0.24809674925E+02  0.59834658179E+02  0.66367056264E+02  0.00000000000E+00 0. -1.
</event>
<event>
 4    1  0.3752836E+003  0.4032505E+02  0.7546771E-02  0.1346591E+00
          2   -1    0    0  502    0  0.00000000000E+00  0.00000000000E+00  0.10853407354E+03  0.10853407354E+03  0.00000000000E+00 0. -1.
          1   -1    0    0  501    0 -0.00000000000E+00 -0.00000000000E+00 -0.79995938304E+02  0.79995938304E+02  0.00000000000E+00 0.  1.
          2    1    1    2  501    0  0.40057323784E+02  0.46390168768E+01  0.99249348547E+02  0.10712862761E+03  0.00000000000E+00 0. -1.
          1    1    1    2  502    0 -0.40057323784E+02 -0.46390168768E+01 -0.70711213315E+02  0.81401384231E+02  0.00000000000E+00 0.  1.
</event>
<event>
 4    1  0.3752836E+003  0.2508172E+02  0.7546771E-02  0.1467891E+00
          2   -1    0    0  502    0  0.00000000000E+00  0.00000000000E+00  0.21222696731E+04  0.21222696731E+04  0.00000000000E+00 0. -1.
          1   -1    0    0  501    0 -0.00000000000E+00 -0.00000000000E+00 -0.64966461990E+00  0.64966461990E+00  0.00000000000E+00 0.  1.
          2    1    1    2  501    0 -0.36064783827E+01  0.24821083000E+02  0.18435073590E+04  0.18436779750E+04  0.00000000000E+00 0. -1.
          1    1    1    2  502    0  0.36064783827E+01 -0.24821083000E+02  0.27811264950E+03  0.27924136273E+03  0.00000000000E+00 0.  1.
</event>
<event>
 4    1  0.3752836E+003  0.3116547E+02  0.7546771E-02  0.1409732E+00
          2   -1    0    0  502    0  0.00000000000E+00  0.00000000000E+00  0.10859809929E+03  0.10859809929E+03  0.00000000000E+00 0. -1.
          1   -1    0    0  501    0 -0.00000000000E+00 -0.00000000000E+00 -0.20559427539E+02  0.20559427539E+02  0.00000000000E+00 0.  1.
          2    1    1    2  501    0 -0.27145244587E+02 -0.15310857923E+02  0.92559847626E+02  0.97665818312E+02  0.00000000000E+00 0. -1.
          1    1    1    2  502    0  0.27145244587E+02  0.15310857923E+02 -0.45211758758E+01  0.31491708517E+02  0.00000000000E+00 0.  1.
</event>
<event>
 4    1  0.3752836E+003  0.2138057E+02  0.7546771E-02  0.1513900E+00
          2   -1    0    0  502    0  0.00000000000E+00  0.00000000000E+00  0.24876515806E+03  0.24876515806E+03  0.00000000000E+00 0.  1.
          1   -1    0    0  501    0 -0.00000000000E+00 -0.00000000000E+00 -0.32607454911E+03  0.32607454911E+03  0.00000000000E+00 0.  1.
          2    1    1    2  501    0  0.18997550816E+02 -0.98092811365E+01  0.24795413690E+03  0.24887423116E+03  0.00000000000E+00 0.  1.
          1    1    1    2  502    0 -0.18997550816E+02  0.98092811365E+01 -0.32526352795E+03  0.32596547601E+03  0.00000000000E+00 0.  1.
</event>
<event>
 4    1  0.3752836E+003  0.2142304E+02  0.7546771E-02  0.1513310E+00
          2   -1    0    0  502    0  0.00000000000E+00  0.00000000000E+00  0.79870010533E+03  0.79870010533E+03  0.00000000000E+00 0.  1.
          1   -1    0    0  501    0 -0.00000000000E+00 -0.00000000000E+00 -0.45205875692E+02  0.45205875692E+02  0.00000000000E+00 0. -1.
          2    1    1    2  501    0 -0.16273188570E+02 -0.13933052721E+02  0.79600978284E+03  0.79629801017E+03  0.00000000000E+00 0.  1.
          1    1    1    2  502    0  0.16273188570E+02  0.13933052721E+02 -0.42515553203E+02  0.47607970851E+02  0.00000000000E+00 0. -1.
</event>
<event>
 4    1  0.3752836E+003  0.2003382E+02  0.7546771E-02  0.1533519E+00
          2   -1    0    0  502    0  0.00000000000E+00  0.00000000000E+00  0.40533409845E+02  0.40533409845E+02  0.00000000000E+00 0.  1.
          1   -1    0    0  501    0 -0.00000000000E+00 -0.00000000000E+00 -0.10087211825E+02  0.10087211825E+02  0.00000000000E+00 0.  1.
          2    1    1    2  501    0 -0.12076593088E+02 -0.15984676910E+02  0.18654508627E+02  0.27374160967E+02  0.00000000000E+00 0.  1.
          1    1    1    2  502    0  0.12076593088E+02  0.15984676910E+02  0.11791689393E+02  0.23246460704E+02  0.00000000000E+00 0.  1.
</event>
<event>
 4    1  0.3752836E+003  0.2834275E+02  0.7546771E-02  0.1434567E+00
          2   -1    0    0  502    0  0.00000000000E+00  0.00000000000E+00  0.90073140251E+03  0.90073140251E+03  0.00000000000E+00 0.  1.
          1   -1    0    0  501    0 -0.00000000000E+00 -0.00000000000E+00 -0.37684155895E+01  0.37684155895E+01  0.00000000000E+00 0.  1.
          2    1    1    2  501    0 -0.28070275370E+02 -0.39206126619E+01  0.84360849947E+03  0.84408448152E+03  0.00000000000E+00 0.  1.
          1    1    1    2  502    0  0.28070275370E+02  0.39206126619E+01  0.53354487446E+02  0.60415336576E+02  0.00000000000E+00 0.  1.
</event>
<event>
 4    1  0.3752836E+003  0.2562044E+02  0.7546771E-02  0.1461981E+00
          2   -1    0    0  502    0  0.00000000000E+00  0.00000000000E+00  0.60778655899E+02  0.60778655899E+02  0.00000000000E+00 0. -1.
          1   -1    0    0  501    0 -0.00000000000E+00 -0.00000000000E+00 -0.17273974370E+02  0.17273974370E+02  0.00000000000E+00 0.  1.
          2    1    1    2  501    0  0.76987693939E+01 -0.24436360915E+02  0.45644114266E+02  0.52343022000E+02  0.00000000000E+00 0. -1.
          1    1    1    2  502    0 -0.76987693939E+01  0.24436360915E+02 -0.21394327368E+01  0.25709608270E+02  0.00000000000E+00 0.  1.
</event>
<event>
 4    1  0.3752836E+003  0.2068640E+02  0.7546771E-02  0.1523790E+00
          2   -1    0    0  502    0  0.00000000000E+00  0.00000000000E+00  0.55614402388E+03  0.55614402388E+03  0.00000000000E+00 0.  1.
          1   -1    0    0  501    0 -0.00000000000E+00 -0.00000000000E+00 -0.51002834658E+02  0.51002834658E+02  0.00000000000E+00 0. -1.
          2    1    1    2  501    0 -0.20670583559E+02  0.80874049658E+00  0.55384539272E+03  0.55423158168E+03  0.00000000000E+00 0.  1.
          1    1    1    2  502    0  0.20670583559E+02 -0.80874049658E+00 -0.48704203506E+02  0.52915276858E+02  0.00000000000E+00 0. -1.
</event>
<event>
 4    1  0.3752836E+003  0.3885079E+02  0.7546771E-02  0.1355355E+00
          2   -1    0    0  502    0  0.00000000000E+00  0.00000000000E+00  0.22682888917E+03  0.22682888917E+03  0.00000000000E+00 0. -1.
          1   -1    0    0  501    0 -0.00000000000E+00 -0.00000000000E+00 -0.74101205411E+01  0.74101205411E+01  0.00000000000E+00 0. -1.
          2    1    1    2  501    0  0.38148135125E+02  0.73554292015E+01  0.72304167669E+02  0.82080906517E+02  0.00000000000E+00 0. -1.
          1    1    1    2  502    0 -0.38148135125E+02 -0.73554292015E+01  0.14711460096E+03  0.15215810320E+03  0.00000000000E+00 0. -1.
</event>
<event>
 4    1  0.3752836E+003  0.2193706E+02  0.7546771E-02  0.1506295E+00
          2   -1    0    0  502    0  0.00000000000E+00  0.00000000000E+00  0.13423531271E+02  0.13423531271E+02  0.00000000000E+00 0.  1.
          1   -1    0    0  501    0 -0.00000000000E+00 -0.00000000000E+00 -0.24853707392E+03  0.24853707392E+03  0.00000000000E+00 0. -1.
          2    1    1    2  501    0  0.19755753681E+02  0.95365042337E+01  0.36092540513E+01  0.22231991168E+02  0.00000000000E+00 0.  1.
          1    1    1    2  502    0 -0.19755753681E+02 -0.95365042337E+01 -0.23872279671E+03  0.23972861403E+03  0.00000000000E+00 0. -1.
</event>
<event>
 4    1  0.3752836E+003  0.2151275E+02  0.7546771E-02  0.1512068E+00
          2   -1    0    0  502    0  0.00000000000E+00  0.00000000000E+00  0.11898501522E+03  0.11898501522E+03  0.00000000000E+00 0. -1.
          1   -1    0    0  501    0 -0.00000000000E+00 -0.00000000000E+00 -0.60216459490E+01  0.60216459490E+01  0.00000000000E+00 0. -1.
          2    1    1    2  501    0 -0.21029938464E+02  0.45321267202E+01  0.93673609122E+02  0.96112140390E+02  0.00000000000E+00 0. -1.
          1    1    1    2  502    0  0.21029938464E+02 -0.45321267202E+01  0.19289760148E+02  0.28894520778E+02  0.00000000000E+00 0. -1.
</event>
<event>
 4    1  0.3964736E+003  0.3341920E+02  0.7546771E-02  0.1392031E+00
          2   -1    0    0  502    0  0.00000000000E+00  0.00000000000E+00  0.64202847133E+03  0.64202847133E+03  0.00000000000E+00 0.  1.
          1   -1    0    0  501    0 -0.00000000000E+00 -0.00000000000E+00 -0.11189909123E+04  0.11189909123E+04  0.00000000000E+00 0.  1.
          2    1    1    2  501    0  0.33136815364E+02 -0.43352679767E+01  0.64134379654E+03  0.64221391175E+03  0.00000000000E+00 0.  1.
          1    1    1    2  502    0 -0.33136815364E+02  0.43352679767E+01 -0.11183062375E+04  0.11188054719E+04  0.00000000000E+00 0.  1.
</event>
<event>
 4    1  0.3752836E+003  0.2392240E+02  0.7546771E-02  0.1481229E+00
          2   -1    0    0  502    0  0.00000000000E+00  0.00000000000E+00  0.17541808712E+03  0.17541808712E+03  0.00000000000E+00 0.  1.
          1   -1    0    0  501    0 -0.00000000000E+00 -0.00000000000E+00 -0.33631809900E+03  0.33631809900E+03  0.00000000000E+00 0.  1.
          2    1    1    2  501    0 -0.18924346460E+02  0.14633872546E+02  0.17417406533E+03  0.17580923226E+03  0.00000000000E+00 0.  1.
          1    1    1    2  502    0  0.18924346460E+02 -0.14633872546E+02 -0.33507407721E+03  0.33592695386E+03  0.00000000000E+00 0.  1.
</event>
<event>
 4    1  0.3752836E+003  0.2198999E+02  0.7546771E-02  0.1505586E+00
          2   -1    0    0  502    0  0.00000000000E+00  0.00000000000E+00  0.10875699374E+01  0.10875699374E+01  0.00000000000E+00 0.  1.
          1   -1    0    0  501    0 -0.00000000000E+00 -0.00000000000E+00 -0.11062710685E+04  0.11062710685E+04  0.00000000000E+00 0. -1.
          2    1    1    2  501    0  0.19175882607E+02 -0.10763137678E+02 -0.12439758102E+03  0.12632623548E+03  0.00000000000E+00 0.  1.
          1    1    1    2  502    0 -0.19175882607E+02  0.10763137678E+02 -0.98078591755E+03  0.98103240297E+03  0.00000000000E+00 0. -1.
</event>
<event>
 4    1  0.3752836E+003  0.3445959E+02  0.7546771E-02  0.1384403E+00
          2   -1    0    0  502    0  0.00000000000E+00  0.00000000000E+00  0.71606112230E+02  0.71606112230E+02  0.00000000000E+00 0. -1.
          1   -1    0    0  501    0 -0.00000000000E+00 -0.00000000000E+00 -0.11767711912E+04  0.11767711912E+04  0.00000000000E+00 0.  1.
          2    1    1    2  501    0 -0.10337366402E+02 -0.32872509632E+02  0.67192420097E+02  0.75513471329E+02  0.00000000000E+00 0. -1.
          1    1    1    2  502    0  0.10337366402E+02  0.32872509632E+02 -0.11723574991E+04  0.11728638321E+04  0.00000000000E+00 0.  1.
</event>
<event>
 4    1  0.3752836E+003  0.2585589E+02  0.7546771E-02  0.1459452E+00
          2   -1    0    0  502    0  0.00000000000E+00  0.00000000000E+00  0.53887936878E+02  0.53887936878E+02  0.00000000000E+00 0. -1.
          1   -1    0    0  501    0 -0.00000000000E+00 -0.00000000000E+00 -0.34461006589E+02  0.34461006589E+02  0.00000000000E+00 0.  1.
          2    1    1    2  501    0 -0.26676108893E+01 -0.25717914863E+02  0.45053108311E+02  0.51945258313E+02  0.00000000000E+00 0. -1.
          1    1    1    2  502    0  0.26676108893E+01  0.25717914863E+02 -0.25626178022E+02  0.36403685154E+02  0.00000000000E+00 0.  1.
</event>
<event>
 4    1  0.3752836E+003  0.2755614E+02  0.7546771E-02  0.1442100E+00
          2   -1    0    0  502    0  0.00000000000E+00  0.00000000000E+00  0.22907217134E+02  0.22907217134E+02  0.00000000000E+00 0. -1.
          1   -1    0    0  501    0 -0.00000000000E+00 -0.00000000000E+00 -0.55155834344E+02  0.55155834344E+02  0.00000000000E+00 0. -1.
          2    1    1    2  501    0 -0.83617636960E+01  0.26256837875E+02  0.85305888639E+01  0.28846344199E+02  0.00000000000E+00 0. -1.
          1    1    1    2  502    0  0.83617636960E+01 -0.26256837875E+02 -0.40779206074E+02  0.49216707279E+02  0.00000000000E+00 0. -1.
</event>
<event>
 4    1  0.3752836E+003  0.8731953E+02  0.7546771E-02  0.1187804E+00
          2   -1    0    0  502    0  0.00000000000E+00  0.00000000000E+00  0.17936640039E+03  0.17936640039E+03  0.00000000000E+00 0.  1.
          1   -1    0    0  501    0 -0.00000000000E+00 -0.00000000000E+00 -0.42509611963E+02  0.42509611963E+02  0.00000000000E+00 0.  1.
          2    1    1    2  501    0 -0.28403237011E+02  0.82570920389E+02  0.68820626109E+02  0.11117994129E+03  0.00000000000E+00 0.  1.
          1    1    1    2  502    0  0.28403237011E+02 -0.82570920389E+02  0.68036162316E+02  0.11069607106E+03  0.00000000000E+00 0.  1.
</event>
<event>
 4    1  0.3752836E+003  0.2476147E+02  0.7546771E-02  0.1471490E+00
          2   -1    0    0  502    0  0.00000000000E+00  0.00000000000E+00  0.24994316192E+02  0.24994316192E+02  0.00000000000E+00 0.  1.
          1   -1    0    0  501    0 -0.00000000000E+00 -0.00000000000E+00 -0.82836012411E+02  0.82836012411E+02  0.00000000000E+00 0.  1.
          2    1    1    2  501    0  0.24132618916E+02 -0.55450096509E+01  0.16312116542E+02  0.29651569501E+02  0.00000000000E+00 0.  1.
          1    1    1    2  502    0 -0.24132618916E+02  0.55450096509E+01 -0.74153812761E+02  0.78178759102E+02  0.00000000000E+00 0.  1.
</event>
<event>
 4    1  0.3752836E+003  0.3232415E+02  0.7546771E-02  0.1400419E+00
          2   -1    0    0  502    0  0.00000000000E+00  0.00000000000E+00  0.47055158661E+02  0.47055158661E+02  0.00000000000E+00 0. -1.
          1   -1    0    0  501    0 -0.00000000000E+00 -0.00000000000E+00 -0.34960614357E+03  0.34960614357E+03  0.00000000000E+00 0. -1.
          2    1    1    2  501    0 -0.26493499421E+02  0.18518776019E+02  0.40653478915E+02  0.51938000777E+02  0.00000000000E+00 0. -1.
          1    1    1    2  502    0  0.26493499421E+02 -0.18518776019E+02 -0.34320446383E+03  0.34472330146E+03  0.00000000000E+00 0. -1.
</event>
<event>
 4    1  0.3752836E+003  0.3121381E+02  0.7546771E-02  0.1409334E+00
          2   -1    0    0  502    0  0.00000000000E+00  0.00000000000E+00  0.20475845502E+03  0.20475845502E+03  0.00000000000E+00 0.  1.
          1   -1    0    0  501    0 -0.00000000000E+00 -0.00000000000E+00 -0.81732411865E+02  0.81732411865E+02  0.00000000000E+00 0.  1.
          2    1    1    2  501    0  0.30995486210E+02  0.36853729024E+01  0.20052619962E+03  0.20294102314E+03  0.00000000000E+00 0.  1.
          1    1    1    2  502    0 -0.30995486210E+02 -0.36853729024E+01 -0.77500156461E+02  0.83549843748E+02  0.00000000000E+00 0.  1.
</event>
<event>
 4    1  0.3752836E+003  0.6516788E+02  0.7546771E-02  0.1243217E+00
          2   -1    0    0  502    0  0.00000000000E+00  0.00000000000E+00  0.78313773871E+03  0.78313773871E+03  0.00000000000E+00 0.  1.
          1   -1    0    0  501    0 -0.00000000000E+00 -0.00000000000E+00 -0.39649514914E+02  0.39649514914E+02  0.00000000000E+00 0. -1.
          2    1    1    2  501    0 -0.27478602883E+01  0.65109926114E+02  0.75397061083E+03  0.75678169588E+03  0.00000000000E+00 0.  1.
          1    1    1    2  502    0  0.27478602883E+01 -0.65109926114E+02 -0.10482387042E+02  0.66005557742E+02  0.00000000000E+00 0. -1.
</event>
<event>
 4    1  0.3752836E+003  0.2749497E+02  0.7546771E-02  0.1442698E+00
          2   -1    0    0  502    0  0.00000000000E+00  0.00000000000E+00  0.47045129620E+02  0.47045129620E+02  0.00000000000E+00 0. -1.
          1   -1    0    0  501    0 -0.00000000000E+00 -0.00000000000E+00 -0.44065236661E+02  0.44065236661E+02  0.00000000000E+00 0. -1.
          2    1    1    2  501    0  0.27069380825E+02 -0.48189192192E+01  0.37800989051E+02  0.46742786972E+02  0.00000000000E+00 0. -1.
          1    1    1    2  502    0 -0.27069380825E+02  0.48189192192E+01 -0.34821096091E+02  0.44367579309E+02  0.00000000000E+00 0. -1.
</event>
<event>
 4    1  0.3752836E+003  0.6710881E+02  0.7546771E-02  0.1237421E+00
          2   -1    0    0  502    0  0.00000000000E+00  0.00000000000E+00  0.11118718463E+03  0.11118718463E+03  0.00000000000E+00 0. -1.
          1   -1    0    0  501    0 -0.00000000000E+00 -0.00000000000E+00 -0.85247097959E+02  0.85247097959E+02  0.00000000000E+00 0. -1.
          2    1    1    2  501    0 -0.65399656497E+02  0.15049148403E+02  0.84125403801E+02  0.10761354702E+03  0.00000000000E+00 0. -1.
          1    1    1    2  502    0  0.65399656497E+02 -0.15049148403E+02 -0.58185317130E+02  0.88820735570E+02  0.00000000000E+00 0. -1.
</event>
<event>
 4    1  0.3752836E+003  0.4078942E+02  0.7546771E-02  0.1343921E+00
          2   -1    0    0  502    0  0.00000000000E+00  0.00000000000E+00  0.17976122970E+02  0.17976122970E+02  0.00000000000E+00 0.  1.
          1   -1    0    0  501    0 -0.00000000000E+00 -0.00000000000E+00 -0.10864289954E+04  0.10864289954E+04  0.00000000000E+00 0.  1.
          2    1    1    2  501    0  0.28507490222E+02 -0.29173620661E+02 -0.60689495064E+01  0.41238444313E+02  0.00000000000E+00 0.  1.
          1    1    1    2  502    0 -0.28507490222E+02  0.29173620661E+02 -0.10623839229E+04  0.10631666741E+04  0.00000000000E+00 0.  1.
</event>
<event>
 4    1  0.3752836E+003  0.2497998E+02  0.7546771E-02  0.1469027E+00
          2   -1    0    0  502    0  0.00000000000E+00  0.00000000000E+00  0.18062844118E+02  0.18062844118E+02  0.00000000000E+00 0. -1.
          1   -1    0    0  501    0 -0.00000000000E+00 -0.00000000000E+00 -0.66112728904E+03  0.66112728904E+03  0.00000000000E+00 0.  1.
          2    1    1    2  501    0  0.31188659245E+01  0.24784513872E+02  0.90713430790E+01  0.26576092975E+02  0.00000000000E+00 0. -1.
          1    1    1    2  502    0 -0.31188659245E+01 -0.24784513872E+02 -0.65213578800E+03  0.65261404018E+03  0.00000000000E+00 0.  1.
</event>
<event>
 4    1  0.3752836E+003  0.3204028E+02  0.7546771E-02  0.1402657E+00
          2   -1    0    0  502    0  0.00000000000E+00  0.00000000000E+00  0.92013664697E+03  0.92013664697E+03  0.00000000000E+00 0. -1.
          1   -1    0    0  501    0 -0.00000000000E+00 -0.00000000000E+00 -0.43365006979E+02  0.43365006979E+02  0.00000000000E+00 0.  1.
          2    1    1    2  501    0 -0.14045850414E+02 -0.28797457318E+02  0.91389909774E+03  0.91446057341E+03  0.00000000000E+00 0. -1.
          1    1    1    2  502    0  0.14045850414E+02  0.28797457318E+02 -0.37127457750E+02  0.49041080543E+02  0.00000000000E+00 0.  1.
</event>
<event>
 4    1  0.3752836E+003  0.2691263E+02  0.7546771E-02  0.1448488E+00
          2   -1    0    0  502    0  0.00000000000E+00  0.00000000000E+00  0.11172702093E+04  0.11172702093E+04  0.00000000000E+00 0.  1.
          1   -1    0    0  501    0 -0.00000000000E+00 -0.00000000000E+00 -0.24320829592E+02  0.24320829592E+02  0.00000000000E+00 0. -1.
          2    1    1    2  501    0 -0.56759394947E+01 -0.26307287425E+02  0.11096116053E+04  0.11099379281E+04  0.00000000000E+00 0.  1.
          1    1    1    2  502    0  0.56759394947E+01  0.26307287425E+02 -0.16662225583E+02  0.31653110782E+02  0.00000000000E+00 0. -1.
</event>
<event>
 4    1  0.3752836E+003  0.2101731E+02  0.7546771E-02  0.1519018E+00
          2   -1    0    0  502    0  0.00000000000E+00  0.00000000000E+00  0.12811316703E+04  0.12811316703E+04  0.00000000000E+00 0.  1.
          1   -1    0    0  501    0 -0.00000000000E+00 -0.00000000000E+00 -0.13720612698E+02  0.13720612698E+02  0.00000000000E+00 0. -1.
          2    1    1    2  501    0 -0.20710686418E+02 -0.35769593820E+01  0.12729451080E+04  0.12731186021E+04  0.00000000000E+00 0.  1.
          1    1    1    2  502    0  0.20710686418E+02  0.35769593820E+01 -0.55340503781E+01  0.21733680864E+02  0.00000000000E+00 0. -1.
</event>
<event>
 4    1  0.3752836E+003  0.2227787E+02  0.7546771E-02  0.1501771E+00
          2   -1    0    0  502    0  0.00000000000E+00  0.00000000000E+00  0.21114021076E+04  0.21114021076E+04  0.00000000000E+00 0.  1.
          1   -1    0    0  501    0 -0.00000000000E+00 -0.00000000000E+00 -0.27802181572E+00  0.27802181572E+00  0.00000000000E+00 0.  1.
          2    1    1    2  501    0  0.22214242868E+02 -0.16825174956E+01  0.14706178977E+04  0.14707866278E+04  0.00000000000E+00 0.  1.
          1    1    1    2  502    0 -0.22214242868E+02  0.16825174956E+01  0.64050618803E+03  0.64089350157E+03  0.00000000000E+00 0.  1.
</event>
<event>
 4    1  0.3752836E+003  0.5802054E+02  0.7546771E-02  0.1266711E+00
          2   -1    0    0  502    0  0.00000000000E+00  0.00000000000E+00  0.54098954310E+03  0.54098954310E+03  0.00000000000E+00 0.  1.
          1   -1    0    0  501    0 -0.00000000000E+00 -0.00000000000E+00 -0.80799684044E+01  0.80799684044E+01  0.00000000000E+00 0.  1.
          2    1    1    2  501    0 -0.20360094474E+02  0.54330931111E+02  0.39807930005E+03  0.40228536221E+03  0.00000000000E+00 0.  1.
          1    1    1    2  502    0  0.20360094474E+02 -0.54330931111E+02  0.13483027465E+03  0.14678414930E+03  0.00000000000E+00 0.  1.
</event>
<event>
 4    1  0.3752836E+003  0.3149159E+02  0.7546771E-02  0.1407063E+00
          2   -1    0    0  502    0  0.00000000000E+00  0.00000000000E+00  0.12069764264E+03  0.12069764264E+03  0.00000000000E+00 0. -1.
          1   -1    0    0  501    0 -0.00000000000E+00 -0.00000000000E+00 -0.90874411569E+01  0.90874411569E+01  0.00000000000E+00 0. -1.
          2    1    1    2  501    0 -0.30077698893E+02 -0.93301769646E+01  0.75893802778E+02  0.82168056281E+02  0.00000000000E+00 0. -1.
          1    1    1    2  502    0  0.30077698893E+02  0.93301769646E+01  0.35716398701E+02  0.47617027512E+02  0.00000000000E+00 0. -1.
</event>
<event>
 4    1  0.3752836E+003  0.2175340E+02  0.7546771E-02  0.1508774E+00
          2   -1    0    0  502    0  0.00000000000E+00  0.00000000000E+00  0.16261201348E+03  0.16261201348E+03  0.00000000000E+00 0. -1.
          1   -1    0    0  501    0 -0.00000000000E+00 -0.00000000000E+00 -0.48586085577E+01  0.48586085577E+01  0.00000000000E+00 0. -1.
          2    1    1    2  501    0  0.19657424161E+02 -0.93164453979E+01  0.13190509481E+03  0.13368681504E+03  0.00000000000E+00 0. -1.
          1    1    1    2  502    0 -0.19657424161E+02  0.93164453979E+01  0.25848310120E+02  0.33783807002E+02  0.00000000000E+00 0. -1.
</event>
<event>
 4    1  0.3752836E+003  0.2091628E+02  0.7546771E-02  0.1520464E+00
          2   -1    0    0  502    0  0.00000000000E+00  0.00000000000E+00  0.17028710077E+03  0.17028710077E+03  0.00000000000E+00 0. -1.
          1   -1    0    0  501    0 -0.00000000000E+00 -0.00000000000E+00 -0.33667126584E+01  0.33667126584E+01  0.00000000000E+00 0. -1.
          2    1    1    2  501    0  0.11593158589E+02 -0.17409458754E+02  0.12572099718E+03  0.12744904751E+03  0.00000000000E+00 0. -1.
          1    1    1    2  502    0 -0.11593158589E+02  0.17409458754E+02  0.41199390937E+02  0.46204765920E+02  0.00000000000E+00 0. -1.
</event>
<event>
 4    1  0.3752836E+003  0.3132738E+02  0.7546771E-02  0.1408402E+00
          2   -1    0    0  502    0  0.00000000000E+00  0.00000000000E+00  0.39768913722E+03  0.39768913722E+03  0.00000000000E+00 0.  1.
          1   -1    0    0  501    0 -0.00000000000E+00 -0.00000000000E+00 -0.22934952932E+02  0.22934952932E+02  0.00000000000E+00 0. -1.
          2    1    1    2  501    0 -0.88634943616E+01 -0.30047353258E+02  0.38605256938E+03  0.38732156059E+03  0.00000000000E+00 0.  1.
          1    1    1    2  502    0  0.88634943616E+01  0.30047353258E+02 -0.11298385088E+02  0.33302529569E+02  0.00000000000E+00 0. -1.
</event>
<event>
 4    1  0.3752836E+003  0.2836376E+02  0.7546771E-02  0.1434370E+00
          2   -1    0    0  502    0  0.00000000000E+00  0.00000000000E+00  0.81551837994E+02  0.81551837994E+02  0.00000000000E+00 0.  1.
          1   -1    0    0  501    0 -0.00000000000E+00 -0.00000000000E+00 -0.42928086519E+02  0.42928086519E+02  0.00000000000E+00 0.  1.
          2    1    1    2  501    0  0.18811951811E+02  0.21227652653E+02  0.73934271485E+02  0.79188252083E+02  0.00000000000E+00 0.  1.
          1    1    1    2  502    0 -0.18811951811E+02 -0.21227652653E+02 -0.35310520010E+02  0.45291672429E+02  0.00000000000E+00 0.  1.
</event>
<event>
 4    1  0.3752836E+003  0.2661062E+02  0.7546771E-02  0.1451559E+00
          2   -1    0    0  502    0  0.00000000000E+00  0.00000000000E+00  0.50821654347E+03  0.50821654347E+03  0.00000000000E+00 0.  1.
          1   -1    0    0  501    0 -0.00000000000E+00 -0.00000000000E+00 -0.10065744431E+03  0.10065744431E+03  0.00000000000E+00 0. -1.
          2    1    1    2  501    0 -0.44096495822E+01  0.26242716971E+02  0.50610211217E+03  0.50680121660E+03  0.00000000000E+00 0.  1.
          1    1    1    2  502    0  0.44096495822E+01 -0.26242716971E+02 -0.98543013013E+02  0.10207277118E+03  0.00000000000E+00 0. -1.
</event>
<event>
 4    1  0.3752836E+003  0.2093444E+02  0.7546771E-02  0.1520203E+00
          2   -1    0    0  502    0  0.00000000000E+00  0.00000000000E+00  0.10499520399E+04  0.10499520399E+04  0.00000000000E+00 0.  1.
          1   -1    0    0  501    0 -0.00000000000E+00 -0.00000000000E+00 -0.13871580925E+02  0.13871580925E+02  0.00000000000E+00 0.  1.
          2    1    1    2  501    0 -0.18535852318E+02 -0.97300047798E+01  0.10418882081E+04  0.10420985025E+04  0.00000000000E+00 0.  1.
          1    1    1    2  502    0  0.18535852318E+02  0.97300047798E+01 -0.58077491338E+01  0.21725118278E+02  0.00000000000E+00 0.  1.
</event>
<event>
 4    1  0.3752836E+003  0.4013787E+02  0.7546771E-02  0.1347680E+00
          2   -1    0    0  502    0  0.00000000000E+00  0.00000000000E+00  0.18044074478E+04  0.18044074478E+04  0.00000000000E+00 0. -1.
          1   -1    0    0  501    0 -0.00000000000E+00 -0.00000000000E+00 -0.77696919219E+03  0.77696919219E+03  0.00000000000E+00 0. -1.
          2    1    1    2  501    0  0.35000166368E+02 -0.19647814980E+02  0.18036656487E+04  0.18041121973E+04  0.00000000000E+00 0. -1.
          1    1    1    2  502    0 -0.35000166368E+02  0.19647814980E+02 -0.77622739301E+03  0.77726444273E+03  0.00000000000E+00 0. -1.
</event>
<event>
 4    1  0.3752836E+003  0.2969022E+02  0.7546771E-02  0.1422308E+00
          2   -1    0    0  502    0  0.00000000000E+00  0.00000000000E+00  0.51628839982E+02  0.51628839982E+02  0.00000000000E+00 0.  1.
          1   -1    0    0  501    0 -0.00000000000E+00 -0.00000000000E+00 -0.49938317760E+02  0.49938317760E+02  0.00000000000E+00 0. -1.
          2    1    1    2  501    0  0.53334690831E+01  0.29207246709E+02  0.42042572350E+02  0.51469282514E+02  0.00000000000E+00 0.  1.
          1    1    1    2  502    0 -0.53334690831E+01 -0.29207246709E+02 -0.40352050128E+02  0.50097875227E+02  0.00000000000E+00 0. -1.
</event>
<event>
 4    1  0.3752836E+003  0.2533845E+02  0.7546771E-02  0.1465052E+00
          2   -1    0    0  502    0  0.00000000000E+00  0.00000000000E+00  0.18693494608E+04  0.18693494608E+04  0.00000000000E+00 0.  1.
          1   -1    0    0  501    0 -0.00000000000E+00 -0.00000000000E+00 -0.34832223577E+00  0.34832223577E+00  0.00000000000E+00 0.  1.
          2    1    1    2  501    0  0.53580817921E+01  0.24765464395E+02  0.10450090566E+04  0.10453162036E+04  0.00000000000E+00 0.  1.
          1    1    1    2  502    0 -0.53580817921E+01 -0.24765464395E+02  0.82399208202E+03  0.82438157943E+03  0.00000000000E+00 0.  1.
</event>
<event>
 4    1  0.3752836E+003  0.3410637E+02  0.7546771E-02  0.1386957E+00
          2   -1    0    0  502    0  0.00000000000E+00  0.00000000000E+00  0.24018182572E+03  0.24018182572E+03  0.00000000000E+00 0. -1.
          1   -1    0    0  501    0 -0.00000000000E+00 -0.00000000000E+00 -0.57451319637E+03  0.57451319637E+03  0.00000000000E+00 0.  1.
          2    1    1    2  501    0 -0.17629198218E+02 -0.29196849255E+02  0.23846120887E+03  0.24088792575E+03  0.00000000000E+00 0. -1.
          1    1    1    2  502    0  0.17629198218E+02  0.29196849255E+02 -0.57279257953E+03  0.57380709633E+03  0.00000000000E+00 0.  1.
</event>
<event>
 4    1  0.3752836E+003  0.4279282E+02  0.7546771E-02  0.1332854E+00
          2   -1    0    0  502    0  0.00000000000E+00  0.00000000000E+00  0.21797297694E+03  0.21797297694E+03  0.00000000000E+00 0. -1.
          1   -1    0    0  501    0 -0.00000000000E+00 -0.00000000000E+00 -0.10876880554E+03  0.10876880554E+03  0.00000000000E+00 0.  1.
          2    1    1    2  501    0  0.42049345068E+02 -0.79421643842E+01  0.21153692658E+03  0.21582190969E+03  0.00000000000E+00 0. -1.
          1    1    1    2  502    0 -0.42049345068E+02  0.79421643842E+01 -0.10233275518E+03  0.11091987279E+03  0.00000000000E+00 0.  1.
</event>
<event>
 4    1  0.3752836E+003  0.9824967E+02  0.7546771E-02  0.1166876E+00
          2   -1    0    0  502    0  0.00000000000E+00  0.00000000000E+00  0.11883966354E+02  0.11883966354E+02  0.00000000000E+00 0. -1.
          1   -1    0    0  501    0 -0.00000000000E+00 -0.00000000000E+00 -0.11784060682E+04  0.11784060682E+04  0.00000000000E+00 0.  1.
          2    1    1    2  501    0  0.14894918981E+02 -0.97114050087E+02 -0.25152232297E+03  0.27003050992E+03  0.00000000000E+00 0. -1.
          1    1    1    2  502    0 -0.14894918981E+02  0.97114050087E+02 -0.91499977891E+03  0.92025952466E+03  0.00000000000E+00 0.  1.
</event>
<event>
 4    1  0.3752836E+003  0.2708968E+02  0.7546771E-02  0.1446709E+00
          2   -1    0    0  502    0  0.00000000000E+00  0.00000000000E+00  0.60732591942E+03  0.60732591942E+03  0.00000000000E+00 0. -1.
          1   -1    0    0  501    0 -0.00000000000E+00 -0.00000000000E+00 -0.44406456160E+01  0.44406456160E+01  0.00000000000E+00 0. -1.
          2    1    1    2  501    0  0.21515120599E+02 -0.16460572219E+02  0.56241197513E+03  0.56306401112E+03  0.00000000000E+00 0. -1.
          1    1    1    2  502    0 -0.21515120599E+02  0.16460572219E+02  0.40473298679E+02  0.48702553918E+02  0.00000000000E+00 0. -1.
</event>
<event>
 4    1  0.3752836E+003  0.4651251E+02  0.7546771E-02  0.1314045E+00
          2   -1    0    0  502    0  0.00000000000E+00  0.00000000000E+00  0.30704568338E+03  0.30704568338E+03  0.00000000000E+00 0.  1.
          1   -1    0    0  501    0 -0.00000000000E+00 -0.00000000000E+00 -0.11509106546E+02  0.11509106546E+02  0.00000000000E+00 0.  1.
          2    1    1    2  501    0 -0.40415427400E+02  0.23021885123E+02  0.24695573424E+03  0.25129772908E+03  0.00000000000E+00 0.  1.
          1    1    1    2  502    0  0.40415427400E+02 -0.23021885123E+02  0.48580842592E+02  0.67257060845E+02  0.00000000000E+00 0.  1.
</event>
<event>
 4    1  0.3752836E+003  0.2703670E+02  0.7546771E-02  0.1447240E+00
          2   -1    0    0  502    0  0.00000000000E+00  0.00000000000E+00  0.45416616293E+02  0.45416616293E+02  0.00000000000E+00 0. -1.
          1   -1    0    0  501    0 -0.00000000000E+00 -0.00000000000E+00 -0.13236346023E+03  0.13236346023E+03  0.00000000000E+00 0. -1.
          2    1    1    2  501    0  0.12381071570E+02 -0.24035226611E+02  0.39837106676E+02  0.48145385239E+02  0.00000000000E+00 0. -1.
          1    1    1    2  502    0 -0.12381071570E+02  0.24035226611E+02 -0.12678395061E+03  0.12963469128E+03  0.00000000000E+00 0. -1.
</event>
<event>
 4    1  0.3752836E+003  0.2230711E+02  0.7546771E-02  0.1501387E+00
          2   -1    0    0  502    0  0.00000000000E+00  0.00000000000E+00  0.52048139472E+02  0.52048139472E+02  0.00000000000E+00 0. -1.
          1   -1    0    0  501    0 -0.00000000000E+00 -0.00000000000E+00 -0.51520557588E+02  0.51520557588E+02  0.00000000000E+00 0. -1.
          2    1    1    2  501    0 -0.20346959691E+02 -0.91437682881E+01  0.46997061454E+02  0.52022409137E+02  0.00000000000E+00 0. -1.
          1    1    1    2  502    0  0.20346959691E+02  0.91437682881E+01 -0.46469479570E+02  0.51546287923E+02  0.00000000000E+00 0. -1.
</event>
<event>
 4    1  0.3752836E+003  0.2329426E+02  0.7546771E-02  0.1488836E+00
          2   -1    0    0  502    0  0.00000000000E+00  0.00000000000E+00  0.83759998201E+01  0.83759998201E+01  0.00000000000E+00 0. -1.
          1   -1    0    0  501    0 -0.00000000000E+00 -0.00000000000E+00 -0.35245533167E+03  0.35245533167E+03  0.00000000000E+00 0.  1.
          2    1    1    2  501    0 -0.14575249507E+02 -0.18170981096E+02 -0.90458059852E+01  0.24988978733E+02  0.00000000000E+00 0. -1.
          1    1    1    2  502    0  0.14575249507E+02  0.18170981096E+02 -0.33503352586E+03  0.33584235276E+03  0.00000000000E+00 0.  1.
</event>
<event>
 4    1  0.3752836E+003  0.2226408E+02  0.7546771E-02  0.1501952E+00
          2   -1    0    0  502    0  0.00000000000E+00  0.00000000000E+00  0.47185679541E+01  0.47185679541E+01  0.00000000000E+00 0. -1.
          1   -1    0    0  501    0 -0.00000000000E+00 -0.00000000000E+00 -0.10610251991E+03  0.10610251991E+03  0.00000000000E+00 0.  1.
          2    1    1    2  501    0 -0.89174286805E+01 -0.20400204857E+02 -0.56208926957E+02  0.60457690678E+02  0.00000000000E+00 0. -1.
          1    1    1    2  502    0  0.89174286805E+01  0.20400204857E+02 -0.45175025003E+02  0.50363397190E+02  0.00000000000E+00 0.  1.
</event>
<event>
 4    1  0.3752836E+003  0.2084014E+02  0.7546771E-02  0.1521560E+00
          2   -1    0    0  502    0  0.00000000000E+00  0.00000000000E+00  0.13604420129E+03  0.13604420129E+03  0.00000000000E+00 0. -1.
          1   -1    0    0  501    0 -0.00000000000E+00 -0.00000000000E+00 -0.31930006224E+01  0.31930006224E+01  0.00000000000E+00 0. -1.
          2    1    1    2  501    0  0.20723984067E+02 -0.21972617831E+01  0.67356966350E+02  0.70507250626E+02  0.00000000000E+00 0. -1.
          1    1    1    2  502    0 -0.20723984067E+02  0.21972617831E+01  0.65494234313E+02  0.68729951282E+02  0.00000000000E+00 0. -1.
</event>
<event>
 4    1  0.3752836E+003  0.2804597E+02  0.7546771E-02  0.1437375E+00
          2   -1    0    0  502    0  0.00000000000E+00  0.00000000000E+00  0.19544565848E+03  0.19544565848E+03  0.00000000000E+00 0.  1.
          1   -1    0    0  501    0 -0.00000000000E+00 -0.00000000000E+00 -0.73807286102E+02  0.73807286102E+02  0.00000000000E+00 0.  1.
          2    1    1    2  501    0 -0.28028834824E+02 -0.98029822574E+00  0.19172378745E+03  0.19376425687E+03  0.00000000000E+00 0.  1.
          1    1    1    2  502    0  0.28028834824E+02  0.98029822574E+00 -0.70085415073E+02  0.75488687710E+02  0.00000000000E+00 0.  1.
</event>
<event>
 4    1  0.3752836E+003  0.4219893E+02  0.7546771E-02  0.1336061E+00
          2   -1    0    0  502    0  0.00000000000E+00  0.00000000000E+00  0.18701358020E+01  0.18701358020E+01  0.00000000000E+00 0.  1.
          1   -1    0    0  501    0 -0.00000000000E+00 -0.00000000000E+00 -0.12531373848E+04  0.12531373848E+04  0.00000000000E+00 0.  1.
          2    1    1    2  501    0  0.38112795076E+02 -0.18115306463E+02 -0.31812827059E+03  0.32091485791E+03  0.00000000000E+00 0.  1.
          1    1    1    2  502    0 -0.38112795076E+02  0.18115306463E+02 -0.93313897843E+03  0.93409266271E+03  0.00000000000E+00 0.  1.
</event>
<event>
 4    1  0.3752836E+003  0.2850900E+02  0.7546771E-02  0.1433012E+00
          2   -1    0    0  502    0  0.00000000000E+00  0.00000000000E+00  0.48194336503E+03  0.48194336503E+03  0.00000000000E+00 0. -1.
          1   -1    0    0  501    0 -0.00000000000E+00 -0.00000000000E+00 -0.23977458425E+01  0.23977458425E+01  0.00000000000E+00 0. -1.
          2    1    1    2  501    0 -0.19277723854E+02 -0.21003159285E+02  0.37167477486E+03  0.37276655108E+03  0.00000000000E+00 0. -1.
          1    1    1    2  502    0  0.19277723854E+02  0.21003159285E+02  0.10787084433E+03  0.11157455979E+03  0.00000000000E+00 0. -1.
</event>
<event>
 4    1  0.3752836E+003  0.2137034E+02  0.7546771E-02  0.1514043E+00
          2   -1    0    0  502    0  0.00000000000E+00  0.00000000000E+00  0.49631314415E+03  0.49631314415E+03  0.00000000000E+00 0.  1.
          1   -1    0    0  501    0 -0.00000000000E+00 -0.00000000000E+00 -0.12713177665E+02  0.12713177665E+02  0.00000000000E+00 0. -1.
          2    1    1    2  501    0  0.21342620826E+02 -0.10880828089E+01  0.48692944802E+03  0.48739817268E+03  0.00000000000E+00 0.  1.
          1    1    1    2  502    0 -0.21342620826E+02  0.10880828089E+01 -0.33294815268E+01  0.21628149138E+02  0.00000000000E+00 0. -1.
</event>
<event>
 4    1  0.3752836E+003  0.2396168E+02  0.7546771E-02  0.1480763E+00
          2   -1    0    0  502    0  0.00000000000E+00  0.00000000000E+00  0.30287782503E+01  0.30287782503E+01  0.00000000000E+00 0. -1.
          1   -1    0    0  501    0 -0.00000000000E+00 -0.00000000000E+00 -0.59875977768E+03  0.59875977768E+03  0.00000000000E+00 0. -1.
          2    1    1    2  501    0 -0.41480558413E+01 -0.23599910279E+02 -0.49122655242E+02  0.54655259495E+02  0.00000000000E+00 0. -1.
          1    1    1    2  502    0  0.41480558413E+01  0.23599910279E+02 -0.54660834419E+03  0.54713329644E+03  0.00000000000E+00 0. -1.
</event>
<event>
 4    1  0.3752836E+003  0.2541951E+02  0.7546771E-02  0.1464165E+00
          2   -1    0    0  502    0  0.00000000000E+00  0.00000000000E+00  0.77368791071E+00  0.77368791071E+00  0.00000000000E+00 0. -1.
          1   -1    0    0  501    0 -0.00000000000E+00 -0.00000000000E+00 -0.10780587007E+04  0.10780587007E+04  0.00000000000E+00 0.  1.
          2    1    1    2  501    0  0.22505829441E+02  0.11816907920E+02 -0.28259701504E+03  0.28373795055E+03  0.00000000000E+00 0. -1.
          1    1    1    2  502    0 -0.22505829441E+02 -0.11816907920E+02 -0.79468799771E+03  0.79509443803E+03  0.00000000000E+00 0.  1.
</event>
<event>
 4    1  0.3752836E+003  0.2623757E+02  0.7546771E-02  0.1455421E+00
          2   -1    0    0  502    0  0.00000000000E+00  0.00000000000E+00  0.11214878481E+04  0.11214878481E+04  0.00000000000E+00 0. -1.
          1   -1    0    0  501    0 -0.00000000000E+00 -0.00000000000E+00 -0.10154553533E+01  0.10154553533E+01  0.00000000000E+00 0. -1.
          2    1    1    2  501    0  0.23081537754E+02 -0.12476089135E+02  0.91320332062E+03  0.91358016342E+03  0.00000000000E+00 0. -1.
          1    1    1    2  502    0 -0.23081537754E+02  0.12476089135E+02  0.20726907214E+03  0.20892314006E+03  0.00000000000E+00 0. -1.
</event>
<event>
 4    1  0.3752836E+003  0.2039335E+02  0.7546771E-02  0.1528105E+00
          2   -1    0    0  502    0  0.00000000000E+00  0.00000000000E+00  0.13155145713E+04  0.13155145713E+04  0.00000000000E+00 0. -1.
          1   -1    0    0  501    0 -0.00000000000E+00 -0.00000000000E+00 -0.40193852335E+01  0.40193852335E+01  0.00000000000E+00 0. -1.
          2    1    1    2  501    0  0.19589317426E+02 -0.56698528890E+01  0.12890365488E+04  0.12891978563E+04  0.00000000000E+00 0. -1.
          1    1    1    2  502    0 -0.19589317426E+02  0.56698528890E+01  0.22458637298E+02  0.30336100248E+02  0.00000000000E+00 0. -1.
</event>
<event>
 4    1  0.3752836E+003  0.2427644E+02  0.7546771E-02  0.1477063E+00
          2   -1    0    0  502    0  0.00000000000E+00  0.00000000000E+00  0.31058983248E+03  0.31058983248E+03  0.00000000000E+00 0. -1.
          1   -1    0    0  501    0 -0.00000000000E+00 -0.00000000000E+00 -0.30979839605E+01  0.30979839605E+01  0.00000000000E+00 0. -1.
          2    1    1    2  501    0 -0.21320845819E+02  0.11608924760E+02  0.25138090445E+03  0.25255040036E+03  0.00000000000E+00 0. -1.
          1    1    1    2  502    0  0.21320845819E+02 -0.11608924760E+02  0.56110944072E+02  0.61137416082E+02  0.00000000000E+00 0. -1.
</event>
<event>
 4    1  0.3752836E+003  0.2075592E+02  0.7546771E-02  0.1522778E+00
          2   -1    0    0  502    0  0.00000000000E+00  0.00000000000E+00  0.68496208452E+01  0.68496208452E+01  0.00000000000E+00 0.  1.
          1   -1    0    0  501    0 -0.00000000000E+00 -0.00000000000E+00 -0.22046014763E+03  0.22046014763E+03  0.00000000000E+00 0.  1.
          2    1    1    2  501    0 -0.30162174379E+00 -0.20753725943E+02 -0.10720861015E+02  0.23361185268E+02  0.00000000000E+00 0.  1.
          1    1    1    2  502    0  0.30162174379E+00  0.20753725943E+02 -0.20288966577E+03  0.20394858321E+03  0.00000000000E+00 0.  1.
</event>
<event>
 4    1  0.3752836E+003  0.3695912E+02  0.7546771E-02  0.1367290E+00
          2   -1    0    0  502    0  0.00000000000E+00  0.00000000000E+00  0.17659578399E+03  0.17659578399E+03  0.00000000000E+00 0.  1.
          1   -1    0    0  501    0 -0.00000000000E+00 -0.00000000000E+00 -0.79318536778E+01  0.79318536778E+01  0.00000000000E+00 0.  1.
          2    1    1    2  501    0  0.30926005312E+02 -0.20237566669E+02  0.98865210983E+02  0.10554765204E+03  0.00000000000E+00 0.  1.
          1    1    1    2  502    0 -0.30926005312E+02  0.20237566669E+02  0.69798719334E+02  0.78979985629E+02  0.00000000000E+00 0.  1.
</event>
<event>
 4    1  0.3752836E+003  0.2190274E+02  0.7546771E-02  0.1506756E+00
          2   -1    0    0  502    0  0.00000000000E+00  0.00000000000E+00  0.39669254929E+03  0.39669254929E+03  0.00000000000E+00 0. -1.
          1   -1    0    0  501    0 -0.00000000000E+00 -0.00000000000E+00 -0.75295315043E+02  0.75295315043E+02  0.00000000000E+00 0. -1.
          2    1    1    2  501    0 -0.21270587147E+02  0.52242088436E+01  0.39478971775E+03  0.39539682785E+03  0.00000000000E+00 0. -1.
          1    1    1    2  502    0  0.21270587147E+02 -0.52242088436E+01 -0.73392483498E+02  0.76591036484E+02  0.00000000000E+00 0. -1.
</event>
<event>
 4    1  0.3752836E+003  0.3105543E+02  0.7546771E-02  0.1410641E+00
          2   -1    0    0  502    0  0.00000000000E+00  0.00000000000E+00  0.26955678919E+03  0.26955678919E+03  0.00000000000E+00 0.  1.
          1   -1    0    0  501    0 -0.00000000000E+00 -0.00000000000E+00 -0.92598562100E+01  0.92598562100E+01  0.00000000000E+00 0.  1.
          2    1    1    2  501    0  0.28824114339E+02 -0.11558973305E+02  0.23935198420E+03  0.24135826435E+03  0.00000000000E+00 0.  1.
          1    1    1    2  502    0 -0.28824114339E+02  0.11558973305E+02  0.20944948781E+02  0.37458381048E+02  0.00000000000E+00 0.  1.
</event>
<event>
 4    1  0.3752836E+003  0.2381789E+02  0.7546771E-02  0.1482476E+00
          2   -1    0    0  502    0  0.00000000000E+00  0.00000000000E+00  0.10414894673E+04  0.10414894673E+04  0.00000000000E+00 0. -1.
          1   -1    0    0  501    0 -0.00000000000E+00 -0.00000000000E+00 -0.64004782411E+00  0.64004782411E+00  0.00000000000E+00 0. -1.
          2    1    1    2  501    0 -0.20089538597E+02 -0.12794618033E+02  0.72154564660E+03  0.72193864832E+03  0.00000000000E+00 0. -1.
          1    1    1    2  502    0  0.20089538597E+02  0.12794618033E+02  0.31930377291E+03  0.32019086684E+03  0.00000000000E+00 0. -1.
</event>
<event>
 4    1  0.3752836E+003  0.2515421E+02  0.7546771E-02  0.1467086E+00
          2   -1    0    0  502    0  0.00000000000E+00  0.00000000000E+00  0.17741879118E+04  0.17741879118E+04  0.00000000000E+00 0.  1.
          1   -1    0    0  501    0 -0.00000000000E+00 -0.00000000000E+00 -0.80203646209E+00  0.80203646209E+00  0.00000000000E+00 0. -1.
          2    1    1    2  501    0  0.23294885795E+02  0.94911732765E+01  0.15480646386E+04  0.15482689881E+04  0.00000000000E+00 0.  1.
          1    1    1    2  502    0 -0.23294885795E+02 -0.94911732765E+01  0.22532123677E+03  0.22672096025E+03  0.00000000000E+00 0. -1.
</event>
<event>
 4    1  0.3752836E+003  0.5220843E+02  0.7546771E-02  0.1288871E+00
          2   -1    0    0  502    0  0.00000000000E+00  0.00000000000E+00  0.11818398692E+04  0.11818398692E+04  0.00000000000E+00 0. -1.
          1   -1    0    0  501    0 -0.00000000000E+00 -0.00000000000E+00 -0.52540746350E+02  0.52540746350E+02  0.00000000000E+00 0.  1.
          2    1    1    2  501    0  0.52110478576E+02  0.31966649925E+01  0.11681417179E+04  0.11693078268E+04  0.00000000000E+00 0. -1.
          1    1    1    2  502    0 -0.52110478576E+02 -0.31966649925E+01 -0.38842595074E+02  0.65072788757E+02  0.00000000000E+00 0.  1.
</event>
<event>
 4    1  0.3752836E+003  0.2071440E+02  0.7546771E-02  0.1523382E+00
          2   -1    0    0  502    0  0.00000000000E+00  0.00000000000E+00  0.25820726830E+03  0.25820726830E+03  0.00000000000E+00 0. -1.
          1   -1    0    0  501    0 -0.00000000000E+00 -0.00000000000E+00 -0.16617949429E+01  0.16617949429E+01  0.00000000000E+00 0. -1.
          2    1    1    2  501    0  0.20180325339E+02  0.46734081207E+01  0.12849525661E+03  0.13015420564E+03  0.00000000000E+00 0. -1.
          1    1    1    2  502    0 -0.20180325339E+02 -0.46734081207E+01  0.12805021675E+03  0.12971485761E+03  0.00000000000E+00 0. -1.
</event>
<event>
 4    1  0.3752836E+003  0.2475604E+02  0.7546771E-02  0.1471551E+00
          2   -1    0    0  502    0  0.00000000000E+00  0.00000000000E+00  0.59495181172E+03  0.59495181172E+03  0.00000000000E+00 0.  1.
          1   -1    0    0  501    0 -0.00000000000E+00 -0.00000000000E+00 -0.30842144564E+01  0.30842144564E+01  0.00000000000E+00 0.  1.
          2    1    1    2  501    0 -0.24286647809E+02  0.47979391002E+01  0.53996035919E+03  0.54052756727E+03  0.00000000000E+00 0.  1.
          1    1    1    2  502    0  0.24286647809E+02 -0.47979391002E+01  0.51907238070E+02  0.57508458904E+02  0.00000000000E+00 0.  1.
</event>
<event>
 4    1  0.3752836E+003  0.3478759E+02  0.7546771E-02  0.1382063E+00
          2   -1    0    0  502    0  0.00000000000E+00  0.00000000000E+00  0.21998966306E+04  0.21998966306E+04  0.00000000000E+00 0.  1.
          1   -1    0    0  501    0 -0.00000000000E+00 -0.00000000000E+00 -0.59517629333E+03  0.59517629333E+03  0.00000000000E+00 0. -1.
          2    1    1    2  501    0 -0.15771848616E+02  0.31006860707E+02  0.21992506278E+04  0.21995257445E+04  0.00000000000E+00 0.  1.
          1    1    1    2  502    0  0.15771848616E+02 -0.31006860707E+02 -0.59453029053E+03  0.59554717947E+03  0.00000000000E+00 0. -1.
</event>
<event>
 4    1  0.3752836E+003  0.2039171E+02  0.7546771E-02  0.1528130E+00
          2   -1    0    0  502    0  0.00000000000E+00  0.00000000000E+00  0.64510708423E+02  0.64510708423E+02  0.00000000000E+00 0.  1.
          1   -1    0    0  501    0 -0.00000000000E+00 -0.00000000000E+00 -0.42109274221E+02  0.42109274221E+02  0.00000000000E+00 0.  1.
          2    1    1    2  501    0 -0.52980671074E+01 -0.19691426047E+02  0.60261184946E+02  0.63617860589E+02  0.00000000000E+00 0.  1.
          1    1    1    2  502    0  0.52980671074E+01  0.19691426047E+02 -0.37859750744E+02  0.43002122055E+02  0.00000000000E+00 0.  1.
</event>
<event>
 4    1  0.3752836E+003  0.2275387E+02  0.7546771E-02  0.1495612E+00
          2   -1    0    0  502    0  0.00000000000E+00  0.00000000000E+00  0.41404630816E+03  0.41404630816E+03  0.00000000000E+00 0.  1.
          1   -1    0    0  501    0 -0.00000000000E+00 -0.00000000000E+00 -0.91275519487E+01  0.91275519487E+01  0.00000000000E+00 0.  1.
          2    1    1    2  501    0 -0.67315754906E+01 -0.21735326394E+02  0.39901944545E+03  0.39966768242E+03  0.00000000000E+00 0.  1.
          1    1    1    2  502    0  0.67315754906E+01  0.21735326394E+02  0.58993107575E+01  0.23506177687E+02  0.00000000000E+00 0.  1.
</event>
<event>
 4    1  0.3752836E+003  0.2535614E+02  0.7546771E-02  0.1464858E+00
          2   -1    0    0  502    0  0.00000000000E+00  0.00000000000E+00  0.65946762143E+03  0.65946762143E+03  0.00000000000E+00 0. -1.
          1   -1    0    0  501    0 -0.00000000000E+00 -0.00000000000E+00 -0.30402806170E+02  0.30402806170E+02  0.00000000000E+00 0. -1.
          2    1    1    2  501    0  0.42637039137E+01  0.24995095605E+02  0.65389202884E+03  0.65438346507E+03  0.00000000000E+00 0. -1.
          1    1    1    2  502    0 -0.42637039137E+01 -0.24995095605E+02 -0.24827213582E+02  0.35486962530E+02  0.00000000000E+00 0. -1.
</event>
<event>
 4    1  0.3752836E+003  0.3474868E+02  0.7546771E-02  0.1382339E+00
          2   -1    0    0  502    0  0.00000000000E+00  0.00000000000E+00  0.71331055769E+01  0.71331055769E+01  0.00000000000E+00 0.  1.
          1   -1    0    0  501    0 -0.00000000000E+00 -0.00000000000E+00 -0.58600458673E+03  0.58600458673E+03  0.00000000000E+00 0.  1.
          2    1    1    2  501    0  0.32583836927E+02 -0.12073292977E+02 -0.39342970658E+02  0.52491334260E+02  0.00000000000E+00 0.  1.
          1    1    1    2  502    0 -0.32583836927E+02  0.12073292977E+02 -0.53952851049E+03  0.54064635804E+03  0.00000000000E+00 0.  1.
</event>
<event>
 4    1  0.3752836E+003  0.2738997E+02  0.7546771E-02  0.1443730E+00
          2   -1    0    0  502    0  0.00000000000E+00  0.00000000000E+00  0.12711247434E+01  0.12711247434E+01  0.00000000000E+00 0. -1.
          1   -1    0    0  501    0 -0.00000000000E+00 -0.00000000000E+00 -0.59400505311E+03  0.59400505311E+03  0.00000000000E+00 0. -1.
          2    1    1    2  501    0  0.26930709457E+01  0.27257255946E+02 -0.27252750536E+03  0.27390044142E+03  0.00000000000E+00 0. -1.
          1    1    1    2  502    0 -0.26930709457E+01 -0.27257255946E+02 -0.32020642301E+03  0.32137573644E+03  0.00000000000E+00 0. -1.
</event>
<event>
 4    1  0.3752836E+003  0.2690015E+02  0.7546771E-02  0.1448614E+00
          2   -1    0    0  502    0  0.00000000000E+00  0.00000000000E+00  0.92048974144E+02  0.92048974144E+02  0.00000000000E+00 0. -1.
          1   -1    0    0  501    0 -0.00000000000E+00 -0.00000000000E+00 -0.14423006241E+04  0.14423006241E+04  0.00000000000E+00 0.  1.
          2    1    1    2  501    0  0.12987059023E+02 -0.23557467440E+02  0.89955382744E+02  0.93891367329E+02  0.00000000000E+00 0. -1.
          1    1    1    2  502    0 -0.12987059023E+02  0.23557467440E+02 -0.14402070327E+04  0.14404582309E+04  0.00000000000E+00 0.  1.
</event>
<event>
 4    1  0.3752836E+003  0.2070462E+02  0.7546771E-02  0.1523524E+00
          2   -1    0    0  502    0  0.00000000000E+00  0.00000000000E+00  0.22057415784E+02  0.22057415784E+02  0.00000000000E+00 0.  1.
          1   -1    0    0  501    0 -0.00000000000E+00 -0.00000000000E+00 -0.17437214339E+03  0.17437214339E+03  0.00000000000E+00 0.  1.
          2    1    1    2  501    0  0.19842334772E+02  0.59129721511E+01  0.16422458820E+02  0.26426854572E+02  0.00000000000E+00 0.  1.
          1    1    1    2  502    0 -0.19842334772E+02 -0.59129721511E+01 -0.16873718643E+03  0.17000270461E+03  0.00000000000E+00 0.  1.
</event>
<event>
 4    1  0.3752836E+003  0.2007052E+02  0.7546771E-02  0.1532960E+00
          2   -1    0    0  502    0  0.00000000000E+00  0.00000000000E+00  0.16980449847E+03  0.16980449847E+03  0.00000000000E+00 0. -1.
          1   -1    0    0  501    0 -0.00000000000E+00 -0.00000000000E+00 -0.32258666575E+01  0.32258666575E+01  0.00000000000E+00 0. -1.
          2    1    1    2  501    0 -0.11162816721E+02 -0.16679851436E+02  0.12779236603E+03  0.12935886030E+03  0.00000000000E+00 0. -1.
          1    1    1    2  502    0  0.11162816721E+02  0.16679851436E+02  0.38786265785E+02  0.43671504836E+02  0.00000000000E+00 0. -1.
</event>
<event>
 4    1  0.3752836E+003  0.3591924E+02  0.7546771E-02  0.1374213E+00
          2   -1    0    0  502    0  0.00000000000E+00  0.00000000000E+00  0.33263918045E+03  0.33263918045E+03  0.00000000000E+00 0. -1.
          1   -1    0    0  501    0 -0.00000000000E+00 -0.00000000000E+00 -0.36205881045E+03  0.36205881045E+03  0.00000000000E+00 0. -1.
          2    1    1    2  501    0  0.18720077586E+01  0.35870421685E+02  0.33077363621E+03  0.33271818402E+03  0.00000000000E+00 0. -1.
          1    1    1    2  502    0 -0.18720077586E+01 -0.35870421685E+02 -0.36019326621E+03  0.36197980688E+03  0.00000000000E+00 0. -1.
</event>
<event>
 4    1  0.3752836E+003  0.3147227E+02  0.7546771E-02  0.1407220E+00
          2   -1    0    0  502    0  0.00000000000E+00  0.00000000000E+00  0.10254577702E+02  0.10254577702E+02  0.00000000000E+00 0. -1.
          1   -1    0    0  501    0 -0.00000000000E+00 -0.00000000000E+00 -0.44047675611E+03  0.44047675611E+03  0.00000000000E+00 0. -1.
          2    1    1    2  501    0  0.11383833500E+02  0.29341305262E+02 -0.15982733482E+02  0.35298040019E+02  0.00000000000E+00 0. -1.
          1    1    1    2  502    0 -0.11383833500E+02 -0.29341305262E+02 -0.41423944493E+03  0.41543329380E+03  0.00000000000E+00 0. -1.
</event>
<event>
 4    1  0.3752836E+003  0.3049580E+02  0.7546771E-02  0.1415336E+00
          2   -1    0    0  502    0  0.00000000000E+00  0.00000000000E+00  0.15720178556E+04  0.15720178556E+04  0.00000000000E+00 0.  1.
          1   -1    0    0  501    0 -0.00000000000E+00 -0.00000000000E+00 -0.58595266981E+01  0.58595266981E+01  0.00000000000E+00 0. -1.
          2    1    1    2  501    0 -0.20096771431E+02  0.22937172607E+02  0.15311317938E+04  0.15314354587E+04  0.00000000000E+00 0.  1.
          1    1    1    2  502    0  0.20096771431E+02 -0.22937172607E+02  0.35026535137E+02  0.46441923655E+02  0.00000000000E+00 0. -1.
</event>
<event>
 4    1  0.3752836E+003  0.2966886E+02  0.7546771E-02  0.1422496E+00
          2   -1    0    0  502    0  0.00000000000E+00  0.00000000000E+00  0.17936829770E+04  0.17936829770E+04  0.00000000000E+00 0.  1.
          1   -1    0    0  501    0 -0.00000000000E+00 -0.00000000000E+00 -0.15668989119E+01  0.15668989119E+01  0.00000000000E+00 0.  1.
          2    1    1    2  501    0 -0.28873743933E+02 -0.68226188052E+01  0.16399529454E+04  0.16402212973E+04  0.00000000000E+00 0.  1.
          1    1    1    2  502    0  0.28873743933E+02  0.68226188052E+01  0.15216313277E+03  0.15502857862E+03  0.00000000000E+00 0.  1.
</event>
<event>
 4    1  0.3752836E+003  0.2277635E+02  0.7546771E-02  0.1495326E+00
          2   -1    0    0  502    0  0.00000000000E+00  0.00000000000E+00  0.59576842639E+03  0.59576842639E+03  0.00000000000E+00 0.  1.
          1   -1    0    0  501    0 -0.00000000000E+00 -0.00000000000E+00 -0.35274327487E+02  0.35274327487E+02  0.00000000000E+00 0.  1.
          2    1    1    2  501    0 -0.13261448431E+02  0.18517454347E+02  0.59184977959E+03  0.59228787235E+03  0.00000000000E+00 0.  1.
          1    1    1    2  502    0  0.13261448431E+02 -0.18517454347E+02 -0.31355680694E+02  0.38754881521E+02  0.00000000000E+00 0.  1.
</event>
<event>
 4    1  0.3752836E+003  0.2269637E+02  0.7546771E-02  0.1496346E+00
          2   -1    0    0  502    0  0.00000000000E+00  0.00000000000E+00  0.12058115550E+02  0.12058115550E+02  0.00000000000E+00 0.  1.
          1   -1    0    0  501    0 -0.00000000000E+00 -0.00000000000E+00 -0.52067204138E+02  0.52067204138E+02  0.00000000000E+00 0.  1.
          2    1    1    2  501    0 -0.95943479557E+01  0.20568738182E+02 -0.33589392856E+02  0.40538522611E+02  0.00000000000E+00 0.  1.
          1    1    1    2  502    0  0.95943479557E+01 -0.20568738182E+02 -0.64196957321E+01  0.23586797078E+02  0.00000000000E+00 0.  1.
</event>
<event>
 4    1  0.3752836E+003  0.2086502E+02  0.7546771E-02  0.1521201E+00
          2   -1    0    0  502    0  0.00000000000E+00  0.00000000000E+00  0.15801162521E+03  0.15801162521E+03  0.00000000000E+00 0. -1.
          1   -1    0    0  501    0 -0.00000000000E+00 -0.00000000000E+00 -0.51039484355E+01  0.51039484355E+01  0.00000000000E+00 0. -1.
          2    1    1    2  501    0 -0.20521981323E+02  0.37679425746E+01  0.13178033750E+03  0.13342191147E+03  0.00000000000E+00 0. -1.
          1    1    1    2  502    0  0.20521981323E+02 -0.37679425746E+01  0.21127339280E+02  0.29693662181E+02  0.00000000000E+00 0. -1.
</event>
<event>
 4    1  0.3752836E+003  0.2844388E+02  0.7546771E-02  0.1433619E+00
          2   -1    0    0  502    0  0.00000000000E+00  0.00000000000E+00  0.16806635311E+03  0.16806635311E+03  0.00000000000E+00 0. -1.
          1   -1    0    0  501    0 -0.00000000000E+00 -0.00000000000E+00 -0.50527115576E+01  0.50527115576E+01  0.00000000000E+00 0. -1.
          2    1    1    2  501    0 -0.27476802227E+02 -0.73538822204E+01  0.10032520520E+03  0.10427943729E+03  0.00000000000E+00 0. -1.
          1    1    1    2  502    0  0.27476802227E+02  0.73538822204E+01  0.62688436350E+02  0.68839627370E+02  0.00000000000E+00 0. -1.
</event>
<event>
 4    1  0.3752836E+003  0.2315029E+02  0.7546771E-02  0.1490620E+00
          2   -1    0    0  502    0  0.00000000000E+00  0.00000000000E+00  0.61367156084E+02  0.61367156084E+02  0.00000000000E+00 0.  1.
          1   -1    0    0  501    0 -0.00000000000E+00 -0.00000000000E+00 -0.96129453048E+01  0.96129453048E+01  0.00000000000E+00 0.  1.
          2    1    1    2  501    0  0.22495726409E+02 -0.54660796111E+01  0.36613054142E+02  0.43318027040E+02  0.00000000000E+00 0.  1.
          1    1    1    2  502    0 -0.22495726409E+02  0.54660796111E+01  0.15141156637E+02  0.27662074349E+02  0.00000000000E+00 0.  1.
</event>
<event>
 4    1  0.3752836E+003  0.2010539E+02  0.7546771E-02  0.1532431E+00
          2   -1    0    0  502    0  0.00000000000E+00  0.00000000000E+00  0.80987937606E+03  0.80987937606E+03  0.00000000000E+00 0.  1.
          1   -1    0    0  501    0 -0.00000000000E+00 -0.00000000000E+00 -0.53225427761E+02  0.53225427761E+02  0.00000000000E+00 0. -1.
          2    1    1    2  501    0 -0.10966226834E+02 -0.16851370876E+02  0.80785117538E+03  0.80810132310E+03  0.00000000000E+00 0.  1.
          1    1    1    2  502    0  0.10966226834E+02  0.16851370876E+02 -0.51197227078E+02  0.55003480725E+02  0.00000000000E+00 0. -1.
</event>
<event>
 4    1  0.3752836E+003  0.3074047E+02  0.7546771E-02  0.1413269E+00
          2   -1    0    0  502    0  0.00000000000E+00  0.00000000000E+00  0.10773040351E+04  0.10773040351E+04  0.00000000000E+00 0.  1.
          1   -1    0    0  501    0 -0.00000000000E+00 -0.00000000000E+00 -0.60921684342E+01  0.60921684342E+01  0.00000000000E+00 0. -1.
          2    1    1    2  501    0  0.10531252514E+02  0.28880251408E+02  0.10367914977E+04  0.10372471191E+04  0.00000000000E+00 0.  1.
          1    1    1    2  502    0 -0.10531252514E+02 -0.28880251408E+02  0.34420368908E+02  0.46149084462E+02  0.00000000000E+00 0. -1.
</event>
<event>
 4    1  0.3752836E+003  0.3908277E+02  0.7546771E-02  0.1353946E+00
          2   -1    0    0  502    0  0.00000000000E+00  0.00000000000E+00  0.37179548831E+03  0.37179548831E+03  0.00000000000E+00 0. -1.
          1   -1    0    0  501    0 -0.00000000000E+00 -0.00000000000E+00 -0.89712869157E+01  0.89712869157E+01  0.00000000000E+00 0.  1.
          2    1    1    2  501    0 -0.15531958849E+02  0.35863925326E+02  0.32158090490E+03  0.32394712729E+03  0.00000000000E+00 0. -1.
          1    1    1    2  502    0  0.15531958849E+02 -0.35863925326E+02  0.41243296496E+02  0.56819647934E+02  0.00000000000E+00 0.  1.
</event>
<event>
 4    1  0.3752836E+003  0.2760899E+02  0.7546771E-02  0.1441585E+00
          2   -1    0    0  502    0  0.00000000000E+00  0.00000000000E+00  0.22255869939E+04  0.22255869939E+04  0.00000000000E+00 0. -1.
          1   -1    0    0  501    0 -0.00000000000E+00 -0.00000000000E+00 -0.92237683693E+00  0.92237683693E+00  0.00000000000E+00 0. -1.
          2    1    1    2  501    0 -0.10370889857E+02 -0.25587120378E+02  0.19950248833E+04  0.19952159134E+04  0.00000000000E+00 0. -1.
          1    1    1    2  502    0  0.10370889857E+02  0.25587120378E+02  0.22963973378E+03  0.23129345736E+03  0.00000000000E+00 0. -1.
</event>
<event>
 4    1  0.3752836E+003  0.2499619E+02  0.7546771E-02  0.1468846E+00
          2   -1    0    0  502    0  0.00000000000E+00  0.00000000000E+00  0.10029091162E+04  0.10029091162E+04  0.00000000000E+00 0.  1.
          1   -1    0    0  501    0 -0.00000000000E+00 -0.00000000000E+00 -0.83886510979E+00  0.83886510979E+00  0.00000000000E+00 0.  1.
          2    1    1    2  501    0 -0.24964194585E+02  0.12640425720E+01  0.24644390378E+03  0.24770830936E+03  0.00000000000E+00 0.  1.
          1    1    1    2  502    0  0.24964194585E+02 -0.12640425720E+01  0.75562634730E+03  0.75603967194E+03  0.00000000000E+00 0.  1.
</event>
<event>
 4    1  0.3752836E+003  0.4894476E+02  0.7546771E-02  0.1302814E+00
          2   -1    0    0  502    0  0.00000000000E+00  0.00000000000E+00  0.24330377262E+03  0.24330377262E+03  0.00000000000E+00 0. -1.
          1   -1    0    0  501    0 -0.00000000000E+00 -0.00000000000E+00 -0.40058396524E+02  0.40058396524E+02  0.00000000000E+00 0. -1.
          2    1    1    2  501    0  0.35745489132E+00 -0.48943455506E+02  0.22466573288E+03  0.22993538471E+03  0.00000000000E+00 0. -1.
          1    1    1    2  502    0 -0.35745489132E+00  0.48943455506E+02 -0.21420356780E+02  0.53426784438E+02  0.00000000000E+00 0. -1.
</event>
<event>
 4    1  0.3752836E+003  0.2233260E+02  0.7546771E-02  0.1501053E+00
          2   -1    0    0  502    0  0.00000000000E+00  0.00000000000E+00  0.76002853115E+03  0.76002853115E+03  0.00000000000E+00 0. -1.
          1   -1    0    0  501    0 -0.00000000000E+00 -0.00000000000E+00 -0.12036142492E+01  0.12036142492E+01  0.00000000000E+00 0. -1.
          2    1    1    2  501    0  0.97792926270E+01 -0.20077613254E+02  0.63609362160E+03  0.63648553837E+03  0.00000000000E+00 0. -1.
          1    1    1    2  502    0 -0.97792926270E+01  0.20077613254E+02  0.12273129530E+03  0.12474660703E+03  0.00000000000E+00 0. -1.
</event>
<event>
 4    1  0.3752836E+003  0.2506059E+02  0.7546771E-02  0.1468127E+00
          2   -1    0    0  502    0  0.00000000000E+00  0.00000000000E+00  0.12041104304E+02  0.12041104304E+02  0.00000000000E+00 0. -1.
          1   -1    0    0  501    0 -0.00000000000E+00 -0.00000000000E+00 -0.40282250064E+03  0.40282250064E+03  0.00000000000E+00 0.  1.
          2    1    1    2  501    0 -0.38138994183E+01 -0.24768680045E+02 -0.18533793901E+01  0.25129034106E+02  0.00000000000E+00 0. -1.
          1    1    1    2  502    0  0.38138994183E+01  0.24768680045E+02 -0.38892801695E+03  0.38973457084E+03  0.00000000000E+00 0.  1.
</event>
<event>
 4    1  0.3752836E+003  0.2670746E+02  0.7546771E-02  0.1450569E+00
          2   -1    0    0  502    0  0.00000000000E+00  0.00000000000E+00  0.13211558421E+02  0.13211558421E+02  0.00000000000E+00 0. -1.
          1   -1    0    0  501    0 -0.00000000000E+00 -0.00000000000E+00 -0.21121814900E+03  0.21121814900E+03  0.00000000000E+00 0. -1.
          2    1    1    2  501    0  0.18679147285E+01 -0.26642057076E+02 -0.21865960926E+01  0.26796819086E+02  0.00000000000E+00 0. -1.
          1    1    1    2  502    0 -0.18679147285E+01  0.26642057076E+02 -0.19581999449E+03  0.19763288834E+03  0.00000000000E+00 0. -1.
</event>
<event>
 4    1  0.3752836E+003  0.2187902E+02  0.7546771E-02  0.1507075E+00
          2   -1    0    0  502    0  0.00000000000E+00  0.00000000000E+00  0.38918844120E+02  0.38918844120E+02  0.00000000000E+00 0.  1.
          1   -1    0    0  501    0 -0.00000000000E+00 -0.00000000000E+00 -0.11623829255E+03  0.11623829255E+03  0.00000000000E+00 0. -1.
          2    1    1    2  501    0 -0.11385609907E+02  0.18683133208E+02  0.34699627801E+02  0.41021405985E+02  0.00000000000E+00 0.  1.
          1    1    1    2  502    0  0.11385609907E+02 -0.18683133208E+02 -0.11201907623E+03  0.11413573068E+03  0.00000000000E+00 0. -1.
</event>
<event>
 4    1  0.3752836E+003  0.3567671E+02  0.7546771E-02  0.1375867E+00
          2   -1    0    0  502    0  0.00000000000E+00  0.00000000000E+00  0.14522525313E+04  0.14522525313E+04  0.00000000000E+00 0. -1.
          1   -1    0    0  501    0 -0.00000000000E+00 -0.00000000000E+00 -0.27421713534E+01  0.27421713534E+01  0.00000000000E+00 0. -1.
          2    1    1    2  501    0 -0.29218558079E+01 -0.35556858693E+02  0.13248328356E+04  0.13253131214E+04  0.00000000000E+00 0. -1.
          1    1    1    2  502    0  0.29218558079E+01  0.35556858693E+02  0.12467752428E+03  0.12968158120E+03  0.00000000000E+00 0. -1.
</event>
<event>
 4    1  0.3752836E+003  0.3705600E+02  0.7546771E-02  0.1366658E+00
          2   -1    0    0  502    0  0.00000000000E+00  0.00000000000E+00  0.14649568872E+04  0.14649568872E+04  0.00000000000E+00 0. -1.
          1   -1    0    0  501    0 -0.00000000000E+00 -0.00000000000E+00 -0.10533315495E+02  0.10533315495E+02  0.00000000000E+00 0. -1.
          2    1    1    2  501    0 -0.12485867713E+02 -0.34889112689E+02  0.14313673162E+04  0.14318468986E+04  0.00000000000E+00 0. -1.
          1    1    1    2  502    0  0.12485867713E+02  0.34889112689E+02  0.23056255514E+02  0.43643304127E+02  0.00000000000E+00 0. -1.
</event>
<event>
 4    1  0.3752836E+003  0.9360983E+02  0.7546771E-02  0.1175367E+00
          2   -1    0    0  502    0  0.00000000000E+00  0.00000000000E+00  0.50131362109E+03  0.50131362109E+03  0.00000000000E+00 0. -1.
          1   -1    0    0  501    0 -0.00000000000E+00 -0.00000000000E+00 -0.23914087234E+02  0.23914087234E+02  0.00000000000E+00 0.  1.
          2    1    1    2  501    0 -0.93319936592E+02 -0.73613260634E+01  0.37492110277E+03  0.38643063154E+03  0.00000000000E+00 0. -1.
          1    1    1    2  502    0  0.93319936592E+02  0.73613260634E+01  0.10247843109E+03  0.13879707679E+03  0.00000000000E+00 0.  1.
</event>
<event>
 4    1  0.3752836E+003  0.4648365E+02  0.7546771E-02  0.1314183E+00
          2   -1    0    0  502    0  0.00000000000E+00  0.00000000000E+00  0.10115473139E+04  0.10115473139E+04  0.00000000000E+00 0. -1.
          1   -1    0    0  501    0 -0.00000000000E+00 -0.00000000000E+00 -0.29571431370E+02  0.29571431370E+02  0.00000000000E+00 0.  1.
          2    1    1    2  501    0  0.43463390752E+02  0.16482203214E+02  0.99239389960E+03  0.99348194816E+03  0.00000000000E+00 0. -1.
          1    1    1    2  502    0 -0.43463390752E+02 -0.16482203214E+02 -0.10418017075E+02  0.47636797103E+02  0.00000000000E+00 0.  1.
</event>
<event>
 4    1  0.3752836E+003  0.2674243E+02  0.7546771E-02  0.1450213E+00
          2   -1    0    0  502    0  0.00000000000E+00  0.00000000000E+00  0.29357734866E+01  0.29357734866E+01  0.00000000000E+00 0.  1.
          1   -1    0    0  501    0 -0.00000000000E+00 -0.00000000000E+00 -0.62859981427E+03  0.62859981427E+03  0.00000000000E+00 0. -1.
          2    1    1    2  501    0 -0.16510916844E+02 -0.21036807245E+02 -0.65710622771E+02  0.70943946740E+02  0.00000000000E+00 0.  1.
          1    1    1    2  502    0  0.16510916844E+02  0.21036807245E+02 -0.55995341801E+03  0.56059164102E+03  0.00000000000E+00 0. -1.
</event>
<event>
 4    1  0.3752836E+003  0.4956275E+02  0.7546771E-02  0.1300079E+00
          2   -1    0    0  502    0  0.00000000000E+00  0.00000000000E+00  0.61449326815E+01  0.61449326815E+01  0.00000000000E+00 0. -1.
          1   -1    0    0  501    0 -0.00000000000E+00 -0.00000000000E+00 -0.94549984351E+03  0.94549984351E+03  0.00000000000E+00 0. -1.
          2    1    1    2  501    0 -0.48180997108E+02 -0.11621430004E+02 -0.10817682764E+03  0.11899030278E+03  0.00000000000E+00 0. -1.
          1    1    1    2  502    0  0.48180997108E+02  0.11621430004E+02 -0.83117808318E+03  0.83265447341E+03  0.00000000000E+00 0. -1.
</event>
<event>
 4    1  0.3752836E+003  0.2312217E+02  0.7546771E-02  0.1490970E+00
          2   -1    0    0  502    0  0.00000000000E+00  0.00000000000E+00  0.40112182813E+03  0.40112182813E+03  0.00000000000E+00 0. -1.
          1   -1    0    0  501    0 -0.00000000000E+00 -0.00000000000E+00 -0.30086035430E+02  0.30086035430E+02  0.00000000000E+00 0. -1.
          2    1    1    2  501    0  0.20971132876E+02 -0.97388984706E+01  0.39629197052E+03  0.39696594370E+03  0.00000000000E+00 0. -1.
          1    1    1    2  502    0 -0.20971132876E+02  0.97388984706E+01 -0.25256177822E+02  0.34241919860E+02  0.00000000000E+00 0. -1.
</event>
<event>
 4    1  0.3752836E+003  0.3643168E+02  0.7546771E-02  0.1370768E+00
          2   -1    0    0  502    0  0.00000000000E+00  0.00000000000E+00  0.64852455605E+03  0.64852455605E+03  0.00000000000E+00 0.  1.
          1   -1    0    0  501    0 -0.00000000000E+00 -0.00000000000E+00 -0.14096273989E+02  0.14096273989E+02  0.00000000000E+00 0.  1.
          2    1    1    2  501    0 -0.30494602633E+02  0.19933556898E+02  0.62353082411E+03  0.62459423316E+03  0.00000000000E+00 0.  1.
          1    1    1    2  502    0  0.30494602633E+02 -0.19933556898E+02  0.10897457950E+02  0.38026596878E+02  0.00000000000E+00 0.  1.
</event>
<event>
 4    1  0.3752836E+003  0.1093085E+03  0.7546771E-02  0.1148587E+00
          2   -1    0    0  502    0  0.00000000000E+00  0.00000000000E+00  0.10351339708E+03  0.10351339708E+03  0.00000000000E+00 0. -1.
          1   -1    0    0  501    0 -0.00000000000E+00 -0.00000000000E+00 -0.30857681540E+03  0.30857681540E+03  0.00000000000E+00 0.  1.
          2    1    1    2  501    0 -0.30275992092E+02  0.10503191327E+03  0.60482982263E+02  0.12492609674E+03  0.00000000000E+00 0. -1.
          1    1    1    2  502    0  0.30275992092E+02 -0.10503191327E+03 -0.26554640059E+03  0.28716411574E+03  0.00000000000E+00 0.  1.
</event>
<event>
 4    1  0.3752836E+003  0.2388345E+02  0.7546771E-02  0.1481693E+00
          2   -1    0    0  502    0  0.00000000000E+00  0.00000000000E+00  0.72539736239E+00  0.72539736239E+00  0.00000000000E+00 0.  1.
          1   -1    0    0  501    0 -0.00000000000E+00 -0.00000000000E+00 -0.13136654126E+04  0.13136654126E+04  0.00000000000E+00 0.  1.
          2    1    1    2  501    0 -0.23356811048E+02 -0.49878357954E+01 -0.24009398261E+03  0.24127896638E+03  0.00000000000E+00 0.  1.
          1    1    1    2  502    0  0.23356811048E+02  0.49878357954E+01 -0.10728460327E+04  0.10731118436E+04  0.00000000000E+00 0.  1.
</event>
<event>
 4    1  0.3752836E+003  0.1163840E+03  0.7546771E-02  0.1138101E+00
          2   -1    0    0  502    0  0.00000000000E+00  0.00000000000E+00  0.27906054673E+03  0.27906054673E+03  0.00000000000E+00 0.  1.
          1   -1    0    0  501    0 -0.00000000000E+00 -0.00000000000E+00 -0.48642983287E+02  0.48642983287E+02  0.00000000000E+00 0.  1.
          2    1    1    2  501    0  0.91046074216E+02  0.72497248440E+02  0.12279507643E+03  0.16918590207E+03  0.00000000000E+00 0.  1.
          1    1    1    2  502    0 -0.91046074216E+02 -0.72497248440E+02  0.10762248702E+03  0.15851762796E+03  0.00000000000E+00 0.  1.
</event>
<event>
 4    1  0.3752836E+003  0.2386119E+02  0.7546771E-02  0.1481958E+00
          2   -1    0    0  502    0  0.00000000000E+00  0.00000000000E+00  0.21831054741E+03  0.21831054741E+03  0.00000000000E+00 0. -1.
          1   -1    0    0  501    0 -0.00000000000E+00 -0.00000000000E+00 -0.74160310036E+01  0.74160310036E+01  0.00000000000E+00 0.  1.
          2    1    1    2  501    0  0.15876018775E+02 -0.17813152292E+02  0.19632343662E+03  0.19776816764E+03  0.00000000000E+00 0. -1.
          1    1    1    2  502    0 -0.15876018775E+02  0.17813152292E+02  0.14571079789E+02  0.27958410773E+02  0.00000000000E+00 0.  1.
</event>
<event>
 4    1  0.3752836E+003  0.2259410E+02  0.7546771E-02  0.1497659E+00
          2   -1    0    0  502    0  0.00000000000E+00  0.00000000000E+00  0.41975135570E+02  0.41975135570E+02  0.00000000000E+00 0. -1.
          1   -1    0    0  501    0 -0.00000000000E+00 -0.00000000000E+00 -0.38459794661E+02  0.38459794661E+02  0.00000000000E+00 0. -1.
          2    1    1    2  501    0 -0.44819570751E+00  0.22589653756E+02  0.35013861285E+02  0.41670898938E+02  0.00000000000E+00 0. -1.
          1    1    1    2  502    0  0.44819570751E+00 -0.22589653756E+02 -0.31498520376E+02  0.38764031293E+02  0.00000000000E+00 0. -1.
</event>
<event>
 4    1  0.3752836E+003  0.3816146E+02  0.7546771E-02  0.1359610E+00
          2   -1    0    0  502    0  0.00000000000E+00  0.00000000000E+00  0.11380917469E+04  0.11380917469E+04  0.00000000000E+00 0.  1.
          1   -1    0    0  501    0 -0.00000000000E+00 -0.00000000000E+00 -0.23971729060E+01  0.23971729060E+01  0.00000000000E+00 0.  1.
          2    1    1    2  501    0 -0.19300397982E+02 -0.32920994381E+02  0.95720624810E+03  0.95796664798E+03  0.00000000000E+00 0.  1.
          1    1    1    2  502    0  0.19300397982E+02  0.32920994381E+02  0.17848832589E+03  0.18252227182E+03  0.00000000000E+00 0.  1.
</event>
<event>
 4    1  0.3752836E+003  0.2239659E+02  0.7546771E-02  0.1500217E+00
          2   -1    0    0  502    0  0.00000000000E+00  0.00000000000E+00  0.11264230492E+04  0.11264230492E+04  0.00000000000E+00 0.  1.
          1   -1    0    0  501    0 -0.00000000000E+00 -0.00000000000E+00 -0.14021453461E+01  0.14021453461E+01  0.00000000000E+00 0.  1.
          2    1    1    2  501    0  0.17843953121E+02  0.13535165124E+02  0.10283473682E+04  0.10285912294E+04  0.00000000000E+00 0.  1.
          1    1    1    2  502    0 -0.17843953121E+02 -0.13535165124E+02  0.96673535653E+02  0.99233965221E+02  0.00000000000E+00 0.  1.
</event>
<event>
 4    1  0.3752836E+003  0.2114808E+02  0.7546771E-02  0.1517161E+00
          2   -1    0    0  502    0  0.00000000000E+00  0.00000000000E+00  0.27506300118E+02  0.27506300118E+02  0.00000000000E+00 0. -1.
          1   -1    0    0  501    0 -0.00000000000E+00 -0.00000000000E+00 -0.20190804226E+03  0.20190804226E+03  0.00000000000E+00 0.  1.
          2    1    1    2  501    0  0.12787240792E+02 -0.16844218569E+02  0.22790704852E+02  0.31091115354E+02  0.00000000000E+00 0. -1.
          1    1    1    2  502    0 -0.12787240792E+02  0.16844218569E+02 -0.19719244699E+03  0.19832322702E+03  0.00000000000E+00 0.  1.
</event>
<event>
 4    1  0.3752836E+003  0.3254633E+02  0.7546771E-02  0.1398686E+00
          2   -1    0    0  502    0  0.00000000000E+00  0.00000000000E+00  0.40747231814E+02  0.40747231814E+02  0.00000000000E+00 0.  1.
          1   -1    0    0  501    0 -0.00000000000E+00 -0.00000000000E+00 -0.27747480940E+02  0.27747480940E+02  0.00000000000E+00 0.  1.
          2    1    1    2  501    0 -0.24643098300E+02 -0.21259831464E+02 -0.21046121017E+01  0.32614293183E+02  0.00000000000E+00 0.  1.
          1    1    1    2  502    0  0.24643098300E+02  0.21259831464E+02  0.15104362976E+02  0.35880419572E+02  0.00000000000E+00 0.  1.
</event>
<event>
 4    1  0.3752836E+003  0.3113436E+02  0.7546771E-02  0.1409988E+00
          2   -1    0    0  502    0  0.00000000000E+00  0.00000000000E+00  0.15983856649E+04  0.15983856649E+04  0.00000000000E+00 0. -1.
          1   -1    0    0  501    0 -0.00000000000E+00 -0.00000000000E+00 -0.49406783078E+01  0.49406783078E+01  0.00000000000E+00 0. -1.
          2    1    1    2  501    0  0.16616999973E+02  0.26329144550E+02  0.15475744194E+04  0.15478875709E+04  0.00000000000E+00 0. -1.
          1    1    1    2  502    0 -0.16616999973E+02 -0.26329144550E+02  0.45870567166E+02  0.55438772290E+02  0.00000000000E+00 0. -1.
</event>
<event>
 4    1  0.3752836E+003  0.3136826E+02  0.7546771E-02  0.1408068E+00
          2   -1    0    0  502    0  0.00000000000E+00  0.00000000000E+00  0.21204555372E+04  0.21204555372E+04  0.00000000000E+00 0.  1.
          1   -1    0    0  501    0 -0.00000000000E+00 -0.00000000000E+00 -0.21312831129E+02  0.21312831129E+02  0.00000000000E+00 0.  1.
          2    1    1    2  501    0  0.20653865844E+02 -0.23609013235E+02  0.21087334082E+04  0.21089667030E+04  0.00000000000E+00 0.  1.
          1    1    1    2  502    0 -0.20653865844E+02  0.23609013235E+02 -0.95907021066E+01  0.32801665310E+02  0.00000000000E+00 0.  1.
</event>
<event>
 4    1  0.3752836E+003  0.2598135E+02  0.7546771E-02  0.1458118E+00
          2   -1    0    0  502    0  0.00000000000E+00  0.00000000000E+00  0.99550676149E+01  0.99550676149E+01  0.00000000000E+00 0. -1.
          1   -1    0    0  501    0 -0.00000000000E+00 -0.00000000000E+00 -0.12040544821E+03  0.12040544821E+03  0.00000000000E+00 0.  1.
          2    1    1    2  501    0  0.12683888903E+02 -0.22674864466E+02 -0.12145113795E+02  0.28679858880E+02  0.00000000000E+00 0. -1.
          1    1    1    2  502    0 -0.12683888903E+02  0.22674864466E+02 -0.98305266799E+02  0.10168065694E+03  0.00000000000E+00 0.  1.
</event>
<event>
 4    1  0.3752836E+003  0.4799288E+02  0.7546771E-02  0.1307117E+00
          2   -1    0    0  502    0  0.00000000000E+00  0.00000000000E+00  0.49510305656E+03  0.49510305656E+03  0.00000000000E+00 0.  1.
          1   -1    0    0  501    0 -0.00000000000E+00 -0.00000000000E+00 -0.12709518287E+02  0.12709518287E+02  0.00000000000E+00 0.  1.
          2    1    1    2  501    0  0.97354911367E+01 -0.46995076102E+02  0.44336096857E+03  0.44595096751E+03  0.00000000000E+00 0.  1.
          1    1    1    2  502    0 -0.97354911367E+01  0.46995076102E+02  0.39032569704E+02  0.61861607344E+02  0.00000000000E+00 0.  1.
</event>
<event>
 4    1  0.3752836E+003  0.2464418E+02  0.7546771E-02  0.1472823E+00
          2   -1    0    0  502    0  0.00000000000E+00  0.00000000000E+00  0.95984672678E+01  0.95984672678E+01  0.00000000000E+00 0.  1.
          1   -1    0    0  501    0 -0.00000000000E+00 -0.00000000000E+00 -0.81559908929E+02  0.81559908929E+02  0.00000000000E+00 0.  1.
          2    1    1    2  501    0  0.24607628350E+02  0.13417395166E+01 -0.14399115393E+02  0.28542427403E+02  0.00000000000E+00 0.  1.
          1    1    1    2  502    0 -0.24607628350E+02 -0.13417395166E+01 -0.57562326267E+02  0.62615948793E+02  0.00000000000E+00 0.  1.
</event>
<event>
 4    1  0.3752836E+003  0.2427787E+02  0.7546771E-02  0.1477046E+00
          2   -1    0    0  502    0  0.00000000000E+00  0.00000000000E+00  0.13669080922E+04  0.13669080922E+04  0.00000000000E+00 0. -1.
          1   -1    0    0  501    0 -0.00000000000E+00 -0.00000000000E+00 -0.38192240902E+01  0.38192240902E+01  0.00000000000E+00 0. -1.
          2    1    1    2  501    0 -0.19575631626E+02  0.14360007730E+02  0.13270597330E+04  0.13272817900E+04  0.00000000000E+00 0. -1.
          1    1    1    2  502    0  0.19575631626E+02 -0.14360007730E+02  0.36029135088E+02  0.43445526246E+02  0.00000000000E+00 0. -1.
</event>
<event>
 4    1  0.3752836E+003  0.2773366E+02  0.7546771E-02  0.1440374E+00
          2   -1    0    0  502    0  0.00000000000E+00  0.00000000000E+00  0.38252734688E+03  0.38252734688E+03  0.00000000000E+00 0.  1.
          1   -1    0    0  501    0 -0.00000000000E+00 -0.00000000000E+00 -0.32448123413E+01  0.32448123413E+01  0.00000000000E+00 0.  1.
          2    1    1    2  501    0  0.23556517453E+02  0.14637152716E+02  0.30859545979E+03  0.30983917370E+03  0.00000000000E+00 0.  1.
          1    1    1    2  502    0 -0.23556517453E+02 -0.14637152716E+02  0.70687074748E+02  0.75932985524E+02  0.00000000000E+00 0.  1.
</event>
<event>
 4    1  0.3752836E+003  0.2170803E+02  0.7546771E-02  0.1509391E+00
          2   -1    0    0  502    0  0.00000000000E+00  0.00000000000E+00  0.60210410707E+02  0.60210410707E+02  0.00000000000E+00 0.  1.
          1   -1    0    0  501    0 -0.00000000000E+00 -0.00000000000E+00 -0.83340577158E+01  0.83340577158E+01  0.00000000000E+00 0.  1.
          2    1    1    2  501    0 -0.18793606996E+01  0.21626526220E+02  0.34395709691E+02  0.40673129682E+02  0.00000000000E+00 0.  1.
          1    1    1    2  502    0  0.18793606996E+01 -0.21626526220E+02  0.17480643300E+02  0.27871338741E+02  0.00000000000E+00 0.  1.
</event>
<event>
 4    1  0.3752836E+003  0.5542411E+02  0.7546771E-02  0.1276226E+00
          2   -1    0    0  502    0  0.00000000000E+00  0.00000000000E+00  0.65373226596E+03  0.65373226596E+03  0.00000000000E+00 0. -1.
          1   -1    0    0  501    0 -0.00000000000E+00 -0.00000000000E+00 -0.15550149440E+03  0.15550149440E+03  0.00000000000E+00 0. -1.
          2    1    1    2  501    0 -0.55152732059E+02 -0.54780101197E+01  0.64757205324E+03  0.64993953302E+03  0.00000000000E+00 0. -1.
          1    1    1    2  502    0  0.55152732059E+02  0.54780101197E+01 -0.14934128168E+03  0.15929422734E+03  0.00000000000E+00 0. -1.
</event>
<event>
 4    1  0.3752836E+003  0.3067356E+02  0.7546771E-02  0.1413832E+00
          2   -1    0    0  502    0  0.00000000000E+00  0.00000000000E+00  0.99476542850E+03  0.99476542850E+03  0.00000000000E+00 0.  1.
          1   -1    0    0  501    0 -0.00000000000E+00 -0.00000000000E+00 -0.58507787861E+01  0.58507787861E+01  0.00000000000E+00 0.  1.
          2    1    1    2  501    0  0.30565573660E+02  0.25715246053E+01  0.95254485405E+03  0.95303859628E+03  0.00000000000E+00 0.  1.
          1    1    1    2  502    0 -0.30565573660E+02 -0.25715246053E+01  0.36369795664E+02  0.47577611001E+02  0.00000000000E+00 0.  1.
</event>
<event>
 4    1  0.3752836E+003  0.2037418E+02  0.7546771E-02  0.1528390E+00
          2   -1    0    0  502    0  0.00000000000E+00  0.00000000000E+00  0.19630470587E+02  0.19630470587E+02  0.00000000000E+00 0.  1.
          1   -1    0    0  501    0 -0.00000000000E+00 -0.00000000000E+00 -0.10400068400E+03  0.10400068400E+03  0.00000000000E+00 0. -1.
          2    1    1    2  501    0 -0.10993860181E+02 -0.17153489990E+02  0.12989366777E+02  0.24162591537E+02  0.00000000000E+00 0.  1.
          1    1    1    2  502    0  0.10993860181E+02  0.17153489990E+02 -0.97359580186E+02  0.99468563047E+02  0.00000000000E+00 0. -1.
</event>
<event>
 4    1  0.3752836E+003  0.2134014E+02  0.7546771E-02  0.1514464E+00
          2   -1    0    0  502    0  0.00000000000E+00  0.00000000000E+00  0.10253610218E+04  0.10253610218E+04  0.00000000000E+00 0. -1.
          1   -1    0    0  501    0 -0.00000000000E+00 -0.00000000000E+00 -0.12819110501E+03  0.12819110501E+03  0.00000000000E+00 0.  1.
          2    1    1    2  501    0 -0.20507988132E+02 -0.59011867222E+01  0.10243609902E+04  0.10245832517E+04  0.00000000000E+00 0. -1.
          1    1    1    2  502    0  0.20507988132E+02  0.59011867222E+01 -0.12719107339E+03  0.12896887505E+03  0.00000000000E+00 0.  1.
</event>
<event>
 4    1  0.3752836E+003  0.3692416E+02  0.7546771E-02  0.1367518E+00
          2   -1    0    0  502    0  0.00000000000E+00  0.00000000000E+00  0.20752598450E+04  0.20752598450E+04  0.00000000000E+00 0.  1.
          1   -1    0    0  501    0 -0.00000000000E+00 -0.00000000000E+00 -0.18822460805E+01  0.18822460805E+01  0.00000000000E+00 0.  1.
          2    1    1    2  501    0 -0.15061960803E+02 -0.33712479847E+02  0.18746310540E+04  0.18749946620E+04  0.00000000000E+00 0.  1.
          1    1    1    2  502    0  0.15061960803E+02  0.33712479847E+02  0.19874654492E+03  0.20214742907E+03  0.00000000000E+00 0.  1.
</event>
<event>
 4    1  0.3752836E+003  0.2339712E+02  0.7546771E-02  0.1487571E+00
          2   -1    0    0  502    0  0.00000000000E+00  0.00000000000E+00  0.10177579340E+04  0.10177579340E+04  0.00000000000E+00 0.  1.
          1   -1    0    0  501    0 -0.00000000000E+00 -0.00000000000E+00 -0.76739204753E+02  0.76739204753E+02  0.00000000000E+00 0.  1.
          2    1    1    2  501    0 -0.18694662273E+02 -0.14068937387E+02  0.10158366976E+04  0.10161061074E+04  0.00000000000E+00 0.  1.
          1    1    1    2  502    0  0.18694662273E+02  0.14068937387E+02 -0.74817968368E+02  0.78391031294E+02  0.00000000000E+00 0.  1.
</event>
<event>
 4    1  0.3752836E+003  0.2042493E+02  0.7546771E-02  0.1527636E+00
          2   -1    0    0  502    0  0.00000000000E+00  0.00000000000E+00  0.80868551782E+03  0.80868551782E+03  0.00000000000E+00 0.  1.
          1   -1    0    0  501    0 -0.00000000000E+00 -0.00000000000E+00 -0.31802367226E+03  0.31802367226E+03  0.00000000000E+00 0.  1.
          2    1    1    2  501    0 -0.23734544511E+01 -0.20286561199E+02  0.80822841890E+03  0.80848645936E+03  0.00000000000E+00 0.  1.
          1    1    1    2  502    0  0.23734544511E+01  0.20286561199E+02 -0.31756657334E+03  0.31822273073E+03  0.00000000000E+00 0.  1.
</event>
<event>
 4    1  0.3752836E+003  0.2090407E+02  0.7546771E-02  0.1520639E+00
          2   -1    0    0  502    0  0.00000000000E+00  0.00000000000E+00  0.12052248311E+03  0.12052248311E+03  0.00000000000E+00 0.  1.
          1   -1    0    0  501    0 -0.00000000000E+00 -0.00000000000E+00 -0.22759401745E+03  0.22759401745E+03  0.00000000000E+00 0. -1.
          2    1    1    2  501    0  0.10897417696E+01 -0.20875647503E+02  0.11913048858E+03  0.12095062424E+03  0.00000000000E+00 0.  1.
          1    1    1    2  502    0 -0.10897417696E+01  0.20875647503E+02 -0.22620202292E+03  0.22716587633E+03  0.00000000000E+00 0. -1.
</event>
<event>
 4    1  0.3752836E+003  0.2227360E+02  0.7546771E-02  0.1501827E+00
          2   -1    0    0  502    0  0.00000000000E+00  0.00000000000E+00  0.15079801408E+03  0.15079801408E+03  0.00000000000E+00 0.  1.
          1   -1    0    0  501    0 -0.00000000000E+00 -0.00000000000E+00 -0.36333881566E+01  0.36333881566E+01  0.00000000000E+00 0.  1.
          2    1    1    2  501    0  0.21072615652E+02  0.72151260763E+01  0.97323034581E+02  0.99839302055E+02  0.00000000000E+00 0.  1.
          1    1    1    2  502    0 -0.21072615652E+02 -0.72151260763E+01  0.49841591341E+02  0.54592100181E+02  0.00000000000E+00 0.  1.
</event>
<event>
 4    1  0.3752836E+003  0.4625168E+02  0.7546771E-02  0.1315297E+00
          2   -1    0    0  502    0  0.00000000000E+00  0.00000000000E+00  0.43236324741E+03  0.43236324741E+03  0.00000000000E+00 0. -1.
          1   -1    0    0  501    0 -0.00000000000E+00 -0.00000000000E+00 -0.14108705555E+02  0.14108705555E+02  0.00000000000E+00 0. -1.
          2    1    1    2  501    0 -0.23046125731E+02 -0.40101043071E+02  0.38901080490E+03  0.39175071652E+03  0.00000000000E+00 0. -1.
          1    1    1    2  502    0  0.23046125731E+02  0.40101043071E+02  0.29243736951E+02  0.54721236439E+02  0.00000000000E+00 0. -1.
</event>
<event>
 4    1  0.3752836E+003  0.4783062E+02  0.7546771E-02  0.1307862E+00
          2   -1    0    0  502    0  0.00000000000E+00  0.00000000000E+00  0.18729552665E+04  0.18729552665E+04  0.00000000000E+00 0. -1.
          1   -1    0    0  501    0 -0.00000000000E+00 -0.00000000000E+00 -0.11414575584E+03  0.11414575584E+03  0.00000000000E+00 0. -1.
          2    1    1    2  501    0  0.31829675920E+01  0.47724599135E+02  0.18676249693E+04  0.18682373497E+04  0.00000000000E+00 0. -1.
          1    1    1    2  502    0 -0.31829675920E+01 -0.47724599135E+02 -0.10881545865E+03  0.11886367269E+03  0.00000000000E+00 0. -1.
</event>
<event>
 4    1  0.3752836E+003  0.6196746E+02  0.7546771E-02  0.1253290E+00
          2   -1    0    0  502    0  0.00000000000E+00  0.00000000000E+00  0.25665786056E+02  0.25665786056E+02  0.00000000000E+00 0.  1.
          1   -1    0    0  501    0 -0.00000000000E+00 -0.00000000000E+00 -0.39362908677E+03  0.39362908677E+03  0.00000000000E+00 0.  1.
          2    1    1    2  501    0 -0.61955686803E+02  0.12080903879E+01 -0.18916988480E+02  0.64790578503E+02  0.00000000000E+00 0.  1.
          1    1    1    2  502    0  0.61955686803E+02 -0.12080903879E+01 -0.34904631223E+03  0.35450429432E+03  0.00000000000E+00 0.  1.
</event>
<event>
 4    1  0.3752836E+003  0.2168877E+02  0.7546771E-02  0.1509654E+00
          2   -1    0    0  502    0  0.00000000000E+00  0.00000000000E+00  0.24273938682E+03  0.24273938682E+03  0.00000000000E+00 0. -1.
          1   -1    0    0  501    0 -0.00000000000E+00 -0.00000000000E+00 -0.12454931755E+03  0.12454931755E+03  0.00000000000E+00 0.  1.
          2    1    1    2  501    0  0.12216941744E+02  0.17920635993E+02  0.24130510268E+03  0.24227784760E+03  0.00000000000E+00 0. -1.
          1    1    1    2  502    0 -0.12216941744E+02 -0.17920635993E+02 -0.12311503340E+03  0.12501085677E+03  0.00000000000E+00 0.  1.
</event>
<event>
 4    1  0.3752836E+003  0.2497155E+02  0.7546771E-02  0.1469122E+00
          2   -1    0    0  502    0  0.00000000000E+00  0.00000000000E+00  0.16960456689E+01  0.16960456689E+01  0.00000000000E+00 0. -1.
          1   -1    0    0  501    0 -0.00000000000E+00 -0.00000000000E+00 -0.12663211487E+04  0.12663211487E+04  0.00000000000E+00 0.  1.
          2    1    1    2  501    0  0.24963667463E+02  0.62746965542E+00 -0.98216043690E+02  0.10134085874E+03  0.00000000000E+00 0. -1.
          1    1    1    2  502    0 -0.24963667463E+02 -0.62746965542E+00 -0.11664090593E+04  0.11666763356E+04  0.00000000000E+00 0.  1.
</event>
<event>
 4    1  0.3752836E+003  0.2028807E+02  0.7546771E-02  0.1529677E+00
          2   -1    0    0  502    0  0.00000000000E+00  0.00000000000E+00  0.23105661676E+03  0.23105661676E+03  0.00000000000E+00 0.  1.
          1   -1    0    0  501    0 -0.00000000000E+00 -0.00000000000E+00 -0.32156177790E+01  0.32156177790E+01  0.00000000000E+00 0.  1.
          2    1    1    2  501    0 -0.14764774045E+02 -0.13914275664E+02  0.19214904790E+03  0.19321713751E+03  0.00000000000E+00 0.  1.
          1    1    1    2  502    0  0.14764774045E+02  0.13914275664E+02  0.35691951084E+02  0.41055097029E+02  0.00000000000E+00 0.  1.
</event>
<event>
 4    1  0.3752836E+003  0.2106261E+02  0.7546771E-02  0.1518373E+00
          2   -1    0    0  502    0  0.00000000000E+00  0.00000000000E+00  0.16794506020E+02  0.16794506020E+02  0.00000000000E+00 0. -1.
          1   -1    0    0  501    0 -0.00000000000E+00 -0.00000000000E+00 -0.22292699539E+03  0.22292699539E+03  0.00000000000E+00 0.  1.
          2    1    1    2  501    0  0.17941545051E+02  0.11033343049E+02  0.94693074461E+01  0.23093321137E+02  0.00000000000E+00 0. -1.
          1    1    1    2  502    0 -0.17941545051E+02 -0.11033343049E+02 -0.21560179682E+03  0.21662818027E+03  0.00000000000E+00 0.  1.
</event>
<event>
 4    1  0.3752836E+003  0.2252914E+02  0.7546771E-02  0.1498497E+00
          2   -1    0    0  502    0  0.00000000000E+00  0.00000000000E+00  0.14922728539E+04  0.14922728539E+04  0.00000000000E+00 0.  1.
          1   -1    0    0  501    0 -0.00000000000E+00 -0.00000000000E+00 -0.61095614928E+00  0.61095614928E+00  0.00000000000E+00 0.  1.
          2    1    1    2  501    0 -0.82211690793E+01  0.20975567123E+02  0.12428108559E+04  0.12430150384E+04  0.00000000000E+00 0.  1.
          1    1    1    2  502    0  0.82211690793E+01 -0.20975567123E+02  0.24885104187E+03  0.24986877171E+03  0.00000000000E+00 0.  1.
</event>
<event>
 4    1  0.3752836E+003  0.2617531E+02  0.7546771E-02  0.1456073E+00
          2   -1    0    0  502    0  0.00000000000E+00  0.00000000000E+00  0.39745298762E+01  0.39745298762E+01  0.00000000000E+00 0. -1.
          1   -1    0    0  501    0 -0.00000000000E+00 -0.00000000000E+00 -0.32492405151E+03  0.32492405151E+03  0.00000000000E+00 0.  1.
          2    1    1    2  501    0 -0.25703058477E+02 -0.49497147671E+01 -0.47798488713E+02  0.54496260556E+02  0.00000000000E+00 0. -1.
          1    1    1    2  502    0  0.25703058477E+02  0.49497147671E+01 -0.27315103292E+03  0.27440232083E+03  0.00000000000E+00 0.  1.
</event>
<event>
 4    1  0.3752836E+003  0.2122787E+02  0.7546771E-02  0.1516036E+00
          2   -1    0    0  502    0  0.00000000000E+00  0.00000000000E+00  0.15457085757E+04  0.15457085757E+04  0.00000000000E+00 0.  1.
          1   -1    0    0  501    0 -0.00000000000E+00 -0.00000000000E+00 -0.30458863912E+02  0.30458863912E+02  0.00000000000E+00 0. -1.
          2    1    1    2  501    0  0.60668803191E+01  0.20342458097E+02  0.15419280082E+04  0.15420741244E+04  0.00000000000E+00 0.  1.
          1    1    1    2  502    0 -0.60668803191E+01 -0.20342458097E+02 -0.26678296455E+02  0.34093315181E+02  0.00000000000E+00 0. -1.
</event>
<event>
 4    1  0.3752836E+003  0.2040662E+02  0.7546771E-02  0.1527908E+00
          2   -1    0    0  502    0  0.00000000000E+00  0.00000000000E+00  0.54824398492E+01  0.54824398492E+01  0.00000000000E+00 0.  1.
          1   -1    0    0  501    0 -0.00000000000E+00 -0.00000000000E+00 -0.23787697169E+03  0.23787697169E+03  0.00000000000E+00 0. -1.
          2    1    1    2  501    0  0.14569790068E+02 -0.14288149665E+02 -0.15806889711E+02  0.25812550549E+02  0.00000000000E+00 0.  1.
          1    1    1    2  502    0 -0.14569790068E+02  0.14288149665E+02 -0.21658764213E+03  0.21754686099E+03  0.00000000000E+00 0. -1.
</event>
<event>
 4    1  0.3752836E+003  0.2184944E+02  0.7546771E-02  0.1507474E+00
          2   -1    0    0  502    0  0.00000000000E+00  0.00000000000E+00  0.94229973852E+03  0.94229973852E+03  0.00000000000E+00 0. -1.
          1   -1    0    0  501    0 -0.00000000000E+00 -0.00000000000E+00 -0.15972766418E+01  0.15972766418E+01  0.00000000000E+00 0. -1.
          2    1    1    2  501    0  0.61440815744E+01 -0.20967795598E+02  0.86033487699E+03  0.86061228132E+03  0.00000000000E+00 0. -1.
          1    1    1    2  502    0 -0.61440815744E+01  0.20967795598E+02  0.80367584889E+02  0.83284733844E+02  0.00000000000E+00 0. -1.
</event>
<event>
 4    1  0.3752836E+003  0.3570060E+02  0.7546771E-02  0.1375704E+00
          2   -1    0    0  502    0  0.00000000000E+00  0.00000000000E+00  0.14637427899E+03  0.14637427899E+03  0.00000000000E+00 0.  1.
          1   -1    0    0  501    0 -0.00000000000E+00 -0.00000000000E+00 -0.62220278705E+03  0.62220278705E+03  0.00000000000E+00 0. -1.
          2    1    1    2  501    0  0.35408961752E+02 -0.45539135922E+01  0.14367586145E+03  0.14804487788E+03  0.00000000000E+00 0.  1.
          1    1    1    2  502    0 -0.35408961752E+02  0.45539135922E+01 -0.61950436952E+03  0.62053218817E+03  0.00000000000E+00 0. -1.
</event>
<event>
 4    1  0.3752836E+003  0.4509654E+02  0.7546771E-02  0.1320957E+00
          2   -1    0    0  502    0  0.00000000000E+00  0.00000000000E+00  0.72149263516E+03  0.72149263516E+03  0.00000000000E+00 0. -1.
          1   -1    0    0  501    0 -0.00000000000E+00 -0.00000000000E+00 -0.73896515283E+01  0.73896515283E+01  0.00000000000E+00 0.  1.
          2    1    1    2  501    0 -0.30980129379E+02 -0.32770870209E+02  0.64367839221E+03  0.64525620566E+03  0.00000000000E+00 0. -1.
          1    1    1    2  502    0  0.30980129379E+02  0.32770870209E+02  0.70424591424E+02  0.83626081026E+02  0.00000000000E+00 0.  1.
</event>
<event>
 4    1  0.3752836E+003  0.3747609E+02  0.7546771E-02  0.1363946E+00
          2   -1    0    0  502    0  0.00000000000E+00  0.00000000000E+00  0.43382592179E+03  0.43382592179E+03  0.00000000000E+00 0. -1.
          1   -1    0    0  501    0 -0.00000000000E+00 -0.00000000000E+00 -0.41500269092E+01  0.41500269092E+01  0.00000000000E+00 0. -1.
          2    1    1    2  501    0  0.17259504644E+02  0.33265102903E+02  0.31753244772E+03  0.31973631781E+03  0.00000000000E+00 0. -1.
          1    1    1    2  502    0 -0.17259504644E+02 -0.33265102903E+02  0.11214344716E+03  0.11823963089E+03  0.00000000000E+00 0. -1.
</event>
<event>
 4    1  0.3752836E+003  0.2111980E+02  0.7546771E-02  0.1517561E+00
          2   -1    0    0  502    0  0.00000000000E+00  0.00000000000E+00  0.24764196260E+02  0.24764196260E+02  0.00000000000E+00 0.  1.
          1   -1    0    0  501    0 -0.00000000000E+00 -0.00000000000E+00 -0.77620982444E+02  0.77620982444E+02  0.00000000000E+00 0.  1.
          2    1    1    2  501    0 -0.14080509857E+02 -0.15741199463E+02  0.18433164902E+02  0.28032618263E+02  0.00000000000E+00 0.  1.
          1    1    1    2  502    0  0.14080509857E+02  0.15741199463E+02 -0.71289951085E+02  0.74352560441E+02  0.00000000000E+00 0.  1.
</event>
<event>
 4    1  0.3752836E+003  0.2032960E+02  0.7546771E-02  0.1529055E+00
          2   -1    0    0  502    0  0.00000000000E+00  0.00000000000E+00  0.67166101186E+03  0.67166101186E+03  0.00000000000E+00 0.  1.
          1   -1    0    0  501    0 -0.00000000000E+00 -0.00000000000E+00 -0.95055111841E+01  0.95055111841E+01  0.00000000000E+00 0. -1.
          2    1    1    2  501    0  0.12430745476E+02  0.16086301920E+02  0.66045294588E+03  0.66076575748E+03  0.00000000000E+00 0.  1.
          1    1    1    2  502    0 -0.12430745476E+02 -0.16086301920E+02  0.17025547945E+01  0.20400765558E+02  0.00000000000E+00 0. -1.
</event>
<event>
 4    1  0.3752836E+003  0.3526142E+02  0.7546771E-02  0.1378735E+00
          2   -1    0    0  502    0  0.00000000000E+00  0.00000000000E+00  0.18246132431E+04  0.18246132431E+04  0.00000000000E+00 0.  1.
          1   -1    0    0  501    0 -0.00000000000E+00 -0.00000000000E+00 -0.42713606837E+02  0.42713606837E+02  0.00000000000E+00 0. -1.
          2    1    1    2  501    0 -0.25671459117E+02 -0.24173207885E+02  0.18171355866E+04  0.18174776775E+04  0.00000000000E+00 0.  1.
          1    1    1    2  502    0  0.25671459117E+02  0.24173207885E+02 -0.35235950413E+02  0.49849172452E+02  0.00000000000E+00 0. -1.
</event>
<event>
 4    1  0.3752836E+003  0.2991461E+02  0.7546771E-02  0.1420340E+00
          2   -1    0    0  502    0  0.00000000000E+00  0.00000000000E+00  0.87874295842E+01  0.87874295842E+01  0.00000000000E+00 0.  1.
          1   -1    0    0  501    0 -0.00000000000E+00 -0.00000000000E+00 -0.28232948984E+03  0.28232948984E+03  0.00000000000E+00 0. -1.
          2    1    1    2  501    0  0.26144460117E+02 -0.14537927584E+02 -0.20388155463E+02  0.36201671459E+02  0.00000000000E+00 0.  1.
          1    1    1    2  502    0 -0.26144460117E+02  0.14537927584E+02 -0.25315390480E+03  0.25491524797E+03  0.00000000000E+00 0. -1.
</event>
<event>
 4    1  0.3752836E+003  0.2144614E+02  0.7546771E-02  0.1512990E+00
          2   -1    0    0  502    0  0.00000000000E+00  0.00000000000E+00  0.44096396585E+01  0.44096396585E+01  0.00000000000E+00 0.  1.
          1   -1    0    0  501    0 -0.00000000000E+00 -0.00000000000E+00 -0.13311383299E+04  0.13311383299E+04  0.00000000000E+00 0. -1.
          2    1    1    2  501    0  0.27964396288E+01 -0.21263035930E+02 -0.22285990662E+02  0.30928985618E+02  0.00000000000E+00 0.  1.
          1    1    1    2  502    0 -0.27964396288E+01  0.21263035930E+02 -0.13044426996E+04  0.13046189839E+04  0.00000000000E+00 0. -1.
</event>
<event>
 4    1  0.3752836E+003  0.2259587E+02  0.7546771E-02  0.1497636E+00
          2   -1    0    0  502    0  0.00000000000E+00  0.00000000000E+00  0.21440330234E+01  0.21440330234E+01  0.00000000000E+00 0. -1.
          1   -1    0    0  501    0 -0.00000000000E+00 -0.00000000000E+00 -0.68007082903E+03  0.68007082903E+03  0.00000000000E+00 0.  1.
          2    1    1    2  501    0  0.17649336731E+02  0.14109362241E+02 -0.63988643471E+02  0.67861032141E+02  0.00000000000E+00 0. -1.
          1    1    1    2  502    0 -0.17649336731E+02 -0.14109362241E+02 -0.61393815253E+03  0.61435382991E+03  0.00000000000E+00 0.  1.
</event>
<event>
 4    1  0.3752836E+003  0.2161559E+02  0.7546771E-02  0.1510654E+00
          2   -1    0    0  502    0  0.00000000000E+00  0.00000000000E+00  0.22604052444E+04  0.22604052444E+04  0.00000000000E+00 0.  1.
          1   -1    0    0  501    0 -0.00000000000E+00 -0.00000000000E+00 -0.20744757772E+00  0.20744757772E+00  0.00000000000E+00 0. -1.
          2    1    1    2  501    0  0.21615325878E+02  0.10641284126E+00  0.11977938311E+04  0.11979888544E+04  0.00000000000E+00 0.  1.
          1    1    1    2  502    0 -0.21615325878E+02 -0.10641284126E+00  0.10624039658E+04  0.10626238376E+04  0.00000000000E+00 0. -1.
</event>
<event>
 4    1  0.3752836E+003  0.7174362E+02  0.7546771E-02  0.1224432E+00
          2   -1    0    0  502    0  0.00000000000E+00  0.00000000000E+00  0.65835092164E+03  0.65835092164E+03  0.00000000000E+00 0. -1.
          1   -1    0    0  501    0 -0.00000000000E+00 -0.00000000000E+00 -0.13362028427E+02  0.13362028427E+02  0.00000000000E+00 0. -1.
          2    1    1    2  501    0  0.55562178022E+01  0.71528146376E+02  0.53882643809E+03  0.54358171204E+03  0.00000000000E+00 0. -1.
          1    1    1    2  502    0 -0.55562178022E+01 -0.71528146376E+02  0.10616245512E+03  0.12813123803E+03  0.00000000000E+00 0. -1.
</event>
<event>
 4    1  0.3752836E+003  0.3506161E+02  0.7546771E-02  0.1380131E+00
          2   -1    0    0  502    0  0.00000000000E+00  0.00000000000E+00  0.87650923607E+01  0.87650923607E+01  0.00000000000E+00 0. -1.
          1   -1    0    0  501    0 -0.00000000000E+00 -0.00000000000E+00 -0.19023355781E+03  0.19023355781E+03  0.00000000000E+00 0. -1.
          2    1    1    2  501    0 -0.21548684982E+02 -0.27658108328E+02 -0.39732618876E+02  0.52990544284E+02  0.00000000000E+00 0. -1.
          1    1    1    2  502    0  0.21548684982E+02  0.27658108328E+02 -0.14173584657E+03  0.14600810588E+03  0.00000000000E+00 0. -1.
</event>
<event>
 4    1  0.3752836E+003  0.2134706E+02  0.7546771E-02  0.1514367E+00
          2   -1    0    0  502    0  0.00000000000E+00  0.00000000000E+00  0.89913279657E+02  0.89913279657E+02  0.00000000000E+00 0.  1.
          1   -1    0    0  501    0 -0.00000000000E+00 -0.00000000000E+00 -0.41912070615E+03  0.41912070615E+03  0.00000000000E+00 0.  1.
          2    1    1    2  501    0 -0.32026827687E+01 -0.21105449381E+02  0.88369735438E+02  0.90911535637E+02  0.00000000000E+00 0.  1.
          1    1    1    2  502    0  0.32026827687E+01  0.21105449381E+02 -0.41757716193E+03  0.41812245017E+03  0.00000000000E+00 0.  1.
</event>
<event>
 4    1  0.3752836E+003  0.2293502E+02  0.7546771E-02  0.1493316E+00
          2   -1    0    0  502    0  0.00000000000E+00  0.00000000000E+00  0.56247589174E+00  0.56247589174E+00  0.00000000000E+00 0.  1.
          1   -1    0    0  501    0 -0.00000000000E+00 -0.00000000000E+00 -0.14210324584E+04  0.14210324584E+04  0.00000000000E+00 0. -1.
          2    1    1    2  501    0 -0.22081148628E+02  0.61998403323E+01 -0.29461453305E+03  0.29550590219E+03  0.00000000000E+00 0.  1.
          1    1    1    2  502    0  0.22081148628E+02 -0.61998403323E+01 -0.11258554494E+04  0.11260890321E+04  0.00000000000E+00 0. -1.
</event>
<event>
 4    1  0.3752836E+003  0.2019730E+02  0.7546771E-02  0.1531041E+00
          2   -1    0    0  502    0  0.00000000000E+00  0.00000000000E+00  0.70616702834E+02  0.70616702834E+02  0.00000000000E+00 0. -1.
          1   -1    0    0  501    0 -0.00000000000E+00 -0.00000000000E+00 -0.22733359635E+02  0.22733359635E+02  0.00000000000E+00 0.  1.
          2    1    1    2  501    0  0.18587027880E+02  0.79027390773E+01  0.64252624953E+02  0.67352288036E+02  0.00000000000E+00 0. -1.
          1    1    1    2  502    0 -0.18587027880E+02 -0.79027390773E+01 -0.16369281754E+02  0.25997774433E+02  0.00000000000E+00 0.  1.
</event>
<event>
 4    1  0.3752836E+003  0.3135780E+02  0.7546771E-02  0.1408153E+00
          2   -1    0    0  502    0  0.00000000000E+00  0.00000000000E+00  0.22979011899E+01  0.22979011899E+01  0.00000000000E+00 0.  1.
          1   -1    0    0  501    0 -0.00000000000E+00 -0.00000000000E+00 -0.52310273604E+03  0.52310273604E+03  0.00000000000E+00 0.  1.
          2    1    1    2  501    0 -0.20662545978E+02  0.23587514850E+02 -0.14834196661E+03  0.15162008680E+03  0.00000000000E+00 0.  1.
          1    1    1    2  502    0  0.20662545978E+02 -0.23587514850E+02 -0.37246286824E+03  0.37378055043E+03  0.00000000000E+00 0.  1.
</event>
<event>
 4    1  0.3752836E+003  0.2619038E+02  0.7546771E-02  0.1455915E+00
          2   -1    0    0  502    0  0.00000000000E+00  0.00000000000E+00  0.13655397613E+03  0.13655397613E+03  0.00000000000E+00 0.  1.
          1   -1    0    0  501    0 -0.00000000000E+00 -0.00000000000E+00 -0.57526581573E+01  0.57526581573E+01  0.00000000000E+00 0.  1.
          2    1    1    2  501    0  0.45205925184E+01 -0.25797292813E+02  0.90738237913E+02  0.94442383985E+02  0.00000000000E+00 0.  1.
          1    1    1    2  502    0 -0.45205925184E+01  0.25797292813E+02  0.40063080061E+02  0.47864250304E+02  0.00000000000E+00 0.  1.
</event>
<event>
 4    1  0.3752836E+003  0.3607557E+02  0.7546771E-02  0.1373155E+00
          2   -1    0    0  502    0  0.00000000000E+00  0.00000000000E+00  0.37475042702E+02  0.37475042702E+02  0.00000000000E+00 0.  1.
          1   -1    0    0  501    0 -0.00000000000E+00 -0.00000000000E+00 -0.25101303986E+03  0.25101303986E+03  0.00000000000E+00 0.  1.
          2    1    1    2  501    0  0.35526503851E+02 -0.62701094053E+01  0.27125464983E+02  0.45135768503E+02  0.00000000000E+00 0.  1.
          1    1    1    2  502    0 -0.35526503851E+02  0.62701094053E+01 -0.24066346215E+03  0.24335231406E+03  0.00000000000E+00 0.  1.
</event>
<event>
 4    1  0.3752836E+003  0.2299169E+02  0.7546771E-02  0.1492602E+00
          2   -1    0    0  502    0  0.00000000000E+00  0.00000000000E+00  0.75810309493E+01  0.75810309493E+01  0.00000000000E+00 0. -1.
          1   -1    0    0  501    0 -0.00000000000E+00 -0.00000000000E+00 -0.83946552551E+02  0.83946552551E+02  0.00000000000E+00 0.  1.
          2    1    1    2  501    0 -0.28469913071E+01 -0.22814734156E+02 -0.57016367576E+02  0.61477505037E+02  0.00000000000E+00 0. -1.
          1    1    1    2  502    0  0.28469913071E+01  0.22814734156E+02 -0.19349154026E+02  0.30050078462E+02  0.00000000000E+00 0.  1.
</event>
<event>
 4    1  0.3752836E+003  0.2193180E+02  0.7546771E-02  0.1506366E+00
          2   -1    0    0  502    0  0.00000000000E+00  0.00000000000E+00  0.36017721898E+03  0.36017721898E+03  0.00000000000E+00 0.  1.
          1   -1    0    0  501    0 -0.00000000000E+00 -0.00000000000E+00 -0.15016942906E+03  0.15016942906E+03  0.00000000000E+00 0. -1.
          2    1    1    2  501    0 -0.11121335376E+02  0.18902904446E+02  0.35904005031E+03  0.35970927375E+03  0.00000000000E+00 0.  1.
          1    1    1    2  502    0  0.11121335376E+02 -0.18902904446E+02 -0.14903226038E+03  0.15063737429E+03  0.00000000000E+00 0. -1.
</event>
<event>
 4    1  0.3752836E+003  0.2111111E+02  0.7546771E-02  0.1517684E+00
          2   -1    0    0  502    0  0.00000000000E+00  0.00000000000E+00  0.73512792593E+02  0.73512792593E+02  0.00000000000E+00 0.  1.
          1   -1    0    0  501    0 -0.00000000000E+00 -0.00000000000E+00 -0.22261765463E+02  0.22261765463E+02  0.00000000000E+00 0. -1.
          2    1    1    2  501    0  0.19931085901E+02  0.69592365551E+01  0.66474998846E+02  0.69746717702E+02  0.00000000000E+00 0.  1.
          1    1    1    2  502    0 -0.19931085901E+02 -0.69592365551E+01 -0.15223971717E+02  0.26027840353E+02  0.00000000000E+00 0. -1.
</event>
<event>
 4    1  0.3752836E+003  0.2876765E+02  0.7546771E-02  0.1430617E+00
          2   -1    0    0  502    0  0.00000000000E+00  0.00000000000E+00  0.84599762731E+02  0.84599762731E+02  0.00000000000E+00 0. -1.
          1   -1    0    0  501    0 -0.00000000000E+00 -0.00000000000E+00 -0.11231317197E+03  0.11231317197E+03  0.00000000000E+00 0.  1.
          2    1    1    2  501    0 -0.49587096692E+01 -0.28337055123E+02  0.80214411605E+02  0.85216954438E+02  0.00000000000E+00 0. -1.
          1    1    1    2  502    0  0.49587096692E+01  0.28337055123E+02 -0.10792782084E+03  0.11169598026E+03  0.00000000000E+00 0.  1.
</event>
<event>
 4    1  0.3752836E+003  0.2913894E+02  0.7546771E-02  0.1427229E+00
          2   -1    0    0  502    0  0.00000000000E+00  0.00000000000E+00  0.94822325347E+02  0.94822325347E+02  0.00000000000E+00 0. -1.
          1   -1    0    0  501    0 -0.00000000000E+00 -0.00000000000E+00 -0.97286115651E+01  0.97286115651E+01  0.00000000000E+00 0. -1.
          2    1    1    2  501    0 -0.24895796820E+02  0.15141902152E+02  0.57293723618E+02  0.64277901849E+02  0.00000000000E+00 0. -1.
          1    1    1    2  502    0  0.24895796820E+02 -0.15141902152E+02  0.27799990164E+02  0.40273035064E+02  0.00000000000E+00 0. -1.
</event>
<event>
 4    1  0.3752836E+003  0.3030107E+02  0.7546771E-02  0.1416998E+00
          2   -1    0    0  502    0  0.00000000000E+00  0.00000000000E+00  0.44184307957E+03  0.44184307957E+03  0.00000000000E+00 0.  1.
          1   -1    0    0  501    0 -0.00000000000E+00 -0.00000000000E+00 -0.55831501986E+01  0.55831501986E+01  0.00000000000E+00 0.  1.
          2    1    1    2  501    0 -0.16705986425E+02 -0.25279728541E+02  0.39538739170E+03  0.39654677425E+03  0.00000000000E+00 0.  1.
          1    1    1    2  502    0  0.16705986425E+02  0.25279728541E+02  0.40872537671E+02  0.50879455513E+02  0.00000000000E+00 0.  1.
</event>
<event>
 4    1  0.3752836E+003  0.2002723E+02  0.7546771E-02  0.1533620E+00
          2   -1    0    0  502    0  0.00000000000E+00  0.00000000000E+00  0.11559936697E+02  0.11559936697E+02  0.00000000000E+00 0.  1.
          1   -1    0    0  501    0 -0.00000000000E+00 -0.00000000000E+00 -0.86148337957E+03  0.86148337957E+03  0.00000000000E+00 0. -1.
          2    1    1    2  501    0  0.13288063824E+02 -0.14983902901E+02  0.26790635828E+01  0.20205627137E+02  0.00000000000E+00 0.  1.
          1    1    1    2  502    0 -0.13288063824E+02  0.14983902901E+02 -0.85260250645E+03  0.85283768913E+03  0.00000000000E+00 0. -1.
</event>
<event>
 4    1  0.3752836E+003  0.2069984E+02  0.7546771E-02  0.1523594E+00
          2   -1    0    0  502    0  0.00000000000E+00  0.00000000000E+00  0.15461062206E+04  0.15461062206E+04  0.00000000000E+00 0. -1.
          1   -1    0    0  501    0 -0.00000000000E+00 -0.00000000000E+00 -0.41114298127E+01  0.41114298127E+01  0.00000000000E+00 0.  1.
          2    1    1    2  501    0  0.15008379328E+02 -0.14255936715E+02  0.15195268271E+04  0.15196678129E+04  0.00000000000E+00 0. -1.
          1    1    1    2  502    0 -0.15008379328E+02  0.14255936715E+02  0.22467963670E+02  0.30549837530E+02  0.00000000000E+00 0.  1.
</event>
<event>
 4    1  0.3752836E+003  0.3636418E+02  0.7546771E-02  0.1371218E+00
          2   -1    0    0  502    0  0.00000000000E+00  0.00000000000E+00  0.16487049571E+04  0.16487049571E+04  0.00000000000E+00 0.  1.
          1   -1    0    0  501    0 -0.00000000000E+00 -0.00000000000E+00 -0.35050416480E+03  0.35050416480E+03  0.00000000000E+00 0.  1.
          2    1    1    2  501    0  0.48425610770E+01 -0.36040294795E+02  0.16475606087E+04  0.16479618663E+04  0.00000000000E+00 0.  1.
          1    1    1    2  502    0 -0.48425610770E+01  0.36040294795E+02 -0.34935981644E+03  0.35124725563E+03  0.00000000000E+00 0.  1.
</event>
<event>
 4    1  0.3752836E+003  0.2811449E+02  0.7546771E-02  0.1436723E+00
          2   -1    0    0  502    0  0.00000000000E+00  0.00000000000E+00  0.17938870770E+03  0.17938870770E+03  0.00000000000E+00 0.  1.
          1   -1    0    0  501    0 -0.00000000000E+00 -0.00000000000E+00 -0.85088114463E+01  0.85088114463E+01  0.00000000000E+00 0.  1.
          2    1    1    2  501    0  0.23480930727E+02  0.15461909191E+02  0.15067577015E+03  0.15327626188E+03  0.00000000000E+00 0.  1.
          1    1    1    2  502    0 -0.23480930727E+02 -0.15461909191E+02  0.20204126106E+02  0.34621257276E+02  0.00000000000E+00 0.  1.
</event>
<event>
 4    1  0.3752836E+003  0.2920582E+02  0.7546771E-02  0.1426626E+00
          2   -1    0    0  502    0  0.00000000000E+00  0.00000000000E+00  0.11736308202E+02  0.11736308202E+02  0.00000000000E+00 0.  1.
          1   -1    0    0  501    0 -0.00000000000E+00 -0.00000000000E+00 -0.18009574885E+03  0.18009574885E+03  0.00000000000E+00 0. -1.
          2    1    1    2  501    0 -0.29193118073E+02 -0.86139933401E+00 -0.10103984424E+02  0.30904217396E+02  0.00000000000E+00 0.  1.
          1    1    1    2  502    0  0.29193118073E+02  0.86139933401E+00 -0.15825545622E+03  0.16092783966E+03  0.00000000000E+00 0. -1.
</event>
<event>
 4    1  0.3752836E+003  0.2166641E+02  0.7546771E-02  0.1509959E+00
          2   -1    0    0  502    0  0.00000000000E+00  0.00000000000E+00  0.13763501636E+03  0.13763501636E+03  0.00000000000E+00 0.  1.
          1   -1    0    0  501    0 -0.00000000000E+00 -0.00000000000E+00 -0.28100544690E+02  0.28100544690E+02  0.00000000000E+00 0.  1.
          2    1    1    2  501    0 -0.21052726702E+02  0.51201512408E+01  0.13244333745E+03  0.13420384080E+03  0.00000000000E+00 0.  1.
          1    1    1    2  502    0  0.21052726702E+02 -0.51201512408E+01 -0.22908865783E+02  0.31531720247E+02  0.00000000000E+00 0.  1.
</event>
<event>
 4    1  0.3752836E+003  0.2516149E+02  0.7546771E-02  0.1467005E+00
          2   -1    0    0  502    0  0.00000000000E+00  0.00000000000E+00  0.50038721939E+03  0.50038721939E+03  0.00000000000E+00 0. -1.
          1   -1    0    0  501    0 -0.00000000000E+00 -0.00000000000E+00 -0.12850606145E+02  0.12850606145E+02  0.00000000000E+00 0. -1.
          2    1    1    2  501    0  0.22913789282E+02  0.10395133375E+02  0.48742709910E+03  0.48807609804E+03  0.00000000000E+00 0. -1.
          1    1    1    2  502    0 -0.22913789282E+02 -0.10395133375E+02  0.10951414067E+00  0.25161727494E+02  0.00000000000E+00 0. -1.
</event>
<event>
 4    1  0.3752836E+003  0.3981164E+02  0.7546771E-02  0.1349593E+00
          2   -1    0    0  502    0  0.00000000000E+00  0.00000000000E+00  0.36864468229E+02  0.36864468229E+02  0.00000000000E+00 0.  1.
          1   -1    0    0  501    0 -0.00000000000E+00 -0.00000000000E+00 -0.46065119681E+02  0.46065119681E+02  0.00000000000E+00 0.  1.
          2    1    1    2  501    0  0.39397667822E+02  0.57261440808E+01 -0.15306021793E+02  0.42652541061E+02  0.00000000000E+00 0.  1.
          1    1    1    2  502    0 -0.39397667822E+02 -0.57261440808E+01  0.61053703412E+01  0.40277046849E+02  0.00000000000E+00 0.  1.
</event>
<event>
 4    1  0.3752836E+003  0.2793740E+02  0.7546771E-02  0.1438412E+00
          2   -1    0    0  502    0  0.00000000000E+00  0.00000000000E+00  0.33925905689E+02  0.33925905689E+02  0.00000000000E+00 0. -1.
          1   -1    0    0  501    0 -0.00000000000E+00 -0.00000000000E+00 -0.10292518969E+03  0.10292518969E+03  0.00000000000E+00 0. -1.
          2    1    1    2  501    0  0.27842812893E+02 -0.22970003582E+01  0.25795601852E+02  0.38025143199E+02  0.00000000000E+00 0. -1.
          1    1    1    2  502    0 -0.27842812893E+02  0.22970003582E+01 -0.94794885856E+02  0.98825952183E+02  0.00000000000E+00 0. -1.
</event>
<event>
 4    1  0.3752836E+003  0.4505806E+02  0.7546771E-02  0.1321149E+00
          2   -1    0    0  502    0  0.00000000000E+00  0.00000000000E+00  0.20447023101E+04  0.20447023101E+04  0.00000000000E+00 0. -1.
          1   -1    0    0  501    0 -0.00000000000E+00 -0.00000000000E+00 -0.40831366844E+01  0.40831366844E+01  0.00000000000E+00 0. -1.
          2    1    1    2  501    0 -0.28527870570E+02 -0.34876772133E+02  0.19114864348E+04  0.19120174212E+04  0.00000000000E+00 0. -1.
          1    1    1    2  502    0  0.28527870570E+02  0.34876772133E+02  0.12913273861E+03  0.13676802555E+03  0.00000000000E+00 0. -1.
</event>
<event>
 4    1  0.3752836E+003  0.2060588E+02  0.7546771E-02  0.1524967E+00
          2   -1    0    0  502    0  0.00000000000E+00  0.00000000000E+00  0.69372124991E+03  0.69372124991E+03  0.00000000000E+00 0. -1.
          1   -1    0    0  501    0 -0.00000000000E+00 -0.00000000000E+00 -0.87720690612E+00  0.87720690612E+00  0.00000000000E+00 0. -1.
          2    1    1    2  501    0 -0.13105781648E+01 -0.20564161856E+02  0.53735991923E+03  0.53775485601E+03  0.00000000000E+00 0. -1.
          1    1    1    2  502    0  0.13105781648E+01  0.20564161856E+02  0.15548412378E+03  0.15684360081E+03  0.00000000000E+00 0. -1.
</event>
<event>
 4    1  0.3752836E+003  0.3308199E+02  0.7546771E-02  0.1394573E+00
          2   -1    0    0  502    0  0.00000000000E+00  0.00000000000E+00  0.39409629046E+01  0.39409629046E+01  0.00000000000E+00 0.  1.
          1   -1    0    0  501    0 -0.00000000000E+00 -0.00000000000E+00 -0.28929672027E+03  0.28929672027E+03  0.00000000000E+00 0.  1.
          2    1    1    2  501    0 -0.88202035985E+01 -0.31884494090E+02 -0.17202940599E+03  0.17518143018E+03  0.00000000000E+00 0.  1.
          1    1    1    2  502    0  0.88202035985E+01  0.31884494090E+02 -0.11332635138E+03  0.11805625299E+03  0.00000000000E+00 0.  1.
</event>
<event>
 4    1  0.3752836E+003  0.2483393E+02  0.7546771E-02  0.1470670E+00
          2   -1    0    0  502    0  0.00000000000E+00  0.00000000000E+00  0.33238759484E+02  0.33238759484E+02  0.00000000000E+00 0. -1.
          1   -1    0    0  501    0 -0.00000000000E+00 -0.00000000000E+00 -0.98374978823E+02  0.98374978823E+02  0.00000000000E+00 0.  1.
          2    1    1    2  501    0 -0.16684728510E+02  0.18394133685E+02  0.26708917482E+02  0.36470407079E+02  0.00000000000E+00 0. -1.
          1    1    1    2  502    0  0.16684728510E+02 -0.18394133685E+02 -0.91845136821E+02  0.95143331228E+02  0.00000000000E+00 0.  1.
</event>
<event>
 4    1  0.3752836E+003  0.2059724E+02  0.7546771E-02  0.1525094E+00
          2   -1    0    0  502    0  0.00000000000E+00  0.00000000000E+00  0.23560136026E+02  0.23560136026E+02  0.00000000000E+00 0. -1.
          1   -1    0    0  501    0 -0.00000000000E+00 -0.00000000000E+00 -0.62258764956E+02  0.62258764956E+02  0.00000000000E+00 0.  1.
          2    1    1    2  501    0 -0.13132700663E+02  0.15867530931E+02  0.16826491038E+02  0.26596563034E+02  0.00000000000E+00 0. -1.
          1    1    1    2  502    0  0.13132700663E+02 -0.15867530931E+02 -0.55525119968E+02  0.59222337948E+02  0.00000000000E+00 0.  1.
</event>
<event>
 4    1  0.3752836E+003  0.2480562E+02  0.7546771E-02  0.1470990E+00
          2   -1    0    0  502    0  0.00000000000E+00  0.00000000000E+00  0.65361977338E+01  0.65361977338E+01  0.00000000000E+00 0.  1.
          1   -1    0    0  501    0 -0.00000000000E+00 -0.00000000000E+00 -0.23326188700E+03  0.23326188700E+03  0.00000000000E+00 0.  1.
          2    1    1    2  501    0 -0.23291993609E+02  0.85324008807E+01 -0.20767048300E+02  0.32351029754E+02  0.00000000000E+00 0.  1.
          1    1    1    2  502    0  0.23291993609E+02 -0.85324008807E+01 -0.20595864096E+03  0.20744705498E+03  0.00000000000E+00 0.  1.
</event>
<event>
 4    1  0.3752836E+003  0.2130203E+02  0.7546771E-02  0.1514996E+00
          2   -1    0    0  502    0  0.00000000000E+00  0.00000000000E+00  0.36617309703E+03  0.36617309703E+03  0.00000000000E+00 0. -1.
          1   -1    0    0  501    0 -0.00000000000E+00 -0.00000000000E+00 -0.21002930783E+01  0.21002930783E+01  0.00000000000E+00 0. -1.
          2    1    1    2  501    0  0.13486294170E+02 -0.16489280429E+02  0.29993679464E+03  0.30069229667E+03  0.00000000000E+00 0. -1.
          1    1    1    2  502    0 -0.13486294170E+02  0.16489280429E+02  0.64136009318E+02  0.67581093442E+02  0.00000000000E+00 0. -1.
</event>
<event>
 4    1  0.3752836E+003  0.2344067E+02  0.7546771E-02  0.1487038E+00
          2   -1    0    0  502    0  0.00000000000E+00  0.00000000000E+00  0.15388884896E+03  0.15388884896E+03  0.00000000000E+00 0. -1.
          1   -1    0    0  501    0 -0.00000000000E+00 -0.00000000000E+00 -0.87203019386E+02  0.87203019386E+02  0.00000000000E+00 0. -1.
          2    1    1    2  501    0  0.99859387216E+01 -0.21207213214E+02  0.15139517754E+03  0.15319910132E+03  0.00000000000E+00 0. -1.
          1    1    1    2  502    0 -0.99859387216E+01  0.21207213214E+02 -0.84709347958E+02  0.87892767028E+02  0.00000000000E+00 0. -1.
</event>
<event>
 4    1  0.3752836E+003  0.2117135E+02  0.7546771E-02  0.1516832E+00
          2   -1    0    0  502    0  0.00000000000E+00  0.00000000000E+00  0.49229906513E+03  0.49229906513E+03  0.00000000000E+00 0. -1.
          1   -1    0    0  501    0 -0.00000000000E+00 -0.00000000000E+00 -0.13087311874E+02  0.13087311874E+02  0.00000000000E+00 0. -1.
          2    1    1    2  501    0  0.24374074264E+01 -0.21030573173E+02  0.48335078619E+03  0.48381422930E+03  0.00000000000E+00 0. -1.
          1    1    1    2  502    0 -0.24374074264E+01  0.21030573173E+02 -0.41390329346E+01  0.21572147704E+02  0.00000000000E+00 0. -1.
</event>
<event>
 4    1  0.3752836E+003  0.2149584E+02  0.7546771E-02  0.1512302E+00
          2   -1    0    0  502    0  0.00000000000E+00  0.00000000000E+00  0.16932606881E+03  0.16932606881E+03  0.00000000000E+00 0.  1.
          1   -1    0    0  501    0 -0.00000000000E+00 -0.00000000000E+00 -0.17948222505E+02  0.17948222505E+02  0.00000000000E+00 0. -1.
          2    1    1    2  501    0 -0.44349635135E+01  0.21033365095E+02  0.16191434345E+03  0.16333501145E+03  0.00000000000E+00 0.  1.
          1    1    1    2  502    0  0.44349635135E+01 -0.21033365095E+02 -0.10536497146E+02  0.23939279870E+02  0.00000000000E+00 0. -1.
</event>
<event>
 4    1  0.3752836E+003  0.2012902E+02  0.7546771E-02  0.1532072E+00
          2   -1    0    0  502    0  0.00000000000E+00  0.00000000000E+00  0.62493727586E+03  0.62493727586E+03  0.00000000000E+00 0.  1.
          1   -1    0    0  501    0 -0.00000000000E+00 -0.00000000000E+00 -0.10759571257E+02  0.10759571257E+02  0.00000000000E+00 0. -1.
          2    1    1    2  501    0  0.10419803624E+02  0.17222231710E+02  0.61521205489E+03  0.61554126593E+03  0.00000000000E+00 0.  1.
          1    1    1    2  502    0 -0.10419803624E+02 -0.17222231710E+02 -0.10343502906E+01  0.20155581191E+02  0.00000000000E+00 0. -1.
</event>
<event>
 4    1  0.3752836E+003  0.2058244E+02  0.7546771E-02  0.1525311E+00
          2   -1    0    0  502    0  0.00000000000E+00  0.00000000000E+00  0.25178157322E+02  0.25178157322E+02  0.00000000000E+00 0.  1.
          1   -1    0    0  501    0 -0.00000000000E+00 -0.00000000000E+00 -0.14891665645E+03  0.14891665645E+03  0.00000000000E+00 0.  1.
          2    1    1    2  501    0 -0.52427565060E+01  0.19903524070E+02  0.20113213368E+02  0.28778083991E+02  0.00000000000E+00 0.  1.
          1    1    1    2  502    0  0.52427565060E+01 -0.19903524070E+02 -0.14385171249E+03  0.14531672978E+03  0.00000000000E+00 0.  1.
</event>
<event>
 4    1  0.3752836E+003  0.2107779E+02  0.7546771E-02  0.1518157E+00
          2   -1    0    0  502    0  0.00000000000E+00  0.00000000000E+00  0.31425168177E+03  0.31425168177E+03  0.00000000000E+00 0.  1.
          1   -1    0    0  501    0 -0.00000000000E+00 -0.00000000000E+00 -0.45759226015E+01  0.45759226015E+01  0.00000000000E+00 0.  1.
          2    1    1    2  501    0  0.16989761195E+02 -0.12474826530E+02  0.28735725432E+03  0.28812925033E+03  0.00000000000E+00 0.  1.
          1    1    1    2  502    0 -0.16989761195E+02  0.12474826530E+02  0.22318504844E+02  0.30698354042E+02  0.00000000000E+00 0.  1.
</event>
<event>
 4    1  0.3752836E+003  0.4053518E+02  0.7546771E-02  0.1345378E+00
          2   -1    0    0  502    0  0.00000000000E+00  0.00000000000E+00  0.27349249946E+04  0.27349249946E+04  0.00000000000E+00 0.  1.
          1   -1    0    0  501    0 -0.00000000000E+00 -0.00000000000E+00 -0.24796986812E+01  0.24796986812E+01  0.00000000000E+00 0.  1.
          2    1    1    2  501    0  0.28077497742E+02  0.29236188674E+02  0.25576375444E+04  0.25579587387E+04  0.00000000000E+00 0.  1.
          1    1    1    2  502    0 -0.28077497742E+02 -0.29236188674E+02  0.17480775152E+03  0.17944595453E+03  0.00000000000E+00 0.  1.
</event>
<event>
 4    1  0.3752836E+003  0.3732177E+02  0.7546771E-02  0.1364938E+00
          2   -1    0    0  502    0  0.00000000000E+00  0.00000000000E+00  0.21466131275E+03  0.21466131275E+03  0.00000000000E+00 0.  1.
          1   -1    0    0  501    0 -0.00000000000E+00 -0.00000000000E+00 -0.96586152877E+02  0.96586152877E+02  0.00000000000E+00 0. -1.
          2    1    1    2  501    0 -0.36593208305E+02  0.73383680855E+01  0.20934284120E+03  0.21264369189E+03  0.00000000000E+00 0.  1.
          1    1    1    2  502    0  0.36593208305E+02 -0.73383680855E+01 -0.91267681326E+02  0.98603773735E+02  0.00000000000E+00 0. -1.
</event>
<event>
 4    1  0.3752836E+003  0.2445447E+02  0.7546771E-02  0.1475000E+00
          2   -1    0    0  502    0  0.00000000000E+00  0.00000000000E+00  0.10840117223E+03  0.10840117223E+03  0.00000000000E+00 0. -1.
          1   -1    0    0  501    0 -0.00000000000E+00 -0.00000000000E+00 -0.17582266179E+04  0.17582266179E+04  0.00000000000E+00 0. -1.
          2    1    1    2  501    0  0.22415496097E+02  0.97758310854E+01  0.10693580438E+03  0.10969634268E+03  0.00000000000E+00 0. -1.
          1    1    1    2  502    0 -0.22415496097E+02 -0.97758310854E+01 -0.17567612500E+04  0.17569314474E+04  0.00000000000E+00 0. -1.
</event>
<event>
 4    1  0.3752836E+003  0.2435169E+02  0.7546771E-02  0.1476188E+00
          2   -1    0    0  502    0  0.00000000000E+00  0.00000000000E+00  0.12907501024E+03  0.12907501024E+03  0.00000000000E+00 0. -1.
          1   -1    0    0  501    0 -0.00000000000E+00 -0.00000000000E+00 -0.67007944554E+03  0.67007944554E+03  0.00000000000E+00 0. -1.
          2    1    1    2  501    0 -0.22394832549E+02  0.95643120753E+01  0.12770284422E+03  0.13000392691E+03  0.00000000000E+00 0. -1.
          1    1    1    2  502    0  0.22394832549E+02 -0.95643120753E+01 -0.66870727953E+03  0.66915052887E+03  0.00000000000E+00 0. -1.
</event>
<event>
 4    1  0.3752836E+003  0.2546690E+02  0.7546771E-02  0.1463647E+00
          2   -1    0    0  502    0  0.00000000000E+00  0.00000000000E+00  0.47536193163E+03  0.47536193163E+03  0.00000000000E+00 0.  1.
          1   -1    0    0  501    0 -0.00000000000E+00 -0.00000000000E+00 -0.70658479928E+02  0.70658479928E+02  0.00000000000E+00 0. -1.
          2    1    1    2  501    0 -0.22008646205E+02 -0.12813379626E+02  0.47271328320E+03  0.47339878677E+03  0.00000000000E+00 0.  1.
          1    1    1    2  502    0  0.22008646205E+02  0.12813379626E+02 -0.68009831501E+02  0.72621624782E+02  0.00000000000E+00 0. -1.
</event>
<event>
 4    1  0.3752836E+003  0.3650139E+02  0.7546771E-02  0.1370304E+00
          2   -1    0    0  502    0  0.00000000000E+00  0.00000000000E+00  0.19012950106E+04  0.19012950106E+04  0.00000000000E+00 0. -1.
          1   -1    0    0  501    0 -0.00000000000E+00 -0.00000000000E+00 -0.21958396207E+02  0.21958396207E+02  0.00000000000E+00 0. -1.
          2    1    1    2  501    0  0.24311857150E+01  0.36420336204E+02  0.18858263624E+04  0.18861795834E+04  0.00000000000E+00 0. -1.
          1    1    1    2  502    0 -0.24311857150E+01 -0.36420336204E+02 -0.64897480376E+01  0.37073823418E+02  0.00000000000E+00 0. -1.
</event>
<event>
 4    1  0.3752836E+003  0.5683209E+02  0.7546771E-02  0.1270993E+00
          2   -1    0    0  502    0  0.00000000000E+00  0.00000000000E+00  0.10221849750E+03  0.10221849750E+03  0.00000000000E+00 0.  1.
          1   -1    0    0  501    0 -0.00000000000E+00 -0.00000000000E+00 -0.37552085052E+02  0.37552085052E+02  0.00000000000E+00 0.  1.
          2    1    1    2  501    0 -0.56723910032E+02 -0.35048492043E+01  0.60161162734E+02  0.82760204439E+02  0.00000000000E+00 0.  1.
          1    1    1    2  502    0  0.56723910032E+02  0.35048492043E+01  0.45052497094E+01  0.57010378109E+02  0.00000000000E+00 0.  1.
</event>
<event>
 4    1  0.3752836E+003  0.2789971E+02  0.7546771E-02  0.1438774E+00
          2   -1    0    0  502    0  0.00000000000E+00  0.00000000000E+00  0.51156645062E+03  0.51156645062E+03  0.00000000000E+00 0. -1.
          1   -1    0    0  501    0 -0.00000000000E+00 -0.00000000000E+00 -0.14089213064E+03  0.14089213064E+03  0.00000000000E+00 0. -1.
          2    1    1    2  501    0  0.22056451239E+02  0.17085284201E+02  0.50980008352E+03  0.51056294336E+03  0.00000000000E+00 0. -1.
          1    1    1    2  502    0 -0.22056451239E+02 -0.17085284201E+02 -0.13912576353E+03  0.14189563791E+03  0.00000000000E+00 0. -1.
</event>
<event>
 4    1  0.3752836E+003  0.2223884E+02  0.7546771E-02  0.1502284E+00
          2   -1    0    0  502    0  0.00000000000E+00  0.00000000000E+00  0.25359585145E+01  0.25359585145E+01  0.00000000000E+00 0. -1.
          1   -1    0    0  501    0 -0.00000000000E+00 -0.00000000000E+00 -0.12869274342E+04  0.12869274342E+04  0.00000000000E+00 0. -1.
          2    1    1    2  501    0  0.21763796616E+02  0.45719910580E+01 -0.48321284830E+02  0.53193162276E+02  0.00000000000E+00 0. -1.
          1    1    1    2  502    0 -0.21763796616E+02 -0.45719910580E+01 -0.12360701909E+04  0.12362702305E+04  0.00000000000E+00 0. -1.
</event>
<event>
 4    1  0.3752836E+003  0.2268638E+02  0.7546771E-02  0.1496474E+00
          2   -1    0    0  502    0  0.00000000000E+00  0.00000000000E+00  0.70978880787E+03  0.70978880787E+03  0.00000000000E+00 0.  1.
          1   -1    0    0  501    0 -0.00000000000E+00 -0.00000000000E+00 -0.10182393549E+01  0.10182393549E+01  0.00000000000E+00 0.  1.
          2    1    1    2  501    0  0.12543652658E+02 -0.18903134139E+02  0.54507613165E+03  0.54554803730E+03  0.00000000000E+00 0.  1.
          1    1    1    2  502    0 -0.12543652658E+02  0.18903134139E+02  0.16369443686E+03  0.16525900992E+03  0.00000000000E+00 0.  1.
</event>
<event>
 4    1  0.3752836E+003  0.5925282E+02  0.7546771E-02  0.1262393E+00
          2   -1    0    0  502    0  0.00000000000E+00  0.00000000000E+00  0.12719790618E+04  0.12719790618E+04  0.00000000000E+00 0. -1.
          1   -1    0    0  501    0 -0.00000000000E+00 -0.00000000000E+00 -0.50387280140E+01  0.50387280140E+01  0.00000000000E+00 0. -1.
          2    1    1    2  501    0  0.41356706661E+02 -0.42432531433E+02  0.10628435862E+04  0.10644939576E+04  0.00000000000E+00 0. -1.
          1    1    1    2  502    0 -0.41356706661E+02  0.42432531433E+02  0.20409674757E+03  0.21252383226E+03  0.00000000000E+00 0. -1.
</event>
<event>
 4    1  0.3752836E+003  0.2811807E+02  0.7546771E-02  0.1436689E+00
          2   -1    0    0  502    0  0.00000000000E+00  0.00000000000E+00  0.16365864276E+03  0.16365864276E+03  0.00000000000E+00 0.  1.
          1   -1    0    0  501    0 -0.00000000000E+00 -0.00000000000E+00 -0.11147850334E+03  0.11147850334E+03  0.00000000000E+00 0.  1.
          2    1    1    2  501    0  0.18977277754E+02 -0.20748218524E+02  0.16064484939E+03  0.16308707269E+03  0.00000000000E+00 0.  1.
          1    1    1    2  502    0 -0.18977277754E+02  0.20748218524E+02 -0.10846470997E+03  0.11205007341E+03  0.00000000000E+00 0.  1.
</event>
<event>
 4    1  0.3752836E+003  0.5186191E+02  0.7546771E-02  0.1290296E+00
          2   -1    0    0  502    0  0.00000000000E+00  0.00000000000E+00  0.18270838904E+04  0.18270838904E+04  0.00000000000E+00 0.  1.
          1   -1    0    0  501    0 -0.00000000000E+00 -0.00000000000E+00 -0.40415758362E+03  0.40415758362E+03  0.00000000000E+00 0. -1.
          2    1    1    2  501    0  0.48119814505E+02  0.19342718877E+02  0.18250502680E+04  0.18257869914E+04  0.00000000000E+00 0.  1.
          1    1    1    2  502    0 -0.48119814505E+02 -0.19342718877E+02 -0.40212396119E+03  0.40545448263E+03  0.00000000000E+00 0. -1.
</event>
<event>
 4    1  0.3752836E+003  0.2991572E+02  0.7546771E-02  0.1420330E+00
          2   -1    0    0  502    0  0.00000000000E+00  0.00000000000E+00  0.17387772944E+02  0.17387772944E+02  0.00000000000E+00 0.  1.
          1   -1    0    0  501    0 -0.00000000000E+00 -0.00000000000E+00 -0.28089967430E+03  0.28089967430E+03  0.00000000000E+00 0.  1.
          2    1    1    2  501    0 -0.39712917248E+01 -0.29650957849E+02  0.30329282024E+01  0.30069072364E+02  0.00000000000E+00 0.  1.
          1    1    1    2  502    0  0.39712917248E+01  0.29650957849E+02 -0.26654482956E+03  0.26821837488E+03  0.00000000000E+00 0.  1.
</event>
<event>
 4    1  0.3752836E+003  0.2518203E+02  0.7546771E-02  0.1466777E+00
          2   -1    0    0  502    0  0.00000000000E+00  0.00000000000E+00  0.18386372970E+01  0.18386372970E+01  0.00000000000E+00 0.  1.
          1   -1    0    0  501    0 -0.00000000000E+00 -0.00000000000E+00 -0.69470922079E+03  0.69470922079E+03  0.00000000000E+00 0.  1.
          2    1    1    2  501    0 -0.25109725568E+02  0.19068999368E+01 -0.99297640259E+02  0.10244098763E+03  0.00000000000E+00 0.  1.
          1    1    1    2  502    0  0.25109725568E+02 -0.19068999368E+01 -0.59357294324E+03  0.59410687046E+03  0.00000000000E+00 0.  1.
</event>
<event>
 4    1  0.3752836E+003  0.3403811E+02  0.7546771E-02  0.1387455E+00
          2   -1    0    0  502    0  0.00000000000E+00  0.00000000000E+00  0.18784486067E+02  0.18784486067E+02  0.00000000000E+00 0. -1.
          1   -1    0    0  501    0 -0.00000000000E+00 -0.00000000000E+00 -0.27335503219E+03  0.27335503219E+03  0.00000000000E+00 0.  1.
          2    1    1    2  501    0  0.11939981656E+02 -0.31875223538E+02  0.12532939552E+01  0.34061177069E+02  0.00000000000E+00 0. -1.
          1    1    1    2  502    0 -0.11939981656E+02  0.31875223538E+02 -0.25582384008E+03  0.25807834119E+03  0.00000000000E+00 0.  1.
</event>
<event>
 4    1  0.3752836E+003  0.2382028E+02  0.7546771E-02  0.1482447E+00
          2   -1    0    0  502    0  0.00000000000E+00  0.00000000000E+00  0.65956886643E+03  0.65956886643E+03  0.00000000000E+00 0.  1.
          1   -1    0    0  501    0 -0.00000000000E+00 -0.00000000000E+00 -0.69020294817E+02  0.69020294817E+02  0.00000000000E+00 0.  1.
          2    1    1    2  501    0 -0.21436385885E+02 -0.10386866730E+02  0.65729146791E+03  0.65772295035E+03  0.00000000000E+00 0.  1.
          1    1    1    2  502    0  0.21436385885E+02  0.10386866730E+02 -0.66742896294E+02  0.70866210891E+02  0.00000000000E+00 0.  1.
</event>
<event>
 4    1  0.3752836E+003  0.2100843E+02  0.7546771E-02  0.1519144E+00
          2   -1    0    0  502    0  0.00000000000E+00  0.00000000000E+00  0.10206794058E+03  0.10206794058E+03  0.00000000000E+00 0. -1.
          1   -1    0    0  501    0 -0.00000000000E+00 -0.00000000000E+00 -0.43260134704E+01  0.43260134704E+01  0.00000000000E+00 0. -1.
          2    1    1    2  501    0 -0.15602960333E+02 -0.14067760811E+02  0.49983207355E+02  0.54218772422E+02  0.00000000000E+00 0. -1.
          1    1    1    2  502    0  0.15602960333E+02  0.14067760811E+02  0.47758719753E+02  0.52175181627E+02  0.00000000000E+00 0. -1.
</event>
<event>
 4    1  0.3752836E+003  0.2101299E+02  0.7546771E-02  0.1519079E+00
          2   -1    0    0  502    0  0.00000000000E+00  0.00000000000E+00  0.12616406787E+03  0.12616406787E+03  0.00000000000E+00 0. -1.
          1   -1    0    0  501    0 -0.00000000000E+00 -0.00000000000E+00 -0.83994267637E+02  0.83994267637E+02  0.00000000000E+00 0. -1.
          2    1    1    2  501    0  0.12967205691E+02 -0.16534732072E+02  0.12395161855E+03  0.12572012380E+03  0.00000000000E+00 0. -1.
          1    1    1    2  502    0 -0.12967205691E+02  0.16534732072E+02 -0.81781818317E+02  0.84438211702E+02  0.00000000000E+00 0. -1.
</event>
<event>
 4    1  0.3752836E+003  0.2250189E+02  0.7546771E-02  0.1498849E+00
          2   -1    0    0  502    0  0.00000000000E+00  0.00000000000E+00  0.90087948857E+02  0.90087948857E+02  0.00000000000E+00 0. -1.
          1   -1    0    0  501    0 -0.00000000000E+00 -0.00000000000E+00 -0.16003364339E+04  0.16003364339E+04  0.00000000000E+00 0.  1.
          2    1    1    2  501    0 -0.17725788052E+02  0.13861148303E+02  0.88602432193E+02  0.91415129956E+02  0.00000000000E+00 0. -1.
          1    1    1    2  502    0  0.17725788052E+02 -0.13861148303E+02 -0.15988509173E+04  0.15990092528E+04  0.00000000000E+00 0.  1.
</event>
<event>
 4    1  0.3752836E+003  0.2139732E+02  0.7546771E-02  0.1513667E+00
          2   -1    0    0  502    0  0.00000000000E+00  0.00000000000E+00  0.14845163728E+04  0.14845163728E+04  0.00000000000E+00 0.  1.
          1   -1    0    0  501    0 -0.00000000000E+00 -0.00000000000E+00 -0.12259741250E+03  0.12259741250E+03  0.00000000000E+00 0. -1.
          2    1    1    2  501    0 -0.21207705144E+02 -0.28422618950E+01  0.14835049973E+04  0.14836593013E+04  0.00000000000E+00 0.  1.
          1    1    1    2  502    0  0.21207705144E+02  0.28422618950E+01 -0.12158603705E+03  0.12345448399E+03  0.00000000000E+00 0. -1.
</event>
<event>
 4    1  0.5625925E+003  0.2929129E+02  0.7546771E-02  0.1425857E+00
          2   -1    0    0  502    0  0.00000000000E+00  0.00000000000E+00  0.10831234406E+04  0.10831234406E+04  0.00000000000E+00 0.  1.
          1   -1    0    0  501    0 -0.00000000000E+00 -0.00000000000E+00 -0.14980393745E+04  0.14980393745E+04  0.00000000000E+00 0.  1.
          2    1    1    2  501    0 -0.29269230129E+02  0.11365121222E+01  0.10827821781E+04  0.10831782977E+04  0.00000000000E+00 0.  1.
          1    1    1    2  502    0  0.29269230129E+02 -0.11365121222E+01 -0.14976981120E+04  0.14979845174E+04  0.00000000000E+00 0.  1.
</event>
<event>
 4    1  0.3752836E+003  0.3086223E+02  0.7546771E-02  0.1412248E+00
          2   -1    0    0  502    0  0.00000000000E+00  0.00000000000E+00  0.15419478816E+02  0.15419478816E+02  0.00000000000E+00 0. -1.
          1   -1    0    0  501    0 -0.00000000000E+00 -0.00000000000E+00 -0.70086539489E+03  0.70086539489E+03  0.00000000000E+00 0.  1.
          2    1    1    2  501    0  0.30679114008E+02 -0.33569868538E+01 -0.72700811756E+00  0.30870794254E+02  0.00000000000E+00 0. -1.
          1    1    1    2  502    0 -0.30679114008E+02  0.33569868538E+01 -0.68471890796E+03  0.68541407945E+03  0.00000000000E+00 0.  1.
</event>
<event>
 4    1  0.3752836E+003  0.2236723E+02  0.7546771E-02  0.1500600E+00
          2   -1    0    0  502    0  0.00000000000E+00  0.00000000000E+00  0.12132346469E+04  0.12132346469E+04  0.00000000000E+00 0.  1.
          1   -1    0    0  501    0 -0.00000000000E+00 -0.00000000000E+00 -0.14061272457E+01  0.14061272457E+01  0.00000000000E+00 0.  1.
          2    1    1    2  501    0 -0.30653580235E+01 -0.22156186924E+02  0.11164747917E+04  0.11166988196E+04  0.00000000000E+00 0.  1.
          1    1    1    2  502    0  0.30653580235E+01  0.22156186924E+02  0.95353727908E+02  0.97941954569E+02  0.00000000000E+00 0.  1.
</event>
<event>
 4    1  0.3752836E+003  0.2253000E+02  0.7546771E-02  0.1498486E+00
          2   -1    0    0  502    0  0.00000000000E+00  0.00000000000E+00  0.24442989313E+01  0.24442989313E+01  0.00000000000E+00 0.  1.
          1   -1    0    0  501    0 -0.00000000000E+00 -0.00000000000E+00 -0.21723914979E+03  0.21723914979E+03  0.00000000000E+00 0.  1.
          2    1    1    2  501    0  0.19146490937E+02  0.11874852710E+02 -0.13045443024E+03  0.13238564352E+03  0.00000000000E+00 0.  1.
          1    1    1    2  502    0 -0.19146490937E+02 -0.11874852710E+02 -0.84340420619E+02  0.87297805197E+02  0.00000000000E+00 0.  1.
</event>
<event>
 4    1  0.3752836E+003  0.2426067E+02  0.7546771E-02  0.1477247E+00
          2   -1    0    0  502    0  0.00000000000E+00  0.00000000000E+00  0.18074083753E+03  0.18074083753E+03  0.00000000000E+00 0. -1.
          1   -1    0    0  501    0 -0.00000000000E+00 -0.00000000000E+00 -0.69301794594E+01  0.69301794594E+01  0.00000000000E+00 0. -1.
          2    1    1    2  501    0  0.16559490500E+02  0.17730284915E+02  0.18585539495E+02  0.30561446417E+02  0.00000000000E+00 0. -1.
          1    1    1    2  502    0 -0.16559490500E+02 -0.17730284915E+02  0.15522511858E+03  0.15710957058E+03  0.00000000000E+00 0. -1.
</event>
<event>
 4    1  0.3752836E+003  0.2622262E+02  0.7546771E-02  0.1455577E+00
          2   -1    0    0  502    0  0.00000000000E+00  0.00000000000E+00  0.21700806895E+02  0.21700806895E+02  0.00000000000E+00 0. -1.
          1   -1    0    0  501    0 -0.00000000000E+00 -0.00000000000E+00 -0.40298020227E+03  0.40298020227E+03  0.00000000000E+00 0.  1.
          2    1    1    2  501    0  0.21349879433E+02 -0.15225258037E+02  0.13181662067E+02  0.29349310876E+02  0.00000000000E+00 0. -1.
          1    1    1    2  502    0 -0.21349879433E+02  0.15225258037E+02 -0.39446105744E+03  0.39533169829E+03  0.00000000000E+00 0.  1.
</event>
<event>
 4    1  0.3752836E+003  0.4207788E+02  0.7546771E-02  0.1336722E+00
          2   -1    0    0  502    0  0.00000000000E+00  0.00000000000E+00  0.21186754049E+04  0.21186754049E+04  0.00000000000E+00 0.  1.
          1   -1    0    0  501    0 -0.00000000000E+00 -0.00000000000E+00 -0.48479004884E+01  0.48479004884E+01  0.00000000000E+00 0. -1.
          2    1    1    2  501    0  0.41783788822E+02  0.49662077429E+01  0.20228361506E+04  0.20232737433E+04  0.00000000000E+00 0.  1.
          1    1    1    2  502    0 -0.41783788822E+02 -0.49662077429E+01  0.90991353864E+02  0.10024956212E+03  0.00000000000E+00 0. -1.
</event>
<event>
 4    1  0.3752836E+003  0.2013661E+02  0.7546771E-02  0.1531958E+00
          2   -1    0    0  502    0  0.00000000000E+00  0.00000000000E+00  0.28789791289E+02  0.28789791289E+02  0.00000000000E+00 0.  1.
          1   -1    0    0  501    0 -0.00000000000E+00 -0.00000000000E+00 -0.58688108663E+02  0.58688108663E+02  0.00000000000E+00 0. -1.
          2    1    1    2  501    0  0.20124584404E+02 -0.69594630437E+00  0.23181947690E+02  0.30706447814E+02  0.00000000000E+00 0.  1.
          1    1    1    2  502    0 -0.20124584404E+02  0.69594630437E+00 -0.53080265063E+02  0.56771452138E+02  0.00000000000E+00 0. -1.
</event>
<event>
 4    1  0.3752836E+003  0.3755401E+02  0.7546771E-02  0.1363448E+00
          2   -1    0    0  502    0  0.00000000000E+00  0.00000000000E+00  0.15953791681E+04  0.15953791681E+04  0.00000000000E+00 0.  1.
          1   -1    0    0  501    0 -0.00000000000E+00 -0.00000000000E+00 -0.10651465209E+02  0.10651465209E+02  0.00000000000E+00 0. -1.
          2    1    1    2  501    0 -0.37272613985E+02  0.45886676487E+01  0.15613353621E+04  0.15617869306E+04  0.00000000000E+00 0.  1.
          1    1    1    2  502    0  0.37272613985E+02 -0.45886676487E+01  0.23392340829E+02  0.44243702756E+02  0.00000000000E+00 0. -1.
</event>
<event>
 4    1  0.3752836E+003  0.2057949E+02  0.7546771E-02  0.1525354E+00
          2   -1    0    0  502    0  0.00000000000E+00  0.00000000000E+00  0.10344234973E+03  0.10344234973E+03  0.00000000000E+00 0.  1.
          1   -1    0    0  501    0 -0.00000000000E+00 -0.00000000000E+00 -0.11371391429E+02  0.11371391429E+02  0.00000000000E+00 0. -1.
          2    1    1    2  501    0 -0.22263328688E+01  0.20458709097E+02  0.91959349992E+02  0.94233950288E+02  0.00000000000E+00 0.  1.
          1    1    1    2  502    0  0.22263328688E+01 -0.20458709097E+02  0.11160831059E+00  0.20579790873E+02  0.00000000000E+00 0. -1.
</event>
<event>
 4    1  0.3752836E+003  0.2252578E+02  0.7546771E-02  0.1498540E+00
          2   -1    0    0  502    0  0.00000000000E+00  0.00000000000E+00  0.17426836473E+01  0.17426836473E+01  0.00000000000E+00 0. -1.
          1   -1    0    0  501    0 -0.00000000000E+00 -0.00000000000E+00 -0.35273891715E+03  0.35273891715E+03  0.00000000000E+00 0. -1.
          2    1    1    2  501    0  0.22376093135E+02  0.25925045227E+01 -0.10144709151E+03  0.10391786661E+03  0.00000000000E+00 0. -1.
          1    1    1    2  502    0 -0.22376093135E+02 -0.25925045227E+01 -0.24954914199E+03  0.25056373419E+03  0.00000000000E+00 0. -1.
</event>
<event>
 4    1  0.3752836E+003  0.5357360E+02  0.7546771E-02  0.1283380E+00
          2   -1    0    0  502    0  0.00000000000E+00  0.00000000000E+00  0.15732679712E+02  0.15732679712E+02  0.00000000000E+00 0. -1.
          1   -1    0    0  501    0 -0.00000000000E+00 -0.00000000000E+00 -0.74572125794E+03  0.74572125794E+03  0.00000000000E+00 0.  1.
          2    1    1    2  501    0  0.53529017343E+02  0.21851982423E+01 -0.34098345495E+02  0.63504550660E+02  0.00000000000E+00 0. -1.
          1    1    1    2  502    0 -0.53529017343E+02 -0.21851982423E+01 -0.69589023273E+03  0.69794938699E+03  0.00000000000E+00 0.  1.
</event>
<event>
 4    1  0.3752836E+003  0.2406974E+02  0.7546771E-02  0.1479485E+00
          2   -1    0    0  502    0  0.00000000000E+00  0.00000000000E+00  0.19953267992E+01  0.19953267992E+01  0.00000000000E+00 0. -1.
          1   -1    0    0  501    0 -0.00000000000E+00 -0.00000000000E+00 -0.43896719628E+03  0.43896719628E+03  0.00000000000E+00 0. -1.
          2    1    1    2  501    0 -0.14727748992E+02 -0.19038013386E+02 -0.90198744170E+02  0.93355053392E+02  0.00000000000E+00 0. -1.
          1    1    1    2  502    0  0.14727748992E+02  0.19038013386E+02 -0.34677312532E+03  0.34760746969E+03  0.00000000000E+00 0. -1.
</event>
<event>
 4    1  0.3752836E+003  0.3090094E+02  0.7546771E-02  0.1411925E+00
          2   -1    0    0  502    0  0.00000000000E+00  0.00000000000E+00  0.49979468845E+02  0.49979468845E+02  0.00000000000E+00 0.  1.
          1   -1    0    0  501    0 -0.00000000000E+00 -0.00000000000E+00 -0.75748626055E+02  0.75748626055E+02  0.00000000000E+00 0.  1.
          2    1    1    2  501    0 -0.30766516497E+02  0.28791544559E+01  0.41476703579E+02  0.51722190668E+02  0.00000000000E+00 0.  1.
          1    1    1    2  502    0  0.30766516497E+02 -0.28791544559E+01 -0.67245860790E+02  0.74005904232E+02  0.00000000000E+00 0.  1.
</event>
<event>
 4    1  0.3752836E+003  0.2206737E+02  0.7546771E-02  0.1504553E+00
          2   -1    0    0  502    0  0.00000000000E+00  0.00000000000E+00  0.18139587915E+02  0.18139587915E+02  0.00000000000E+00 0.  1.
          1   -1    0    0  501    0 -0.00000000000E+00 -0.00000000000E+00 -0.21815927332E+03  0.21815927332E+03  0.00000000000E+00 0.  1.
          2    1    1    2  501    0  0.17154278034E+02  0.13881619896E+02  0.10631584063E+02  0.24494881210E+02  0.00000000000E+00 0.  1.
          1    1    1    2  502    0 -0.17154278034E+02 -0.13881619896E+02 -0.21065126947E+03  0.21180398002E+03  0.00000000000E+00 0.  1.
</event>
<event>
 4    1  0.3752836E+003  0.3036671E+02  0.7546771E-02  0.1416436E+00
          2   -1    0    0  502    0  0.00000000000E+00  0.00000000000E+00  0.15871131538E+03  0.15871131538E+03  0.00000000000E+00 0. -1.
          1   -1    0    0  501    0 -0.00000000000E+00 -0.00000000000E+00 -0.10656252550E+04  0.10656252550E+04  0.00000000000E+00 0.  1.
          2    1    1    2  501    0 -0.15792267368E+02  0.25937258359E+02  0.15704015890E+03  0.15994920628E+03  0.00000000000E+00 0. -1.
          1    1    1    2  502    0  0.15792267368E+02 -0.25937258359E+02 -0.10639540986E+04  0.10643873641E+04  0.00000000000E+00 0.  1.
</event>
<event>
 4    1  0.3752836E+003  0.2573609E+02  0.7546771E-02  0.1460735E+00
          2   -1    0    0  502    0  0.00000000000E+00  0.00000000000E+00  0.83120969910E+01  0.83120969910E+01  0.00000000000E+00 0.  1.
          1   -1    0    0  501    0 -0.00000000000E+00 -0.00000000000E+00 -0.28941639363E+03  0.28941639363E+03  0.00000000000E+00 0.  1.
          2    1    1    2  501    0 -0.20732096554E+02 -0.15248827633E+02 -0.13827552142E+02  0.29215539870E+02  0.00000000000E+00 0.  1.
          1    1    1    2  502    0  0.20732096554E+02  0.15248827633E+02 -0.26727674449E+03  0.26851295075E+03  0.00000000000E+00 0.  1.
</event>
<event>
 4    1  0.3752836E+003  0.2955996E+02  0.7546771E-02  0.1423459E+00
          2   -1    0    0  502    0  0.00000000000E+00  0.00000000000E+00  0.87550384688E+02  0.87550384688E+02  0.00000000000E+00 0.  1.
          1   -1    0    0  501    0 -0.00000000000E+00 -0.00000000000E+00 -0.40447711565E+02  0.40447711565E+02  0.00000000000E+00 0. -1.
          2    1    1    2  501    0  0.91156144439E+01 -0.28119336600E+02  0.79096123613E+02  0.84439257979E+02  0.00000000000E+00 0.  1.
          1    1    1    2  502    0 -0.91156144439E+01  0.28119336600E+02 -0.31993450490E+02  0.43558838274E+02  0.00000000000E+00 0. -1.
</event>
<event>
 4    1  0.3752836E+003  0.2050984E+02  0.7546771E-02  0.1526379E+00
          2   -1    0    0  502    0  0.00000000000E+00  0.00000000000E+00  0.77677391291E+02  0.77677391291E+02  0.00000000000E+00 0.  1.
          1   -1    0    0  501    0 -0.00000000000E+00 -0.00000000000E+00 -0.80374305236E+01  0.80374305236E+01  0.00000000000E+00 0.  1.
          2    1    1    2  501    0 -0.20453278997E+02  0.15220867008E+01  0.59298605036E+02  0.62745341890E+02  0.00000000000E+00 0.  1.
          1    1    1    2  502    0  0.20453278997E+02 -0.15220867008E+01  0.10341355731E+02  0.22969479924E+02  0.00000000000E+00 0.  1.
</event>
<event>
 4    1  0.3752836E+003  0.2204984E+02  0.7546771E-02  0.1504787E+00
          2   -1    0    0  502    0  0.00000000000E+00  0.00000000000E+00  0.25963191780E+01  0.25963191780E+01  0.00000000000E+00 0. -1.
          1   -1    0    0  501    0 -0.00000000000E+00 -0.00000000000E+00 -0.48747860878E+03  0.48747860878E+03  0.00000000000E+00 0. -1.
          2    1    1    2  501    0  0.18005617239E+02  0.12727659624E+02 -0.50144791560E+02  0.54778606155E+02  0.00000000000E+00 0. -1.
          1    1    1    2  502    0 -0.18005617239E+02 -0.12727659624E+02 -0.43473749805E+03  0.43529632181E+03  0.00000000000E+00 0. -1.
</event>
<event>
 4    1  0.3752836E+003  0.3828336E+02  0.7546771E-02  0.1358850E+00
          2   -1    0    0  502    0  0.00000000000E+00  0.00000000000E+00  0.18446697115E+03  0.18446697115E+03  0.00000000000E+00 0.  1.
          1   -1    0    0  501    0 -0.00000000000E+00 -0.00000000000E+00 -0.60162708481E+02  0.60162708481E+02  0.00000000000E+00 0. -1.
          2    1    1    2  501    0  0.17998904149E+02  0.33788384646E+02  0.17610461441E+03  0.18021778687E+03  0.00000000000E+00 0.  1.
          1    1    1    2  502    0 -0.17998904149E+02 -0.33788384646E+02 -0.51800351746E+02  0.64411892757E+02  0.00000000000E+00 0. -1.
</event>
<event>
 4    1  0.3752836E+003  0.2510804E+02  0.7546771E-02  0.1467598E+00
          2   -1    0    0  502    0  0.00000000000E+00  0.00000000000E+00  0.18248359170E+02  0.18248359170E+02  0.00000000000E+00 0.  1.
          1   -1    0    0  501    0 -0.00000000000E+00 -0.00000000000E+00 -0.44292856970E+02  0.44292856970E+02  0.00000000000E+00 0.  1.
          2    1    1    2  501    0 -0.15577681193E+02 -0.19691357732E+02  0.16465504113E+01  0.25161972278E+02  0.00000000000E+00 0.  1.
          1    1    1    2  502    0  0.15577681193E+02  0.19691357732E+02 -0.27691048212E+02  0.37379243862E+02  0.00000000000E+00 0.  1.
</event>
<event>
 4    1  0.3752836E+003  0.2607647E+02  0.7546771E-02  0.1457112E+00
          2   -1    0    0  502    0  0.00000000000E+00  0.00000000000E+00  0.10163989416E+03  0.10163989416E+03  0.00000000000E+00 0.  1.
          1   -1    0    0  501    0 -0.00000000000E+00 -0.00000000000E+00 -0.20427382886E+03  0.20427382886E+03  0.00000000000E+00 0.  1.
          2    1    1    2  501    0  0.60235266711E+01 -0.25371229941E+02  0.99114321230E+02  0.10248722289E+03  0.00000000000E+00 0.  1.
          1    1    1    2  502    0 -0.60235266711E+01  0.25371229941E+02 -0.20174825593E+03  0.20342650013E+03  0.00000000000E+00 0.  1.
</event>
<event>
 4    1  0.3752836E+003  0.2047423E+02  0.7546771E-02  0.1526906E+00
          2   -1    0    0  502    0  0.00000000000E+00  0.00000000000E+00  0.11138578289E+02  0.11138578289E+02  0.00000000000E+00 0.  1.
          1   -1    0    0  501    0 -0.00000000000E+00 -0.00000000000E+00 -0.11380713052E+03  0.11380713052E+03  0.00000000000E+00 0. -1.
          2    1    1    2  501    0  0.13583703400E+01  0.20429116433E+02 -0.22422577025E+00  0.20475454706E+02  0.00000000000E+00 0.  1.
          1    1    1    2  502    0 -0.13583703400E+01 -0.20429116433E+02 -0.10244432646E+03  0.10447025411E+03  0.00000000000E+00 0. -1.
</event>
<event>
 4    1  0.3752836E+003  0.2435104E+02  0.7546771E-02  0.1476196E+00
          2   -1    0    0  502    0  0.00000000000E+00  0.00000000000E+00  0.62532631777E+03  0.62532631777E+03  0.00000000000E+00 0. -1.
          1   -1    0    0  501    0 -0.00000000000E+00 -0.00000000000E+00 -0.39439849787E+03  0.39439849787E+03  0.00000000000E+00 0.  1.
          2    1    1    2  501    0 -0.11256514248E+02 -0.21593148277E+02  0.62471301157E+03  0.62518742789E+03  0.00000000000E+00 0. -1.
          1    1    1    2  502    0  0.11256514248E+02  0.21593148277E+02 -0.39378519167E+03  0.39453738776E+03  0.00000000000E+00 0.  1.
</event>
<event>
 4    1  0.3752836E+003  0.2677187E+02  0.7546771E-02  0.1449913E+00
          2   -1    0    0  502    0  0.00000000000E+00  0.00000000000E+00  0.13885625569E+03  0.13885625569E+03  0.00000000000E+00 0. -1.
          1   -1    0    0  501    0 -0.00000000000E+00 -0.00000000000E+00 -0.44072750956E+02  0.44072750956E+02  0.00000000000E+00 0. -1.
          2    1    1    2  501    0  0.30137563011E+01  0.26601698353E+02  0.13333347044E+03  0.13599465953E+03  0.00000000000E+00 0. -1.
          1    1    1    2  502    0 -0.30137563011E+01 -0.26601698353E+02 -0.38549965709E+02  0.46934347108E+02  0.00000000000E+00 0. -1.
</event>
<event>
 4    1  0.3752836E+003  0.3875202E+02  0.7546771E-02  0.1355958E+00
          2   -1    0    0  502    0  0.00000000000E+00  0.00000000000E+00  0.22919869022E+04  0.22919869022E+04  0.00000000000E+00 0.  1.
          1   -1    0    0  501    0 -0.00000000000E+00 -0.00000000000E+00 -0.12408033805E+02  0.12408033805E+02  0.00000000000E+00 0.  1.
          2    1    1    2  501    0 -0.30026342262E+01  0.38635519226E+02  0.22611535508E+04  0.22614855957E+04  0.00000000000E+00 0.  1.
          1    1    1    2  502    0  0.30026342262E+01 -0.38635519226E+02  0.18425317580E+02  0.42909340313E+02  0.00000000000E+00 0.  1.
</event>
<event>
 4    1  0.3752836E+003  0.2060495E+02  0.7546771E-02  0.1524981E+00
          2   -1    0    0  502    0  0.00000000000E+00  0.00000000000E+00  0.40376338006E+03  0.40376338006E+03  0.00000000000E+00 0. -1.
          1   -1    0    0  501    0 -0.00000000000E+00 -0.00000000000E+00 -0.12034913872E+01  0.12034913872E+01  0.00000000000E+00 0.  1.
          2    1    1    2  501    0 -0.27001274438E+01  0.20427270483E+02  0.27323365158E+03  0.27400947506E+03  0.00000000000E+00 0. -1.
          1    1    1    2  502    0  0.27001274438E+01 -0.20427270483E+02  0.12932623710E+03  0.13095739639E+03  0.00000000000E+00 0.  1.
</event>
<event>
 4    1  0.3752836E+003  0.3049259E+02  0.7546771E-02  0.1415363E+00
          2   -1    0    0  502    0  0.00000000000E+00  0.00000000000E+00  0.13460767387E+04  0.13460767387E+04  0.00000000000E+00 0. -1.
          1   -1    0    0  501    0 -0.00000000000E+00 -0.00000000000E+00 -0.38809426878E+02  0.38809426878E+02  0.00000000000E+00 0. -1.
          2    1    1    2  501    0  0.18162527005E+02 -0.24493276541E+02  0.13398868748E+04  0.13402337987E+04  0.00000000000E+00 0. -1.
          1    1    1    2  502    0 -0.18162527005E+02  0.24493276541E+02 -0.32619562938E+02  0.44652366893E+02  0.00000000000E+00 0. -1.
</event>
<event>
 4    1  0.3752836E+003  0.2063164E+02  0.7546771E-02  0.1524590E+00
          2   -1    0    0  502    0  0.00000000000E+00  0.00000000000E+00  0.50489591502E+01  0.50489591502E+01  0.00000000000E+00 0.  1.
          1   -1    0    0  501    0 -0.00000000000E+00 -0.00000000000E+00 -0.24265223391E+03  0.24265223391E+03  0.00000000000E+00 0.  1.
          2    1    1    2  501    0 -0.42247530240E+01  0.20194453752E+02 -0.18753746584E+02  0.27881311149E+02  0.00000000000E+00 0.  1.
          1    1    1    2  502    0  0.42247530240E+01 -0.20194453752E+02 -0.21884952818E+03  0.21981988191E+03  0.00000000000E+00 0.  1.
</event>
<event>
 4    1  0.3752836E+003  0.6651608E+02  0.7546771E-02  0.1239168E+00
          2   -1    0    0  502    0  0.00000000000E+00  0.00000000000E+00  0.18399827597E+02  0.18399827597E+02  0.00000000000E+00 0. -1.
          1   -1    0    0  501    0 -0.00000000000E+00 -0.00000000000E+00 -0.39537767486E+03  0.39537767486E+03  0.00000000000E+00 0.  1.
          2    1    1    2  501    0 -0.47259190523E+02 -0.46807672474E+02 -0.58984732137E+02  0.88902125490E+02  0.00000000000E+00 0. -1.
          1    1    1    2  502    0  0.47259190523E+02  0.46807672474E+02 -0.31799311513E+03  0.32487537697E+03  0.00000000000E+00 0.  1.
</event>
<event>
 4    1  0.3752836E+003  0.2514036E+02  0.7546771E-02  0.1467239E+00
          2   -1    0    0  502    0  0.00000000000E+00  0.00000000000E+00  0.40729342725E+03  0.40729342725E+03  0.00000000000E+00 0. -1.
          1   -1    0    0  501    0 -0.00000000000E+00 -0.00000000000E+00 -0.14404231069E+03  0.14404231069E+03  0.00000000000E+00 0.  1.
          2    1    1    2  501    0 -0.25081631343E+02  0.17173677240E+01  0.40580449130E+03  0.40658249193E+03  0.00000000000E+00 0. -1.
          1    1    1    2  502    0  0.25081631343E+02 -0.17173677240E+01 -0.14255337473E+03  0.14475324601E+03  0.00000000000E+00 0.  1.
</event>
<event>
 4    1  0.3752836E+003  0.3253068E+02  0.7546771E-02  0.1398807E+00
          2   -1    0    0  502    0  0.00000000000E+00  0.00000000000E+00  0.13972699090E+04  0.13972699090E+04  0.00000000000E+00 0.  1.
          1   -1    0    0  501    0 -0.00000000000E+00 -0.00000000000E+00 -0.75095197501E+02  0.75095197501E+02  0.00000000000E+00 0. -1.
          2    1    1    2  501    0 -0.15344855322E+02 -0.28684152212E+02  0.13935481476E+04  0.13939277904E+04  0.00000000000E+00 0.  1.
          1    1    1    2  502    0  0.15344855322E+02  0.28684152212E+02 -0.71373436112E+02  0.78437316090E+02  0.00000000000E+00 0. -1.
</event>
<event>
 4    1  0.3752836E+003  0.2518214E+02  0.7546771E-02  0.1466776E+00
          2   -1    0    0  502    0  0.00000000000E+00  0.00000000000E+00  0.83200600143E+02  0.83200600143E+02  0.00000000000E+00 0. -1.
          1   -1    0    0  501    0 -0.00000000000E+00 -0.00000000000E+00 -0.59829605957E+02  0.59829605957E+02  0.00000000000E+00 0. -1.
          2    1    1    2  501    0 -0.17962577307E+02 -0.17648969689E+02  0.78490243485E+02  0.82430932525E+02  0.00000000000E+00 0. -1.
          1    1    1    2  502    0  0.17962577307E+02  0.17648969689E+02 -0.55119249299E+02  0.60599273576E+02  0.00000000000E+00 0. -1.
</event>
<event>
 4    1  0.3752836E+003  0.2150406E+02  0.7546771E-02  0.1512188E+00
          2   -1    0    0  502    0  0.00000000000E+00  0.00000000000E+00  0.15310840956E+03  0.15310840956E+03  0.00000000000E+00 0.  1.
          1   -1    0    0  501    0 -0.00000000000E+00 -0.00000000000E+00 -0.34515524593E+01  0.34515524593E+01  0.00000000000E+00 0.  1.
          2    1    1    2  501    0 -0.15387105714E+02  0.15022031335E+02  0.10250029621E+03  0.10473172953E+03  0.00000000000E+00 0.  1.
          1    1    1    2  502    0  0.15387105714E+02 -0.15022031335E+02  0.47156560889E+02  0.51828232486E+02  0.00000000000E+00 0.  1.
</event>
<event>
 4    1  0.3752836E+003  0.2874476E+02  0.7546771E-02  0.1430827E+00
          2   -1    0    0  502    0  0.00000000000E+00  0.00000000000E+00  0.72881398321E+03  0.72881398321E+03  0.00000000000E+00 0.  1.
          1   -1    0    0  501    0 -0.00000000000E+00 -0.00000000000E+00 -0.13223927563E+01  0.13223927563E+01  0.00000000000E+00 0. -1.
          2    1    1    2  501    0 -0.28716658119E+02  0.12706525209E+01  0.50164574636E+03  0.50246862176E+03  0.00000000000E+00 0.  1.
          1    1    1    2  502    0  0.28716658119E+02 -0.12706525209E+01  0.22584584409E+03  0.22766775420E+03  0.00000000000E+00 0. -1.
</event>
<event>
 4    1  0.3752836E+003  0.2327559E+02  0.7546771E-02  0.1489066E+00
          2   -1    0    0  502    0  0.00000000000E+00  0.00000000000E+00  0.32499560441E+03  0.32499560441E+03  0.00000000000E+00 0.  1.
          1   -1    0    0  501    0 -0.00000000000E+00 -0.00000000000E+00 -0.18602414190E+01  0.18602414190E+01  0.00000000000E+00 0.  1.
          2    1    1    2  501    0  0.20138542013E+02 -0.11670128170E+02  0.10888798667E+03  0.11134786216E+03  0.00000000000E+00 0.  1.
          1    1    1    2  502    0 -0.20138542013E+02  0.11670128170E+02  0.21424737631E+03  0.21550798366E+03  0.00000000000E+00 0.  1.
</event>
<event>
 4    1  0.3752836E+003  0.2107024E+02  0.7546771E-02  0.1518264E+00
          2   -1    0    0  502    0  0.00000000000E+00  0.00000000000E+00  0.13021408811E+03  0.13021408811E+03  0.00000000000E+00 0.  1.
          1   -1    0    0  501    0 -0.00000000000E+00 -0.00000000000E+00 -0.58739874780E+03  0.58739874780E+03  0.00000000000E+00 0.  1.
          2    1    1    2  501    0  0.57344071945E+01  0.20274905464E+02  0.12917126667E+03  0.13087846023E+03  0.00000000000E+00 0.  1.
          1    1    1    2  502    0 -0.57344071945E+01 -0.20274905464E+02 -0.58635592637E+03  0.58673437568E+03  0.00000000000E+00 0.  1.
</event>
<event>
 4    1  0.3752836E+003  0.2532663E+02  0.7546771E-02  0.1465182E+00
          2   -1    0    0  502    0  0.00000000000E+00  0.00000000000E+00  0.80600188744E+03  0.80600188744E+03  0.00000000000E+00 0.  1.
          1   -1    0    0  501    0 -0.00000000000E+00 -0.00000000000E+00 -0.15771326362E+02  0.15771326362E+02  0.00000000000E+00 0.  1.
          2    1    1    2  501    0  0.22800678786E+02  0.11025757181E+02  0.79550095349E+03  0.79590401763E+03  0.00000000000E+00 0.  1.
          1    1    1    2  502    0 -0.22800678786E+02 -0.11025757181E+02 -0.52703924119E+01  0.25869196174E+02  0.00000000000E+00 0.  1.
</event>
<event>
 4    1  0.3752836E+003  0.2228702E+02  0.7546771E-02  0.1501651E+00
          2   -1    0    0  502    0  0.00000000000E+00  0.00000000000E+00  0.70782216420E+02  0.70782216420E+02  0.00000000000E+00 0.  1.
          1   -1    0    0  501    0 -0.00000000000E+00 -0.00000000000E+00 -0.32157715704E+02  0.32157715704E+02  0.00000000000E+00 0. -1.
          2    1    1    2  501    0  0.13790783832E+02  0.17507865319E+02  0.64821132600E+02  0.68545534488E+02  0.00000000000E+00 0.  1.
          1    1    1    2  502    0 -0.13790783832E+02 -0.17507865319E+02 -0.26196631883E+02  0.34394397636E+02  0.00000000000E+00 0. -1.
</event>
<event>
 4    1  0.3752836E+003  0.2078620E+02  0.7546771E-02  0.1522339E+00
          2   -1    0    0  502    0  0.00000000000E+00  0.00000000000E+00  0.20497465509E+02  0.20497465509E+02  0.00000000000E+00 0. -1.
          1   -1    0    0  501    0 -0.00000000000E+00 -0.00000000000E+00 -0.36731646436E+03  0.36731646436E+03  0.00000000000E+00 0.  1.
          2    1    1    2  501    0 -0.14361307471E+02  0.15027276391E+02  0.14851446699E+02  0.25546656476E+02  0.00000000000E+00 0. -1.
          1    1    1    2  502    0  0.14361307471E+02 -0.15027276391E+02 -0.36167044555E+03  0.36226727340E+03  0.00000000000E+00 0.  1.
</event>
<event>
 4    1  0.3752836E+003  0.2713828E+02  0.7546771E-02  0.1446224E+00
          2   -1    0    0  502    0  0.00000000000E+00  0.00000000000E+00  0.43271286999E+03  0.43271286999E+03  0.00000000000E+00 0.  1.
          1   -1    0    0  501    0 -0.00000000000E+00 -0.00000000000E+00 -0.13643041510E+03  0.13643041510E+03  0.00000000000E+00 0.  1.
          2    1    1    2  501    0  0.18854613556E+01 -0.27072707799E+02  0.43093222942E+03  0.43178591087E+03  0.00000000000E+00 0.  1.
          1    1    1    2  502    0 -0.18854613556E+01  0.27072707799E+02 -0.13464977453E+03  0.13735737422E+03  0.00000000000E+00 0.  1.
</event>
<event>
 4    1  0.3752836E+003  0.2517958E+02  0.7546771E-02  0.1466804E+00
          2   -1    0    0  502    0  0.00000000000E+00  0.00000000000E+00  0.17268645560E+03  0.17268645560E+03  0.00000000000E+00 0. -1.
          1   -1    0    0  501    0 -0.00000000000E+00 -0.00000000000E+00 -0.47251924295E+02  0.47251924295E+02  0.00000000000E+00 0.  1.
          2    1    1    2  501    0  0.23117152190E+02  0.99804086560E+01  0.16832779184E+03  0.17020063687E+03  0.00000000000E+00 0. -1.
          1    1    1    2  502    0 -0.23117152190E+02 -0.99804086560E+01 -0.42893260538E+02  0.49737743032E+02  0.00000000000E+00 0.  1.
</event>
<event>
 4    1  0.3752836E+003  0.2719721E+02  0.7546771E-02  0.1445637E+00
          2   -1    0    0  502    0  0.00000000000E+00  0.00000000000E+00  0.87353233578E+02  0.87353233578E+02  0.00000000000E+00 0.  1.
          1   -1    0    0  501    0 -0.00000000000E+00 -0.00000000000E+00 -0.10929972605E+02  0.10929972605E+02  0.00000000000E+00 0. -1.
          2    1    1    2  501    0 -0.81329449722E+01  0.25952711754E+02  0.61535506101E+02  0.67277831062E+02  0.00000000000E+00 0.  1.
          1    1    1    2  502    0  0.81329449722E+01 -0.25952711754E+02  0.14887754872E+02  0.31005375122E+02  0.00000000000E+00 0. -1.
</event>
<event>
 4    1  0.3752836E+003  0.8701987E+02  0.7546771E-02  0.1188426E+00
          2   -1    0    0  502    0  0.00000000000E+00  0.00000000000E+00  0.54820433695E+02  0.54820433695E+02  0.00000000000E+00 0.  1.
          1   -1    0    0  501    0 -0.00000000000E+00 -0.00000000000E+00 -0.29731961027E+03  0.29731961027E+03  0.00000000000E+00 0.  1.
          2    1    1    2  501    0 -0.21153246130E+02  0.84409700134E+02  0.75837451684E+01  0.87349702285E+02  0.00000000000E+00 0.  1.
          1    1    1    2  502    0  0.21153246130E+02 -0.84409700134E+02 -0.25008292174E+03  0.26479034168E+03  0.00000000000E+00 0.  1.
</event>
<event>
 4    1  0.3752836E+003  0.2648282E+02  0.7546771E-02  0.1452874E+00
          2   -1    0    0  502    0  0.00000000000E+00  0.00000000000E+00  0.19917757794E+02  0.19917757794E+02  0.00000000000E+00 0.  1.
          1   -1    0    0  501    0 -0.00000000000E+00 -0.00000000000E+00 -0.14557701420E+03  0.14557701420E+03  0.00000000000E+00 0.  1.
          2    1    1    2  501    0  0.19453359092E+02  0.17969598683E+02  0.92187200459E+01  0.28041477423E+02  0.00000000000E+00 0.  1.
          1    1    1    2  502    0 -0.19453359092E+02 -0.17969598683E+02 -0.13487797645E+03  0.13745329457E+03  0.00000000000E+00 0.  1.
</event>
<event>
 4    1  0.3752836E+003  0.2107271E+02  0.7546771E-02  0.1518229E+00
          2   -1    0    0  502    0  0.00000000000E+00  0.00000000000E+00  0.21668493872E+02  0.21668493872E+02  0.00000000000E+00 0. -1.
          1   -1    0    0  501    0 -0.00000000000E+00 -0.00000000000E+00 -0.13406462300E+04  0.13406462300E+04  0.00000000000E+00 0.  1.
          2    1    1    2  501    0  0.86738907398E+00 -0.21054846726E+02  0.16442313179E+02  0.26728423020E+02  0.00000000000E+00 0. -1.
          1    1    1    2  502    0 -0.86738907398E+00  0.21054846726E+02 -0.13354200493E+04  0.13355863008E+04  0.00000000000E+00 0.  1.
</event>
<event>
 4    1  0.3752836E+003  0.3752370E+02  0.7546771E-02  0.1363641E+00
          2   -1    0    0  502    0  0.00000000000E+00  0.00000000000E+00  0.20224547253E+04  0.20224547253E+04  0.00000000000E+00 0.  1.
          1   -1    0    0  501    0 -0.00000000000E+00 -0.00000000000E+00 -0.22619394332E+02  0.22619394332E+02  0.00000000000E+00 0.  1.
          2    1    1    2  501    0  0.35853693857E+02 -0.11069804602E+02  0.20065955148E+04  0.20069463341E+04  0.00000000000E+00 0.  1.
          1    1    1    2  502    0 -0.35853693857E+02  0.11069804602E+02 -0.67601839121E+01  0.38127785454E+02  0.00000000000E+00 0.  1.
</event>
<event>
 4    1  0.3752836E+003  0.2915032E+02  0.7546771E-02  0.1427127E+00
          2   -1    0    0  502    0  0.00000000000E+00  0.00000000000E+00  0.12812885977E+02  0.12812885977E+02  0.00000000000E+00 0. -1.
          1   -1    0    0  501    0 -0.00000000000E+00 -0.00000000000E+00 -0.31789065295E+03  0.31789065295E+03  0.00000000000E+00 0. -1.
          2    1    1    2  501    0 -0.47502062071E+01  0.28760681039E+02 -0.54429770081E+01  0.29654126720E+02  0.00000000000E+00 0. -1.
          1    1    1    2  502    0  0.47502062071E+01 -0.28760681039E+02 -0.29963478997E+03  0.30104941221E+03  0.00000000000E+00 0. -1.
</event>
<event>
 4    1  0.3752836E+003  0.2367941E+02  0.7546771E-02  0.1484139E+00
          2   -1    0    0  502    0  0.00000000000E+00  0.00000000000E+00  0.15140692569E+03  0.15140692569E+03  0.00000000000E+00 0. -1.
          1   -1    0    0  501    0 -0.00000000000E+00 -0.00000000000E+00 -0.34412723428E+02  0.34412723428E+02  0.00000000000E+00 0. -1.
          2    1    1    2  501    0  0.59726847011E+01 -0.22913779371E+02  0.14626536947E+03  0.14816974237E+03  0.00000000000E+00 0. -1.
          1    1    1    2  502    0 -0.59726847011E+01  0.22913779371E+02 -0.29271167215E+02  0.37649906743E+02  0.00000000000E+00 0. -1.
</event>
<event>
 4    1  0.3752836E+003  0.2787036E+02  0.7546771E-02  0.1439056E+00
          2   -1    0    0  502    0  0.00000000000E+00  0.00000000000E+00  0.11648217454E+04  0.11648217454E+04  0.00000000000E+00 0.  1.
          1   -1    0    0  501    0 -0.00000000000E+00 -0.00000000000E+00 -0.67026459132E+00  0.67026459132E+00  0.00000000000E+00 0.  1.
          2    1    1    2  501    0  0.63215359502E+01 -0.27143973431E+02  0.62369157041E+03  0.62431396918E+03  0.00000000000E+00 0.  1.
          1    1    1    2  502    0 -0.63215359502E+01  0.27143973431E+02  0.54045991044E+03  0.54117804086E+03  0.00000000000E+00 0.  1.
</event>
<event>
 4    1  0.3752836E+003  0.2022298E+02  0.7546771E-02  0.1530654E+00
          2   -1    0    0  502    0  0.00000000000E+00  0.00000000000E+00  0.10849379571E+02  0.10849379571E+02  0.00000000000E+00 0. -1.
          1   -1    0    0  501    0 -0.00000000000E+00 -0.00000000000E+00 -0.10214523766E+04  0.10214523766E+04  0.00000000000E+00 0. -1.
          2    1    1    2  501    0  0.14492794317E+02  0.14104173598E+02  0.12359758362E+01  0.20260711642E+02  0.00000000000E+00 0. -1.
          1    1    1    2  502    0 -0.14492794317E+02 -0.14104173598E+02 -0.10118389728E+04  0.10120410445E+04  0.00000000000E+00 0. -1.
</event>
<event>
 4    1  0.3752836E+003  0.2417696E+02  0.7546771E-02  0.1478225E+00
          2   -1    0    0  502    0  0.00000000000E+00  0.00000000000E+00  0.10466196356E+02  0.10466196356E+02  0.00000000000E+00 0. -1.
          1   -1    0    0  501    0 -0.00000000000E+00 -0.00000000000E+00 -0.12817250250E+03  0.12817250250E+03  0.00000000000E+00 0. -1.
          2    1    1    2  501    0 -0.21769857539E+02 -0.10516583595E+02 -0.67820035753E+01  0.25110173243E+02  0.00000000000E+00 0. -1.
          1    1    1    2  502    0  0.21769857539E+02  0.10516583595E+02 -0.11092430257E+03  0.11352852562E+03  0.00000000000E+00 0. -1.
</event>
<event>
 4    1  0.3752836E+003  0.2043767E+02  0.7546771E-02  0.1527447E+00
          2   -1    0    0  502    0  0.00000000000E+00  0.00000000000E+00  0.50364340978E+03  0.50364340978E+03  0.00000000000E+00 0. -1.
          1   -1    0    0  501    0 -0.00000000000E+00 -0.00000000000E+00 -0.21701731815E+01  0.21701731815E+01  0.00000000000E+00 0.  1.
          2    1    1    2  501    0 -0.20317284368E+02  0.22150041980E+01  0.44952844659E+03  0.44999280281E+03  0.00000000000E+00 0. -1.
          1    1    1    2  502    0  0.20317284368E+02 -0.22150041980E+01  0.51944790015E+02  0.55820780157E+02  0.00000000000E+00 0.  1.
</event>
<event>
 4    1  0.3752836E+003  0.2596524E+02  0.7546771E-02  0.1458289E+00
          2   -1    0    0  502    0  0.00000000000E+00  0.00000000000E+00  0.15665771612E+04  0.15665771612E+04  0.00000000000E+00 0. -1.
          1   -1    0    0  501    0 -0.00000000000E+00 -0.00000000000E+00 -0.22558502139E+01  0.22558502139E+01  0.00000000000E+00 0. -1.
          2    1    1    2  501    0 -0.39310051830E+01 -0.25665945714E+02  0.14877974853E+04  0.14880240425E+04  0.00000000000E+00 0. -1.
          1    1    1    2  502    0  0.39310051830E+01  0.25665945714E+02  0.76523825664E+02  0.80808968967E+02  0.00000000000E+00 0. -1.
</event>
<event>
 4    1  0.3752836E+003  0.2534312E+02  0.7546771E-02  0.1465001E+00
          2   -1    0    0  502    0  0.00000000000E+00  0.00000000000E+00  0.36389405961E+02  0.36389405961E+02  0.00000000000E+00 0. -1.
          1   -1    0    0  501    0 -0.00000000000E+00 -0.00000000000E+00 -0.28202512503E+02  0.28202512503E+02  0.00000000000E+00 0. -1.
          2    1    1    2  501    0  0.14229025178E+02  0.20971614126E+02  0.23848663816E+02  0.34799892563E+02  0.00000000000E+00 0. -1.
          1    1    1    2  502    0 -0.14229025178E+02 -0.20971614126E+02 -0.15661770358E+02  0.29792025902E+02  0.00000000000E+00 0. -1.
</event>
<event>
 4    1  0.3752836E+003  0.2528479E+02  0.7546771E-02  0.1465643E+00
          2   -1    0    0  502    0  0.00000000000E+00  0.00000000000E+00  0.38313038380E+01  0.38313038380E+01  0.00000000000E+00 0. -1.
          1   -1    0    0  501    0 -0.00000000000E+00 -0.00000000000E+00 -0.16691791213E+03  0.16691791213E+03  0.00000000000E+00 0. -1.
          2    1    1    2  501    0  0.87258568494E+01 -0.23731411801E+02 -0.80061109790E+02  0.83958929153E+02  0.00000000000E+00 0. -1.
          1    1    1    2  502    0 -0.87258568494E+01  0.23731411801E+02 -0.83025498501E+02  0.86790286814E+02  0.00000000000E+00 0. -1.
</event>
<event>
 4    1  0.3752836E+003  0.5409567E+02  0.7546771E-02  0.1281329E+00
          2   -1    0    0  502    0  0.00000000000E+00  0.00000000000E+00  0.41552532588E+03  0.41552532588E+03  0.00000000000E+00 0.  1.
          1   -1    0    0  501    0 -0.00000000000E+00 -0.00000000000E+00 -0.11315190359E+02  0.11315190359E+02  0.00000000000E+00 0.  1.
          2    1    1    2  501    0  0.49258507751E+02  0.22359363644E+02  0.33325100879E+03  0.33761305749E+03  0.00000000000E+00 0.  1.
          1    1    1    2  502    0 -0.49258507751E+02 -0.22359363644E+02  0.70959126733E+02  0.89227458751E+02  0.00000000000E+00 0.  1.
</event>
<event>
 4    1  0.3752836E+003  0.2970258E+02  0.7546771E-02  0.1422199E+00
          2   -1    0    0  502    0  0.00000000000E+00  0.00000000000E+00  0.29925302747E+02  0.29925302747E+02  0.00000000000E+00 0.  1.
          1   -1    0    0  501    0 -0.00000000000E+00 -0.00000000000E+00 -0.45681291839E+03  0.45681291839E+03  0.00000000000E+00 0.  1.
          2    1    1    2  501    0  0.20331519348E+02 -0.21653462248E+02  0.21941132443E+02  0.36927718575E+02  0.00000000000E+00 0.  1.
          1    1    1    2  502    0 -0.20331519348E+02  0.21653462248E+02 -0.44882874808E+03  0.44981050256E+03  0.00000000000E+00 0.  1.
</event>
<event>
 4    1  0.3752836E+003  0.3986202E+02  0.7546771E-02  0.1349296E+00
          2   -1    0    0  502    0  0.00000000000E+00  0.00000000000E+00  0.34474054839E+01  0.34474054839E+01  0.00000000000E+00 0. -1.
          1   -1    0    0  501    0 -0.00000000000E+00 -0.00000000000E+00 -0.18719014944E+04  0.18719014944E+04  0.00000000000E+00 0. -1.
          2    1    1    2  501    0  0.96503127317E+01 -0.38676249023E+02 -0.12013946643E+03  0.12657990428E+03  0.00000000000E+00 0. -1.
          1    1    1    2  502    0 -0.96503127317E+01  0.38676249023E+02 -0.17483146225E+04  0.17487689956E+04  0.00000000000E+00 0. -1.
</event>
<event>
 4    1  0.3752836E+003  0.2144385E+02  0.7546771E-02  0.1513021E+00
          2   -1    0    0  502    0  0.00000000000E+00  0.00000000000E+00  0.91306268645E+03  0.91306268645E+03  0.00000000000E+00 0.  1.
          1   -1    0    0  501    0 -0.00000000000E+00 -0.00000000000E+00 -0.16807342374E+01  0.16807342374E+01  0.00000000000E+00 0.  1.
          2    1    1    2  501    0  0.17146867737E+02  0.12877249498E+02  0.83845285524E+03  0.83872702895E+03  0.00000000000E+00 0.  1.
          1    1    1    2  502    0 -0.17146867737E+02 -0.12877249498E+02  0.72929096965E+02  0.76016391732E+02  0.00000000000E+00 0.  1.
</event>
<event>
 4    1  0.3752836E+003  0.3354051E+02  0.7546771E-02  0.1391125E+00
          2   -1    0    0  502    0  0.00000000000E+00  0.00000000000E+00  0.19707965638E+04  0.19707965638E+04  0.00000000000E+00 0.  1.
          1   -1    0    0  501    0 -0.00000000000E+00 -0.00000000000E+00 -0.14043241627E+03  0.14043241627E+03  0.00000000000E+00 0.  1.
          2    1    1    2  501    0 -0.24935803699E+02  0.22431490519E+02  0.19686489924E+04  0.19689346920E+04  0.00000000000E+00 0.  1.
          1    1    1    2  502    0  0.24935803699E+02 -0.22431490519E+02 -0.13828484491E+03  0.14229428803E+03  0.00000000000E+00 0.  1.
</event>
<event>
 4    1  0.3752836E+003  0.2413065E+02  0.7546771E-02  0.1478768E+00
          2   -1    0    0  502    0  0.00000000000E+00  0.00000000000E+00  0.45752721663E+03  0.45752721663E+03  0.00000000000E+00 0. -1.
          1   -1    0    0  501    0 -0.00000000000E+00 -0.00000000000E+00 -0.32343387465E+03  0.32343387465E+03  0.00000000000E+00 0. -1.
          2    1    1    2  501    0 -0.13953345396E+02  0.19687368439E+02  0.45675820500E+03  0.45739517505E+03  0.00000000000E+00 0. -1.
          1    1    1    2  502    0  0.13953345396E+02 -0.19687368439E+02 -0.32266486302E+03  0.32356591624E+03  0.00000000000E+00 0. -1.
</event>
<event>
 4    1  0.3752836E+003  0.3431608E+02  0.7546771E-02  0.1385436E+00
          2   -1    0    0  502    0  0.00000000000E+00  0.00000000000E+00  0.14429106447E+04  0.14429106447E+04  0.00000000000E+00 0. -1.
          1   -1    0    0  501    0 -0.00000000000E+00 -0.00000000000E+00 -0.40710578450E+01  0.40710578450E+01  0.00000000000E+00 0. -1.
          2    1    1    2  501    0 -0.20546845631E+02 -0.27484908723E+02  0.13663397272E+04  0.13667705891E+04  0.00000000000E+00 0. -1.
          1    1    1    2  502    0  0.20546845631E+02  0.27484908723E+02  0.72499859721E+02  0.80211113522E+02  0.00000000000E+00 0. -1.
</event>
<event>
 4    1  0.3752836E+003  0.6699792E+02  0.7546771E-02  0.1237746E+00
          2   -1    0    0  502    0  0.00000000000E+00  0.00000000000E+00  0.48215566468E+03  0.48215566468E+03  0.00000000000E+00 0.  1.
          1   -1    0    0  501    0 -0.00000000000E+00 -0.00000000000E+00 -0.36102323620E+03  0.36102323620E+03  0.00000000000E+00 0. -1.
          2    1    1    2  501    0  0.56318879167E+02  0.36289184994E+02  0.47668440680E+03  0.48136965503E+03  0.00000000000E+00 0.  1.
          1    1    1    2  502    0 -0.56318879167E+02 -0.36289184994E+02 -0.35555197832E+03  0.36180924585E+03  0.00000000000E+00 0. -1.
</event>
<event>
 4    1  0.3752836E+003  0.3693461E+02  0.7546771E-02  0.1367450E+00
          2   -1    0    0  502    0  0.00000000000E+00  0.00000000000E+00  0.86462049412E+02  0.86462049412E+02  0.00000000000E+00 0.  1.
          1   -1    0    0  501    0 -0.00000000000E+00 -0.00000000000E+00 -0.13537666072E+03  0.13537666072E+03  0.00000000000E+00 0. -1.
          2    1    1    2  501    0  0.34090403492E+02  0.14213021037E+02  0.79798267608E+02  0.87931388540E+02  0.00000000000E+00 0.  1.
          1    1    1    2  502    0 -0.34090403492E+02 -0.14213021037E+02 -0.12871287892E+03  0.13390732159E+03  0.00000000000E+00 0. -1.
</event>
<event>
 4    1  0.3752836E+003  0.2233879E+02  0.7546771E-02  0.1500972E+00
          2   -1    0    0  502    0  0.00000000000E+00  0.00000000000E+00  0.70969062188E+01  0.70969062188E+01  0.00000000000E+00 0.  1.
          1   -1    0    0  501    0 -0.00000000000E+00 -0.00000000000E+00 -0.27962665460E+03  0.27962665460E+03  0.00000000000E+00 0.  1.
          2    1    1    2  501    0  0.21744618904E+02  0.51179215958E+01 -0.12230966613E+02  0.25467982193E+02  0.00000000000E+00 0.  1.
          1    1    1    2  502    0 -0.21744618904E+02 -0.51179215958E+01 -0.26029878177E+03  0.26125557863E+03  0.00000000000E+00 0.  1.
</event>
<event>
 4    1  0.3752836E+003  0.2620516E+02  0.7546771E-02  0.1455760E+00
          2   -1    0    0  502    0  0.00000000000E+00  0.00000000000E+00  0.33563249321E+01  0.33563249321E+01  0.00000000000E+00 0.  1.
          1   -1    0    0  501    0 -0.00000000000E+00 -0.00000000000E+00 -0.19956431807E+04  0.19956431807E+04  0.00000000000E+00 0. -1.
          2    1    1    2  501    0  0.68921999288E+01 -0.25282561937E+02 -0.49265383869E+02  0.55801329785E+02  0.00000000000E+00 0.  1.
          1    1    1    2  502    0 -0.68921999288E+01  0.25282561937E+02 -0.19430214719E+04  0.19431981758E+04  0.00000000000E+00 0. -1.
</event>
<event>
 4    1  0.4183616E+003  0.3014324E+02  0.7546771E-02  0.1418356E+00
          2   -1    0    0  502    0  0.00000000000E+00  0.00000000000E+00  0.83457551489E+03  0.83457551489E+03  0.00000000000E+00 0.  1.
          1   -1    0    0  501    0 -0.00000000000E+00 -0.00000000000E+00 -0.49514156195E+03  0.49514156195E+03  0.00000000000E+00 0.  1.
          2    1    1    2  501    0  0.22949578132E+02 -0.19543071862E+02  0.83384416876E+03  0.83438882577E+03  0.00000000000E+00 0.  1.
          1    1    1    2  502    0 -0.22949578132E+02  0.19543071862E+02 -0.49441021582E+03  0.49532825107E+03  0.00000000000E+00 0.  1.
</event>
<event>
 4    1  0.3752836E+003  0.2357262E+02  0.7546771E-02  0.1485430E+00
          2   -1    0    0  502    0  0.00000000000E+00  0.00000000000E+00  0.86640885473E+01  0.86640885473E+01  0.00000000000E+00 0.  1.
          1   -1    0    0  501    0 -0.00000000000E+00 -0.00000000000E+00 -0.12289608262E+04  0.12289608262E+04  0.00000000000E+00 0. -1.
          2    1    1    2  501    0 -0.23472308631E+02 -0.21724095361E+01 -0.76989616283E+01  0.24798037136E+02  0.00000000000E+00 0.  1.
          1    1    1    2  502    0  0.23472308631E+02  0.21724095361E+01 -0.12125977760E+04  0.12128268776E+04  0.00000000000E+00 0. -1.
</event>
<event>
 4    1  0.3752836E+003  0.2478452E+02  0.7546771E-02  0.1471228E+00
          2   -1    0    0  502    0  0.00000000000E+00  0.00000000000E+00  0.34338453761E+02  0.34338453761E+02  0.00000000000E+00 0.  1.
          1   -1    0    0  501    0 -0.00000000000E+00 -0.00000000000E+00 -0.79592604267E+03  0.79592604267E+03  0.00000000000E+00 0. -1.
          2    1    1    2  501    0  0.24179469518E+02 -0.54429643263E+01  0.29646807728E+02  0.38642021366E+02  0.00000000000E+00 0.  1.
          1    1    1    2  502    0 -0.24179469518E+02  0.54429643263E+01 -0.79123439664E+03  0.79162247507E+03  0.00000000000E+00 0. -1.
</event>
<event>
 4    1  0.3752836E+003  0.2564255E+02  0.7546771E-02  0.1461742E+00
          2   -1    0    0  502    0  0.00000000000E+00  0.00000000000E+00  0.59527011624E+03  0.59527011624E+03  0.00000000000E+00 0. -1.
          1   -1    0    0  501    0 -0.00000000000E+00 -0.00000000000E+00 -0.51819066576E+02  0.51819066576E+02  0.00000000000E+00 0. -1.
          2    1    1    2  501    0  0.25555785331E+02  0.21076286925E+01  0.59180309916E+03  0.59235837838E+03  0.00000000000E+00 0. -1.
          1    1    1    2  502    0 -0.25555785331E+02 -0.21076286925E+01 -0.48352049501E+02  0.54730804430E+02  0.00000000000E+00 0. -1.
</event>
<event>
 4    1  0.3752836E+003  0.2354599E+02  0.7546771E-02  0.1485754E+00
          2   -1    0    0  502    0  0.00000000000E+00  0.00000000000E+00  0.16571335915E+03  0.16571335915E+03  0.00000000000E+00 0. -1.
          1   -1    0    0  501    0 -0.00000000000E+00 -0.00000000000E+00 -0.15761316717E+03  0.15761316717E+03  0.00000000000E+00 0.  1.
          2    1    1    2  501    0  0.22864608620E+02  0.56234598630E+01  0.16398836170E+03  0.16567014336E+03  0.00000000000E+00 0. -1.
          1    1    1    2  502    0 -0.22864608620E+02 -0.56234598630E+01 -0.15588816972E+03  0.15765638296E+03  0.00000000000E+00 0.  1.
</event>
<event>
 4    1  0.3752836E+003  0.2800868E+02  0.7546771E-02  0.1437731E+00
          2   -1    0    0  502    0  0.00000000000E+00  0.00000000000E+00  0.25232571117E+02  0.25232571117E+02  0.00000000000E+00 0. -1.
          1   -1    0    0  501    0 -0.00000000000E+00 -0.00000000000E+00 -0.20727499836E+03  0.20727499836E+03  0.00000000000E+00 0. -1.
          2    1    1    2  501    0  0.21206490409E+02 -0.18296747425E+02  0.16159793097E+02  0.32336127084E+02  0.00000000000E+00 0. -1.
          1    1    1    2  502    0 -0.21206490409E+02  0.18296747425E+02 -0.19820222034E+03  0.20017144240E+03  0.00000000000E+00 0. -1.
</event>
<event>
 4    1  0.3752836E+003  0.6562385E+02  0.7546771E-02  0.1241835E+00
          2   -1    0    0  502    0  0.00000000000E+00  0.00000000000E+00  0.83982110365E+03  0.83982110365E+03  0.00000000000E+00 0.  1.
          1   -1    0    0  501    0 -0.00000000000E+00 -0.00000000000E+00 -0.55061549845E+02  0.55061549845E+02  0.00000000000E+00 0. -1.
          2    1    1    2  501    0 -0.53664410709E+02  0.37770638303E+02  0.81847697839E+03  0.82110355879E+03  0.00000000000E+00 0.  1.
          1    1    1    2  502    0  0.53664410709E+02 -0.37770638303E+02 -0.33717424590E+02  0.73779094705E+02  0.00000000000E+00 0. -1.
</event>
<event>
 4    1  0.3752836E+003  0.2050796E+02  0.7546771E-02  0.1526407E+00
          2   -1    0    0  502    0  0.00000000000E+00  0.00000000000E+00  0.20114882384E+02  0.20114882384E+02  0.00000000000E+00 0.  1.
          1   -1    0    0  501    0 -0.00000000000E+00 -0.00000000000E+00 -0.58528071716E+02  0.58528071716E+02  0.00000000000E+00 0.  1.
          2    1    1    2  501    0 -0.20487360477E+02 -0.91897857419E+00  0.12318279645E+02  0.23923136800E+02  0.00000000000E+00 0.  1.
          1    1    1    2  502    0  0.20487360477E+02  0.91897857419E+00 -0.50731468977E+02  0.54719817301E+02  0.00000000000E+00 0.  1.
</event>
<event>
 4    1  0.3752836E+003  0.2601402E+02  0.7546771E-02  0.1457772E+00
          2   -1    0    0  502    0  0.00000000000E+00  0.00000000000E+00  0.38669167656E+02  0.38669167656E+02  0.00000000000E+00 0.  1.
          1   -1    0    0  501    0 -0.00000000000E+00 -0.00000000000E+00 -0.97779651467E+03  0.97779651467E+03  0.00000000000E+00 0.  1.
          2    1    1    2  501    0  0.25735799190E+02 -0.37944719225E+01  0.34100486374E+02  0.42890238377E+02  0.00000000000E+00 0.  1.
          1    1    1    2  502    0 -0.25735799190E+02  0.37944719225E+01 -0.97322783339E+03  0.97357544395E+03  0.00000000000E+00 0.  1.
</event>
<event>
 4    1  0.3752836E+003  0.2379128E+02  0.7546771E-02  0.1482794E+00
          2   -1    0    0  502    0  0.00000000000E+00  0.00000000000E+00  0.21343647513E+02  0.21343647513E+02  0.00000000000E+00 0. -1.
          1   -1    0    0  501    0 -0.00000000000E+00 -0.00000000000E+00 -0.30831202383E+02  0.30831202383E+02  0.00000000000E+00 0.  1.
          2    1    1    2  501    0  0.36380717222E+01 -0.23511477912E+02  0.50118441112E+01  0.24313447737E+02  0.00000000000E+00 0. -1.
          1    1    1    2  502    0 -0.36380717222E+01  0.23511477912E+02 -0.14499398981E+02  0.27861402159E+02  0.00000000000E+00 0.  1.
</event>
<event>
 4    1  0.3752836E+003  0.4393040E+02  0.7546771E-02  0.1326875E+00
          2   -1    0    0  502    0  0.00000000000E+00  0.00000000000E+00  0.67448235412E+03  0.67448235412E+03  0.00000000000E+00 0. -1.
          1   -1    0    0  501    0 -0.00000000000E+00 -0.00000000000E+00 -0.12750632902E+03  0.12750632902E+03  0.00000000000E+00 0. -1.
          2    1    1    2  501    0 -0.18411448289E+02  0.39886066998E+02  0.66995761702E+03  0.67139637203E+03  0.00000000000E+00 0. -1.
          1    1    1    2  502    0  0.18411448289E+02 -0.39886066998E+02 -0.12298159193E+03  0.13059231111E+03  0.00000000000E+00 0. -1.
</event>
<event>
 4    1  0.3752836E+003  0.3469870E+02  0.7546771E-02  0.1382694E+00
          2   -1    0    0  502    0  0.00000000000E+00  0.00000000000E+00  0.71700014405E+01  0.71700014405E+01  0.00000000000E+00 0.  1.
          1   -1    0    0  501    0 -0.00000000000E+00 -0.00000000000E+00 -0.17090377572E+03  0.17090377572E+03  0.00000000000E+00 0.  1.
          2    1    1    2  501    0  0.90778143026E+01 -0.33490171515E+02 -0.93628282940E+02  0.99851157564E+02  0.00000000000E+00 0.  1.
          1    1    1    2  502    0 -0.90778143026E+01  0.33490171515E+02 -0.70105491343E+02  0.78222619600E+02  0.00000000000E+00 0.  1.
</event>
<event>
 4    1  0.3752836E+003  0.2282120E+02  0.7546771E-02  0.1494756E+00
          2   -1    0    0  502    0  0.00000000000E+00  0.00000000000E+00  0.78318471369E+01  0.78318471369E+01  0.00000000000E+00 0.  1.
          1   -1    0    0  501    0 -0.00000000000E+00 -0.00000000000E+00 -0.35966517197E+03  0.35966517197E+03  0.00000000000E+00 0. -1.
          2    1    1    2  501    0 -0.25454944185E+01  0.22678795884E+02 -0.10022228857E+02  0.24924935222E+02  0.00000000000E+00 0.  1.
          1    1    1    2  502    0  0.25454944185E+01 -0.22678795884E+02 -0.34181109598E+03  0.34257208389E+03  0.00000000000E+00 0. -1.
</event>
<event>
 4    1  0.3752836E+003  0.2705492E+02  0.7546771E-02  0.1447057E+00
          2   -1    0    0  502    0  0.00000000000E+00  0.00000000000E+00  0.15024907008E+02  0.15024907008E+02  0.00000000000E+00 0.  1.
          1   -1    0    0  501    0 -0.00000000000E+00 -0.00000000000E+00 -0.40059580625E+03  0.40059580625E+03  0.00000000000E+00 0.  1.
          2    1    1    2  501    0  0.18652730136E+02 -0.19597055544E+02  0.19793738292E+01  0.27127234438E+02  0.00000000000E+00 0.  1.
          1    1    1    2  502    0 -0.18652730136E+02  0.19597055544E+02 -0.38755027307E+03  0.38849347882E+03  0.00000000000E+00 0.  1.
</event>
<event>
 4    1  0.3752836E+003  0.2446234E+02  0.7546771E-02  0.1474909E+00
          2   -1    0    0  502    0  0.00000000000E+00  0.00000000000E+00  0.54005550011E+03  0.54005550011E+03  0.00000000000E+00 0.  1.
          1   -1    0    0  501    0 -0.00000000000E+00 -0.00000000000E+00 -0.30690977265E+01  0.30690977265E+01  0.00000000000E+00 0. -1.
          2    1    1    2  501    0  0.30461362695E-01 -0.24462321483E+02  0.48556764196E+03  0.48618344379E+03  0.00000000000E+00 0.  1.
          1    1    1    2  502    0 -0.30461362695E-01  0.24462321483E+02  0.51418760423E+02  0.56941154042E+02  0.00000000000E+00 0. -1.
</event>
<event>
 4    1  0.3752836E+003  0.3353482E+02  0.7546771E-02  0.1391167E+00
          2   -1    0    0  502    0  0.00000000000E+00  0.00000000000E+00  0.11817179016E+04  0.11817179016E+04  0.00000000000E+00 0. -1.
          1   -1    0    0  501    0 -0.00000000000E+00 -0.00000000000E+00 -0.29473044030E+03  0.29473044030E+03  0.00000000000E+00 0. -1.
          2    1    1    2  501    0 -0.24690217097E+02 -0.22693109768E+02  0.11805251161E+04  0.11810013267E+04  0.00000000000E+00 0. -1.
          1    1    1    2  502    0  0.24690217097E+02  0.22693109768E+02 -0.29353765474E+03  0.29544701522E+03  0.00000000000E+00 0. -1.
</event>
<event>
 4    1  0.3752836E+003  0.2642568E+02  0.7546771E-02  0.1453464E+00
          2   -1    0    0  502    0  0.00000000000E+00  0.00000000000E+00  0.54163887798E+03  0.54163887798E+03  0.00000000000E+00 0. -1.
          1   -1    0    0  501    0 -0.00000000000E+00 -0.00000000000E+00 -0.18392065235E+01  0.18392065235E+01  0.00000000000E+00 0.  1.
          2    1    1    2  501    0 -0.52975570564E+01 -0.25889234824E+02  0.41849157008E+03  0.41932506581E+03  0.00000000000E+00 0. -1.
          1    1    1    2  502    0  0.52975570564E+01  0.25889234824E+02  0.12130810137E+03  0.12415301869E+03  0.00000000000E+00 0.  1.
</event>
<event>
 4    1  0.3752836E+003  0.6249360E+02  0.7546771E-02  0.1251588E+00
          2   -1    0    0  502    0  0.00000000000E+00  0.00000000000E+00  0.14363573636E+04  0.14363573636E+04  0.00000000000E+00 0.  1.
          1   -1    0    0  501    0 -0.00000000000E+00 -0.00000000000E+00 -0.43066892400E+01  0.43066892400E+01  0.00000000000E+00 0. -1.
          2    1    1    2  501    0  0.30085745216E+02  0.54774974045E+02  0.11533905750E+04  0.11550823643E+04  0.00000000000E+00 0.  1.
          1    1    1    2  502    0 -0.30085745216E+02 -0.54774974045E+02  0.27866009936E+03  0.28558168852E+03  0.00000000000E+00 0. -1.
</event>
<event>
 4    1  0.3752836E+003  0.2183825E+02  0.7546771E-02  0.1507625E+00
          2   -1    0    0  502    0  0.00000000000E+00  0.00000000000E+00  0.17059614279E+02  0.17059614279E+02  0.00000000000E+00 0. -1.
          1   -1    0    0  501    0 -0.00000000000E+00 -0.00000000000E+00 -0.15996280754E+04  0.15996280754E+04  0.00000000000E+00 0. -1.
          2    1    1    2  501    0 -0.19398267478E+02  0.10030777324E+02  0.99650831727E+01  0.24004419541E+02  0.00000000000E+00 0. -1.
          1    1    1    2  502    0  0.19398267478E+02 -0.10030777324E+02 -0.15925335443E+04  0.15926832701E+04  0.00000000000E+00 0. -1.
</event>
<event>
 4    1  0.3752836E+003  0.2793876E+02  0.7546771E-02  0.1438399E+00
          2   -1    0    0  502    0  0.00000000000E+00  0.00000000000E+00  0.22498734770E+03  0.22498734770E+03  0.00000000000E+00 0. -1.
          1   -1    0    0  501    0 -0.00000000000E+00 -0.00000000000E+00 -0.16145623547E+03  0.16145623547E+03  0.00000000000E+00 0.  1.
          2    1    1    2  501    0 -0.27403251651E+02  0.54439101915E+01  0.22290007324E+03  0.22464420093E+03  0.00000000000E+00 0. -1.
          1    1    1    2  502    0  0.27403251651E+02 -0.54439101915E+01 -0.15936896101E+03  0.16179938224E+03  0.00000000000E+00 0.  1.
</event>
<event>
 4    1  0.3752836E+003  0.2801310E+02  0.7546771E-02  0.1437688E+00
          2   -1    0    0  502    0  0.00000000000E+00  0.00000000000E+00  0.16203969606E+03  0.16203969606E+03  0.00000000000E+00 0. -1.
          1   -1    0    0  501    0 -0.00000000000E+00 -0.00000000000E+00 -0.19179621280E+02  0.19179621280E+02  0.00000000000E+00 0. -1.
          2    1    1    2  501    0  0.11499021731E+02 -0.25544204859E+02  0.14976942329E+03  0.15236670915E+03  0.00000000000E+00 0. -1.
          1    1    1    2  502    0 -0.11499021731E+02  0.25544204859E+02 -0.69093485140E+01  0.28852608193E+02  0.00000000000E+00 0. -1.
</event>
<event>
 4    1  0.3752836E+003  0.2261822E+02  0.7546771E-02  0.1497349E+00
          2   -1    0    0  502    0  0.00000000000E+00  0.00000000000E+00  0.22274378019E+02  0.22274378019E+02  0.00000000000E+00 0.  1.
          1   -1    0    0  501    0 -0.00000000000E+00 -0.00000000000E+00 -0.80106690523E+02  0.80106690523E+02  0.00000000000E+00 0.  1.
          2    1    1    2  501    0  0.20888022339E+02 -0.86760851024E+01  0.14317582592E+02  0.26768957791E+02  0.00000000000E+00 0.  1.
          1    1    1    2  502    0 -0.20888022339E+02  0.86760851024E+01 -0.72149895096E+02  0.75612110752E+02  0.00000000000E+00 0.  1.
</event>
<event>
 4    1  0.3752836E+003  0.2066139E+02  0.7546771E-02  0.1524155E+00
          2   -1    0    0  502    0  0.00000000000E+00  0.00000000000E+00  0.55986754509E+02  0.55986754509E+02  0.00000000000E+00 0.  1.
          1   -1    0    0  501    0 -0.00000000000E+00 -0.00000000000E+00 -0.17981044321E+03  0.17981044321E+03  0.00000000000E+00 0.  1.
          2    1    1    2  501    0  0.19852428873E+02  0.57248598745E+01  0.53459921742E+02  0.57313664910E+02  0.00000000000E+00 0.  1.
          1    1    1    2  502    0 -0.19852428873E+02 -0.57248598745E+01 -0.17728361044E+03  0.17848353281E+03  0.00000000000E+00 0.  1.
</event>
<event>
 4    1  0.3752836E+003  0.2756159E+02  0.7546771E-02  0.1442047E+00
          2   -1    0    0  502    0  0.00000000000E+00  0.00000000000E+00  0.13768453466E+03  0.13768453466E+03  0.00000000000E+00 0.  1.
          1   -1    0    0  501    0 -0.00000000000E+00 -0.00000000000E+00 -0.30154882295E+02  0.30154882295E+02  0.00000000000E+00 0.  1.
          2    1    1    2  501    0 -0.20090895896E+02  0.18867889046E+02  0.12961988455E+03  0.13251775656E+03  0.00000000000E+00 0.  1.
          1    1    1    2  502    0  0.20090895896E+02 -0.18867889046E+02 -0.22090232181E+02  0.35321660391E+02  0.00000000000E+00 0.  1.
</event>
<event>
 4    1  0.3752836E+003  0.3623184E+02  0.7546771E-02  0.1372104E+00
          2   -1    0    0  502    0  0.00000000000E+00  0.00000000000E+00  0.83651528446E+02  0.83651528446E+02  0.00000000000E+00 0.  1.
          1   -1    0    0  501    0 -0.00000000000E+00 -0.00000000000E+00 -0.15752879253E+02  0.15752879253E+02  0.00000000000E+00 0.  1.
          2    1    1    2  501    0  0.21759945405E+02 -0.28969802078E+02  0.30885379783E+02  0.47609361903E+02  0.00000000000E+00 0.  1.
          1    1    1    2  502    0 -0.21759945405E+02  0.28969802078E+02  0.37013269410E+02  0.51795045795E+02  0.00000000000E+00 0.  1.
</event>
<event>
 4    1  0.3752836E+003  0.3008945E+02  0.7546771E-02  0.1418821E+00
          2   -1    0    0  502    0  0.00000000000E+00  0.00000000000E+00  0.43424274394E+01  0.43424274394E+01  0.00000000000E+00 0.  1.
          1   -1    0    0  501    0 -0.00000000000E+00 -0.00000000000E+00 -0.41103296374E+03  0.41103296374E+03  0.00000000000E+00 0. -1.
          2    1    1    2  501    0 -0.24194419539E+02  0.17888687616E+02 -0.57556020417E+02  0.64946674801E+02  0.00000000000E+00 0.  1.
          1    1    1    2  502    0  0.24194419539E+02 -0.17888687616E+02 -0.34913451588E+03  0.35042871638E+03  0.00000000000E+00 0. -1.
</event>
<event>
 4    1  0.3752836E+003  0.4049284E+02  0.7546771E-02  0.1345622E+00
          2   -1    0    0  502    0  0.00000000000E+00  0.00000000000E+00  0.30194189867E+03  0.30194189867E+03  0.00000000000E+00 0. -1.
          1   -1    0    0  501    0 -0.00000000000E+00 -0.00000000000E+00 -0.89747282107E+02  0.89747282107E+02  0.00000000000E+00 0.  1.
          2    1    1    2  501    0 -0.29817952624E+02  0.27396342830E+02  0.29592438392E+03  0.29868195610E+03  0.00000000000E+00 0. -1.
          1    1    1    2  502    0  0.29817952624E+02 -0.27396342830E+02 -0.83729767363E+02  0.93007224675E+02  0.00000000000E+00 0.  1.
</event>
<event>
 4    1  0.3752836E+003  0.2514795E+02  0.7546771E-02  0.1467155E+00
          2   -1    0    0  502    0  0.00000000000E+00  0.00000000000E+00  0.33098821519E+03  0.33098821519E+03  0.00000000000E+00 0. -1.
          1   -1    0    0  501    0 -0.00000000000E+00 -0.00000000000E+00 -0.16445621210E+03  0.16445621210E+03  0.00000000000E+00 0. -1.
          2    1    1    2  501    0 -0.16967662231E+02  0.18561185083E+02  0.32954495668E+03  0.33050309775E+03  0.00000000000E+00 0. -1.
          1    1    1    2  502    0  0.16967662231E+02 -0.18561185083E+02 -0.16301295358E+03  0.16494132953E+03  0.00000000000E+00 0. -1.
</event>
<event>
 4    1  0.3752836E+003  0.2604230E+02  0.7546771E-02  0.1457473E+00
          2   -1    0    0  502    0  0.00000000000E+00  0.00000000000E+00  0.16888958149E+04  0.16888958149E+04  0.00000000000E+00 0. -1.
          1   -1    0    0  501    0 -0.00000000000E+00 -0.00000000000E+00 -0.71665382580E+00  0.71665382580E+00  0.00000000000E+00 0. -1.
          2    1    1    2  501    0  0.23713343652E+02  0.10764658469E+02  0.28392032394E+03  0.28511217246E+03  0.00000000000E+00 0. -1.
          1    1    1    2  502    0 -0.23713343652E+02 -0.10764658469E+02  0.14042588371E+04  0.14045002963E+04  0.00000000000E+00 0. -1.
</event>
<event>
 4    1  0.3752836E+003  0.2438187E+02  0.7546771E-02  0.1475839E+00
          2   -1    0    0  502    0  0.00000000000E+00  0.00000000000E+00  0.14607528452E+03  0.14607528452E+03  0.00000000000E+00 0. -1.
          1   -1    0    0  501    0 -0.00000000000E+00 -0.00000000000E+00 -0.44832452125E+02  0.44832452125E+02  0.00000000000E+00 0. -1.
          2    1    1    2  501    0 -0.22912868965E+02  0.83352405391E+01  0.14163983424E+03  0.14372306162E+03  0.00000000000E+00 0. -1.
          1    1    1    2  502    0  0.22912868965E+02 -0.83352405391E+01 -0.40397001843E+02  0.47184675022E+02  0.00000000000E+00 0. -1.
</event>
<event>
 4    1  0.3752836E+003  0.2150996E+02  0.7546771E-02  0.1512107E+00
          2   -1    0    0  502    0  0.00000000000E+00  0.00000000000E+00  0.13997056832E+02  0.13997056832E+02  0.00000000000E+00 0.  1.
          1   -1    0    0  501    0 -0.00000000000E+00 -0.00000000000E+00 -0.36789588552E+03  0.36789588552E+03  0.00000000000E+00 0.  1.
          2    1    1    2  501    0  0.21367643799E+02  0.24702328525E+01  0.52169352400E+01  0.22133564221E+02  0.00000000000E+00 0.  1.
          1    1    1    2  502    0 -0.21367643799E+02 -0.24702328525E+01 -0.35911576393E+03  0.35975937813E+03  0.00000000000E+00 0.  1.
</event>
<event>
 4    1  0.3752836E+003  0.2022889E+02  0.7546771E-02  0.1530565E+00
          2   -1    0    0  502    0  0.00000000000E+00  0.00000000000E+00  0.47146379620E+03  0.47146379620E+03  0.00000000000E+00 0.  1.
          1   -1    0    0  501    0 -0.00000000000E+00 -0.00000000000E+00 -0.83024491315E+01  0.83024491315E+01  0.00000000000E+00 0. -1.
          2    1    1    2  501    0 -0.32888074327E+01 -0.19959748834E+02  0.45857886038E+03  0.45902481307E+03  0.00000000000E+00 0.  1.
          1    1    1    2  502    0  0.32888074327E+01  0.19959748834E+02  0.45824866860E+01  0.20741432258E+02  0.00000000000E+00 0. -1.
</event>
<event>
 4    1  0.3752836E+003  0.2468345E+02  0.7546771E-02  0.1472376E+00
          2   -1    0    0  502    0  0.00000000000E+00  0.00000000000E+00  0.14435951802E+04  0.14435951802E+04  0.00000000000E+00 0.  1.
          1   -1    0    0  501    0 -0.00000000000E+00 -0.00000000000E+00 -0.38474948848E+02  0.38474948848E+02  0.00000000000E+00 0.  1.
          2    1    1    2  501    0  0.21993699590E+02  0.11204909715E+02  0.14395195664E+04  0.14397311745E+04  0.00000000000E+00 0.  1.
          1    1    1    2  502    0 -0.21993699590E+02 -0.11204909715E+02 -0.34399335021E+02  0.42338954560E+02  0.00000000000E+00 0.  1.
</event>
<event>
 4    1  0.3752836E+003  0.4990867E+02  0.7546771E-02  0.1298569E+00
          2   -1    0    0  502    0  0.00000000000E+00  0.00000000000E+00  0.83546626724E+03  0.83546626724E+03  0.00000000000E+00 0. -1.
          1   -1    0    0  501    0 -0.00000000000E+00 -0.00000000000E+00 -0.40015757995E+01  0.40015757995E+01  0.00000000000E+00 0.  1.
          2    1    1    2  501    0  0.42217771044E+02  0.26618327675E+02  0.62766206714E+03  0.62964318950E+03  0.00000000000E+00 0. -1.
          1    1    1    2  502    0 -0.42217771044E+02 -0.26618327675E+02  0.20380262429E+03  0.20982465353E+03  0.00000000000E+00 0.  1.
</event>
<event>
 4    1  0.3752836E+003  0.4897518E+02  0.7546771E-02  0.1302678E+00
          2   -1    0    0  502    0  0.00000000000E+00  0.00000000000E+00  0.55545270483E+03  0.55545270483E+03  0.00000000000E+00 0. -1.
          1   -1    0    0  501    0 -0.00000000000E+00 -0.00000000000E+00 -0.10876605820E+02  0.10876605820E+02  0.00000000000E+00 0. -1.
          2    1    1    2  501    0  0.20760630255E+02  0.44357238614E+02  0.49217058996E+03  0.49460131218E+03  0.00000000000E+00 0. -1.
          1    1    1    2  502    0 -0.20760630255E+02 -0.44357238614E+02  0.52405509048E+02  0.71727998470E+02  0.00000000000E+00 0. -1.
</event>
<event>
 4    1  0.3752836E+003  0.3146505E+02  0.7546771E-02  0.1407278E+00
          2   -1    0    0  502    0  0.00000000000E+00  0.00000000000E+00  0.57284940342E+01  0.57284940342E+01  0.00000000000E+00 0. -1.
          1   -1    0    0  501    0 -0.00000000000E+00 -0.00000000000E+00 -0.62660259271E+03  0.62660259271E+03  0.00000000000E+00 0. -1.
          2    1    1    2  501    0 -0.23403615566E+02  0.21031404168E+02 -0.41383879792E+02  0.51987255068E+02  0.00000000000E+00 0. -1.
          1    1    1    2  502    0  0.23403615566E+02 -0.21031404168E+02 -0.57949021889E+03  0.58034383168E+03  0.00000000000E+00 0. -1.
</event>
<event>
 4    1  0.3752836E+003  0.2398071E+02  0.7546771E-02  0.1480537E+00
          2   -1    0    0  502    0  0.00000000000E+00  0.00000000000E+00  0.88678803542E+02  0.88678803542E+02  0.00000000000E+00 0. -1.
          1   -1    0    0  501    0 -0.00000000000E+00 -0.00000000000E+00 -0.55117663210E+02  0.55117663210E+02  0.00000000000E+00 0. -1.
          2    1    1    2  501    0  0.18205427794E+02 -0.15608877813E+02  0.84316863129E+02  0.87660755619E+02  0.00000000000E+00 0. -1.
          1    1    1    2  502    0 -0.18205427794E+02  0.15608877813E+02 -0.50755722798E+02  0.56135711133E+02  0.00000000000E+00 0. -1.
</event>
<event>
 4    1  0.3752836E+003  0.2322536E+02  0.7546771E-02  0.1489688E+00
          2   -1    0    0  502    0  0.00000000000E+00  0.00000000000E+00  0.26556030247E+02  0.26556030247E+02  0.00000000000E+00 0.  1.
          1   -1    0    0  501    0 -0.00000000000E+00 -0.00000000000E+00 -0.31167447725E+02  0.31167447725E+02  0.00000000000E+00 0. -1.
          2    1    1    2  501    0 -0.17171171993E+02 -0.15638673858E+02  0.14727141290E+02  0.27501017403E+02  0.00000000000E+00 0.  1.
          1    1    1    2  502    0  0.17171171993E+02  0.15638673858E+02 -0.19338558767E+02  0.30222460569E+02  0.00000000000E+00 0. -1.
</event>
<event>
 4    1  0.3752836E+003  0.2081714E+02  0.7546771E-02  0.1521892E+00
          2   -1    0    0  502    0  0.00000000000E+00  0.00000000000E+00  0.19228450501E+01  0.19228450501E+01  0.00000000000E+00 0.  1.
          1   -1    0    0  501    0 -0.00000000000E+00 -0.00000000000E+00 -0.28957335675E+03  0.28957335675E+03  0.00000000000E+00 0. -1.
          2    1    1    2  501    0  0.18934220960E+02 -0.86515189383E+01 -0.75197609513E+02  0.78025854560E+02  0.00000000000E+00 0.  1.
          1    1    1    2  502    0 -0.18934220960E+02  0.86515189383E+01 -0.21245290219E+03  0.21347034724E+03  0.00000000000E+00 0. -1.
</event>
<event>
 4    1  0.3752836E+003  0.4042274E+02  0.7546771E-02  0.1346026E+00
          2   -1    0    0  502    0  0.00000000000E+00  0.00000000000E+00  0.16213423140E+01  0.16213423140E+01  0.00000000000E+00 0. -1.
          1   -1    0    0  501    0 -0.00000000000E+00 -0.00000000000E+00 -0.16118137504E+04  0.16118137504E+04  0.00000000000E+00 0.  1.
          2    1    1    2  501    0  0.18464749384E+02 -0.35959012972E+02 -0.31125703135E+03  0.31387089248E+03  0.00000000000E+00 0. -1.
          1    1    1    2  502    0 -0.18464749384E+02  0.35959012972E+02 -0.12989353768E+04  0.12995642003E+04  0.00000000000E+00 0.  1.
</event>
<event>
 4    1  0.3752836E+003  0.2653176E+02  0.7546771E-02  0.1452369E+00
          2   -1    0    0  502    0  0.00000000000E+00  0.00000000000E+00  0.34877391034E+03  0.34877391034E+03  0.00000000000E+00 0.  1.
          1   -1    0    0  501    0 -0.00000000000E+00 -0.00000000000E+00 -0.20378233394E+01  0.20378233394E+01  0.00000000000E+00 0.  1.
          2    1    1    2  501    0 -0.26511722511E+02 -0.10310218129E+01  0.19053165220E+03  0.19237007285E+03  0.00000000000E+00 0.  1.
          1    1    1    2  502    0  0.26511722511E+02  0.10310218129E+01  0.15620443480E+03  0.15844166083E+03  0.00000000000E+00 0.  1.
</event>
<event>
 4    1  0.3752836E+003  0.2083944E+02  0.7546771E-02  0.1521570E+00
          2   -1    0    0  502    0  0.00000000000E+00  0.00000000000E+00  0.13833531672E+04  0.13833531672E+04  0.00000000000E+00 0. -1.
          1   -1    0    0  501    0 -0.00000000000E+00 -0.00000000000E+00 -0.11237872789E+01  0.11237872789E+01  0.00000000000E+00 0. -1.
          2    1    1    2  501    0  0.12029843740E+02 -0.17016616802E+02  0.12787619262E+04  0.12789317207E+04  0.00000000000E+00 0. -1.
          1    1    1    2  502    0 -0.12029843740E+02  0.17016616802E+02  0.10346745372E+03  0.10554523375E+03  0.00000000000E+00 0. -1.
</event>
<event>
 4    1  0.3752836E+003  0.4802184E+02  0.7546771E-02  0.1306985E+00
          2   -1    0    0  502    0  0.00000000000E+00  0.00000000000E+00  0.77443115662E+02  0.77443115662E+02  0.00000000000E+00 0. -1.
          1   -1    0    0  501    0 -0.00000000000E+00 -0.00000000000E+00 -0.17850462121E+03  0.17850462121E+03  0.00000000000E+00 0.  1.
          2    1    1    2  501    0  0.37009973720E+02 -0.30599975707E+02  0.66282200949E+02  0.81850026455E+02  0.00000000000E+00 0. -1.
          1    1    1    2  502    0 -0.37009973720E+02  0.30599975707E+02 -0.16734370650E+03  0.17409771042E+03  0.00000000000E+00 0.  1.
</event>
<event>
 4    1  0.3752836E+003  0.4515623E+02  0.7546771E-02  0.1320660E+00
          2   -1    0    0  502    0  0.00000000000E+00  0.00000000000E+00  0.20765544826E+02  0.20765544826E+02  0.00000000000E+00 0.  1.
          1   -1    0    0  501    0 -0.00000000000E+00 -0.00000000000E+00 -0.24975743517E+03  0.24975743517E+03  0.00000000000E+00 0. -1.
          2    1    1    2  501    0 -0.45079479406E+02  0.26316193870E+01 -0.91276631679E+01  0.46069503134E+02  0.00000000000E+00 0.  1.
          1    1    1    2  502    0  0.45079479406E+02 -0.26316193870E+01 -0.21986422718E+03  0.22445347686E+03  0.00000000000E+00 0. -1.
</event>
<event>
 4    1  0.3752836E+003  0.2286201E+02  0.7546771E-02  0.1494238E+00
          2   -1    0    0  502    0  0.00000000000E+00  0.00000000000E+00  0.66009909831E+00  0.66009909831E+00  0.00000000000E+00 0.  1.
          1   -1    0    0  501    0 -0.00000000000E+00 -0.00000000000E+00 -0.88552107977E+03  0.88552107977E+03  0.00000000000E+00 0.  1.
          2    1    1    2  501    0  0.87465614275E+01 -0.21122714500E+02 -0.29828721678E+03  0.29916205491E+03  0.00000000000E+00 0.  1.
          1    1    1    2  502    0 -0.87465614275E+01  0.21122714500E+02 -0.58657376389E+03  0.58701912396E+03  0.00000000000E+00 0.  1.
</event>
<event>
 4    1  0.3752836E+003  0.2155091E+02  0.7546771E-02  0.1511543E+00
          2   -1    0    0  502    0  0.00000000000E+00  0.00000000000E+00  0.27632160164E+02  0.27632160164E+02  0.00000000000E+00 0. -1.
          1   -1    0    0  501    0 -0.00000000000E+00 -0.00000000000E+00 -0.11014662607E+03  0.11014662607E+03  0.00000000000E+00 0.  1.
          2    1    1    2  501    0 -0.21490632874E+02  0.16107126585E+01  0.22158560703E+02  0.30910249255E+02  0.00000000000E+00 0. -1.
          1    1    1    2  502    0  0.21490632874E+02 -0.16107126585E+01 -0.10467302661E+03  0.10686853698E+03  0.00000000000E+00 0.  1.
</event>
<event>
 4    1  0.3752836E+003  0.2053083E+02  0.7546771E-02  0.1526070E+00
          2   -1    0    0  502    0  0.00000000000E+00  0.00000000000E+00  0.20825394190E+03  0.20825394190E+03  0.00000000000E+00 0.  1.
          1   -1    0    0  501    0 -0.00000000000E+00 -0.00000000000E+00 -0.43279456706E+01  0.43279456706E+01  0.00000000000E+00 0. -1.
          2    1    1    2  501    0  0.72713202868E+01  0.19200079959E+02  0.17951398350E+03  0.18068421470E+03  0.00000000000E+00 0.  1.
          1    1    1    2  502    0 -0.72713202868E+01 -0.19200079959E+02  0.24412012727E+02  0.31897672870E+02  0.00000000000E+00 0. -1.
</event>
<event>
 4    1  0.3752836E+003  0.2107525E+02  0.7546771E-02  0.1518193E+00
          2   -1    0    0  502    0  0.00000000000E+00  0.00000000000E+00  0.72840731512E+03  0.72840731512E+03  0.00000000000E+00 0.  1.
          1   -1    0    0  501    0 -0.00000000000E+00 -0.00000000000E+00 -0.54601850962E+03  0.54601850962E+03  0.00000000000E+00 0.  1.
          2    1    1    2  501    0 -0.98202023766E+01  0.18647518502E+02  0.72805140541E+03  0.72835637929E+03  0.00000000000E+00 0.  1.
          1    1    1    2  502    0  0.98202023766E+01 -0.18647518502E+02 -0.54566259991E+03  0.54606944546E+03  0.00000000000E+00 0.  1.
</event>
<event>
 4    1  0.3752836E+003  0.2228274E+02  0.7546771E-02  0.1501707E+00
          2   -1    0    0  502    0  0.00000000000E+00  0.00000000000E+00  0.31869784173E+03  0.31869784173E+03  0.00000000000E+00 0.  1.
          1   -1    0    0  501    0 -0.00000000000E+00 -0.00000000000E+00 -0.28425550881E+02  0.28425550881E+02  0.00000000000E+00 0. -1.
          2    1    1    2  501    0  0.10764466571E+02  0.19510173132E+02  0.31387447711E+03  0.31466443710E+03  0.00000000000E+00 0.  1.
          1    1    1    2  502    0 -0.10764466571E+02 -0.19510173132E+02 -0.23602186262E+02  0.32458955506E+02  0.00000000000E+00 0. -1.
</event>
<event>
 4    1  0.3752836E+003  0.2655183E+02  0.7546771E-02  0.1452163E+00
          2   -1    0    0  502    0  0.00000000000E+00  0.00000000000E+00  0.11810487960E+03  0.11810487960E+03  0.00000000000E+00 0.  1.
          1   -1    0    0  501    0 -0.00000000000E+00 -0.00000000000E+00 -0.29956271355E+02  0.29956271355E+02  0.00000000000E+00 0. -1.
          2    1    1    2  501    0  0.10405661663E+02 -0.24427886149E+02  0.11031963376E+03  0.11346991235E+03  0.00000000000E+00 0.  1.
          1    1    1    2  502    0 -0.10405661663E+02  0.24427886149E+02 -0.22171025510E+02  0.34591238609E+02  0.00000000000E+00 0. -1.
</event>
<event>
 4    1  0.3752836E+003  0.2434802E+02  0.7546771E-02  0.1476231E+00
          2   -1    0    0  502    0  0.00000000000E+00  0.00000000000E+00  0.37961794547E+01  0.37961794547E+01  0.00000000000E+00 0.  1.
          1   -1    0    0  501    0 -0.00000000000E+00 -0.00000000000E+00 -0.16774247873E+04  0.16774247873E+04  0.00000000000E+00 0. -1.
          2    1    1    2  501    0  0.43653474530E+01  0.23953495822E+02 -0.36288892985E+02  0.43700228541E+02  0.00000000000E+00 0.  1.
          1    1    1    2  502    0 -0.43653474530E+01 -0.23953495822E+02 -0.16373397149E+04  0.16375207383E+04  0.00000000000E+00 0. -1.
</event>
<event>
 4    1  0.3752836E+003  0.2786635E+02  0.7546771E-02  0.1439094E+00
          2   -1    0    0  502    0  0.00000000000E+00  0.00000000000E+00  0.17784898884E+04  0.17784898884E+04  0.00000000000E+00 0.  1.
          1   -1    0    0  501    0 -0.00000000000E+00 -0.00000000000E+00 -0.52750702241E+01  0.52750702241E+01  0.00000000000E+00 0.  1.
          2    1    1    2  501    0 -0.17691985335E+02  0.21529679402E+02  0.17407815444E+04  0.17410045717E+04  0.00000000000E+00 0.  1.
          1    1    1    2  502    0  0.17691985335E+02 -0.21529679402E+02  0.32433273788E+02  0.42760386912E+02  0.00000000000E+00 0.  1.
</event>
<event>
 4    1  0.3752836E+003  0.2759770E+02  0.7546771E-02  0.1441695E+00
          2   -1    0    0  502    0  0.00000000000E+00  0.00000000000E+00  0.32615019615E+02  0.32615019615E+02  0.00000000000E+00 0.  1.
          1   -1    0    0  501    0 -0.00000000000E+00 -0.00000000000E+00 -0.15751454582E+04  0.15751454582E+04  0.00000000000E+00 0.  1.
          2    1    1    2  501    0 -0.25726129963E+02 -0.99899621360E+01  0.26633830474E+02  0.38353540020E+02  0.00000000000E+00 0.  1.
          1    1    1    2  502    0  0.25726129963E+02  0.99899621360E+01 -0.15691642691E+04  0.15694069378E+04  0.00000000000E+00 0.  1.
</event>
<event>
 4    1  0.3752836E+003  0.3598086E+02  0.7546771E-02  0.1373796E+00
          2   -1    0    0  502    0  0.00000000000E+00  0.00000000000E+00  0.16124350909E+04  0.16124350909E+04  0.00000000000E+00 0. -1.
          1   -1    0    0  501    0 -0.00000000000E+00 -0.00000000000E+00 -0.60058443733E+01  0.60058443733E+01  0.00000000000E+00 0. -1.
          2    1    1    2  501    0  0.35980536432E+02  0.15236494915E+00  0.15564044799E+04  0.15568203260E+04  0.00000000000E+00 0. -1.
          1    1    1    2  502    0 -0.35980536432E+02 -0.15236494915E+00  0.50024766578E+02  0.61620609281E+02  0.00000000000E+00 0. -1.
</event>
<event>
 4    1  0.3752836E+003  0.2698358E+02  0.7546771E-02  0.1447773E+00
          2   -1    0    0  502    0  0.00000000000E+00  0.00000000000E+00  0.18714493340E+03  0.18714493340E+03  0.00000000000E+00 0.  1.
          1   -1    0    0  501    0 -0.00000000000E+00 -0.00000000000E+00 -0.49765945684E+03  0.49765945684E+03  0.00000000000E+00 0.  1.
          2    1    1    2  501    0 -0.26975724052E+02  0.65106682661E+00  0.18580387820E+03  0.18775301524E+03  0.00000000000E+00 0.  1.
          1    1    1    2  502    0  0.26975724052E+02 -0.65106682661E+00 -0.49631840164E+03  0.49705137500E+03  0.00000000000E+00 0.  1.
</event>
<event>
 4    1  0.3752836E+003  0.2272778E+02  0.7546771E-02  0.1495945E+00
          2   -1    0    0  502    0  0.00000000000E+00  0.00000000000E+00  0.54637448484E+03  0.54637448484E+03  0.00000000000E+00 0.  1.
          1   -1    0    0  501    0 -0.00000000000E+00 -0.00000000000E+00 -0.54051507046E+01  0.54051507046E+01  0.00000000000E+00 0.  1.
          2    1    1    2  501    0  0.14376182525E+02 -0.17603332822E+02  0.52108763629E+03  0.52158304865E+03  0.00000000000E+00 0.  1.
          1    1    1    2  502    0 -0.14376182525E+02  0.17603332822E+02  0.19881697841E+02  0.30196586885E+02  0.00000000000E+00 0.  1.
</event>
<event>
 4    1  0.3752836E+003  0.3819574E+02  0.7546771E-02  0.1359396E+00
          2   -1    0    0  502    0  0.00000000000E+00  0.00000000000E+00  0.12067738005E+04  0.12067738005E+04  0.00000000000E+00 0. -1.
          1   -1    0    0  501    0 -0.00000000000E+00 -0.00000000000E+00 -0.51596765995E+01  0.51596765995E+01  0.00000000000E+00 0. -1.
          2    1    1    2  501    0  0.29976827445E+02  0.23670744297E+02  0.11310522195E+04  0.11316969725E+04  0.00000000000E+00 0. -1.
          1    1    1    2  502    0 -0.29976827445E+02 -0.23670744297E+02  0.70561904443E+02  0.80236504647E+02  0.00000000000E+00 0. -1.
</event>
<event>
 4    1  0.3752836E+003  0.2325752E+02  0.7546771E-02  0.1489289E+00
          2   -1    0    0  502    0  0.00000000000E+00  0.00000000000E+00  0.18212607614E+02  0.18212607614E+02  0.00000000000E+00 0.  1.
          1   -1    0    0  501    0 -0.00000000000E+00 -0.00000000000E+00 -0.46177780700E+02  0.46177780700E+02  0.00000000000E+00 0.  1.
          2    1    1    2  501    0 -0.16830312200E+02 -0.16051572949E+02  0.52494536437E+01  0.23842591437E+02  0.00000000000E+00 0.  1.
          1    1    1    2  502    0  0.16830312200E+02  0.16051572949E+02 -0.33214626730E+02  0.40547796878E+02  0.00000000000E+00 0.  1.
</event>
<event>
 4    1  0.3752836E+003  0.2032657E+02  0.7546771E-02  0.1529101E+00
          2   -1    0    0  502    0  0.00000000000E+00  0.00000000000E+00  0.58641325661E+03  0.58641325661E+03  0.00000000000E+00 0.  1.
          1   -1    0    0  501    0 -0.00000000000E+00 -0.00000000000E+00 -0.74050331375E+02  0.74050331375E+02  0.00000000000E+00 0. -1.
          2    1    1    2  501    0  0.14434619867E+02 -0.14311231761E+02  0.58483846452E+03  0.58519159186E+03  0.00000000000E+00 0.  1.
          1    1    1    2  502    0 -0.14434619867E+02  0.14311231761E+02 -0.72475539286E+02  0.75271996121E+02  0.00000000000E+00 0. -1.
</event>
<event>
 4    1  0.3752836E+003  0.2143768E+02  0.7546771E-02  0.1513107E+00
          2   -1    0    0  502    0  0.00000000000E+00  0.00000000000E+00  0.89194788620E+03  0.89194788620E+03  0.00000000000E+00 0. -1.
          1   -1    0    0  501    0 -0.00000000000E+00 -0.00000000000E+00 -0.57274584996E+00  0.57274584996E+00  0.00000000000E+00 0. -1.
          2    1    1    2  501    0  0.72846867810E+01 -0.20162034846E+02  0.58708233298E+03  0.58747360792E+03  0.00000000000E+00 0. -1.
          1    1    1    2  502    0 -0.72846867810E+01  0.20162034846E+02  0.30429280738E+03  0.30504702413E+03  0.00000000000E+00 0. -1.
</event>
<event>
 4    1  0.3752836E+003  0.2358529E+02  0.7546771E-02  0.1485277E+00
          2   -1    0    0  502    0  0.00000000000E+00  0.00000000000E+00  0.90226016085E+03  0.90226016085E+03  0.00000000000E+00 0.  1.
          1   -1    0    0  501    0 -0.00000000000E+00 -0.00000000000E+00 -0.41631017548E+01  0.41631017548E+01  0.00000000000E+00 0. -1.
          2    1    1    2  501    0  0.23106722796E+02 -0.47270852730E+01  0.86735753459E+03  0.86767814239E+03  0.00000000000E+00 0.  1.
          1    1    1    2  502    0 -0.23106722796E+02  0.47270852730E+01  0.30739524506E+02  0.38745120214E+02  0.00000000000E+00 0. -1.
</event>
<event>
 4    1  0.3752836E+003  0.2003554E+02  0.7546771E-02  0.1533493E+00
          2   -1    0    0  502    0  0.00000000000E+00  0.00000000000E+00  0.67459416458E+03  0.67459416458E+03  0.00000000000E+00 0. -1.
          1   -1    0    0  501    0 -0.00000000000E+00 -0.00000000000E+00 -0.20954857039E+02  0.20954857039E+02  0.00000000000E+00 0. -1.
          2    1    1    2  501    0  0.17559773690E+02 -0.96476441683E+01  0.66962070115E+03  0.66992037296E+03  0.00000000000E+00 0. -1.
          1    1    1    2  502    0 -0.17559773690E+02  0.96476441683E+01 -0.15981393617E+02  0.25628648657E+02  0.00000000000E+00 0. -1.
</event>
<event>
 4    1  0.3752836E+003  0.2014750E+02  0.7546771E-02  0.1531793E+00
          2   -1    0    0  502    0  0.00000000000E+00  0.00000000000E+00  0.54420586590E+03  0.54420586590E+03  0.00000000000E+00 0. -1.
          1   -1    0    0  501    0 -0.00000000000E+00 -0.00000000000E+00 -0.13978842114E+03  0.13978842114E+03  0.00000000000E+00 0. -1.
          2    1    1    2  501    0 -0.74461296676E+01 -0.18721029402E+02  0.54329221365E+03  0.54366566123E+03  0.00000000000E+00 0. -1.
          1    1    1    2  502    0  0.74461296676E+01  0.18721029402E+02 -0.13887476888E+03  0.14032862581E+03  0.00000000000E+00 0. -1.
</event>
<event>
 4    1  0.3752836E+003  0.2617642E+02  0.7546771E-02  0.1456061E+00
          2   -1    0    0  502    0  0.00000000000E+00  0.00000000000E+00  0.14619857479E+01  0.14619857479E+01  0.00000000000E+00 0.  1.
          1   -1    0    0  501    0 -0.00000000000E+00 -0.00000000000E+00 -0.50493713042E+03  0.50493713042E+03  0.00000000000E+00 0. -1.
          2    1    1    2  501    0  0.18985996630E+02 -0.18020464176E+02 -0.18389005342E+03  0.18574379383E+03  0.00000000000E+00 0.  1.
          1    1    1    2  502    0 -0.18985996630E+02  0.18020464176E+02 -0.31958509124E+03  0.32065532234E+03  0.00000000000E+00 0. -1.
</event>
<event>
 4    1  0.3752836E+003  0.2625483E+02  0.7546771E-02  0.1455240E+00
          2   -1    0    0  502    0  0.00000000000E+00  0.00000000000E+00  0.14050014092E+03  0.14050014092E+03  0.00000000000E+00 0.  1.
          1   -1    0    0  501    0 -0.00000000000E+00 -0.00000000000E+00 -0.14719542418E+04  0.14719542418E+04  0.00000000000E+00 0.  1.
          2    1    1    2  501    0 -0.99169344141E+01  0.24309890261E+02  0.13915540409E+03  0.14161053224E+03  0.00000000000E+00 0.  1.
          1    1    1    2  502    0  0.99169344141E+01 -0.24309890261E+02 -0.14706095050E+04  0.14708438504E+04  0.00000000000E+00 0.  1.
</event>
<event>
 4    1  0.3752836E+003  0.3846426E+02  0.7546771E-02  0.1357728E+00
          2   -1    0    0  502    0  0.00000000000E+00  0.00000000000E+00  0.27556839264E+01  0.27556839264E+01  0.00000000000E+00 0. -1.
          1   -1    0    0  501    0 -0.00000000000E+00 -0.00000000000E+00 -0.13666080948E+04  0.13666080948E+04  0.00000000000E+00 0.  1.
          2    1    1    2  501    0  0.51571167665E+01  0.38116972545E+02 -0.14842906289E+03  0.15333194761E+03  0.00000000000E+00 0. -1.
          1    1    1    2  502    0 -0.51571167665E+01 -0.38116972545E+02 -0.12154233480E+04  0.12160318311E+04  0.00000000000E+00 0.  1.
</event>
<event>
 4    1  0.3752836E+003  0.2782359E+02  0.7546771E-02  0.1439506E+00
          2   -1    0    0  502    0  0.00000000000E+00  0.00000000000E+00  0.21068777337E+02  0.21068777337E+02  0.00000000000E+00 0. -1.
          1   -1    0    0  501    0 -0.00000000000E+00 -0.00000000000E+00 -0.11486620210E+03  0.11486620210E+03  0.00000000000E+00 0. -1.
          2    1    1    2  501    0  0.24579265088E+02 -0.13038852635E+02  0.91534320673E+01  0.29290566210E+02  0.00000000000E+00 0. -1.
          1    1    1    2  502    0 -0.24579265088E+02  0.13038852635E+02 -0.10295085683E+03  0.10664441322E+03  0.00000000000E+00 0. -1.
</event>
<event>
 4    1  0.3752836E+003  0.2217004E+02  0.7546771E-02  0.1503191E+00
          2   -1    0    0  502    0  0.00000000000E+00  0.00000000000E+00  0.18261283594E+01  0.18261283594E+01  0.00000000000E+00 0.  1.
          1   -1    0    0  501    0 -0.00000000000E+00 -0.00000000000E+00 -0.37391282627E+03  0.37391282627E+03  0.00000000000E+00 0.  1.
          2    1    1    2  501    0 -0.13746623986E+02 -0.17393706368E+02 -0.86602392963E+02  0.89395107021E+02  0.00000000000E+00 0.  1.
          1    1    1    2  502    0  0.13746623986E+02  0.17393706368E+02 -0.28548430495E+03  0.28634384761E+03  0.00000000000E+00 0.  1.
</event>
<event>
 4    1  0.3752836E+003  0.2257217E+02  0.7546771E-02  0.1497941E+00
          2   -1    0    0  502    0  0.00000000000E+00  0.00000000000E+00  0.16469542220E+04  0.16469542220E+04  0.00000000000E+00 0.  1.
          1   -1    0    0  501    0 -0.00000000000E+00 -0.00000000000E+00 -0.45726067566E+01  0.45726067566E+01  0.00000000000E+00 0. -1.
          2    1    1    2  501    0  0.31473334788E+01  0.22351667834E+02  0.16185314738E+04  0.16186888628E+04  0.00000000000E+00 0.  1.
          1    1    1    2  502    0 -0.31473334788E+01 -0.22351667834E+02  0.23850141415E+02  0.32837965962E+02  0.00000000000E+00 0. -1.
</event>
<event>
 4    1  0.3752836E+003  0.2176013E+02  0.7546771E-02  0.1508683E+00
          2   -1    0    0  502    0  0.00000000000E+00  0.00000000000E+00  0.94734814221E+02  0.94734814221E+02  0.00000000000E+00 0.  1.
          1   -1    0    0  501    0 -0.00000000000E+00 -0.00000000000E+00 -0.90349708476E+01  0.90349708476E+01  0.00000000000E+00 0. -1.
          2    1    1    2  501    0 -0.68642402909E+01  0.20649100543E+02  0.77531177867E+02  0.80526931454E+02  0.00000000000E+00 0.  1.
          1    1    1    2  502    0  0.68642402909E+01 -0.20649100543E+02  0.81686655070E+01  0.23242853615E+02  0.00000000000E+00 0. -1.
</event>
<event>
 4    1  0.3752836E+003  0.3667443E+02  0.7546771E-02  0.1369159E+00
          2   -1    0    0  502    0  0.00000000000E+00  0.00000000000E+00  0.18462048556E+03  0.18462048556E+03  0.00000000000E+00 0.  1.
          1   -1    0    0  501    0 -0.00000000000E+00 -0.00000000000E+00 -0.32487302508E+03  0.32487302508E+03  0.00000000000E+00 0. -1.
          2    1    1    2  501    0 -0.11282895024E+02 -0.34895705939E+02  0.18174793663E+03  0.18541123613E+03  0.00000000000E+00 0.  1.
          1    1    1    2  502    0  0.11282895024E+02  0.34895705939E+02 -0.32200047615E+03  0.32408227451E+03  0.00000000000E+00 0. -1.
</event>
<event>
 4    1  0.3752836E+003  0.2105020E+02  0.7546771E-02  0.1518549E+00
          2   -1    0    0  502    0  0.00000000000E+00  0.00000000000E+00  0.30105361748E+03  0.30105361748E+03  0.00000000000E+00 0.  1.
          1   -1    0    0  501    0 -0.00000000000E+00 -0.00000000000E+00 -0.28622558663E+01  0.28622558663E+01  0.00000000000E+00 0. -1.
          2    1    1    2  501    0 -0.12330251513E+02  0.17060941409E+02  0.25500576982E+03  0.25587311986E+03  0.00000000000E+00 0.  1.
          1    1    1    2  502    0  0.12330251513E+02 -0.17060941409E+02  0.43185591787E+02  0.48042753482E+02  0.00000000000E+00 0. -1.
</event>
<event>
 4    1  0.3752836E+003  0.2981721E+02  0.7546771E-02  0.1421192E+00
          2   -1    0    0  502    0  0.00000000000E+00  0.00000000000E+00  0.98273060594E+02  0.98273060594E+02  0.00000000000E+00 0.  1.
          1   -1    0    0  501    0 -0.00000000000E+00 -0.00000000000E+00 -0.18685456882E+02  0.18685456882E+02  0.00000000000E+00 0.  1.
          2    1    1    2  501    0 -0.12184795345E+02  0.27213908807E+02  0.81794461968E+02  0.87059750050E+02  0.00000000000E+00 0.  1.
          1    1    1    2  502    0  0.12184795345E+02 -0.27213908807E+02 -0.22068582562E+01  0.29898767425E+02  0.00000000000E+00 0.  1.
</event>
<event>
 4    1  0.3752836E+003  0.2355113E+02  0.7546771E-02  0.1485691E+00
          2   -1    0    0  502    0  0.00000000000E+00  0.00000000000E+00  0.11969665877E+02  0.11969665877E+02  0.00000000000E+00 0. -1.
          1   -1    0    0  501    0 -0.00000000000E+00 -0.00000000000E+00 -0.21283303415E+03  0.21283303415E+03  0.00000000000E+00 0.  1.
          2    1    1    2  501    0 -0.21531962636E+02 -0.95409746837E+01 -0.10166465168E+01  0.23573060536E+02  0.00000000000E+00 0. -1.
          1    1    1    2  502    0  0.21531962636E+02  0.95409746837E+01 -0.19984672175E+03  0.20122963949E+03  0.00000000000E+00 0.  1.
</event>
<event>
 4    1  0.3752836E+003  0.2552321E+02  0.7546771E-02  0.1463035E+00
          2   -1    0    0  502    0  0.00000000000E+00  0.00000000000E+00  0.68047993801E+01  0.68047993801E+01  0.00000000000E+00 0. -1.
          1   -1    0    0  501    0 -0.00000000000E+00 -0.00000000000E+00 -0.32691568688E+03  0.32691568688E+03  0.00000000000E+00 0. -1.
          2    1    1    2  501    0  0.12779709675E+02 -0.22093281994E+02 -0.19737247309E+02  0.32264423441E+02  0.00000000000E+00 0. -1.
          1    1    1    2  502    0 -0.12779709675E+02  0.22093281994E+02 -0.30037364019E+03  0.30145606282E+03  0.00000000000E+00 0. -1.
</event>
<event>
 4    1  0.3752836E+003  0.4262080E+02  0.7546771E-02  0.1333776E+00
          2   -1    0    0  502    0  0.00000000000E+00  0.00000000000E+00  0.75836955162E+03  0.75836955162E+03  0.00000000000E+00 0.  1.
          1   -1    0    0  501    0 -0.00000000000E+00 -0.00000000000E+00 -0.63283218244E+01  0.63283218244E+01  0.00000000000E+00 0. -1.
          2    1    1    2  501    0  0.25295360326E+02  0.34302733364E+02  0.67744476505E+03  0.67878416486E+03  0.00000000000E+00 0.  1.
          1    1    1    2  502    0 -0.25295360326E+02 -0.34302733364E+02  0.74596464744E+02  0.85913708584E+02  0.00000000000E+00 0. -1.
</event>
<event>
 4    1  0.3752836E+003  0.2516533E+02  0.7546771E-02  0.1466962E+00
          2   -1    0    0  502    0  0.00000000000E+00  0.00000000000E+00  0.13098440929E+03  0.13098440929E+03  0.00000000000E+00 0.  1.
          1   -1    0    0  501    0 -0.00000000000E+00 -0.00000000000E+00 -0.59884043808E+01  0.59884043808E+01  0.00000000000E+00 0. -1.
          2    1    1    2  501    0  0.14398906716E+02  0.20638923733E+02  0.92556171134E+02  0.95916309887E+02  0.00000000000E+00 0.  1.
          1    1    1    2  502    0 -0.14398906716E+02 -0.20638923733E+02  0.32439833771E+02  0.41056503779E+02  0.00000000000E+00 0. -1.
</event>
<event>
 4    1  0.3752836E+003  0.2184454E+02  0.7546771E-02  0.1507540E+00
          2   -1    0    0  502    0  0.00000000000E+00  0.00000000000E+00  0.69857052246E+02  0.69857052246E+02  0.00000000000E+00 0.  1.
          1   -1    0    0  501    0 -0.00000000000E+00 -0.00000000000E+00 -0.46908357952E+02  0.46908357952E+02  0.00000000000E+00 0. -1.
          2    1    1    2  501    0  0.27609949153E+01  0.21669347807E+02  0.65439001534E+02  0.68988742915E+02  0.00000000000E+00 0.  1.
          1    1    1    2  502    0 -0.27609949153E+01 -0.21669347807E+02 -0.42490307240E+02  0.47776667283E+02  0.00000000000E+00 0. -1.
</event>
<event>
 4    1  0.3752836E+003  0.2201736E+02  0.7546771E-02  0.1505220E+00
          2   -1    0    0  502    0  0.00000000000E+00  0.00000000000E+00  0.46594314659E+03  0.46594314659E+03  0.00000000000E+00 0. -1.
          1   -1    0    0  501    0 -0.00000000000E+00 -0.00000000000E+00 -0.87136026878E+01  0.87136026878E+01  0.00000000000E+00 0. -1.
          2    1    1    2  501    0 -0.48697109589E+01 -0.21472075217E+02  0.45132456514E+03  0.45186129199E+03  0.00000000000E+00 0. -1.
          1    1    1    2  502    0  0.48697109589E+01  0.21472075217E+02  0.59049787660E+01  0.22795457293E+02  0.00000000000E+00 0. -1.
</event>
<event>
 4    1  0.3752836E+003  0.2937906E+02  0.7546771E-02  0.1425070E+00
          2   -1    0    0  502    0  0.00000000000E+00  0.00000000000E+00  0.43655289479E+01  0.43655289479E+01  0.00000000000E+00 0.  1.
          1   -1    0    0  501    0 -0.00000000000E+00 -0.00000000000E+00 -0.36437618789E+03  0.36437618789E+03  0.00000000000E+00 0. -1.
          2    1    1    2  501    0 -0.12781856274E+02  0.26452846860E+02 -0.55314361167E+02  0.62632319996E+02  0.00000000000E+00 0.  1.
          1    1    1    2  502    0  0.12781856274E+02 -0.26452846860E+02 -0.30469629777E+03  0.30610939684E+03  0.00000000000E+00 0. -1.
</event>
<event>
 4    1  0.3752836E+003  0.2182604E+02  0.7546771E-02  0.1507790E+00
          2   -1    0    0  502    0  0.00000000000E+00  0.00000000000E+00  0.14444957418E+04  0.14444957418E+04  0.00000000000E+00 0. -1.
          1   -1    0    0  501    0 -0.00000000000E+00 -0.00000000000E+00 -0.22953384640E+02  0.22953384640E+02  0.00000000000E+00 0.  1.
          2    1    1    2  501    0  0.61455708140E+01  0.20942964811E+02  0.14392057111E+04  0.14393712011E+04  0.00000000000E+00 0. -1.
          1    1    1    2  502    0 -0.61455708140E+01 -0.20942964811E+02 -0.17663353950E+02  0.28077925288E+02  0.00000000000E+00 0.  1.
</event>
<event>
 4    1  0.3752836E+003  0.3899534E+02  0.7546771E-02  0.1354476E+00
          2   -1    0    0  502    0  0.00000000000E+00  0.00000000000E+00  0.95047828514E+02  0.95047828514E+02  0.00000000000E+00 0. -1.
          1   -1    0    0  501    0 -0.00000000000E+00 -0.00000000000E+00 -0.23526492950E+02  0.23526492950E+02  0.00000000000E+00 0. -1.
          2    1    1    2  501    0 -0.35217491207E+02 -0.16744107624E+02  0.69297139209E+02  0.79515598027E+02  0.00000000000E+00 0. -1.
          1    1    1    2  502    0  0.35217491207E+02  0.16744107624E+02  0.22241963554E+01  0.39058723436E+02  0.00000000000E+00 0. -1.
</event>
<event>
 4    1  0.3752836E+003  0.2347579E+02  0.7546771E-02  0.1486609E+00
          2   -1    0    0  502    0  0.00000000000E+00  0.00000000000E+00  0.90985963173E+03  0.90985963173E+03  0.00000000000E+00 0.  1.
          1   -1    0    0  501    0 -0.00000000000E+00 -0.00000000000E+00 -0.20698346171E+03  0.20698346171E+03  0.00000000000E+00 0.  1.
          2    1    1    2  501    0 -0.19157744554E+02 -0.13568103424E+02  0.90904195704E+03  0.90934503478E+03  0.00000000000E+00 0.  1.
          1    1    1    2  502    0  0.19157744554E+02  0.13568103424E+02 -0.20616578703E+03  0.20749805866E+03  0.00000000000E+00 0.  1.
</event>
<event>
 4    1  0.3752836E+003  0.3542009E+02  0.7546771E-02  0.1377634E+00
          2   -1    0    0  502    0  0.00000000000E+00  0.00000000000E+00  0.81187328893E+02  0.81187328893E+02  0.00000000000E+00 0.  1.
          1   -1    0    0  501    0 -0.00000000000E+00 -0.00000000000E+00 -0.46827113076E+02  0.46827113076E+02  0.00000000000E+00 0.  1.
          2    1    1    2  501    0  0.23009964323E+02 -0.26928131119E+02  0.69572284633E+02  0.78069747616E+02  0.00000000000E+00 0.  1.
          1    1    1    2  502    0 -0.23009964323E+02  0.26928131119E+02 -0.35212068816E+02  0.49944694353E+02  0.00000000000E+00 0.  1.
</event>
<event>
 4    1  0.3752836E+003  0.2091799E+02  0.7546771E-02  0.1520439E+00
          2   -1    0    0  502    0  0.00000000000E+00  0.00000000000E+00  0.29468280416E+03  0.29468280416E+03  0.00000000000E+00 0. -1.
          1   -1    0    0  501    0 -0.00000000000E+00 -0.00000000000E+00 -0.33318268390E+02  0.33318268390E+02  0.00000000000E+00 0.  1.
          2    1    1    2  501    0  0.19781586574E+02 -0.68008045704E+01  0.29098674111E+03  0.29173763146E+03  0.00000000000E+00 0. -1.
          1    1    1    2  502    0 -0.19781586574E+02  0.68008045704E+01 -0.29622205340E+02  0.36263441086E+02  0.00000000000E+00 0.  1.
</event>
<event>
 4    1  0.3752836E+003  0.2158326E+02  0.7546771E-02  0.1511098E+00
          2   -1    0    0  502    0  0.00000000000E+00  0.00000000000E+00  0.22914099720E+01  0.22914099720E+01  0.00000000000E+00 0.  1.
          1   -1    0    0  501    0 -0.00000000000E+00 -0.00000000000E+00 -0.24923617700E+03  0.24923617700E+03  0.00000000000E+00 0.  1.
          2    1    1    2  501    0 -0.34181852608E+00 -0.21580548252E+02 -0.69478890287E+02  0.72754058981E+02  0.00000000000E+00 0.  1.
          1    1    1    2  502    0  0.34181852608E+00  0.21580548252E+02 -0.17746587675E+03  0.17877352799E+03  0.00000000000E+00 0.  1.
</event>
<event>
 4    1  0.3752836E+003  0.3825206E+02  0.7546771E-02  0.1359045E+00
          2   -1    0    0  502    0  0.00000000000E+00  0.00000000000E+00  0.12557494874E+04  0.12557494874E+04  0.00000000000E+00 0. -1.
          1   -1    0    0  501    0 -0.00000000000E+00 -0.00000000000E+00 -0.25780713035E+01  0.25780713035E+01  0.00000000000E+00 0. -1.
          2    1    1    2  501    0 -0.38081204573E+02  0.36113119671E+01  0.10923487815E+04  0.10930183348E+04  0.00000000000E+00 0. -1.
          1    1    1    2  502    0  0.38081204573E+02 -0.36113119671E+01  0.16082263454E+03  0.16530922387E+03  0.00000000000E+00 0. -1.
</event>
<event>
 4    1  0.3752836E+003  0.2921275E+02  0.7546771E-02  0.1426563E+00
          2   -1    0    0  502    0  0.00000000000E+00  0.00000000000E+00  0.16623848482E+02  0.16623848482E+02  0.00000000000E+00 0.  1.
          1   -1    0    0  501    0 -0.00000000000E+00 -0.00000000000E+00 -0.63945926106E+02  0.63945926106E+02  0.00000000000E+00 0. -1.
          2    1    1    2  501    0  0.47238874957E+01  0.28828276561E+02 -0.57710592613E+01  0.29777336475E+02  0.00000000000E+00 0.  1.
          1    1    1    2  502    0 -0.47238874957E+01 -0.28828276561E+02 -0.41551018362E+02  0.50792438113E+02  0.00000000000E+00 0. -1.
</event>
<event>
 4    1  0.3752836E+003  0.5956495E+02  0.7546771E-02  0.1261318E+00
          2   -1    0    0  502    0  0.00000000000E+00  0.00000000000E+00  0.16307755103E+02  0.16307755103E+02  0.00000000000E+00 0. -1.
          1   -1    0    0  501    0 -0.00000000000E+00 -0.00000000000E+00 -0.33334647853E+03  0.33334647853E+03  0.00000000000E+00 0. -1.
          2    1    1    2  501    0 -0.14429301883E+02  0.57790821613E+02 -0.55485045922E+02  0.81403772250E+02  0.00000000000E+00 0. -1.
          1    1    1    2  502    0  0.14429301883E+02 -0.57790821613E+02 -0.26155367751E+03  0.26825046139E+03  0.00000000000E+00 0. -1.
</event>
<event>
 4    1  0.3752836E+003  0.4604848E+02  0.7546771E-02  0.1316278E+00
          2   -1    0    0  502    0  0.00000000000E+00  0.00000000000E+00  0.10102437673E+04  0.10102437673E+04  0.00000000000E+00 0.  1.
          1   -1    0    0  501    0 -0.00000000000E+00 -0.00000000000E+00 -0.79339390268E+01  0.79339390268E+01  0.00000000000E+00 0.  1.
          2    1    1    2  501    0 -0.45219373615E+02 -0.86988985043E+01  0.93773986298E+03  0.93886980631E+03  0.00000000000E+00 0.  1.
          1    1    1    2  502    0  0.45219373615E+02  0.86988985043E+01  0.64569965251E+02  0.79307899971E+02  0.00000000000E+00 0.  1.
</event>
<event>
 4    1  0.3752836E+003  0.5409340E+02  0.7546771E-02  0.1281338E+00
          2   -1    0    0  502    0  0.00000000000E+00  0.00000000000E+00  0.55568617166E+03  0.55568617166E+03  0.00000000000E+00 0.  1.
          1   -1    0    0  501    0 -0.00000000000E+00 -0.00000000000E+00 -0.10666289124E+02  0.10666289124E+02  0.00000000000E+00 0.  1.
          2    1    1    2  501    0  0.49722150181E+02  0.21302668597E+02  0.47400727202E+03  0.47708383942E+03  0.00000000000E+00 0.  1.
          1    1    1    2  502    0 -0.49722150181E+02 -0.21302668597E+02  0.71012610521E+02  0.89268621368E+02  0.00000000000E+00 0.  1.
</event>
<event>
 4    1  0.3752836E+003  0.3370567E+02  0.7546771E-02  0.1389898E+00
          2   -1    0    0  502    0  0.00000000000E+00  0.00000000000E+00  0.65042927435E+03  0.65042927435E+03  0.00000000000E+00 0.  1.
          1   -1    0    0  501    0 -0.00000000000E+00 -0.00000000000E+00 -0.70215424864E+02  0.70215424864E+02  0.00000000000E+00 0.  1.
          2    1    1    2  501    0 -0.22297507612E+02 -0.25276341834E+02  0.64591943626E+03  0.64679826100E+03  0.00000000000E+00 0.  1.
          1    1    1    2  502    0  0.22297507612E+02  0.25276341834E+02 -0.65705586775E+02  0.73846438206E+02  0.00000000000E+00 0.  1.
</event>
<event>
 4    1  0.3752836E+003  0.2376513E+02  0.7546771E-02  0.1483107E+00
          2   -1    0    0  502    0  0.00000000000E+00  0.00000000000E+00  0.33458885745E+02  0.33458885745E+02  0.00000000000E+00 0. -1.
          1   -1    0    0  501    0 -0.00000000000E+00 -0.00000000000E+00 -0.22508854136E+03  0.22508854136E+03  0.00000000000E+00 0. -1.
          2    1    1    2  501    0  0.20420496870E+02  0.12156682285E+02  0.28517177539E+02  0.37121570971E+02  0.00000000000E+00 0. -1.
          1    1    1    2  502    0 -0.20420496870E+02 -0.12156682285E+02 -0.22014683316E+03  0.22142585614E+03  0.00000000000E+00 0. -1.
</event>
<event>
 4    1  0.3752836E+003  0.2190879E+02  0.7546771E-02  0.1506675E+00
          2   -1    0    0  502    0  0.00000000000E+00  0.00000000000E+00  0.13449437257E+03  0.13449437257E+03  0.00000000000E+00 0.  1.
          1   -1    0    0  501    0 -0.00000000000E+00 -0.00000000000E+00 -0.99228966042E+01  0.99228966042E+01  0.00000000000E+00 0.  1.
          2    1    1    2  501    0 -0.21524311973E+02 -0.40864708621E+01  0.12006790498E+03  0.12205038737E+03  0.00000000000E+00 0.  1.
          1    1    1    2  502    0  0.21524311973E+02  0.40864708621E+01  0.45035709817E+01  0.22366881804E+02  0.00000000000E+00 0.  1.
</event>
<event>
 4    1  0.3752836E+003  0.3014280E+02  0.7546771E-02  0.1418359E+00
          2   -1    0    0  502    0  0.00000000000E+00  0.00000000000E+00  0.10568260780E+04  0.10568260780E+04  0.00000000000E+00 0. -1.
          1   -1    0    0  501    0 -0.00000000000E+00 -0.00000000000E+00 -0.27659131363E+03  0.27659131363E+03  0.00000000000E+00 0. -1.
          2    1    1    2  501    0  0.13299005156E+02  0.27050408924E+02  0.10557891013E+04  0.10562193023E+04  0.00000000000E+00 0. -1.
          1    1    1    2  502    0 -0.13299005156E+02 -0.27050408924E+02 -0.27555433689E+03  0.27719808936E+03  0.00000000000E+00 0. -1.
</event>
<event>
 4    1  0.3752836E+003  0.3075743E+02  0.7546771E-02  0.1413126E+00
          2   -1    0    0  502    0  0.00000000000E+00  0.00000000000E+00  0.19864329605E+02  0.19864329605E+02  0.00000000000E+00 0.  1.
          1   -1    0    0  501    0 -0.00000000000E+00 -0.00000000000E+00 -0.54779602633E+02  0.54779602633E+02  0.00000000000E+00 0.  1.
          2    1    1    2  501    0 -0.64162547090E+01 -0.30080743106E+02 -0.39687136624E+01  0.31012418777E+02  0.00000000000E+00 0.  1.
          1    1    1    2  502    0  0.64162547090E+01  0.30080743106E+02 -0.30946559365E+02  0.43631513460E+02  0.00000000000E+00 0.  1.
</event>
<event>
 4    1  0.3752836E+003  0.5415705E+02  0.7546771E-02  0.1281090E+00
          2   -1    0    0  502    0  0.00000000000E+00  0.00000000000E+00  0.26865610758E+03  0.26865610758E+03  0.00000000000E+00 0. -1.
          1   -1    0    0  501    0 -0.00000000000E+00 -0.00000000000E+00 -0.17001009299E+02  0.17001009299E+02  0.00000000000E+00 0. -1.
          2    1    1    2  501    0  0.54127141305E+02  0.17997407080E+01  0.21126801979E+03  0.21809897450E+03  0.00000000000E+00 0. -1.
          1    1    1    2  502    0 -0.54127141305E+02 -0.17997407080E+01  0.40387078489E+02  0.67558142377E+02  0.00000000000E+00 0. -1.
</event>
<event>
 4    1  0.3752836E+003  0.2062358E+02  0.7546771E-02  0.1524708E+00
          2   -1    0    0  502    0  0.00000000000E+00  0.00000000000E+00  0.12680970017E+04  0.12680970017E+04  0.00000000000E+00 0.  1.
          1   -1    0    0  501    0 -0.00000000000E+00 -0.00000000000E+00 -0.52983756968E+00  0.52983756968E+00  0.00000000000E+00 0.  1.
          2    1    1    2  501    0 -0.17160698503E+01 -0.20552058406E+02  0.10180317572E+04  0.10182406350E+04  0.00000000000E+00 0.  1.
          1    1    1    2  502    0  0.17160698503E+01  0.20552058406E+02  0.24953540687E+03  0.25038620426E+03  0.00000000000E+00 0.  1.
</event>
<event>
 4    1  0.3752836E+003  0.2725235E+02  0.7546771E-02  0.1445090E+00
          2   -1    0    0  502    0  0.00000000000E+00  0.00000000000E+00  0.39369008966E+01  0.39369008966E+01  0.00000000000E+00 0. -1.
          1   -1    0    0  501    0 -0.00000000000E+00 -0.00000000000E+00 -0.80889784782E+03  0.80889784782E+03  0.00000000000E+00 0.  1.
          2    1    1    2  501    0  0.23975459440E+02  0.12956380911E+02 -0.46596375460E+02  0.53980669389E+02  0.00000000000E+00 0. -1.
          1    1    1    2  502    0 -0.23975459440E+02 -0.12956380911E+02 -0.75836457146E+03  0.75885407932E+03  0.00000000000E+00 0.  1.
</event>
<event>
 4    1  0.3752836E+003  0.2122929E+02  0.7546771E-02  0.1516016E+00
          2   -1    0    0  502    0  0.00000000000E+00  0.00000000000E+00  0.16494565664E+02  0.16494565664E+02  0.00000000000E+00 0. -1.
          1   -1    0    0  501    0 -0.00000000000E+00 -0.00000000000E+00 -0.28862765156E+02  0.28862765156E+02  0.00000000000E+00 0.  1.
          2    1    1    2  501    0 -0.13919120895E+02  0.16029372114E+02 -0.94614897738E+00  0.21250362226E+02  0.00000000000E+00 0. -1.
          1    1    1    2  502    0  0.13919120895E+02 -0.16029372114E+02 -0.11422050515E+02  0.24106968594E+02  0.00000000000E+00 0.  1.
</event>
<event>
 4    1  0.3752836E+003  0.2192898E+02  0.7546771E-02  0.1506403E+00
          2   -1    0    0  502    0  0.00000000000E+00  0.00000000000E+00  0.36067897480E+02  0.36067897480E+02  0.00000000000E+00 0. -1.
          1   -1    0    0  501    0 -0.00000000000E+00 -0.00000000000E+00 -0.34533750775E+03  0.34533750775E+03  0.00000000000E+00 0.  1.
          2    1    1    2  501    0 -0.13757074411E+01 -0.21885789778E+02  0.32350379250E+02  0.39082315730E+02  0.00000000000E+00 0. -1.
          1    1    1    2  502    0  0.13757074411E+01  0.21885789778E+02 -0.34161998952E+03  0.34232308950E+03  0.00000000000E+00 0.  1.
</event>
<event>
 4    1  0.3752836E+003  0.4910423E+02  0.7546771E-02  0.1302104E+00
          2   -1    0    0  502    0  0.00000000000E+00  0.00000000000E+00  0.41906642187E+03  0.41906642187E+03  0.00000000000E+00 0. -1.
          1   -1    0    0  501    0 -0.00000000000E+00 -0.00000000000E+00 -0.18653135233E+04  0.18653135233E+04  0.00000000000E+00 0. -1.
          2    1    1    2  501    0 -0.41079606448E+02 -0.26901506719E+02  0.41730344464E+03  0.42018256751E+03  0.00000000000E+00 0. -1.
          1    1    1    2  502    0  0.41079606448E+02  0.26901506719E+02 -0.18635505461E+04  0.18641973777E+04  0.00000000000E+00 0. -1.
</event>
<event>
 4    1  0.3752836E+003  0.2817138E+02  0.7546771E-02  0.1436183E+00
          2   -1    0    0  502    0  0.00000000000E+00  0.00000000000E+00  0.19568677252E+04  0.19568677252E+04  0.00000000000E+00 0. -1.
          1   -1    0    0  501    0 -0.00000000000E+00 -0.00000000000E+00 -0.13343228082E+02  0.13343228082E+02  0.00000000000E+00 0. -1.
          2    1    1    2  501    0  0.19739999381E+02 -0.20098736392E+02  0.19417813478E+04  0.19419856924E+04  0.00000000000E+00 0. -1.
          1    1    1    2  502    0 -0.19739999381E+02  0.20098736392E+02  0.17431492658E+01  0.28225260840E+02  0.00000000000E+00 0. -1.
</event>
<event>
 4    1  0.3752836E+003  0.2226458E+02  0.7546771E-02  0.1501945E+00
          2   -1    0    0  502    0  0.00000000000E+00  0.00000000000E+00  0.12994190428E+01  0.12994190428E+01  0.00000000000E+00 0. -1.
          1   -1    0    0  501    0 -0.00000000000E+00 -0.00000000000E+00 -0.47094475446E+03  0.47094475446E+03  0.00000000000E+00 0. -1.
          2    1    1    2  501    0 -0.14163835770E+02 -0.17178392092E+02 -0.13191191263E+03  0.13377766664E+03  0.00000000000E+00 0. -1.
          1    1    1    2  502    0  0.14163835770E+02  0.17178392092E+02 -0.33773342279E+03  0.33846650687E+03  0.00000000000E+00 0. -1.
</event>
<event>
 4    1  0.3752836E+003  0.4586386E+02  0.7546771E-02  0.1317175E+00
          2   -1    0    0  502    0  0.00000000000E+00  0.00000000000E+00  0.99922851635E+03  0.99922851635E+03  0.00000000000E+00 0. -1.
          1   -1    0    0  501    0 -0.00000000000E+00 -0.00000000000E+00 -0.13066435171E+02  0.13066435171E+02  0.00000000000E+00 0. -1.
          2    1    1    2  501    0  0.45384008578E+02 -0.66170622888E+01  0.95666659242E+03  0.95776534850E+03  0.00000000000E+00 0. -1.
          1    1    1    2  502    0 -0.45384008578E+02  0.66170622888E+01  0.29495488764E+02  0.54529603019E+02  0.00000000000E+00 0. -1.
</event>
<event>
 4    1  0.3752836E+003  0.3635796E+02  0.7546771E-02  0.1371260E+00
          2   -1    0    0  502    0  0.00000000000E+00  0.00000000000E+00  0.10598982290E+03  0.10598982290E+03  0.00000000000E+00 0. -1.
          1   -1    0    0  501    0 -0.00000000000E+00 -0.00000000000E+00 -0.13219615868E+04  0.13219615868E+04  0.00000000000E+00 0. -1.
          2    1    1    2  501    0  0.21074061589E+02 -0.29627444722E+02  0.10261386111E+03  0.10886462256E+03  0.00000000000E+00 0. -1.
          1    1    1    2  502    0 -0.21074061589E+02  0.29627444722E+02 -0.13185856251E+04  0.13190867872E+04  0.00000000000E+00 0. -1.
</event>
<event>
 4    1  0.3752836E+003  0.2044183E+02  0.7546771E-02  0.1527385E+00
          2   -1    0    0  502    0  0.00000000000E+00  0.00000000000E+00  0.95429089328E+01  0.95429089328E+01  0.00000000000E+00 0. -1.
          1   -1    0    0  501    0 -0.00000000000E+00 -0.00000000000E+00 -0.54751738198E+02  0.54751738198E+02  0.00000000000E+00 0.  1.
          2    1    1    2  501    0 -0.18829665649E+02 -0.79568945353E+01 -0.82191532290E+01  0.22032316240E+02  0.00000000000E+00 0. -1.
          1    1    1    2  502    0  0.18829665649E+02  0.79568945353E+01 -0.36989676036E+02  0.42262330891E+02  0.00000000000E+00 0.  1.
</event>
<event>
 4    1  0.3752836E+003  0.2219450E+02  0.7546771E-02  0.1502868E+00
          2   -1    0    0  502    0  0.00000000000E+00  0.00000000000E+00  0.16587722624E+03  0.16587722624E+03  0.00000000000E+00 0.  1.
          1   -1    0    0  501    0 -0.00000000000E+00 -0.00000000000E+00 -0.30742033964E+02  0.30742033964E+02  0.00000000000E+00 0.  1.
          2    1    1    2  501    0 -0.18384295783E+02 -0.12434376243E+02  0.16100836492E+03  0.16253088819E+03  0.00000000000E+00 0.  1.
          1    1    1    2  502    0  0.18384295783E+02  0.12434376243E+02 -0.25873172639E+02  0.34088372011E+02  0.00000000000E+00 0.  1.
</event>
<event>
 4    1  0.3752836E+003  0.3008924E+02  0.7546771E-02  0.1418822E+00
          2   -1    0    0  502    0  0.00000000000E+00  0.00000000000E+00  0.38781623263E+03  0.38781623263E+03  0.00000000000E+00 0.  1.
          1   -1    0    0  501    0 -0.00000000000E+00 -0.00000000000E+00 -0.23365708991E+01  0.23365708991E+01  0.00000000000E+00 0.  1.
          2    1    1    2  501    0 -0.29647131393E+02  0.51390800327E+01  0.19852730917E+03  0.20079455926E+03  0.00000000000E+00 0.  1.
          1    1    1    2  502    0  0.29647131393E+02 -0.51390800327E+01  0.18695235257E+03  0.18935824427E+03  0.00000000000E+00 0.  1.
</event>
<event>
 4    1  0.3752836E+003  0.2075838E+02  0.7546771E-02  0.1522743E+00
          2   -1    0    0  502    0  0.00000000000E+00  0.00000000000E+00  0.58652108341E+03  0.58652108341E+03  0.00000000000E+00 0. -1.
          1   -1    0    0  501    0 -0.00000000000E+00 -0.00000000000E+00 -0.26305138907E+01  0.26305138907E+01  0.00000000000E+00 0. -1.
          2    1    1    2  501    0 -0.25650188798E+01 -0.20599299146E+02  0.54202352353E+03  0.54242087949E+03  0.00000000000E+00 0. -1.
          1    1    1    2  502    0  0.25650188798E+01  0.20599299146E+02  0.41867045984E+02  0.46730717805E+02  0.00000000000E+00 0. -1.
</event>
<event>
 4    1  0.3752836E+003  0.2838918E+02  0.7546771E-02  0.1434131E+00
          2   -1    0    0  502    0  0.00000000000E+00  0.00000000000E+00  0.21003627687E+04  0.21003627687E+04  0.00000000000E+00 0. -1.
          1   -1    0    0  501    0 -0.00000000000E+00 -0.00000000000E+00 -0.10311778971E+01  0.10311778971E+01  0.00000000000E+00 0.  1.
          2    1    1    2  501    0  0.25646245601E+02 -0.12174387013E+02  0.18822292472E+04  0.18824433284E+04  0.00000000000E+00 0. -1.
          1    1    1    2  502    0 -0.25646245601E+02  0.12174387013E+02  0.21710234370E+03  0.21895061830E+03  0.00000000000E+00 0.  1.
</event>
<event>
 4    1  0.3752836E+003  0.2212057E+02  0.7546771E-02  0.1503847E+00
          2   -1    0    0  502    0  0.00000000000E+00  0.00000000000E+00  0.17630704111E+03  0.17630704111E+03  0.00000000000E+00 0.  1.
          1   -1    0    0  501    0 -0.00000000000E+00 -0.00000000000E+00 -0.99656709700E+01  0.99656709700E+01  0.00000000000E+00 0. -1.
          2    1    1    2  501    0 -0.20494081805E+02  0.83254090876E+01  0.16228208458E+03  0.16378276711E+03  0.00000000000E+00 0.  1.
          1    1    1    2  502    0  0.20494081805E+02 -0.83254090876E+01  0.40592855565E+01  0.22489944970E+02  0.00000000000E+00 0. -1.
</event>
<event>
 4    1  0.3752836E+003  0.2378199E+02  0.7546771E-02  0.1482905E+00
          2   -1    0    0  502    0  0.00000000000E+00  0.00000000000E+00  0.13750294095E+04  0.13750294095E+04  0.00000000000E+00 0.  1.
          1   -1    0    0  501    0 -0.00000000000E+00 -0.00000000000E+00 -0.56143237524E+00  0.56143237524E+00  0.00000000000E+00 0. -1.
          2    1    1    2  501    0  0.17068477675E+01  0.23720656350E+02  0.10428757329E+04  0.10431468626E+04  0.00000000000E+00 0.  1.
          1    1    1    2  502    0 -0.17068477675E+01 -0.23720656350E+02  0.33159224427E+03  0.33244397923E+03  0.00000000000E+00 0. -1.
</event>
<event>
 4    1  0.3752836E+003  0.2610336E+02  0.7546771E-02  0.1456829E+00
          2   -1    0    0  502    0  0.00000000000E+00  0.00000000000E+00  0.87516076253E+01  0.87516076253E+01  0.00000000000E+00 0.  1.
          1   -1    0    0  501    0 -0.00000000000E+00 -0.00000000000E+00 -0.18567057086E+03  0.18567057086E+03  0.00000000000E+00 0.  1.
          2    1    1    2  501    0 -0.19075128606E+01 -0.26033569823E+02 -0.14383339956E+02  0.29803788875E+02  0.00000000000E+00 0.  1.
          1    1    1    2  502    0  0.19075128606E+01  0.26033569823E+02 -0.16253562328E+03  0.16461838961E+03  0.00000000000E+00 0.  1.
</event>
<event>
 4    1  0.3752836E+003  0.2350965E+02  0.7546771E-02  0.1486196E+00
          2   -1    0    0  502    0  0.00000000000E+00  0.00000000000E+00  0.20013067454E+04  0.20013067454E+04  0.00000000000E+00 0. -1.
          1   -1    0    0  501    0 -0.00000000000E+00 -0.00000000000E+00 -0.28594392010E+00  0.28594392010E+00  0.00000000000E+00 0. -1.
          2    1    1    2  501    0 -0.97116174336E+01  0.21409997458E+02  0.11855269502E+04  0.11857600319E+04  0.00000000000E+00 0. -1.
          1    1    1    2  502    0  0.97116174336E+01 -0.21409997458E+02  0.81549385130E+03  0.81583265748E+03  0.00000000000E+00 0. -1.
</event>
<event>
 4    1  0.3752836E+003  0.2720901E+02  0.7546771E-02  0.1445520E+00
          2   -1    0    0  502    0  0.00000000000E+00  0.00000000000E+00  0.31006927715E+02  0.31006927715E+02  0.00000000000E+00 0. -1.
          1   -1    0    0  501    0 -0.00000000000E+00 -0.00000000000E+00 -0.23482474835E+03  0.23482474835E+03  0.00000000000E+00 0. -1.
          2    1    1    2  501    0  0.40418386889E+01 -0.26907131094E+02  0.24068590011E+02  0.36326673242E+02  0.00000000000E+00 0. -1.
          1    1    1    2  502    0 -0.40418386889E+01  0.26907131094E+02 -0.22788641064E+03  0.22950500282E+03  0.00000000000E+00 0. -1.
</event>
<event>
 4    1  0.3752836E+003  0.2386888E+02  0.7546771E-02  0.1481867E+00
          2   -1    0    0  502    0  0.00000000000E+00  0.00000000000E+00  0.76360388052E+00  0.76360388052E+00  0.00000000000E+00 0.  1.
          1   -1    0    0  501    0 -0.00000000000E+00 -0.00000000000E+00 -0.13123793350E+04  0.13123793350E+04  0.00000000000E+00 0.  1.
          2    1    1    2  501    0  0.23757057938E+02  0.23077426998E+01 -0.22451888347E+03  0.22578408384E+03  0.00000000000E+00 0.  1.
          1    1    1    2  502    0 -0.23757057938E+02 -0.23077426998E+01 -0.10870968477E+04  0.10873588551E+04  0.00000000000E+00 0.  1.
</event>
<event>
 4    1  0.3752836E+003  0.2895388E+02  0.7546771E-02  0.1428910E+00
          2   -1    0    0  502    0  0.00000000000E+00  0.00000000000E+00  0.16138153304E+02  0.16138153304E+02  0.00000000000E+00 0. -1.
          1   -1    0    0  501    0 -0.00000000000E+00 -0.00000000000E+00 -0.71155490761E+02  0.71155490761E+02  0.00000000000E+00 0.  1.
          2    1    1    2  501    0  0.28455432437E+02  0.53493346354E+01 -0.48311160531E+01  0.29354159816E+02  0.00000000000E+00 0. -1.
          1    1    1    2  502    0 -0.28455432437E+02 -0.53493346354E+01 -0.50186221403E+02  0.57939484248E+02  0.00000000000E+00 0.  1.
</event>
<event>
 4    1  0.3752836E+003  0.2739954E+02  0.7546771E-02  0.1443635E+00
          2   -1    0    0  502    0  0.00000000000E+00  0.00000000000E+00  0.16003042444E+01  0.16003042444E+01  0.00000000000E+00 0. -1.
          1   -1    0    0  501    0 -0.00000000000E+00 -0.00000000000E+00 -0.59375605941E+03  0.59375605941E+03  0.00000000000E+00 0.  1.
          2    1    1    2  501    0  0.22040912960E+02 -0.16276761167E+02 -0.15969345969E+03  0.16202696030E+03  0.00000000000E+00 0. -1.
          1    1    1    2  502    0 -0.22040912960E+02  0.16276761167E+02 -0.43246229548E+03  0.43332940335E+03  0.00000000000E+00 0.  1.
</event>
<event>
 4    1  0.3752836E+003  0.4755696E+02  0.7546771E-02  0.1309127E+00
          2   -1    0    0  502    0  0.00000000000E+00  0.00000000000E+00  0.86724318458E+03  0.86724318458E+03  0.00000000000E+00 0.  1.
          1   -1    0    0  501    0 -0.00000000000E+00 -0.00000000000E+00 -0.31366862060E+03  0.31366862060E+03  0.00000000000E+00 0.  1.
          2    1    1    2  501    0 -0.40403573706E+01  0.47385017829E+02  0.86478350131E+03  0.86609016190E+03  0.00000000000E+00 0.  1.
          1    1    1    2  502    0  0.40403573706E+01 -0.47385017829E+02 -0.31120893733E+03  0.31482164328E+03  0.00000000000E+00 0.  1.
</event>
<event>
 4    1  0.3752836E+003  0.2203642E+02  0.7546771E-02  0.1504966E+00
          2   -1    0    0  502    0  0.00000000000E+00  0.00000000000E+00  0.10330762285E+04  0.10330762285E+04  0.00000000000E+00 0. -1.
          1   -1    0    0  501    0 -0.00000000000E+00 -0.00000000000E+00 -0.24289693856E+02  0.24289693856E+02  0.00000000000E+00 0.  1.
          2    1    1    2  501    0 -0.21892626428E+02  0.25132956842E+01  0.10279356798E+04  0.10281718560E+04  0.00000000000E+00 0. -1.
          1    1    1    2  502    0  0.21892626428E+02 -0.25132956842E+01 -0.19149145163E+02  0.29194066308E+02  0.00000000000E+00 0.  1.
</event>
<event>
 4    1  0.3752836E+003  0.3295686E+02  0.7546771E-02  0.1395526E+00
          2   -1    0    0  502    0  0.00000000000E+00  0.00000000000E+00  0.33760104177E+02  0.33760104177E+02  0.00000000000E+00 0. -1.
          1   -1    0    0  501    0 -0.00000000000E+00 -0.00000000000E+00 -0.37240902532E+03  0.37240902532E+03  0.00000000000E+00 0.  1.
          2    1    1    2  501    0 -0.32095922940E+02  0.74837249046E+01  0.24789666846E+02  0.41239325772E+02  0.00000000000E+00 0. -1.
          1    1    1    2  502    0  0.32095922940E+02 -0.74837249046E+01 -0.36343858799E+03  0.36492980372E+03  0.00000000000E+00 0.  1.
</event>
<event>
 4    1  0.3752836E+003  0.3400377E+02  0.7546771E-02  0.1387706E+00
          2   -1    0    0  502    0  0.00000000000E+00  0.00000000000E+00  0.51220196312E+01  0.51220196312E+01  0.00000000000E+00 0. -1.
          1   -1    0    0  501    0 -0.00000000000E+00 -0.00000000000E+00 -0.22740856489E+03  0.22740856489E+03  0.00000000000E+00 0. -1.
          2    1    1    2  501    0 -0.10969356091E+02  0.32185837865E+02 -0.12109637317E+03  0.12577991306E+03  0.00000000000E+00 0. -1.
          1    1    1    2  502    0  0.10969356091E+02 -0.32185837865E+02 -0.10119017209E+03  0.10675067147E+03  0.00000000000E+00 0. -1.
</event>
<event>
 4    1  0.3752836E+003  0.2340017E+02  0.7546771E-02  0.1487533E+00
          2   -1    0    0  502    0  0.00000000000E+00  0.00000000000E+00  0.50285219675E+03  0.50285219675E+03  0.00000000000E+00 0. -1.
          1   -1    0    0  501    0 -0.00000000000E+00 -0.00000000000E+00 -0.40842300145E+01  0.40842300145E+01  0.00000000000E+00 0. -1.
          2    1    1    2  501    0 -0.86522460451E+01 -0.21741811489E+02  0.46644859254E+03  0.46703517770E+03  0.00000000000E+00 0. -1.
          1    1    1    2  502    0  0.86522460451E+01  0.21741811489E+02  0.32319374199E+02  0.39901249066E+02  0.00000000000E+00 0. -1.
</event>
<event>
 4    1  0.3752836E+003  0.3333613E+02  0.7546771E-02  0.1392654E+00
          2   -1    0    0  502    0  0.00000000000E+00  0.00000000000E+00  0.47867870569E+03  0.47867870569E+03  0.00000000000E+00 0. -1.
          1   -1    0    0  501    0 -0.00000000000E+00 -0.00000000000E+00 -0.39736849370E+03  0.39736849370E+03  0.00000000000E+00 0. -1.
          2    1    1    2  501    0 -0.12949433181E+02  0.30718227653E+02  0.47739727249E+03  0.47855976963E+03  0.00000000000E+00 0. -1.
          1    1    1    2  502    0  0.12949433181E+02 -0.30718227653E+02 -0.39608706049E+03  0.39748742976E+03  0.00000000000E+00 0. -1.
</event>
<event>
 4    1  0.3752836E+003  0.2944259E+02  0.7546771E-02  0.1424503E+00
          2   -1    0    0  502    0  0.00000000000E+00  0.00000000000E+00  0.29391358829E+03  0.29391358829E+03  0.00000000000E+00 0. -1.
          1   -1    0    0  501    0 -0.00000000000E+00 -0.00000000000E+00 -0.63848805356E+01  0.63848805356E+01  0.00000000000E+00 0. -1.
          2    1    1    2  501    0 -0.18337879134E+02  0.23034498776E+02  0.25390334168E+03  0.25560471995E+03  0.00000000000E+00 0. -1.
          1    1    1    2  502    0  0.18337879134E+02 -0.23034498776E+02  0.33625366081E+02  0.44693748881E+02  0.00000000000E+00 0. -1.
</event>
<event>
 4    1  0.3752836E+003  0.3940770E+02  0.7546771E-02  0.1351992E+00
          2   -1    0    0  502    0  0.00000000000E+00  0.00000000000E+00  0.16312440554E+03  0.16312440554E+03  0.00000000000E+00 0.  1.
          1   -1    0    0  501    0 -0.00000000000E+00 -0.00000000000E+00 -0.11465412037E+02  0.11465412037E+02  0.00000000000E+00 0.  1.
          2    1    1    2  501    0 -0.39336436716E+02 -0.23688041433E+01  0.11178660251E+03  0.11852936761E+03  0.00000000000E+00 0.  1.
          1    1    1    2  502    0  0.39336436716E+02  0.23688041433E+01  0.39872390995E+02  0.56060449964E+02  0.00000000000E+00 0.  1.
</event>
<event>
 4    1  0.3752836E+003  0.2403502E+02  0.7546771E-02  0.1479895E+00
          2   -1    0    0  502    0  0.00000000000E+00  0.00000000000E+00  0.16493778020E+01  0.16493778020E+01  0.00000000000E+00 0.  1.
          1   -1    0    0  501    0 -0.00000000000E+00 -0.00000000000E+00 -0.11787411015E+04  0.11787411015E+04  0.00000000000E+00 0.  1.
          2    1    1    2  501    0 -0.22228369780E+02  0.91422955296E+01 -0.93742761076E+02  0.96774930870E+02  0.00000000000E+00 0.  1.
          1    1    1    2  502    0  0.22228369780E+02 -0.91422955296E+01 -0.10833489627E+04  0.10836155485E+04  0.00000000000E+00 0.  1.
</event>
<event>
 4    1  0.3752836E+003  0.2977364E+02  0.7546771E-02  0.1421574E+00
          2   -1    0    0  502    0  0.00000000000E+00  0.00000000000E+00  0.11642815870E+02  0.11642815870E+02  0.00000000000E+00 0. -1.
          1   -1    0    0  501    0 -0.00000000000E+00 -0.00000000000E+00 -0.79549874801E+03  0.79549874801E+03  0.00000000000E+00 0. -1.
          2    1    1    2  501    0 -0.40670910373E+01  0.29494549959E+02 -0.81561287727E+01  0.30870570830E+02  0.00000000000E+00 0. -1.
          1    1    1    2  502    0  0.40670910373E+01 -0.29494549959E+02 -0.77569980337E+03  0.77627099305E+03  0.00000000000E+00 0. -1.
</event>
<event>
 4    1  0.3752836E+003  0.2173955E+02  0.7546771E-02  0.1508963E+00
          2   -1    0    0  502    0  0.00000000000E+00  0.00000000000E+00  0.44339558170E+03  0.44339558170E+03  0.00000000000E+00 0. -1.
          1   -1    0    0  501    0 -0.00000000000E+00 -0.00000000000E+00 -0.89288181282E+01  0.89288181282E+01  0.00000000000E+00 0.  1.
          2    1    1    2  501    0  0.19196197534E+02  0.10203638996E+02  0.42946757303E+03  0.43001744677E+03  0.00000000000E+00 0. -1.
          1    1    1    2  502    0 -0.19196197534E+02 -0.10203638996E+02  0.49991905471E+01  0.22306953056E+02  0.00000000000E+00 0.  1.
</event>
<event>
 4    1  0.3752836E+003  0.2471852E+02  0.7546771E-02  0.1471977E+00
          2   -1    0    0  502    0  0.00000000000E+00  0.00000000000E+00  0.96084490548E+01  0.96084490548E+01  0.00000000000E+00 0.  1.
          1   -1    0    0  501    0 -0.00000000000E+00 -0.00000000000E+00 -0.25620542995E+03  0.25620542995E+03  0.00000000000E+00 0.  1.
          2    1    1    2  501    0  0.24179840162E+02  0.51323260582E+01 -0.80597398655E+01  0.25999323986E+02  0.00000000000E+00 0.  1.
          1    1    1    2  502    0 -0.24179840162E+02 -0.51323260582E+01 -0.23853724103E+03  0.23981455502E+03  0.00000000000E+00 0.  1.
</event>
<event>
 4    1  0.3752836E+003  0.3610795E+02  0.7546771E-02  0.1372937E+00
          2   -1    0    0  502    0  0.00000000000E+00  0.00000000000E+00  0.85549234788E+02  0.85549234788E+02  0.00000000000E+00 0.  1.
          1   -1    0    0  501    0 -0.00000000000E+00 -0.00000000000E+00 -0.81512937589E+03  0.81512937589E+03  0.00000000000E+00 0. -1.
          2    1    1    2  501    0  0.34952666959E+02  0.90606272128E+01  0.81319461048E+02  0.88975494594E+02  0.00000000000E+00 0.  1.
          1    1    1    2  502    0 -0.34952666959E+02 -0.90606272128E+01 -0.81089960215E+03  0.81170311608E+03  0.00000000000E+00 0. -1.
</event>
<event>
 4    1  0.3752836E+003  0.2131535E+02  0.7546771E-02  0.1514810E+00
          2   -1    0    0  502    0  0.00000000000E+00  0.00000000000E+00  0.52423121823E+02  0.52423121823E+02  0.00000000000E+00 0.  1.
          1   -1    0    0  501    0 -0.00000000000E+00 -0.00000000000E+00 -0.16514704330E+02  0.16514704330E+02  0.00000000000E+00 0.  1.
          2    1    1    2  501    0  0.13173886640E+02 -0.16756878163E+02  0.41715342970E+02  0.46845641143E+02  0.00000000000E+00 0.  1.
          1    1    1    2  502    0 -0.13173886640E+02  0.16756878163E+02 -0.58069254772E+01  0.22092185009E+02  0.00000000000E+00 0.  1.
</event>
<event>
 4    1  0.3752836E+003  0.3528602E+02  0.7546771E-02  0.1378563E+00
          2   -1    0    0  502    0  0.00000000000E+00  0.00000000000E+00  0.21006372884E+04  0.21006372884E+04  0.00000000000E+00 0.  1.
          1   -1    0    0  501    0 -0.00000000000E+00 -0.00000000000E+00 -0.17228228142E+01  0.17228228142E+01  0.00000000000E+00 0.  1.
          2    1    1    2  501    0  0.33022896653E+02  0.12433442181E+02  0.19809448324E+03  0.20121263996E+03  0.00000000000E+00 0.  1.
          1    1    1    2  502    0 -0.33022896653E+02 -0.12433442181E+02  0.19008199823E+04  0.19011474712E+04  0.00000000000E+00 0.  1.
</event>
<event>
 4    1  0.3752836E+003  0.2009698E+02  0.7546771E-02  0.1532558E+00
          2   -1    0    0  502    0  0.00000000000E+00  0.00000000000E+00  0.48274639281E+01  0.48274639281E+01  0.00000000000E+00 0. -1.
          1   -1    0    0  501    0 -0.00000000000E+00 -0.00000000000E+00 -0.12658214105E+03  0.12658214105E+03  0.00000000000E+00 0. -1.
          2    1    1    2  501    0  0.11815230394E+02  0.16256960034E+02 -0.22618859320E+02  0.30257250630E+02  0.00000000000E+00 0. -1.
          1    1    1    2  502    0 -0.11815230394E+02 -0.16256960034E+02 -0.99135817806E+02  0.10115235435E+03  0.00000000000E+00 0. -1.
</event>
<event>
 4    1  0.3752836E+003  0.2218684E+02  0.7546771E-02  0.1502969E+00
          2   -1    0    0  502    0  0.00000000000E+00  0.00000000000E+00  0.87952883837E+00  0.87952883837E+00  0.00000000000E+00 0. -1.
          1   -1    0    0  501    0 -0.00000000000E+00 -0.00000000000E+00 -0.62955171970E+03  0.62955171970E+03  0.00000000000E+00 0. -1.
          2    1    1    2  501    0  0.21866237880E+02 -0.37580540012E+01 -0.41934848079E+03  0.41993499934E+03  0.00000000000E+00 0. -1.
          1    1    1    2  502    0 -0.21866237880E+02  0.37580540012E+01 -0.20932371008E+03  0.21049624921E+03  0.00000000000E+00 0. -1.
</event>
<event>
 4    1  0.3752836E+003  0.3120637E+02  0.7546771E-02  0.1409395E+00
          2   -1    0    0  502    0  0.00000000000E+00  0.00000000000E+00  0.57338273431E+02  0.57338273431E+02  0.00000000000E+00 0.  1.
          1   -1    0    0  501    0 -0.00000000000E+00 -0.00000000000E+00 -0.17732483342E+03  0.17732483342E+03  0.00000000000E+00 0.  1.
          2    1    1    2  501    0 -0.16669813916E+02  0.26380954995E+02  0.51577895398E+02  0.60283636056E+02  0.00000000000E+00 0.  1.
          1    1    1    2  502    0  0.16669813916E+02 -0.26380954995E+02 -0.17156445539E+03  0.17437947079E+03  0.00000000000E+00 0.  1.
</event>
<event>
 4    1  0.3752836E+003  0.3625771E+02  0.7546771E-02  0.1371930E+00
          2   -1    0    0  502    0  0.00000000000E+00  0.00000000000E+00  0.33660467179E+03  0.33660467179E+03  0.00000000000E+00 0.  1.
          1   -1    0    0  501    0 -0.00000000000E+00 -0.00000000000E+00 -0.75716518526E+01  0.75716518526E+01  0.00000000000E+00 0.  1.
          2    1    1    2  501    0  0.23981969049E+02  0.27193499220E+02  0.28426191144E+03  0.28656492377E+03  0.00000000000E+00 0.  1.
          1    1    1    2  502    0 -0.23981969049E+02 -0.27193499220E+02  0.44771108496E+02  0.57611399872E+02  0.00000000000E+00 0.  1.
</event>
<event>
 4    1  0.3752836E+003  0.2357759E+02  0.7546771E-02  0.1485370E+00
          2   -1    0    0  502    0  0.00000000000E+00  0.00000000000E+00  0.78375317110E+01  0.78375317110E+01  0.00000000000E+00 0. -1.
          1   -1    0    0  501    0 -0.00000000000E+00 -0.00000000000E+00 -0.13071790090E+04  0.13071790090E+04  0.00000000000E+00 0. -1.
          2    1    1    2  501    0  0.23204746585E+02 -0.41763952948E+01 -0.10249628880E+02  0.25709092436E+02  0.00000000000E+00 0. -1.
          1    1    1    2  502    0 -0.23204746585E+02  0.41763952948E+01 -0.12890918484E+04  0.12893074483E+04  0.00000000000E+00 0. -1.
</event>
<event>
 4    1  0.3752836E+003  0.2213530E+02  0.7546771E-02  0.1503651E+00
          2   -1    0    0  502    0  0.00000000000E+00  0.00000000000E+00  0.11217353173E+04  0.11217353173E+04  0.00000000000E+00 0. -1.
          1   -1    0    0  501    0 -0.00000000000E+00 -0.00000000000E+00 -0.24193939692E+03  0.24193939692E+03  0.00000000000E+00 0.  1.
          2    1    1    2  501    0  0.10604174781E+02  0.19429947858E+02  0.11211195442E+04  0.11213380417E+04  0.00000000000E+00 0. -1.
          1    1    1    2  502    0 -0.10604174781E+02 -0.19429947858E+02 -0.24132362386E+03  0.24233667248E+03  0.00000000000E+00 0.  1.
</event>
<event>
 4    1  0.3752836E+003  0.2011669E+02  0.7546771E-02  0.1532259E+00
          2   -1    0    0  502    0  0.00000000000E+00  0.00000000000E+00  0.24700760040E+03  0.24700760040E+03  0.00000000000E+00 0.  1.
          1   -1    0    0  501    0 -0.00000000000E+00 -0.00000000000E+00 -0.24331839816E+01  0.24331839816E+01  0.00000000000E+00 0. -1.
          2    1    1    2  501    0 -0.18685305406E+02  0.74525517764E+01  0.19357125371E+03  0.19461374933E+03  0.00000000000E+00 0.  1.
          1    1    1    2  502    0  0.18685305406E+02 -0.74525517764E+01  0.51003162707E+02  0.54827035049E+02  0.00000000000E+00 0. -1.
</event>
<event>
 4    1  0.3752836E+003  0.9029749E+02  0.7546771E-02  0.1181773E+00
          2   -1    0    0  502    0  0.00000000000E+00  0.00000000000E+00  0.56780375751E+03  0.56780375751E+03  0.00000000000E+00 0.  1.
          1   -1    0    0  501    0 -0.00000000000E+00 -0.00000000000E+00 -0.56127569588E+02  0.56127569588E+02  0.00000000000E+00 0. -1.
          2    1    1    2  501    0  0.71442974104E+02 -0.55222628399E+02  0.52495346645E+03  0.53266291328E+03  0.00000000000E+00 0.  1.
          1    1    1    2  502    0 -0.71442974104E+02  0.55222628399E+02 -0.13277278534E+02  0.91268413821E+02  0.00000000000E+00 0. -1.
</event>
<event>
 4    1  0.3752836E+003  0.2175162E+02  0.7546771E-02  0.1508799E+00
          2   -1    0    0  502    0  0.00000000000E+00  0.00000000000E+00  0.31398494706E+03  0.31398494706E+03  0.00000000000E+00 0. -1.
          1   -1    0    0  501    0 -0.00000000000E+00 -0.00000000000E+00 -0.26550255327E+02  0.26550255327E+02  0.00000000000E+00 0.  1.
          2    1    1    2  501    0  0.11516346378E+02  0.18452824391E+02  0.30908258637E+03  0.30984702381E+03  0.00000000000E+00 0. -1.
          1    1    1    2  502    0 -0.11516346378E+02 -0.18452824391E+02 -0.21647894644E+02  0.30688178578E+02  0.00000000000E+00 0.  1.
</event>
<event>
 4    1  0.3752836E+003  0.2745299E+02  0.7546771E-02  0.1443110E+00
          2   -1    0    0  502    0  0.00000000000E+00  0.00000000000E+00  0.37024085123E+04  0.37024085123E+04  0.00000000000E+00 0.  1.
          1   -1    0    0  501    0 -0.00000000000E+00 -0.00000000000E+00 -0.20551534276E+00  0.20551534276E+00  0.00000000000E+00 0. -1.
          2    1    1    2  501    0 -0.10775854602E+02 -0.25249709978E+02  0.20316230933E+04  0.20318085688E+04  0.00000000000E+00 0.  1.
          1    1    1    2  502    0  0.10775854602E+02  0.25249709978E+02  0.16705799037E+04  0.16708054589E+04  0.00000000000E+00 0. -1.
</event>
<event>
 4    1  0.3752836E+003  0.3770113E+02  0.7546771E-02  0.1362510E+00
          2   -1    0    0  502    0  0.00000000000E+00  0.00000000000E+00  0.10628717009E+02  0.10628717009E+02  0.00000000000E+00 0.  1.
          1   -1    0    0  501    0 -0.00000000000E+00 -0.00000000000E+00 -0.14196826677E+03  0.14196826677E+03  0.00000000000E+00 0.  1.
          2    1    1    2  501    0  0.25977689658E+02  0.27322788319E+02 -0.47289746182E+02  0.60478882392E+02  0.00000000000E+00 0.  1.
          1    1    1    2  502    0 -0.25977689658E+02 -0.27322788319E+02 -0.84049803583E+02  0.92118101390E+02  0.00000000000E+00 0.  1.
</event>
<event>
 4    1  0.3752836E+003  0.2499092E+02  0.7546771E-02  0.1468905E+00
          2   -1    0    0  502    0  0.00000000000E+00  0.00000000000E+00  0.24262132104E+03  0.24262132104E+03  0.00000000000E+00 0. -1.
          1   -1    0    0  501    0 -0.00000000000E+00 -0.00000000000E+00 -0.80160939649E+02  0.80160939649E+02  0.00000000000E+00 0. -1.
          2    1    1    2  501    0  0.34316049032E+01 -0.24754197809E+02  0.24000884810E+03  0.24130643047E+03  0.00000000000E+00 0. -1.
          1    1    1    2  502    0 -0.34316049032E+01  0.24754197809E+02 -0.77548466706E+02  0.81475830219E+02  0.00000000000E+00 0. -1.
</event>
<event>
 4    1  0.3752836E+003  0.2863855E+02  0.7546771E-02  0.1431808E+00
          2   -1    0    0  502    0  0.00000000000E+00  0.00000000000E+00  0.73630429023E+03  0.73630429023E+03  0.00000000000E+00 0.  1.
          1   -1    0    0  501    0 -0.00000000000E+00 -0.00000000000E+00 -0.34329088641E+02  0.34329088641E+02  0.00000000000E+00 0. -1.
          2    1    1    2  501    0  0.28585183470E+02 -0.17475555230E+01  0.73000144066E+03  0.73056298156E+03  0.00000000000E+00 0.  1.
          1    1    1    2  502    0 -0.28585183470E+02  0.17475555230E+01 -0.28026239069E+02  0.40070397311E+02  0.00000000000E+00 0. -1.
</event>
<event>
 4    1  0.3752836E+003  0.3765931E+02  0.7546771E-02  0.1362776E+00
          2   -1    0    0  502    0  0.00000000000E+00  0.00000000000E+00  0.38087577447E+03  0.38087577447E+03  0.00000000000E+00 0.  1.
          1   -1    0    0  501    0 -0.00000000000E+00 -0.00000000000E+00 -0.56564192341E+01  0.56564192341E+01  0.00000000000E+00 0.  1.
          2    1    1    2  501    0 -0.19904551419E+02  0.31969238345E+02  0.30058463117E+03  0.30293455376E+03  0.00000000000E+00 0.  1.
          1    1    1    2  502    0  0.19904551419E+02 -0.31969238345E+02  0.74634724070E+02  0.83597639945E+02  0.00000000000E+00 0.  1.
</event>
<event>
 4    1  0.3752836E+003  0.2530658E+02  0.7546771E-02  0.1465403E+00
          2   -1    0    0  502    0  0.00000000000E+00  0.00000000000E+00  0.55462968059E+03  0.55462968059E+03  0.00000000000E+00 0.  1.
          1   -1    0    0  501    0 -0.00000000000E+00 -0.00000000000E+00 -0.14809342873E+01  0.14809342873E+01  0.00000000000E+00 0. -1.
          2    1    1    2  501    0 -0.19307120758E+02  0.16360252001E+02  0.40708259097E+03  0.40786843299E+03  0.00000000000E+00 0.  1.
          1    1    1    2  502    0  0.19307120758E+02 -0.16360252001E+02  0.14606615533E+03  0.14824218189E+03  0.00000000000E+00 0. -1.
</event>
<event>
 4    1  0.3752836E+003  0.3912760E+02  0.7546771E-02  0.1353675E+00
          2   -1    0    0  502    0  0.00000000000E+00  0.00000000000E+00  0.10758904775E+04  0.10758904775E+04  0.00000000000E+00 0. -1.
          1   -1    0    0  501    0 -0.00000000000E+00 -0.00000000000E+00 -0.39811608397E+03  0.39811608397E+03  0.00000000000E+00 0.  1.
          2    1    1    2  501    0  0.34492359704E+02 -0.18472846795E+02  0.10745721704E+04  0.10752842965E+04  0.00000000000E+00 0. -1.
          1    1    1    2  502    0 -0.34492359704E+02  0.18472846795E+02 -0.39679777680E+03  0.39872226502E+03  0.00000000000E+00 0.  1.
</event>
<event>
 4    1  0.3752836E+003  0.2548900E+02  0.7546771E-02  0.1463407E+00
          2   -1    0    0  502    0  0.00000000000E+00  0.00000000000E+00  0.11242427406E+03  0.11242427406E+03  0.00000000000E+00 0. -1.
          1   -1    0    0  501    0 -0.00000000000E+00 -0.00000000000E+00 -0.33298786449E+02  0.33298786449E+02  0.00000000000E+00 0.  1.
          2    1    1    2  501    0 -0.22182856911E+02  0.12554273343E+02  0.10580077022E+03  0.10882780848E+03  0.00000000000E+00 0. -1.
          1    1    1    2  502    0  0.22182856911E+02 -0.12554273343E+02 -0.26675282608E+02  0.36895252027E+02  0.00000000000E+00 0.  1.
</event>
<event>
 4    1  0.3752836E+003  0.2512544E+02  0.7546771E-02  0.1467405E+00
          2   -1    0    0  502    0  0.00000000000E+00  0.00000000000E+00  0.13419493424E+03  0.13419493424E+03  0.00000000000E+00 0.  1.
          1   -1    0    0  501    0 -0.00000000000E+00 -0.00000000000E+00 -0.38608449673E+02  0.38608449673E+02  0.00000000000E+00 0. -1.
          2    1    1    2  501    0 -0.24914471777E+02 -0.32491321142E+01  0.12876018763E+03  0.13118869494E+03  0.00000000000E+00 0.  1.
          1    1    1    2  502    0  0.24914471777E+02  0.32491321142E+01 -0.33173703059E+02  0.41614688970E+02  0.00000000000E+00 0. -1.
</event>
<event>
 4    1  0.3752836E+003  0.2794050E+02  0.7546771E-02  0.1438383E+00
          2   -1    0    0  502    0  0.00000000000E+00  0.00000000000E+00  0.24487679166E+03  0.24487679166E+03  0.00000000000E+00 0. -1.
          1   -1    0    0  501    0 -0.00000000000E+00 -0.00000000000E+00 -0.10924801050E+02  0.10924801050E+02  0.00000000000E+00 0. -1.
          2    1    1    2  501    0 -0.10149352020E+02  0.26031943025E+02  0.22460930979E+03  0.22634048124E+03  0.00000000000E+00 0. -1.
          1    1    1    2  502    0  0.10149352020E+02 -0.26031943025E+02  0.93426808207E+01  0.29461111469E+02  0.00000000000E+00 0. -1.
</event>
<event>
 4    1  0.3752836E+003  0.2035919E+02  0.7546771E-02  0.1528614E+00
          2   -1    0    0  502    0  0.00000000000E+00  0.00000000000E+00  0.23520886918E+03  0.23520886918E+03  0.00000000000E+00 0.  1.
          1   -1    0    0  501    0 -0.00000000000E+00 -0.00000000000E+00 -0.26307473457E+02  0.26307473457E+02  0.00000000000E+00 0. -1.
          2    1    1    2  501    0  0.20109207218E+02 -0.31806578201E+01  0.23075343550E+03  0.23164983228E+03  0.00000000000E+00 0.  1.
          1    1    1    2  502    0 -0.20109207218E+02  0.31806578201E+01 -0.21852039772E+02  0.29866510364E+02  0.00000000000E+00 0. -1.
</event>
<event>
 4    1  0.3752836E+003  0.2210544E+02  0.7546771E-02  0.1504047E+00
          2   -1    0    0  502    0  0.00000000000E+00  0.00000000000E+00  0.81935910910E+02  0.81935910910E+02  0.00000000000E+00 0.  1.
          1   -1    0    0  501    0 -0.00000000000E+00 -0.00000000000E+00 -0.12201003801E+03  0.12201003801E+03  0.00000000000E+00 0. -1.
          2    1    1    2  501    0  0.65005510339E+01  0.21128018257E+02  0.79412485451E+02  0.82431748523E+02  0.00000000000E+00 0.  1.
          1    1    1    2  502    0 -0.65005510339E+01 -0.21128018257E+02 -0.11948661255E+03  0.12151420040E+03  0.00000000000E+00 0. -1.
</event>
<event>
 4    1  0.3752836E+003  0.5290527E+02  0.7546771E-02  0.1286045E+00
          2   -1    0    0  502    0  0.00000000000E+00  0.00000000000E+00  0.74614720412E+03  0.74614720412E+03  0.00000000000E+00 0. -1.
          1   -1    0    0  501    0 -0.00000000000E+00 -0.00000000000E+00 -0.24286655494E+03  0.24286655494E+03  0.00000000000E+00 0.  1.
          2    1    1    2  501    0 -0.52176256231E+02  0.87524756178E+01  0.74231335726E+03  0.74419626975E+03  0.00000000000E+00 0. -1.
          1    1    1    2  502    0  0.52176256231E+02 -0.87524756178E+01 -0.23903270808E+03  0.24481748931E+03  0.00000000000E+00 0.  1.
</event>
<event>
 4    1  0.3752836E+003  0.3118036E+02  0.7546771E-02  0.1409609E+00
          2   -1    0    0  502    0  0.00000000000E+00  0.00000000000E+00  0.12475380805E+04  0.12475380805E+04  0.00000000000E+00 0. -1.
          1   -1    0    0  501    0 -0.00000000000E+00 -0.00000000000E+00 -0.29552948652E+02  0.29552948652E+02  0.00000000000E+00 0. -1.
          2    1    1    2  501    0  0.14951760062E+02 -0.27361652522E+02  0.12390626567E+04  0.12394549134E+04  0.00000000000E+00 0. -1.
          1    1    1    2  502    0 -0.14951760062E+02  0.27361652522E+02 -0.21077524821E+02  0.37636115770E+02  0.00000000000E+00 0. -1.
</event>
<event>
 4    1  0.3752836E+003  0.2019809E+02  0.7546771E-02  0.1531029E+00
          2   -1    0    0  502    0  0.00000000000E+00  0.00000000000E+00  0.13099417597E+02  0.13099417597E+02  0.00000000000E+00 0. -1.
          1   -1    0    0  501    0 -0.00000000000E+00 -0.00000000000E+00 -0.31777067424E+02  0.31777067424E+02  0.00000000000E+00 0.  1.
          2    1    1    2  501    0  0.75362382793E+01 -0.18739468258E+02 -0.12506978391E+02  0.23756831995E+02  0.00000000000E+00 0. -1.
          1    1    1    2  502    0 -0.75362382793E+01  0.18739468258E+02 -0.61706714356E+01  0.21119653026E+02  0.00000000000E+00 0.  1.
</event>
<event>
 4    1  0.3752836E+003  0.2645982E+02  0.7546771E-02  0.1453111E+00
          2   -1    0    0  502    0  0.00000000000E+00  0.00000000000E+00  0.12049412113E+03  0.12049412113E+03  0.00000000000E+00 0. -1.
          1   -1    0    0  501    0 -0.00000000000E+00 -0.00000000000E+00 -0.29478484666E+02  0.29478484666E+02  0.00000000000E+00 0.  1.
          2    1    1    2  501    0 -0.13749467538E+02 -0.22606948973E+02  0.11269875503E+03  0.11576325576E+03  0.00000000000E+00 0. -1.
          1    1    1    2  502    0  0.13749467538E+02  0.22606948973E+02 -0.21683118561E+02  0.34209350038E+02  0.00000000000E+00 0.  1.
</event>
<event>
 4    1  0.3752836E+003  0.2048977E+02  0.7546771E-02  0.1526676E+00
          2   -1    0    0  502    0  0.00000000000E+00  0.00000000000E+00  0.17211979105E+04  0.17211979105E+04  0.00000000000E+00 0. -1.
          1   -1    0    0  501    0 -0.00000000000E+00 -0.00000000000E+00 -0.59129468097E+00  0.59129468097E+00  0.00000000000E+00 0.  1.
          2    1    1    2  501    0 -0.20414814702E+02  0.17509507866E+01  0.15201583972E+04  0.15202964787E+04  0.00000000000E+00 0. -1.
          1    1    1    2  502    0  0.20414814702E+02 -0.17509507866E+01  0.20044821859E+03  0.20149272648E+03  0.00000000000E+00 0.  1.
</event>
<event>
 4    1  0.3752836E+003  0.2631480E+02  0.7546771E-02  0.1454615E+00
          2   -1    0    0  502    0  0.00000000000E+00  0.00000000000E+00  0.46105654087E+01  0.46105654087E+01  0.00000000000E+00 0.  1.
          1   -1    0    0  501    0 -0.00000000000E+00 -0.00000000000E+00 -0.17230669315E+03  0.17230669315E+03  0.00000000000E+00 0.  1.
          2    1    1    2  501    0  0.18223773430E+02  0.18983218894E+02 -0.52157290883E+02  0.58419615797E+02  0.00000000000E+00 0.  1.
          1    1    1    2  502    0 -0.18223773430E+02 -0.18983218894E+02 -0.11553883686E+03  0.11849764277E+03  0.00000000000E+00 0.  1.
</event>
<event>
 4    1  0.3752836E+003  0.3926401E+02  0.7546771E-02  0.1352853E+00
          2   -1    0    0  502    0  0.00000000000E+00  0.00000000000E+00  0.22929344928E+03  0.22929344928E+03  0.00000000000E+00 0. -1.
          1   -1    0    0  501    0 -0.00000000000E+00 -0.00000000000E+00 -0.89102106838E+01  0.89102106838E+01  0.00000000000E+00 0.  1.
          2    1    1    2  501    0 -0.25056509650E+02 -0.30229687439E+02  0.16919359739E+03  0.17368976963E+03  0.00000000000E+00 0. -1.
          1    1    1    2  502    0  0.25056509650E+02  0.30229687439E+02  0.51189641212E+02  0.64513890333E+02  0.00000000000E+00 0.  1.
</event>
<event>
 4    1  0.3752836E+003  0.3801823E+02  0.7546771E-02  0.1360507E+00
          2   -1    0    0  502    0  0.00000000000E+00  0.00000000000E+00  0.42697977055E+02  0.42697977055E+02  0.00000000000E+00 0.  1.
          1   -1    0    0  501    0 -0.00000000000E+00 -0.00000000000E+00 -0.56561659521E+02  0.56561659521E+02  0.00000000000E+00 0.  1.
          2    1    1    2  501    0 -0.34833837736E+02 -0.15231199154E+02  0.24516142142E+02  0.45237450244E+02  0.00000000000E+00 0.  1.
          1    1    1    2  502    0  0.34833837736E+02  0.15231199154E+02 -0.38379824609E+02  0.54022186332E+02  0.00000000000E+00 0.  1.
</event>
<event>
 4    1  0.3752836E+003  0.2168586E+02  0.7546771E-02  0.1509694E+00
          2   -1    0    0  502    0  0.00000000000E+00  0.00000000000E+00  0.58421090690E+03  0.58421090690E+03  0.00000000000E+00 0. -1.
          1   -1    0    0  501    0 -0.00000000000E+00 -0.00000000000E+00 -0.13138191594E+02  0.13138191594E+02  0.00000000000E+00 0. -1.
          2    1    1    2  501    0  0.21097335522E+02  0.50178739467E+01  0.57491638748E+03  0.57532523778E+03  0.00000000000E+00 0. -1.
          1    1    1    2  502    0 -0.21097335522E+02 -0.50178739467E+01 -0.38436721778E+01  0.22023860717E+02  0.00000000000E+00 0. -1.
</event>
<event>
 4    1  0.3752836E+003  0.2068517E+02  0.7546771E-02  0.1523808E+00
          2   -1    0    0  502    0  0.00000000000E+00  0.00000000000E+00  0.11758466729E+04  0.11758466729E+04  0.00000000000E+00 0.  1.
          1   -1    0    0  501    0 -0.00000000000E+00 -0.00000000000E+00 -0.16300356676E+02  0.16300356676E+02  0.00000000000E+00 0.  1.
          2    1    1    2  501    0  0.19944084343E+02  0.54872231879E+01  0.11691557750E+04  0.11693387457E+04  0.00000000000E+00 0.  1.
          1    1    1    2  502    0 -0.19944084343E+02 -0.54872231879E+01 -0.96094586847E+01  0.22808283908E+02  0.00000000000E+00 0.  1.
</event>
<event>
 4    1  0.3752836E+003  0.2201426E+02  0.7546771E-02  0.1505261E+00
          2   -1    0    0  502    0  0.00000000000E+00  0.00000000000E+00  0.81421180316E+02  0.81421180316E+02  0.00000000000E+00 0.  1.
          1   -1    0    0  501    0 -0.00000000000E+00 -0.00000000000E+00 -0.15374390561E+02  0.15374390561E+02  0.00000000000E+00 0. -1.
          2    1    1    2  501    0 -0.16328638956E+02 -0.14764926076E+02  0.70911653423E+02  0.74250185746E+02  0.00000000000E+00 0.  1.
          1    1    1    2  502    0  0.16328638956E+02  0.14764926076E+02 -0.48648636685E+01  0.22545385131E+02  0.00000000000E+00 0. -1.
</event>
<event>
 4    1  0.3752836E+003  0.2142876E+02  0.7546771E-02  0.1513230E+00
          2   -1    0    0  502    0  0.00000000000E+00  0.00000000000E+00  0.18927966515E+03  0.18927966515E+03  0.00000000000E+00 0.  1.
          1   -1    0    0  501    0 -0.00000000000E+00 -0.00000000000E+00 -0.14906309514E+02  0.14906309514E+02  0.00000000000E+00 0. -1.
          2    1    1    2  501    0  0.11328102580E+02 -0.18189722845E+02  0.18060317367E+03  0.18187000375E+03  0.00000000000E+00 0.  1.
          1    1    1    2  502    0 -0.11328102580E+02  0.18189722845E+02 -0.62298180287E+01  0.22315970916E+02  0.00000000000E+00 0. -1.
</event>
<event>
 4    1  0.3752836E+003  0.2578876E+02  0.7546771E-02  0.1460170E+00
          2   -1    0    0  502    0  0.00000000000E+00  0.00000000000E+00  0.79744905085E+01  0.79744905085E+01  0.00000000000E+00 0.  1.
          1   -1    0    0  501    0 -0.00000000000E+00 -0.00000000000E+00 -0.56469189386E+03  0.56469189386E+03  0.00000000000E+00 0.  1.
          2    1    1    2  501    0 -0.25704767169E+02  0.20796365700E+01 -0.14013821912E+02  0.29350419896E+02  0.00000000000E+00 0.  1.
          1    1    1    2  502    0  0.25704767169E+02 -0.20796365700E+01 -0.54270358144E+03  0.54331596448E+03  0.00000000000E+00 0.  1.
</event>
<event>
 4    1  0.3752836E+003  0.2508933E+02  0.7546771E-02  0.1467806E+00
          2   -1    0    0  502    0  0.00000000000E+00  0.00000000000E+00  0.15282178969E+01  0.15282178969E+01  0.00000000000E+00 0. -1.
          1   -1    0    0  501    0 -0.00000000000E+00 -0.00000000000E+00 -0.55441156597E+03  0.55441156597E+03  0.00000000000E+00 0.  1.
          2    1    1    2  501    0  0.24296124842E+02 -0.62588189395E+01 -0.13551112856E+03  0.13781415189E+03  0.00000000000E+00 0. -1.
          1    1    1    2  502    0 -0.24296124842E+02  0.62588189395E+01 -0.41737221951E+03  0.41812563198E+03  0.00000000000E+00 0.  1.
</event>
<event>
 4    1  0.3752836E+003  0.2568112E+02  0.7546771E-02  0.1461326E+00
          2   -1    0    0  502    0  0.00000000000E+00  0.00000000000E+00  0.84537711357E+03  0.84537711357E+03  0.00000000000E+00 0. -1.
          1   -1    0    0  501    0 -0.00000000000E+00 -0.00000000000E+00 -0.68440537549E+01  0.68440537549E+01  0.00000000000E+00 0.  1.
          2    1    1    2  501    0  0.11091804892E+02 -0.23162290495E+02  0.82035650980E+03  0.82075838285E+03  0.00000000000E+00 0. -1.
          1    1    1    2  502    0 -0.11091804892E+02  0.23162290495E+02  0.18176550009E+02  0.31462784475E+02  0.00000000000E+00 0.  1.
</event>
<event>
 4    1  0.3752836E+003  0.2255803E+02  0.7546771E-02  0.1498124E+00
          2   -1    0    0  502    0  0.00000000000E+00  0.00000000000E+00  0.14604844918E+03  0.14604844918E+03  0.00000000000E+00 0. -1.
          1   -1    0    0  501    0 -0.00000000000E+00 -0.00000000000E+00 -0.11293975595E+02  0.11293975595E+02  0.00000000000E+00 0.  1.
          2    1    1    2  501    0 -0.19748759734E+02  0.10901893347E+02  0.13279733147E+03  0.13469965121E+03  0.00000000000E+00 0. -1.
          1    1    1    2  502    0  0.19748759734E+02 -0.10901893347E+02  0.19571421139E+01  0.22642773568E+02  0.00000000000E+00 0.  1.
</event>
<event>
 4    1  0.3752836E+003  0.2119313E+02  0.7546771E-02  0.1516525E+00
          2   -1    0    0  502    0  0.00000000000E+00  0.00000000000E+00  0.15050621197E+04  0.15050621197E+04  0.00000000000E+00 0. -1.
          1   -1    0    0  501    0 -0.00000000000E+00 -0.00000000000E+00 -0.39629158081E+01  0.39629158081E+01  0.00000000000E+00 0. -1.
          2    1    1    2  501    0  0.14995552383E+02  0.14976052332E+02  0.14760970555E+04  0.14762491883E+04  0.00000000000E+00 0. -1.
          1    1    1    2  502    0 -0.14995552383E+02 -0.14976052332E+02  0.25002148359E+02  0.32775847163E+02  0.00000000000E+00 0. -1.
</event>
<event>
 4    1  0.3752836E+003  0.2999315E+02  0.7546771E-02  0.1419656E+00
          2   -1    0    0  502    0  0.00000000000E+00  0.00000000000E+00  0.26444290880E+02  0.26444290880E+02  0.00000000000E+00 0.  1.
          1   -1    0    0  501    0 -0.00000000000E+00 -0.00000000000E+00 -0.68546123565E+03  0.68546123565E+03  0.00000000000E+00 0.  1.
          2    1    1    2  501    0 -0.15762453051E+02  0.25517330798E+02  0.17499232216E+02  0.34724807061E+02  0.00000000000E+00 0.  1.
          1    1    1    2  502    0  0.15762453051E+02 -0.25517330798E+02 -0.67651617698E+03  0.67718071947E+03  0.00000000000E+00 0.  1.
</event>
<event>
 4    1  0.3752836E+003  0.4559052E+02  0.7546771E-02  0.1318513E+00
          2   -1    0    0  502    0  0.00000000000E+00  0.00000000000E+00  0.22482415956E+04  0.22482415956E+04  0.00000000000E+00 0.  1.
          1   -1    0    0  501    0 -0.00000000000E+00 -0.00000000000E+00 -0.19455861912E+01  0.19455861912E+01  0.00000000000E+00 0. -1.
          2    1    1    2  501    0 -0.30470808407E+02  0.33912024536E+02  0.19382181246E+04  0.19387542377E+04  0.00000000000E+00 0.  1.
          1    1    1    2  502    0  0.30470808407E+02 -0.33912024536E+02  0.30807788484E+03  0.31143294414E+03  0.00000000000E+00 0. -1.
</event>
<event>
 4    1  0.3752836E+003  0.2486987E+02  0.7546771E-02  0.1470264E+00
          2   -1    0    0  502    0  0.00000000000E+00  0.00000000000E+00  0.78616314460E+01  0.78616314460E+01  0.00000000000E+00 0. -1.
          1   -1    0    0  501    0 -0.00000000000E+00 -0.00000000000E+00 -0.13222352471E+03  0.13222352471E+03  0.00000000000E+00 0. -1.
          2    1    1    2  501    0 -0.16579653907E+01  0.24814542956E+02 -0.17606773140E+02  0.30471443218E+02  0.00000000000E+00 0. -1.
          1    1    1    2  502    0  0.16579653907E+01 -0.24814542956E+02 -0.10675512012E+03  0.10961371293E+03  0.00000000000E+00 0. -1.
</event>
<event>
 4    1  0.3752836E+003  0.2125984E+02  0.7546771E-02  0.1515587E+00
          2   -1    0    0  502    0  0.00000000000E+00  0.00000000000E+00  0.25770861507E+01  0.25770861507E+01  0.00000000000E+00 0. -1.
          1   -1    0    0  501    0 -0.00000000000E+00 -0.00000000000E+00 -0.96476382464E+03  0.96476382464E+03  0.00000000000E+00 0.  1.
          2    1    1    2  501    0  0.69867073750E+01 -0.20079009554E+02 -0.43589441894E+02  0.48497630347E+02  0.00000000000E+00 0. -1.
          1    1    1    2  502    0 -0.69867073750E+01  0.20079009554E+02 -0.91859729660E+03  0.91884328045E+03  0.00000000000E+00 0.  1.
</event>
<event>
 4    1  0.3752836E+003  0.2228300E+02  0.7546771E-02  0.1501703E+00
          2   -1    0    0  502    0  0.00000000000E+00  0.00000000000E+00  0.21510939664E+01  0.21510939664E+01  0.00000000000E+00 0.  1.
          1   -1    0    0  501    0 -0.00000000000E+00 -0.00000000000E+00 -0.32099163107E+03  0.32099163107E+03  0.00000000000E+00 0.  1.
          2    1    1    2  501    0  0.92111648201E+01 -0.20290045756E+02 -0.24505197077E+03  0.24606299985E+03  0.00000000000E+00 0.  1.
          1    1    1    2  502    0 -0.92111648201E+01  0.20290045756E+02 -0.73788566336E+02  0.77079725195E+02  0.00000000000E+00 0.  1.
</event>
<event>
 4    1  0.3752836E+003  0.2036589E+02  0.7546771E-02  0.1528514E+00
          2   -1    0    0  502    0  0.00000000000E+00  0.00000000000E+00  0.29127418587E+02  0.29127418587E+02  0.00000000000E+00 0. -1.
          1   -1    0    0  501    0 -0.00000000000E+00 -0.00000000000E+00 -0.13628245600E+04  0.13628245600E+04  0.00000000000E+00 0. -1.
          2    1    1    2  501    0  0.49703479949E+01 -0.19750062135E+02  0.25481828277E+02  0.32620436629E+02  0.00000000000E+00 0. -1.
          1    1    1    2  502    0 -0.49703479949E+01  0.19750062135E+02 -0.13591789697E+04  0.13593315420E+04  0.00000000000E+00 0. -1.
</event>
<event>
 4    1  0.3752836E+003  0.2014283E+02  0.7546771E-02  0.1531863E+00
          2   -1    0    0  502    0  0.00000000000E+00  0.00000000000E+00  0.73411666102E+03  0.73411666102E+03  0.00000000000E+00 0. -1.
          1   -1    0    0  501    0 -0.00000000000E+00 -0.00000000000E+00 -0.56144322039E+00  0.56144322039E+00  0.00000000000E+00 0.  1.
          2    1    1    2  501    0  0.18814224244E+02  0.71943474142E+01  0.41266317390E+03  0.41315448534E+03  0.00000000000E+00 0. -1.
          1    1    1    2  502    0 -0.18814224244E+02 -0.71943474142E+01  0.32089204391E+03  0.32152361890E+03  0.00000000000E+00 0.  1.
</event>
<event>
 4    1  0.3752836E+003  0.2683234E+02  0.7546771E-02  0.1449300E+00
          2   -1    0    0  502    0  0.00000000000E+00  0.00000000000E+00  0.20567313039E+01  0.20567313039E+01  0.00000000000E+00 0. -1.
          1   -1    0    0  501    0 -0.00000000000E+00 -0.00000000000E+00 -0.67863098638E+03  0.67863098638E+03  0.00000000000E+00 0.  1.
          2    1    1    2  501    0  0.19789161612E+02  0.18120811312E+02 -0.10146778418E+03  0.10495563799E+03  0.00000000000E+00 0. -1.
          1    1    1    2  502    0 -0.19789161612E+02 -0.18120811312E+02 -0.57510647089E+03  0.57573207969E+03  0.00000000000E+00 0.  1.
</event>
<event>
 4    1  0.3752836E+003  0.2268994E+02  0.7546771E-02  0.1496429E+00
          2   -1    0    0  502    0  0.00000000000E+00  0.00000000000E+00  0.99258995637E+03  0.99258995637E+03  0.00000000000E+00 0.  1.
          1   -1    0    0  501    0 -0.00000000000E+00 -0.00000000000E+00 -0.90211618874E+00  0.90211618874E+00  0.00000000000E+00 0.  1.
          2    1    1    2  501    0  0.77715693164E+01 -0.21317505076E+02  0.81969964149E+03  0.82001361914E+03  0.00000000000E+00 0.  1.
          1    1    1    2  502    0 -0.77715693164E+01  0.21317505076E+02  0.17198819869E+03  0.17347845342E+03  0.00000000000E+00 0.  1.
</event>
<event>
 4    1  0.3752836E+003  0.5212936E+02  0.7546771E-02  0.1289195E+00
          2   -1    0    0  502    0  0.00000000000E+00  0.00000000000E+00  0.15334465734E+04  0.15334465734E+04  0.00000000000E+00 0. -1.
          1   -1    0    0  501    0 -0.00000000000E+00 -0.00000000000E+00 -0.27852312006E+01  0.27852312006E+01  0.00000000000E+00 0. -1.
          2    1    1    2  501    0 -0.48917230568E+02  0.18015946882E+02  0.12285877993E+04  0.12296932342E+04  0.00000000000E+00 0. -1.
          1    1    1    2  502    0  0.48917230568E+02 -0.18015946882E+02  0.30207354289E+03  0.30653857034E+03  0.00000000000E+00 0. -1.
</event>
<event>
 4    1  0.3752836E+003  0.3370468E+02  0.7546771E-02  0.1389906E+00
          2   -1    0    0  502    0  0.00000000000E+00  0.00000000000E+00  0.52998693953E+02  0.52998693953E+02  0.00000000000E+00 0.  1.
          1   -1    0    0  501    0 -0.00000000000E+00 -0.00000000000E+00 -0.61255818335E+02  0.61255818335E+02  0.00000000000E+00 0.  1.
          2    1    1    2  501    0  0.33137809930E+02 -0.61555531713E+01  0.41931764882E+02  0.53798496149E+02  0.00000000000E+00 0.  1.
          1    1    1    2  502    0 -0.33137809930E+02  0.61555531713E+01 -0.50188889264E+02  0.60456016138E+02  0.00000000000E+00 0.  1.
</event>
<event>
 4    1  0.3752836E+003  0.2512134E+02  0.7546771E-02  0.1467450E+00
          2   -1    0    0  502    0  0.00000000000E+00  0.00000000000E+00  0.22484594367E+03  0.22484594367E+03  0.00000000000E+00 0. -1.
          1   -1    0    0  501    0 -0.00000000000E+00 -0.00000000000E+00 -0.89173707234E+03  0.89173707234E+03  0.00000000000E+00 0.  1.
          2    1    1    2  501    0 -0.15742175566E+02  0.19577172116E+02  0.22396664400E+03  0.22537111479E+03  0.00000000000E+00 0. -1.
          1    1    1    2  502    0  0.15742175566E+02 -0.19577172116E+02 -0.89085777266E+03  0.89121190122E+03  0.00000000000E+00 0.  1.
</event>
<event>
 4    1  0.3752836E+003  0.3165390E+02  0.7546771E-02  0.1405749E+00
          2   -1    0    0  502    0  0.00000000000E+00  0.00000000000E+00  0.94855548720E+02  0.94855548720E+02  0.00000000000E+00 0. -1.
          1   -1    0    0  501    0 -0.00000000000E+00 -0.00000000000E+00 -0.63086809240E+02  0.63086809240E+02  0.00000000000E+00 0.  1.
          2    1    1    2  501    0  0.29452628948E+02  0.11597921671E+02  0.87941508515E+02  0.93464849323E+02  0.00000000000E+00 0. -1.
          1    1    1    2  502    0 -0.29452628948E+02 -0.11597921671E+02 -0.56172769035E+02  0.64477508637E+02  0.00000000000E+00 0.  1.
</event>
<event>
 4    1  0.3752836E+003  0.2149876E+02  0.7546771E-02  0.1512262E+00
          2   -1    0    0  502    0  0.00000000000E+00  0.00000000000E+00  0.11197397221E+04  0.11197397221E+04  0.00000000000E+00 0. -1.
          1   -1    0    0  501    0 -0.00000000000E+00 -0.00000000000E+00 -0.10910714530E+01  0.10910714530E+01  0.00000000000E+00 0.  1.
          2    1    1    2  501    0  0.10915796271E+02 -0.18521389707E+02  0.10011942076E+04  0.10014250036E+04  0.00000000000E+00 0. -1.
          1    1    1    2  502    0 -0.10915796271E+02  0.18521389707E+02  0.11745444302E+03  0.11940578994E+03  0.00000000000E+00 0.  1.
</event>
<event>
 4    1  0.3752836E+003  0.2598230E+02  0.7546771E-02  0.1458108E+00
          2   -1    0    0  502    0  0.00000000000E+00  0.00000000000E+00  0.11405561573E+04  0.11405561573E+04  0.00000000000E+00 0.  1.
          1   -1    0    0  501    0 -0.00000000000E+00 -0.00000000000E+00 -0.39302276969E+02  0.39302276969E+02  0.00000000000E+00 0. -1.
          2    1    1    2  501    0 -0.25960587514E+02  0.10619668897E+01  0.11360971816E+04  0.11363942476E+04  0.00000000000E+00 0.  1.
          1    1    1    2  502    0  0.25960587514E+02 -0.10619668897E+01 -0.34843301295E+02  0.43464186670E+02  0.00000000000E+00 0. -1.
</event>
<event>
 4    1  0.3752836E+003  0.2554585E+02  0.7546771E-02  0.1462789E+00
          2   -1    0    0  502    0  0.00000000000E+00  0.00000000000E+00  0.23484365854E+03  0.23484365854E+03  0.00000000000E+00 0.  1.
          1   -1    0    0  501    0 -0.00000000000E+00 -0.00000000000E+00 -0.75581511588E+02  0.75581511588E+02  0.00000000000E+00 0.  1.
          2    1    1    2  501    0 -0.24422008449E+02  0.74937359379E+01  0.23196366623E+03  0.23336609228E+03  0.00000000000E+00 0.  1.
          1    1    1    2  502    0  0.24422008449E+02 -0.74937359379E+01 -0.72701519273E+02  0.77059077853E+02  0.00000000000E+00 0.  1.
</event>
<event>
 4    1  0.3752836E+003  0.2457999E+02  0.7546771E-02  0.1473557E+00
          2   -1    0    0  502    0  0.00000000000E+00  0.00000000000E+00  0.90229014612E+02  0.90229014612E+02  0.00000000000E+00 0. -1.
          1   -1    0    0  501    0 -0.00000000000E+00 -0.00000000000E+00 -0.30645147939E+02  0.30645147939E+02  0.00000000000E+00 0. -1.
          2    1    1    2  501    0 -0.21512921248E+02  0.11889909046E+02  0.83219750376E+02  0.86773858796E+02  0.00000000000E+00 0. -1.
          1    1    1    2  502    0  0.21512921248E+02 -0.11889909046E+02 -0.23635883703E+02  0.34100303754E+02  0.00000000000E+00 0. -1.
</event>
<event>
 4    1  0.3752836E+003  0.2394812E+02  0.7546771E-02  0.1480924E+00
          2   -1    0    0  502    0  0.00000000000E+00  0.00000000000E+00  0.23155521608E+03  0.23155521608E+03  0.00000000000E+00 0. -1.
          1   -1    0    0  501    0 -0.00000000000E+00 -0.00000000000E+00 -0.57021693795E+02  0.57021693795E+02  0.00000000000E+00 0. -1.
          2    1    1    2  501    0  0.23946267613E+02  0.29804145216E+00  0.22838678292E+03  0.22963892347E+03  0.00000000000E+00 0. -1.
          1    1    1    2  502    0 -0.23946267613E+02 -0.29804145216E+00 -0.53853260630E+02  0.58937986407E+02  0.00000000000E+00 0. -1.
</event>
<event>
 4    1  0.3752836E+003  0.2506575E+02  0.7546771E-02  0.1468069E+00
          2   -1    0    0  502    0  0.00000000000E+00  0.00000000000E+00  0.13328444645E+03  0.13328444645E+03  0.00000000000E+00 0.  1.
          1   -1    0    0  501    0 -0.00000000000E+00 -0.00000000000E+00 -0.22118570314E+03  0.22118570314E+03  0.00000000000E+00 0.  1.
          2    1    1    2  501    0 -0.11372126308E+02 -0.22337561547E+02  0.13138565503E+03  0.13375530741E+03  0.00000000000E+00 0.  1.
          1    1    1    2  502    0  0.11372126308E+02  0.22337561547E+02 -0.21928691172E+03  0.22071484219E+03  0.00000000000E+00 0.  1.
</event>
<event>
 4    1  0.3752836E+003  0.2487776E+02  0.7546771E-02  0.1470176E+00
          2   -1    0    0  502    0  0.00000000000E+00  0.00000000000E+00  0.25251297966E+02  0.25251297966E+02  0.00000000000E+00 0.  1.
          1   -1    0    0  501    0 -0.00000000000E+00 -0.00000000000E+00 -0.10832632095E+03  0.10832632095E+03  0.00000000000E+00 0.  1.
          2    1    1    2  501    0 -0.24713977615E+02 -0.28499486816E+01  0.17211648381E+02  0.30251342731E+02  0.00000000000E+00 0.  1.
          1    1    1    2  502    0  0.24713977615E+02  0.28499486816E+01 -0.10028667137E+03  0.10332627619E+03  0.00000000000E+00 0.  1.
</event>
<event>
 4    1  0.3752836E+003  0.2275553E+02  0.7546771E-02  0.1495591E+00
          2   -1    0    0  502    0  0.00000000000E+00  0.00000000000E+00  0.23832004584E+03  0.23832004584E+03  0.00000000000E+00 0. -1.
          1   -1    0    0  501    0 -0.00000000000E+00 -0.00000000000E+00 -0.24830386404E+02  0.24830386404E+02  0.00000000000E+00 0. -1.
          2    1    1    2  501    0  0.22830121959E+01 -0.22640717515E+02  0.23243157484E+03  0.23354282523E+03  0.00000000000E+00 0. -1.
          1    1    1    2  502    0 -0.22830121959E+01  0.22640717515E+02 -0.18941915400E+02  0.29607607017E+02  0.00000000000E+00 0. -1.
</event>
<event>
 4    1  0.3752836E+003  0.2252333E+02  0.7546771E-02  0.1498572E+00
          2   -1    0    0  502    0  0.00000000000E+00  0.00000000000E+00  0.21659665005E+03  0.21659665005E+03  0.00000000000E+00 0. -1.
          1   -1    0    0  501    0 -0.00000000000E+00 -0.00000000000E+00 -0.11180868732E+03  0.11180868732E+03  0.00000000000E+00 0.  1.
          2    1    1    2  501    0 -0.13021913316E+02  0.18377437781E+02  0.21486770724E+03  0.21604497694E+03  0.00000000000E+00 0. -1.
          1    1    1    2  502    0  0.13021913316E+02 -0.18377437781E+02 -0.11007974450E+03  0.11236036043E+03  0.00000000000E+00 0.  1.
</event>
<event>
 4    1  0.3752836E+003  0.8051480E+02  0.7546771E-02  0.1202657E+00
          2   -1    0    0  502    0  0.00000000000E+00  0.00000000000E+00  0.44290298091E+02  0.44290298091E+02  0.00000000000E+00 0. -1.
          1   -1    0    0  501    0 -0.00000000000E+00 -0.00000000000E+00 -0.30566215785E+03  0.30566215785E+03  0.00000000000E+00 0. -1.
          2    1    1    2  501    0  0.40691129888E+02  0.69475643680E+02 -0.43695553819E+01  0.80633281779E+02  0.00000000000E+00 0. -1.
          1    1    1    2  502    0 -0.40691129888E+02 -0.69475643680E+02 -0.25700230438E+03  0.26931917417E+03  0.00000000000E+00 0. -1.
</event>
<event>
 4    1  0.3752836E+003  0.2426330E+02  0.7546771E-02  0.1477216E+00
          2   -1    0    0  502    0  0.00000000000E+00  0.00000000000E+00  0.81505703579E+03  0.81505703579E+03  0.00000000000E+00 0.  1.
          1   -1    0    0  501    0 -0.00000000000E+00 -0.00000000000E+00 -0.21560838057E+01  0.21560838057E+01  0.00000000000E+00 0.  1.
          2    1    1    2  501    0 -0.97152051397E+01 -0.22233365264E+02  0.73965879016E+03  0.74005664216E+03  0.00000000000E+00 0.  1.
          1    1    1    2  502    0  0.97152051397E+01  0.22233365264E+02  0.73242161829E+02  0.77156477442E+02  0.00000000000E+00 0.  1.
</event>
<event>
 4    1  0.3752836E+003  0.2781907E+02  0.7546771E-02  0.1439549E+00
          2   -1    0    0  502    0  0.00000000000E+00  0.00000000000E+00  0.63526016258E+01  0.63526016258E+01  0.00000000000E+00 0. -1.
          1   -1    0    0  501    0 -0.00000000000E+00 -0.00000000000E+00 -0.16457255664E+03  0.16457255664E+03  0.00000000000E+00 0.  1.
          2    1    1    2  501    0  0.19282709235E+02 -0.20051875380E+02 -0.35553071533E+02  0.45143343664E+02  0.00000000000E+00 0. -1.
          1    1    1    2  502    0 -0.19282709235E+02  0.20051875380E+02 -0.12266688348E+03  0.12578181460E+03  0.00000000000E+00 0.  1.
</event>
<event>
 4    1  0.3752836E+003  0.2196223E+02  0.7546771E-02  0.1505957E+00
          2   -1    0    0  502    0  0.00000000000E+00  0.00000000000E+00  0.79331639657E+03  0.79331639657E+03  0.00000000000E+00 0.  1.
          1   -1    0    0  501    0 -0.00000000000E+00 -0.00000000000E+00 -0.32257866331E+02  0.32257866331E+02  0.00000000000E+00 0.  1.
          2    1    1    2  501    0  0.17612613346E+02 -0.13120041362E+02  0.78940773495E+03  0.78971318314E+03  0.00000000000E+00 0.  1.
          1    1    1    2  502    0 -0.17612613346E+02  0.13120041362E+02 -0.28349204705E+02  0.35861079761E+02  0.00000000000E+00 0.  1.
</event>
<event>
 4    1  0.3752836E+003  0.2526381E+02  0.7546771E-02  0.1465874E+00
          2   -1    0    0  502    0  0.00000000000E+00  0.00000000000E+00  0.77284360715E+03  0.77284360715E+03  0.00000000000E+00 0. -1.
          1   -1    0    0  501    0 -0.00000000000E+00 -0.00000000000E+00 -0.38471249898E+01  0.38471249898E+01  0.00000000000E+00 0.  1.
          2    1    1    2  501    0  0.21415650243E+02  0.13402611668E+02  0.72864559841E+03  0.72908344390E+03  0.00000000000E+00 0. -1.
          1    1    1    2  502    0 -0.21415650243E+02 -0.13402611668E+02  0.40350883747E+02  0.47607288244E+02  0.00000000000E+00 0.  1.
</event>
<event>
 4    1  0.3752836E+003  0.2091479E+02  0.7546771E-02  0.1520485E+00
          2   -1    0    0  502    0  0.00000000000E+00  0.00000000000E+00  0.48118439060E+03  0.48118439060E+03  0.00000000000E+00 0.  1.
          1   -1    0    0  501    0 -0.00000000000E+00 -0.00000000000E+00 -0.56302150466E+01  0.56302150466E+01  0.00000000000E+00 0. -1.
          2    1    1    2  501    0 -0.19552933652E+02 -0.74236854994E+01  0.46066934008E+03  0.46114387041E+03  0.00000000000E+00 0.  1.
          1    1    1    2  502    0  0.19552933652E+02  0.74236854994E+01  0.14884835470E+02  0.25670735240E+02  0.00000000000E+00 0. -1.
</event>
<event>
 4    1  0.3752836E+003  0.2400305E+02  0.7546771E-02  0.1480273E+00
          2   -1    0    0  502    0  0.00000000000E+00  0.00000000000E+00  0.50328758432E+02  0.50328758432E+02  0.00000000000E+00 0. -1.
          1   -1    0    0  501    0 -0.00000000000E+00 -0.00000000000E+00 -0.30649752307E+02  0.30649752307E+02  0.00000000000E+00 0. -1.
          2    1    1    2  501    0  0.13893454432E+02  0.19573413449E+02  0.41887475972E+02  0.48277398785E+02  0.00000000000E+00 0. -1.
          1    1    1    2  502    0 -0.13893454432E+02 -0.19573413449E+02 -0.22208469847E+02  0.32701111955E+02  0.00000000000E+00 0. -1.
</event>
<event>
 4    1  0.3752836E+003  0.2952768E+02  0.7546771E-02  0.1423746E+00
          2   -1    0    0  502    0  0.00000000000E+00  0.00000000000E+00  0.33162221303E+03  0.33162221303E+03  0.00000000000E+00 0. -1.
          1   -1    0    0  501    0 -0.00000000000E+00 -0.00000000000E+00 -0.20183939223E+03  0.20183939223E+03  0.00000000000E+00 0.  1.
          2    1    1    2  501    0  0.13581216040E+02 -0.26218974872E+02  0.32987930846E+03  0.33119819175E+03  0.00000000000E+00 0. -1.
          1    1    1    2  502    0 -0.13581216040E+02  0.26218974872E+02 -0.20009648765E+03  0.20226341351E+03  0.00000000000E+00 0.  1.
</event>
<event>
 4    1  0.3752836E+003  0.4393070E+02  0.7546771E-02  0.1326873E+00
          2   -1    0    0  502    0  0.00000000000E+00  0.00000000000E+00  0.23191770114E+04  0.23191770114E+04  0.00000000000E+00 0. -1.
          1   -1    0    0  501    0 -0.00000000000E+00 -0.00000000000E+00 -0.89220513228E+01  0.89220513228E+01  0.00000000000E+00 0. -1.
          2    1    1    2  501    0  0.34365305072E+02 -0.27366626616E+02  0.22635636161E+04  0.22639898743E+04  0.00000000000E+00 0. -1.
          1    1    1    2  502    0 -0.34365305072E+02  0.27366626616E+02  0.46691343894E+02  0.64109188418E+02  0.00000000000E+00 0. -1.
</event>
<event>
 4    1  0.3752836E+003  0.2003966E+02  0.7546771E-02  0.1533430E+00
          2   -1    0    0  502    0  0.00000000000E+00  0.00000000000E+00  0.95093127801E+01  0.95093127801E+01  0.00000000000E+00 0.  1.
          1   -1    0    0  501    0 -0.00000000000E+00 -0.00000000000E+00 -0.13479408361E+03  0.13479408361E+03  0.00000000000E+00 0. -1.
          2    1    1    2  501    0  0.14542959409E+02  0.13787319334E+02 -0.28521813643E+01  0.20241610146E+02  0.00000000000E+00 0.  1.
          1    1    1    2  502    0 -0.14542959409E+02 -0.13787319334E+02 -0.12243258946E+03  0.12406178624E+03  0.00000000000E+00 0. -1.
</event>
<event>
 4    1  0.3752836E+003  0.2624559E+02  0.7546771E-02  0.1455337E+00
          2   -1    0    0  502    0  0.00000000000E+00  0.00000000000E+00  0.75812994908E+00  0.75812994908E+00  0.00000000000E+00 0. -1.
          1   -1    0    0  501    0 -0.00000000000E+00 -0.00000000000E+00 -0.10457202018E+04  0.10457202018E+04  0.00000000000E+00 0.  1.
          2    1    1    2  501    0  0.22444297721E+02 -0.13604569798E+02 -0.33300431543E+03  0.33403698136E+03  0.00000000000E+00 0. -1.
          1    1    1    2  502    0 -0.22444297721E+02  0.13604569798E+02 -0.71195775645E+03  0.71244135042E+03  0.00000000000E+00 0.  1.
</event>
<event>
 4    1  0.3752836E+003  0.2869859E+02  0.7546771E-02  0.1431253E+00
          2   -1    0    0  502    0  0.00000000000E+00  0.00000000000E+00  0.10928717128E+04  0.10928717128E+04  0.00000000000E+00 0.  1.
          1   -1    0    0  501    0 -0.00000000000E+00 -0.00000000000E+00 -0.12996739127E+03  0.12996739127E+03  0.00000000000E+00 0. -1.
          2    1    1    2  501    0 -0.27268791273E+02 -0.89454975716E+01  0.10910964702E+04  0.10914738276E+04  0.00000000000E+00 0.  1.
          1    1    1    2  502    0  0.27268791273E+02  0.89454975716E+01 -0.12819214866E+03  0.13136527654E+03  0.00000000000E+00 0. -1.
</event>
<event>
 4    1  0.3752836E+003  0.2938015E+02  0.7546771E-02  0.1425061E+00
          2   -1    0    0  502    0  0.00000000000E+00  0.00000000000E+00  0.19438077375E+03  0.19438077375E+03  0.00000000000E+00 0.  1.
          1   -1    0    0  501    0 -0.00000000000E+00 -0.00000000000E+00 -0.15500751369E+02  0.15500751369E+02  0.00000000000E+00 0. -1.
          2    1    1    2  501    0  0.69771906670E+01 -0.28539652786E+02  0.17808328341E+03  0.18049057814E+03  0.00000000000E+00 0.  1.
          1    1    1    2  502    0 -0.69771906670E+01  0.28539652786E+02  0.79673897122E+00  0.29390946969E+02  0.00000000000E+00 0. -1.
</event>
<event>
 4    1  0.3752836E+003  0.2342216E+02  0.7546771E-02  0.1487264E+00
          2   -1    0    0  502    0  0.00000000000E+00  0.00000000000E+00  0.10137312664E+04  0.10137312664E+04  0.00000000000E+00 0.  1.
          1   -1    0    0  501    0 -0.00000000000E+00 -0.00000000000E+00 -0.13735416750E+02  0.13735416750E+02  0.00000000000E+00 0.  1.
          2    1    1    2  501    0 -0.18983138343E+02 -0.13719988547E+02  0.10035091845E+04  0.10037824869E+04  0.00000000000E+00 0.  1.
          1    1    1    2  502    0  0.18983138343E+02  0.13719988547E+02 -0.35133349094E+01  0.23684196192E+02  0.00000000000E+00 0.  1.
</event>
<event>
 4    1  0.3752836E+003  0.4498670E+02  0.7546771E-02  0.1321506E+00
          2   -1    0    0  502    0  0.00000000000E+00  0.00000000000E+00  0.82675328320E+02  0.82675328320E+02  0.00000000000E+00 0.  1.
          1   -1    0    0  501    0 -0.00000000000E+00 -0.00000000000E+00 -0.14670717049E+03  0.14670717049E+03  0.00000000000E+00 0.  1.
          2    1    1    2  501    0  0.39224668604E+02 -0.22027913917E+02  0.72670509529E+02  0.85468161170E+02  0.00000000000E+00 0.  1.
          1    1    1    2  502    0 -0.39224668604E+02  0.22027913917E+02 -0.13670235170E+03  0.14391433764E+03  0.00000000000E+00 0.  1.
</event>
<event>
 4    1  0.3752836E+003  0.2856599E+02  0.7546771E-02  0.1432481E+00
          2   -1    0    0  502    0  0.00000000000E+00  0.00000000000E+00  0.23779755187E+03  0.23779755187E+03  0.00000000000E+00 0.  1.
          1   -1    0    0  501    0 -0.00000000000E+00 -0.00000000000E+00 -0.64492108899E+01  0.64492108899E+01  0.00000000000E+00 0. -1.
          2    1    1    2  501    0  0.23336570134E+02 -0.16474834584E+02  0.19921144412E+03  0.20124913701E+03  0.00000000000E+00 0.  1.
          1    1    1    2  502    0 -0.23336570134E+02  0.16474834584E+02  0.32136896867E+02  0.42997625753E+02  0.00000000000E+00 0. -1.
</event>
<event>
 4    1  0.3752836E+003  0.3308118E+02  0.7546771E-02  0.1394579E+00
          2   -1    0    0  502    0  0.00000000000E+00  0.00000000000E+00  0.25413482816E+03  0.25413482816E+03  0.00000000000E+00 0.  1.
          1   -1    0    0  501    0 -0.00000000000E+00 -0.00000000000E+00 -0.80922435814E+03  0.80922435814E+03  0.00000000000E+00 0.  1.
          2    1    1    2  501    0 -0.31607436637E+02 -0.97639327854E+01  0.25271829171E+03  0.25487428155E+03  0.00000000000E+00 0.  1.
          1    1    1    2  502    0  0.31607436637E+02  0.97639327854E+01 -0.80780782169E+03  0.80848490475E+03  0.00000000000E+00 0.  1.
</event>
<event>
 4    1  0.3752836E+003  0.2043270E+02  0.7546771E-02  0.1527521E+00
          2   -1    0    0  502    0  0.00000000000E+00  0.00000000000E+00  0.88338177805E+01  0.88338177805E+01  0.00000000000E+00 0. -1.
          1   -1    0    0  501    0 -0.00000000000E+00 -0.00000000000E+00 -0.79183603786E+02  0.79183603786E+02  0.00000000000E+00 0. -1.
          2    1    1    2  501    0 -0.19404890393E+02 -0.63988528228E+01 -0.72320784828E+01  0.21674825208E+02  0.00000000000E+00 0. -1.
          1    1    1    2  502    0  0.19404890393E+02  0.63988528228E+01 -0.63117707523E+02  0.66342596358E+02  0.00000000000E+00 0. -1.
</event>
<event>
 4    1  0.3752836E+003  0.2769050E+02  0.7546771E-02  0.1440793E+00
          2   -1    0    0  502    0  0.00000000000E+00  0.00000000000E+00  0.71423173760E+02  0.71423173760E+02  0.00000000000E+00 0.  1.
          1   -1    0    0  501    0 -0.00000000000E+00 -0.00000000000E+00 -0.10828204107E+02  0.10828204107E+02  0.00000000000E+00 0.  1.
          2    1    1    2  501    0 -0.12788732615E+02  0.24560373407E+02  0.34102705112E+02  0.43929012278E+02  0.00000000000E+00 0.  1.
          1    1    1    2  502    0  0.12788732615E+02 -0.24560373407E+02  0.26492264541E+02  0.38322365588E+02  0.00000000000E+00 0.  1.
</event>
<event>
 4    1  0.3752836E+003  0.2652785E+02  0.7546771E-02  0.1452409E+00
          2   -1    0    0  502    0  0.00000000000E+00  0.00000000000E+00  0.33868899477E+03  0.33868899477E+03  0.00000000000E+00 0. -1.
          1   -1    0    0  501    0 -0.00000000000E+00 -0.00000000000E+00 -0.23527504153E+01  0.23527504153E+01  0.00000000000E+00 0. -1.
          2    1    1    2  501    0  0.25415738315E+02  0.76004771635E+01  0.22646148459E+03  0.22800993621E+03  0.00000000000E+00 0. -1.
          1    1    1    2  502    0 -0.25415738315E+02 -0.76004771635E+01  0.10987475976E+03  0.11303180898E+03  0.00000000000E+00 0. -1.
</event>
<event>
 4    1  0.3752836E+003  0.3863457E+02  0.7546771E-02  0.1356678E+00
          2   -1    0    0  502    0  0.00000000000E+00  0.00000000000E+00  0.12384153505E+03  0.12384153505E+03  0.00000000000E+00 0.  1.
          1   -1    0    0  501    0 -0.00000000000E+00 -0.00000000000E+00 -0.36419351439E+02  0.36419351439E+02  0.00000000000E+00 0. -1.
          2    1    1    2  501    0  0.37855602163E+02 -0.77190161786E+01  0.10925449841E+03  0.11588431839E+03  0.00000000000E+00 0.  1.
          1    1    1    2  502    0 -0.37855602163E+02  0.77190161786E+01 -0.21832314806E+02  0.44376568092E+02  0.00000000000E+00 0. -1.
</event>
<event>
 4    1  0.3752836E+003  0.2949283E+02  0.7546771E-02  0.1424056E+00
          2   -1    0    0  502    0  0.00000000000E+00  0.00000000000E+00  0.56633132008E+00  0.56633132008E+00  0.00000000000E+00 0. -1.
          1   -1    0    0  501    0 -0.00000000000E+00 -0.00000000000E+00 -0.17006670857E+04  0.17006670857E+04  0.00000000000E+00 0. -1.
          2    1    1    2  501    0  0.27386379820E+02 -0.10945927095E+02 -0.58528440203E+03  0.58602701165E+03  0.00000000000E+00 0. -1.
          1    1    1    2  502    0 -0.27386379820E+02  0.10945927095E+02 -0.11148163524E+04  0.11152064054E+04  0.00000000000E+00 0. -1.
</event>
<event>
 4    1  0.3752836E+003  0.2211184E+02  0.7546771E-02  0.1503962E+00
          2   -1    0    0  502    0  0.00000000000E+00  0.00000000000E+00  0.17773407779E+02  0.17773407779E+02  0.00000000000E+00 0. -1.
          1   -1    0    0  501    0 -0.00000000000E+00 -0.00000000000E+00 -0.46412585758E+03  0.46412585758E+03  0.00000000000E+00 0. -1.
          2    1    1    2  501    0  0.19460557827E+02  0.10498582177E+02  0.10523660765E+02  0.24488384482E+02  0.00000000000E+00 0. -1.
          1    1    1    2  502    0 -0.19460557827E+02 -0.10498582177E+02 -0.45687611057E+03  0.45741088088E+03  0.00000000000E+00 0. -1.
</event>
<event>
 4    1  0.3752836E+003  0.2921659E+02  0.7546771E-02  0.1426529E+00
          2   -1    0    0  502    0  0.00000000000E+00  0.00000000000E+00  0.23546419405E+02  0.23546419405E+02  0.00000000000E+00 0.  1.
          1   -1    0    0  501    0 -0.00000000000E+00 -0.00000000000E+00 -0.78250177109E+02  0.78250177109E+02  0.00000000000E+00 0.  1.
          2    1    1    2  501    0 -0.15458925271E+02 -0.24791752990E+02  0.99366122720E+01  0.30860098028E+02  0.00000000000E+00 0.  1.
          1    1    1    2  502    0  0.15458925271E+02  0.24791752990E+02 -0.64640369976E+02  0.70936498486E+02  0.00000000000E+00 0.  1.
</event>
<event>
 4    1  0.3752836E+003  0.3687046E+02  0.7546771E-02  0.1367870E+00
          2   -1    0    0  502    0  0.00000000000E+00  0.00000000000E+00  0.76615343564E+03  0.76615343564E+03  0.00000000000E+00 0. -1.
          1   -1    0    0  501    0 -0.00000000000E+00 -0.00000000000E+00 -0.18401354760E+01  0.18401354760E+01  0.00000000000E+00 0. -1.
          2    1    1    2  501    0  0.11449416462E+02 -0.35047686761E+02  0.30955515381E+03  0.31174319998E+03  0.00000000000E+00 0. -1.
          1    1    1    2  502    0 -0.11449416462E+02  0.35047686761E+02  0.45475814635E+03  0.45625037113E+03  0.00000000000E+00 0. -1.
</event>
<event>
 4    1  0.3752836E+003  0.2083036E+02  0.7546771E-02  0.1521701E+00
          2   -1    0    0  502    0  0.00000000000E+00  0.00000000000E+00  0.35510915167E+02  0.35510915167E+02  0.00000000000E+00 0.  1.
          1   -1    0    0  501    0 -0.00000000000E+00 -0.00000000000E+00 -0.27291667630E+02  0.27291667630E+02  0.00000000000E+00 0.  1.
          2    1    1    2  501    0 -0.93475544244E+01 -0.18615243332E+02  0.27445766964E+02  0.34455394095E+02  0.00000000000E+00 0.  1.
          1    1    1    2  502    0  0.93475544244E+01  0.18615243332E+02 -0.19226519427E+02  0.28347188702E+02  0.00000000000E+00 0.  1.
</event>
<event>
 4    1  0.3752836E+003  0.2598630E+02  0.7546771E-02  0.1458066E+00
          2   -1    0    0  502    0  0.00000000000E+00  0.00000000000E+00  0.18972418441E+03  0.18972418441E+03  0.00000000000E+00 0.  1.
          1   -1    0    0  501    0 -0.00000000000E+00 -0.00000000000E+00 -0.36138946942E+01  0.36138946942E+01  0.00000000000E+00 0.  1.
          2    1    1    2  501    0 -0.18970994681E+02  0.17759192091E+02  0.10493545097E+03  0.10810520992E+03  0.00000000000E+00 0.  1.
          1    1    1    2  502    0  0.18970994681E+02 -0.17759192091E+02  0.81174838747E+02  0.85232869179E+02  0.00000000000E+00 0.  1.
</event>
<event>
 4    1  0.3752836E+003  0.3838946E+02  0.7546771E-02  0.1358191E+00
          2   -1    0    0  502    0  0.00000000000E+00  0.00000000000E+00  0.41681538129E+02  0.41681538129E+02  0.00000000000E+00 0.  1.
          1   -1    0    0  501    0 -0.00000000000E+00 -0.00000000000E+00 -0.46080489319E+02  0.46080489319E+02  0.00000000000E+00 0. -1.
          2    1    1    2  501    0 -0.30649736637E+02  0.23115889880E+02  0.18968441162E+02  0.42820000946E+02  0.00000000000E+00 0.  1.
          1    1    1    2  502    0  0.30649736637E+02 -0.23115889880E+02 -0.23367392351E+02  0.44942026503E+02  0.00000000000E+00 0. -1.
</event>
<event>
 4    1  0.3752836E+003  0.2004441E+02  0.7546771E-02  0.1533358E+00
          2   -1    0    0  502    0  0.00000000000E+00  0.00000000000E+00  0.49394709795E+03  0.49394709795E+03  0.00000000000E+00 0.  1.
          1   -1    0    0  501    0 -0.00000000000E+00 -0.00000000000E+00 -0.36209496243E+02  0.36209496243E+02  0.00000000000E+00 0.  1.
          2    1    1    2  501    0 -0.93102694665E+01 -0.17750979582E+02  0.49095285099E+03  0.49136186287E+03  0.00000000000E+00 0.  1.
          1    1    1    2  502    0  0.93102694665E+01  0.17750979582E+02 -0.33215249279E+02  0.38794731322E+02  0.00000000000E+00 0.  1.
</event>
<event>
 4    1  0.3752836E+003  0.3616174E+02  0.7546771E-02  0.1372575E+00
          2   -1    0    0  502    0  0.00000000000E+00  0.00000000000E+00  0.42680285675E+02  0.42680285675E+02  0.00000000000E+00 0. -1.
          1   -1    0    0  501    0 -0.00000000000E+00 -0.00000000000E+00 -0.12417837426E+03  0.12417837426E+03  0.00000000000E+00 0. -1.
          2    1    1    2  501    0 -0.77100902155E+01  0.35330245394E+02  0.31660117481E+02  0.48062821074E+02  0.00000000000E+00 0. -1.
          1    1    1    2  502    0  0.77100902155E+01 -0.35330245394E+02 -0.11315820606E+03  0.11879583886E+03  0.00000000000E+00 0. -1.
</event>
<event>
 4    1  0.3752836E+003  0.2161737E+02  0.7546771E-02  0.1510630E+00
          2   -1    0    0  502    0  0.00000000000E+00  0.00000000000E+00  0.94757030962E+03  0.94757030962E+03  0.00000000000E+00 0.  1.
          1   -1    0    0  501    0 -0.00000000000E+00 -0.00000000000E+00 -0.10277928886E+01  0.10277928886E+01  0.00000000000E+00 0.  1.
          2    1    1    2  501    0 -0.19777528769E+02 -0.87269703495E+01  0.81534862290E+03  0.81563514363E+03  0.00000000000E+00 0.  1.
          1    1    1    2  502    0  0.19777528769E+02  0.87269703495E+01  0.13119389383E+03  0.13296295888E+03  0.00000000000E+00 0.  1.
</event>
<event>
 4    1  0.3752836E+003  0.2408891E+02  0.7546771E-02  0.1479259E+00
          2   -1    0    0  502    0  0.00000000000E+00  0.00000000000E+00  0.93359581611E+03  0.93359581611E+03  0.00000000000E+00 0.  1.
          1   -1    0    0  501    0 -0.00000000000E+00 -0.00000000000E+00 -0.26775669955E+01  0.26775669955E+01  0.00000000000E+00 0.  1.
          2    1    1    2  501    0 -0.23806640299E+02  0.36769013933E+01  0.87567828726E+03  0.87600955389E+03  0.00000000000E+00 0.  1.
          1    1    1    2  502    0  0.23806640299E+02 -0.36769013933E+01  0.55239961859E+02  0.60263829221E+02  0.00000000000E+00 0.  1.
</event>
<event>
 4    1  0.3752836E+003  0.3651002E+02  0.7546771E-02  0.1370247E+00
          2   -1    0    0  502    0  0.00000000000E+00  0.00000000000E+00  0.38204012952E+01  0.38204012952E+01  0.00000000000E+00 0.  1.
          1   -1    0    0  501    0 -0.00000000000E+00 -0.00000000000E+00 -0.35875010881E+03  0.35875010881E+03  0.00000000000E+00 0.  1.
          2    1    1    2  501    0  0.29647187721E+02 -0.21307881909E+02 -0.14744314027E+03  0.15189621847E+03  0.00000000000E+00 0.  1.
          1    1    1    2  502    0 -0.29647187721E+02  0.21307881909E+02 -0.20748656724E+03  0.21067429163E+03  0.00000000000E+00 0.  1.
</event>
<event>
 4    1  0.3752836E+003  0.2000061E+02  0.7546771E-02  0.1534026E+00
          2   -1    0    0  502    0  0.00000000000E+00  0.00000000000E+00  0.70035854987E+01  0.70035854987E+01  0.00000000000E+00 0. -1.
          1   -1    0    0  501    0 -0.00000000000E+00 -0.00000000000E+00 -0.10357374604E+03  0.10357374604E+03  0.00000000000E+00 0. -1.
          2    1    1    2  501    0 -0.61849105939E+01 -0.19020285687E+02 -0.11256653119E+02  0.22950743476E+02  0.00000000000E+00 0. -1.
          1    1    1    2  502    0  0.61849105939E+01  0.19020285687E+02 -0.85313507428E+02  0.87626588067E+02  0.00000000000E+00 0. -1.
</event>
<event>
 4    1  0.3752836E+003  0.2418948E+02  0.7546771E-02  0.1478079E+00
          2   -1    0    0  502    0  0.00000000000E+00  0.00000000000E+00  0.33135100311E+01  0.33135100311E+01  0.00000000000E+00 0.  1.
          1   -1    0    0  501    0 -0.00000000000E+00 -0.00000000000E+00 -0.99639223189E+03  0.99639223189E+03  0.00000000000E+00 0.  1.
          2    1    1    2  501    0 -0.19194818633E+02 -0.14720394163E+02 -0.43139162344E+02  0.49458249002E+02  0.00000000000E+00 0.  1.
          1    1    1    2  502    0  0.19194818633E+02  0.14720394163E+02 -0.94993955951E+03  0.95024749292E+03  0.00000000000E+00 0.  1.
</event>
<event>
 4    1  0.3752836E+003  0.3675257E+02  0.7546771E-02  0.1368644E+00
          2   -1    0    0  502    0  0.00000000000E+00  0.00000000000E+00  0.26543634997E+01  0.26543634997E+01  0.00000000000E+00 0.  1.
          1   -1    0    0  501    0 -0.00000000000E+00 -0.00000000000E+00 -0.95851427988E+03  0.95851427988E+03  0.00000000000E+00 0.  1.
          2    1    1    2  501    0 -0.36597588779E+02 -0.33716472840E+01 -0.14877515896E+03  0.15324751036E+03  0.00000000000E+00 0.  1.
          1    1    1    2  502    0  0.36597588779E+02  0.33716472840E+01 -0.80708475743E+03  0.80792113302E+03  0.00000000000E+00 0.  1.
</event>
<event>
 4    1  0.3752836E+003  0.2046783E+02  0.7546771E-02  0.1527000E+00
          2   -1    0    0  502    0  0.00000000000E+00  0.00000000000E+00  0.13910995558E+03  0.13910995558E+03  0.00000000000E+00 0.  1.
          1   -1    0    0  501    0 -0.00000000000E+00 -0.00000000000E+00 -0.35630126811E+03  0.35630126811E+03  0.00000000000E+00 0.  1.
          2    1    1    2  501    0 -0.14348851424E+02 -0.14595970119E+02  0.13806091018E+03  0.13956986351E+03  0.00000000000E+00 0.  1.
          1    1    1    2  502    0  0.14348851424E+02  0.14595970119E+02 -0.35525222271E+03  0.35584136019E+03  0.00000000000E+00 0.  1.
</event>
<event>
 4    1  0.3752836E+003  0.2058463E+02  0.7546771E-02  0.1525279E+00
          2   -1    0    0  502    0  0.00000000000E+00  0.00000000000E+00  0.75751063086E+00  0.75751063086E+00  0.00000000000E+00 0.  1.
          1   -1    0    0  501    0 -0.00000000000E+00 -0.00000000000E+00 -0.14506843302E+04  0.14506843302E+04  0.00000000000E+00 0. -1.
          2    1    1    2  501    0  0.20546626771E+02  0.12502691449E+01 -0.15611157061E+03  0.15746285124E+03  0.00000000000E+00 0.  1.
          1    1    1    2  502    0 -0.20546626771E+02 -0.12502691449E+01 -0.12938152489E+04  0.12939789895E+04  0.00000000000E+00 0. -1.
</event>
<event>
 4    1  0.3752836E+003  0.2748179E+02  0.7546771E-02  0.1442828E+00
          2   -1    0    0  502    0  0.00000000000E+00  0.00000000000E+00  0.10018686664E+02  0.10018686664E+02  0.00000000000E+00 0. -1.
          1   -1    0    0  501    0 -0.00000000000E+00 -0.00000000000E+00 -0.97696929852E+03  0.97696929852E+03  0.00000000000E+00 0.  1.
          2    1    1    2  501    0  0.25261929932E+02 -0.10820520835E+02 -0.94027436903E+01  0.29045832126E+02  0.00000000000E+00 0. -1.
          1    1    1    2  502    0 -0.25261929932E+02  0.10820520835E+02 -0.95754786817E+03  0.95794215306E+03  0.00000000000E+00 0.  1.
</event>
<event>
 4    1  0.3752836E+003  0.2904742E+02  0.7546771E-02  0.1428059E+00
          2   -1    0    0  502    0  0.00000000000E+00  0.00000000000E+00  0.90756069687E+02  0.90756069687E+02  0.00000000000E+00 0.  1.
          1   -1    0    0  501    0 -0.00000000000E+00 -0.00000000000E+00 -0.18410462458E+03  0.18410462458E+03  0.00000000000E+00 0.  1.
          2    1    1    2  501    0  0.69852467013E+01 -0.28195017144E+02  0.87241136908E+02  0.91949815836E+02  0.00000000000E+00 0.  1.
          1    1    1    2  502    0 -0.69852467013E+01  0.28195017144E+02 -0.18058969180E+03  0.18291087843E+03  0.00000000000E+00 0.  1.
</event>
<event>
 4    1  0.3752836E+003  0.2374414E+02  0.7546771E-02  0.1483359E+00
          2   -1    0    0  502    0  0.00000000000E+00  0.00000000000E+00  0.27868314047E+02  0.27868314047E+02  0.00000000000E+00 0.  1.
          1   -1    0    0  501    0 -0.00000000000E+00 -0.00000000000E+00 -0.27104615594E+02  0.27104615594E+02  0.00000000000E+00 0.  1.
          2    1    1    2  501    0  0.11006329506E+02 -0.21039128949E+02  0.14224272558E+02  0.27678767421E+02  0.00000000000E+00 0.  1.
          1    1    1    2  502    0 -0.11006329506E+02  0.21039128949E+02 -0.13460574105E+02  0.27294162221E+02  0.00000000000E+00 0.  1.
</event>
<event>
 4    1  0.3752836E+003  0.2619627E+02  0.7546771E-02  0.1455853E+00
          2   -1    0    0  502    0  0.00000000000E+00  0.00000000000E+00  0.45371988459E+02  0.45371988459E+02  0.00000000000E+00 0.  1.
          1   -1    0    0  501    0 -0.00000000000E+00 -0.00000000000E+00 -0.52259419940E+03  0.52259419940E+03  0.00000000000E+00 0.  1.
          2    1    1    2  501    0 -0.24206810642E+02  0.10013746729E+02  0.41232314378E+02  0.48850266673E+02  0.00000000000E+00 0.  1.
          1    1    1    2  502    0  0.24206810642E+02 -0.10013746729E+02 -0.51845452532E+03  0.51911592118E+03  0.00000000000E+00 0.  1.
</event>
<event>
 4    1  0.3752836E+003  0.2570335E+02  0.7546771E-02  0.1461087E+00
          2   -1    0    0  502    0  0.00000000000E+00  0.00000000000E+00  0.94556648468E+03  0.94556648468E+03  0.00000000000E+00 0. -1.
          1   -1    0    0  501    0 -0.00000000000E+00 -0.00000000000E+00 -0.12206961049E+01  0.12206961049E+01  0.00000000000E+00 0. -1.
          2    1    1    2  501    0 -0.24190454631E+02 -0.86881566554E+01  0.78173977217E+03  0.78216221691E+03  0.00000000000E+00 0. -1.
          1    1    1    2  502    0  0.24190454631E+02  0.86881566554E+01  0.16260601640E+03  0.16462496388E+03  0.00000000000E+00 0. -1.
</event>
<event>
 4    1  0.3752836E+003  0.2141196E+02  0.7546771E-02  0.1513464E+00
          2   -1    0    0  502    0  0.00000000000E+00  0.00000000000E+00  0.13627358039E+04  0.13627358039E+04  0.00000000000E+00 0. -1.
          1   -1    0    0  501    0 -0.00000000000E+00 -0.00000000000E+00 -0.14548289596E+02  0.14548289596E+02  0.00000000000E+00 0. -1.
          2    1    1    2  501    0  0.10912581595E+02 -0.18422473400E+02  0.13547266695E+04  0.13548958709E+04  0.00000000000E+00 0. -1.
          1    1    1    2  502    0 -0.10912581595E+02  0.18422473400E+02 -0.65391551354E+01  0.22388222643E+02  0.00000000000E+00 0. -1.
</event>
<event>
 4    1  0.3752836E+003  0.3670995E+02  0.7546771E-02  0.1368924E+00
          2   -1    0    0  502    0  0.00000000000E+00  0.00000000000E+00  0.19647032782E+04  0.19647032782E+04  0.00000000000E+00 0.  1.
          1   -1    0    0  501    0 -0.00000000000E+00 -0.00000000000E+00 -0.21272273682E+01  0.21272273682E+01  0.00000000000E+00 0. -1.
          2    1    1    2  501    0  0.18678235815E+01 -0.36662404993E+02  0.17907732843E+04  0.17911495126E+04  0.00000000000E+00 0.  1.
          1    1    1    2  502    0 -0.18678235815E+01  0.36662404993E+02  0.17180276661E+03  0.17568099305E+03  0.00000000000E+00 0. -1.
</event>
<event>
 4    1  0.3752836E+003  0.2014350E+02  0.7546771E-02  0.1531853E+00
          2   -1    0    0  502    0  0.00000000000E+00  0.00000000000E+00  0.12626978380E+04  0.12626978380E+04  0.00000000000E+00 0. -1.
          1   -1    0    0  501    0 -0.00000000000E+00 -0.00000000000E+00 -0.29500423794E+02  0.29500423794E+02  0.00000000000E+00 0. -1.
          2    1    1    2  501    0  0.18415764217E+02  0.81621213222E+01  0.12591692669E+04  0.12593303789E+04  0.00000000000E+00 0. -1.
          1    1    1    2  502    0 -0.18415764217E+02 -0.81621213222E+01 -0.25971852653E+02  0.32867882902E+02  0.00000000000E+00 0. -1.
</event>
<event>
 4    1  0.3752836E+003  0.2001909E+02  0.7546771E-02  0.1533744E+00
          2   -1    0    0  502    0  0.00000000000E+00  0.00000000000E+00  0.44375725535E+02  0.44375725535E+02  0.00000000000E+00 0.  1.
          1   -1    0    0  501    0 -0.00000000000E+00 -0.00000000000E+00 -0.45088471511E+02  0.45088471511E+02  0.00000000000E+00 0.  1.
          2    1    1    2  501    0 -0.16357018938E+02 -0.11541737373E+02  0.39645769829E+02  0.44413408284E+02  0.00000000000E+00 0.  1.
          1    1    1    2  502    0  0.16357018938E+02  0.11541737373E+02 -0.40358515805E+02  0.45050788762E+02  0.00000000000E+00 0.  1.
</event>
<event>
 4    1  0.3752836E+003  0.2016853E+02  0.7546771E-02  0.1531475E+00
          2   -1    0    0  502    0  0.00000000000E+00  0.00000000000E+00  0.32264304883E+02  0.32264304883E+02  0.00000000000E+00 0. -1.
          1   -1    0    0  501    0 -0.00000000000E+00 -0.00000000000E+00 -0.47007154303E+03  0.47007154303E+03  0.00000000000E+00 0.  1.
          2    1    1    2  501    0 -0.20146642644E+02 -0.93931680887E+00  0.28873225048E+02  0.35219776413E+02  0.00000000000E+00 0. -1.
          1    1    1    2  502    0  0.20146642644E+02  0.93931680887E+00 -0.46668046320E+03  0.46711607150E+03  0.00000000000E+00 0.  1.
</event>
<event>
 4    1  0.3752836E+003  0.2003496E+02  0.7546771E-02  0.1533502E+00
          2   -1    0    0  502    0  0.00000000000E+00  0.00000000000E+00  0.49931446231E+02  0.49931446231E+02  0.00000000000E+00 0. -1.
          1   -1    0    0  501    0 -0.00000000000E+00 -0.00000000000E+00 -0.74936648201E+03  0.74936648201E+03  0.00000000000E+00 0.  1.
          2    1    1    2  501    0  0.14597944606E+02  0.13722233857E+02  0.47781999025E+02  0.51812345243E+02  0.00000000000E+00 0. -1.
          1    1    1    2  502    0 -0.14597944606E+02 -0.13722233857E+02 -0.74721703480E+03  0.74748558300E+03  0.00000000000E+00 0.  1.
</event>
<event>
 4    1  0.3752836E+003  0.4544581E+02  0.7546771E-02  0.1319225E+00
          2   -1    0    0  502    0  0.00000000000E+00  0.00000000000E+00  0.16875368348E+03  0.16875368348E+03  0.00000000000E+00 0.  1.
          1   -1    0    0  501    0 -0.00000000000E+00 -0.00000000000E+00 -0.16485500170E+03  0.16485500170E+03  0.00000000000E+00 0.  1.
          2    1    1    2  501    0  0.16365100048E+02  0.42396999196E+02  0.16244259484E+03  0.16867992963E+03  0.00000000000E+00 0.  1.
          1    1    1    2  502    0 -0.16365100048E+02 -0.42396999196E+02 -0.15854391306E+03  0.16492875555E+03  0.00000000000E+00 0.  1.
</event>
<event>
 4    1  0.3752836E+003  0.3428301E+02  0.7546771E-02  0.1385675E+00
          2   -1    0    0  502    0  0.00000000000E+00  0.00000000000E+00  0.83385134651E+03  0.83385134651E+03  0.00000000000E+00 0. -1.
          1   -1    0    0  501    0 -0.00000000000E+00 -0.00000000000E+00 -0.16961340748E+01  0.16961340748E+01  0.00000000000E+00 0.  1.
          2    1    1    2  501    0 -0.34282997736E+02 -0.29242115039E-01  0.58781492431E+03  0.58881381610E+03  0.00000000000E+00 0. -1.
          1    1    1    2  502    0  0.34282997736E+02  0.29242115039E-01  0.24434028813E+03  0.24673366448E+03  0.00000000000E+00 0.  1.
</event>
<event>
 4    1  0.3752836E+003  0.2336676E+02  0.7546771E-02  0.1487943E+00
          2   -1    0    0  502    0  0.00000000000E+00  0.00000000000E+00  0.76190170883E+03  0.76190170883E+03  0.00000000000E+00 0.  1.
          1   -1    0    0  501    0 -0.00000000000E+00 -0.00000000000E+00 -0.95906933562E+02  0.95906933562E+02  0.00000000000E+00 0. -1.
          2    1    1    2  501    0 -0.11208850910E+02  0.20502851210E+02  0.76029627706E+03  0.76065526630E+03  0.00000000000E+00 0.  1.
          1    1    1    2  502    0  0.11208850910E+02 -0.20502851210E+02 -0.94301501788E+02  0.97153376091E+02  0.00000000000E+00 0. -1.
</event>
<event>
 4    1  0.3752836E+003  0.2225407E+02  0.7546771E-02  0.1502083E+00
          2   -1    0    0  502    0  0.00000000000E+00  0.00000000000E+00  0.47011677671E+02  0.47011677671E+02  0.00000000000E+00 0.  1.
          1   -1    0    0  501    0 -0.00000000000E+00 -0.00000000000E+00 -0.58028786959E+03  0.58028786959E+03  0.00000000000E+00 0. -1.
          2    1    1    2  501    0 -0.30505101041E+01 -0.22044004746E+02  0.44151655896E+02  0.49443022516E+02  0.00000000000E+00 0.  1.
          1    1    1    2  502    0  0.30505101041E+01  0.22044004746E+02 -0.57742784782E+03  0.57785652475E+03  0.00000000000E+00 0. -1.
</event>
<event>
 4    1  0.3752836E+003  0.4403091E+02  0.7546771E-02  0.1326357E+00
          2   -1    0    0  502    0  0.00000000000E+00  0.00000000000E+00  0.30517483648E+03  0.30517483648E+03  0.00000000000E+00 0.  1.
          1   -1    0    0  501    0 -0.00000000000E+00 -0.00000000000E+00 -0.71430205201E+01  0.71430205201E+01  0.00000000000E+00 0. -1.
          2    1    1    2  501    0 -0.14435181019E+02  0.41597432817E+02  0.20095501398E+03  0.20572223631E+03  0.00000000000E+00 0.  1.
          1    1    1    2  502    0  0.14435181019E+02 -0.41597432817E+02  0.97076801982E+02  0.10659562069E+03  0.00000000000E+00 0. -1.
</event>
<event>
 4    1  0.3752836E+003  0.3175309E+02  0.7546771E-02  0.1404950E+00
          2   -1    0    0  502    0  0.00000000000E+00  0.00000000000E+00  0.14831049477E+02  0.14831049477E+02  0.00000000000E+00 0.  1.
          1   -1    0    0  501    0 -0.00000000000E+00 -0.00000000000E+00 -0.69490507590E+02  0.69490507590E+02  0.00000000000E+00 0. -1.
          2    1    1    2  501    0 -0.89356767257E+01  0.30469861872E+02 -0.21119896874E+02  0.38135401466E+02  0.00000000000E+00 0.  1.
          1    1    1    2  502    0  0.89356767257E+01 -0.30469861872E+02 -0.33539561239E+02  0.46186155600E+02  0.00000000000E+00 0. -1.
</event>
<event>
 4    1  0.3752836E+003  0.3016580E+02  0.7546771E-02  0.1418161E+00
          2   -1    0    0  502    0  0.00000000000E+00  0.00000000000E+00  0.21386850193E+04  0.21386850193E+04  0.00000000000E+00 0.  1.
          1   -1    0    0  501    0 -0.00000000000E+00 -0.00000000000E+00 -0.58719379502E+02  0.58719379502E+02  0.00000000000E+00 0. -1.
          2    1    1    2  501    0  0.38963654406E+01  0.29913107409E+02  0.21346971551E+04  0.21349102837E+04  0.00000000000E+00 0.  1.
          1    1    1    2  502    0 -0.38963654406E+01 -0.29913107409E+02 -0.54731515262E+02  0.62494115094E+02  0.00000000000E+00 0. -1.
</event>
<event>
 4    1  0.3752836E+003  0.2854210E+02  0.7546771E-02  0.1432703E+00
          2   -1    0    0  502    0  0.00000000000E+00  0.00000000000E+00  0.46470691051E+03  0.46470691051E+03  0.00000000000E+00 0.  1.
          1   -1    0    0  501    0 -0.00000000000E+00 -0.00000000000E+00 -0.28875836831E+02  0.28875836831E+02  0.00000000000E+00 0.  1.
          2    1    1    2  501    0 -0.14107419164E+01 -0.28507217321E+02  0.45709830600E+03  0.45798855114E+03  0.00000000000E+00 0.  1.
          1    1    1    2  502    0  0.14107419164E+01  0.28507217321E+02 -0.21267232322E+02  0.35594196195E+02  0.00000000000E+00 0.  1.
</event>
<event>
 4    1  0.3752836E+003  0.2477012E+02  0.7546771E-02  0.1471392E+00
          2   -1    0    0  502    0  0.00000000000E+00  0.00000000000E+00  0.13479036126E+03  0.13479036126E+03  0.00000000000E+00 0.  1.
          1   -1    0    0  501    0 -0.00000000000E+00 -0.00000000000E+00 -0.17254081486E+03  0.17254081486E+03  0.00000000000E+00 0.  1.
          2    1    1    2  501    0 -0.24663338913E+02 -0.22975259402E+01  0.13274982015E+03  0.13504100734E+03  0.00000000000E+00 0.  1.
          1    1    1    2  502    0  0.24663338913E+02  0.22975259402E+01 -0.17050027375E+03  0.17229016879E+03  0.00000000000E+00 0.  1.
</event>
<event>
 4    1  0.3752836E+003  0.2066779E+02  0.7546771E-02  0.1524061E+00
          2   -1    0    0  502    0  0.00000000000E+00  0.00000000000E+00  0.27524696925E+03  0.27524696925E+03  0.00000000000E+00 0. -1.
          1   -1    0    0  501    0 -0.00000000000E+00 -0.00000000000E+00 -0.68540896911E+01  0.68540896911E+01  0.00000000000E+00 0.  1.
          2    1    1    2  501    0  0.16210185274E+02  0.12821372410E+02  0.25825512469E+03  0.25908081196E+03  0.00000000000E+00 0. -1.
          1    1    1    2  502    0 -0.16210185274E+02 -0.12821372410E+02  0.10137754861E+02  0.23020246973E+02  0.00000000000E+00 0.  1.
</event>
<event>
 4    1  0.3752836E+003  0.2182577E+02  0.7546771E-02  0.1507794E+00
          2   -1    0    0  502    0  0.00000000000E+00  0.00000000000E+00  0.10018076445E+03  0.10018076445E+03  0.00000000000E+00 0.  1.
          1   -1    0    0  501    0 -0.00000000000E+00 -0.00000000000E+00 -0.66295944792E+02  0.66295944792E+02  0.00000000000E+00 0. -1.
          2    1    1    2  501    0  0.16639061004E+02 -0.14124650046E+02  0.97140111817E+02  0.99561867268E+02  0.00000000000E+00 0.  1.
          1    1    1    2  502    0 -0.16639061004E+02  0.14124650046E+02 -0.63255292160E+02  0.66914841973E+02  0.00000000000E+00 0. -1.
</event>
<event>
 4    1  0.3752836E+003  0.2420228E+02  0.7546771E-02  0.1477929E+00
          2   -1    0    0  502    0  0.00000000000E+00  0.00000000000E+00  0.24601583914E+01  0.24601583914E+01  0.00000000000E+00 0.  1.
          1   -1    0    0  501    0 -0.00000000000E+00 -0.00000000000E+00 -0.69546723045E+03  0.69546723045E+03  0.00000000000E+00 0. -1.
          2    1    1    2  501    0 -0.62166403200E+01 -0.23390249509E+02 -0.63509681724E+02  0.67964917874E+02  0.00000000000E+00 0.  1.
          1    1    1    2  502    0  0.62166403200E+01  0.23390249509E+02 -0.62949739033E+03  0.62996247097E+03  0.00000000000E+00 0. -1.
</event>
<event>
 4    1  0.3752836E+003  0.4120786E+02  0.7546771E-02  0.1341550E+00
          2   -1    0    0  502    0  0.00000000000E+00  0.00000000000E+00  0.13678256882E+04  0.13678256882E+04  0.00000000000E+00 0.  1.
          1   -1    0    0  501    0 -0.00000000000E+00 -0.00000000000E+00 -0.16087680792E+01  0.16087680792E+01  0.00000000000E+00 0.  1.
          2    1    1    2  501    0 -0.83458859789E+01  0.40353854516E+02  0.10102876002E+04  0.10111276490E+04  0.00000000000E+00 0.  1.
          1    1    1    2  502    0  0.83458859789E+01 -0.40353854516E+02  0.35592931990E+03  0.35830680729E+03  0.00000000000E+00 0.  1.
</event>
<event>
 4    1  0.3752836E+003  0.2801774E+02  0.7546771E-02  0.1437644E+00
          2   -1    0    0  502    0  0.00000000000E+00  0.00000000000E+00  0.83072002702E+03  0.83072002702E+03  0.00000000000E+00 0.  1.
          1   -1    0    0  501    0 -0.00000000000E+00 -0.00000000000E+00 -0.18048484229E+02  0.18048484229E+02  0.00000000000E+00 0.  1.
          2    1    1    2  501    0  0.91203748410E+01  0.26491743243E+02  0.81946103451E+03  0.81993986412E+03  0.00000000000E+00 0.  1.
          1    1    1    2  502    0 -0.91203748410E+01 -0.26491743243E+02 -0.67894917202E+01  0.28828647126E+02  0.00000000000E+00 0.  1.
</event>
<event>
 4    1  0.3752836E+003  0.2023423E+02  0.7546771E-02  0.1530485E+00
          2   -1    0    0  502    0  0.00000000000E+00  0.00000000000E+00  0.52866065874E+03  0.52866065874E+03  0.00000000000E+00 0. -1.
          1   -1    0    0  501    0 -0.00000000000E+00 -0.00000000000E+00 -0.77448419117E+00  0.77448419117E+00  0.00000000000E+00 0. -1.
          2    1    1    2  501    0 -0.17322008341E+02  0.10458089570E+02  0.26230322481E+03  0.26308250674E+03  0.00000000000E+00 0. -1.
          1    1    1    2  502    0  0.17322008341E+02 -0.10458089570E+02  0.26558294974E+03  0.26635263619E+03  0.00000000000E+00 0. -1.
</event>
<event>
 4    1  0.3752836E+003  0.4050521E+02  0.7546771E-02  0.1345550E+00
          2   -1    0    0  502    0  0.00000000000E+00  0.00000000000E+00  0.60125540217E+03  0.60125540217E+03  0.00000000000E+00 0.  1.
          1   -1    0    0  501    0 -0.00000000000E+00 -0.00000000000E+00 -0.22288580444E+02  0.22288580444E+02  0.00000000000E+00 0. -1.
          2    1    1    2  501    0  0.47254429774E+01  0.40228625862E+02  0.58154772789E+03  0.58295662958E+03  0.00000000000E+00 0.  1.
          1    1    1    2  502    0 -0.47254429774E+01 -0.40228625862E+02 -0.25809061655E+01  0.40587353039E+02  0.00000000000E+00 0. -1.
</event>
<event>
 4    1  0.3752836E+003  0.2718953E+02  0.7546771E-02  0.1445713E+00
          2   -1    0    0  502    0  0.00000000000E+00  0.00000000000E+00  0.70945852007E+03  0.70945852007E+03  0.00000000000E+00 0. -1.
          1   -1    0    0  501    0 -0.00000000000E+00 -0.00000000000E+00 -0.23237656348E+01  0.23237656348E+01  0.00000000000E+00 0.  1.
          2    1    1    2  501    0  0.11109899896E+02  0.24816141095E+02  0.61788234518E+03  0.61848028523E+03  0.00000000000E+00 0. -1.
          1    1    1    2  502    0 -0.11109899896E+02 -0.24816141095E+02  0.89252409260E+02  0.93302000479E+02  0.00000000000E+00 0.  1.
</event>
<event>
 4    1  0.4661266E+003  0.2784062E+02  0.7546771E-02  0.1439342E+00
          2   -1    0    0  502    0  0.00000000000E+00  0.00000000000E+00  0.66430891426E+03  0.66430891426E+03  0.00000000000E+00 0.  1.
          1   -1    0    0  501    0 -0.00000000000E+00 -0.00000000000E+00 -0.12721292230E+04  0.12721292230E+04  0.00000000000E+00 0.  1.
          2    1    1    2  501    0  0.24254751056E+02  0.13667747909E+02  0.66386479477E+03  0.66444831704E+03  0.00000000000E+00 0.  1.
          1    1    1    2  502    0 -0.24254751056E+02 -0.13667747909E+02 -0.12716851035E+04  0.12719898202E+04  0.00000000000E+00 0.  1.
</event>
<event>
 4    1  0.3752836E+003  0.2089111E+02  0.7546771E-02  0.1520825E+00
          2   -1    0    0  502    0  0.00000000000E+00  0.00000000000E+00  0.11412715275E+03  0.11412715275E+03  0.00000000000E+00 0.  1.
          1   -1    0    0  501    0 -0.00000000000E+00 -0.00000000000E+00 -0.10953317163E+02  0.10953317163E+02  0.00000000000E+00 0. -1.
          2    1    1    2  501    0  0.19686502036E+02  0.69914361175E+01  0.10204215962E+03  0.10415872926E+03  0.00000000000E+00 0.  1.
          1    1    1    2  502    0 -0.19686502036E+02 -0.69914361175E+01  0.11316759672E+01  0.20921740652E+02  0.00000000000E+00 0. -1.
</event>
<event>
 4    1  0.3752836E+003  0.2453458E+02  0.7546771E-02  0.1474078E+00
          2   -1    0    0  502    0  0.00000000000E+00  0.00000000000E+00  0.11960954745E+04  0.11960954745E+04  0.00000000000E+00 0.  1.
          1   -1    0    0  501    0 -0.00000000000E+00 -0.00000000000E+00 -0.11771130230E+02  0.11771130230E+02  0.00000000000E+00 0.  1.
          2    1    1    2  501    0  0.17173460918E+02 -0.17521926325E+02  0.11830442752E+04  0.11832986533E+04  0.00000000000E+00 0.  1.
          1    1    1    2  502    0 -0.17173460918E+02  0.17521926325E+02  0.12800690305E+01  0.24567951456E+02  0.00000000000E+00 0.  1.
</event>
<event>
 4    1  0.3752836E+003  0.4927529E+02  0.7546771E-02  0.1301345E+00
          2   -1    0    0  502    0  0.00000000000E+00  0.00000000000E+00  0.86623033171E+03  0.86623033171E+03  0.00000000000E+00 0.  1.
          1   -1    0    0  501    0 -0.00000000000E+00 -0.00000000000E+00 -0.24262675451E+03  0.24262675451E+03  0.00000000000E+00 0.  1.
          2    1    1    2  501    0 -0.42901358380E+02 -0.24238964922E+02  0.86301843448E+03  0.86442401182E+03  0.00000000000E+00 0.  1.
          1    1    1    2  502    0  0.42901358380E+02  0.24238964922E+02 -0.23941485728E+03  0.24443307440E+03  0.00000000000E+00 0.  1.
</event>
<event>
 4    1  0.3752836E+003  0.3391881E+02  0.7546771E-02  0.1388328E+00
          2   -1    0    0  502    0  0.00000000000E+00  0.00000000000E+00  0.54067309664E+03  0.54067309664E+03  0.00000000000E+00 0.  1.
          1   -1    0    0  501    0 -0.00000000000E+00 -0.00000000000E+00 -0.58476167429E+03  0.58476167429E+03  0.00000000000E+00 0.  1.
          2    1    1    2  501    0  0.18008803253E+02  0.28743144241E+02  0.53964833375E+03  0.54071324143E+03  0.00000000000E+00 0.  1.
          1    1    1    2  502    0 -0.18008803253E+02 -0.28743144241E+02 -0.58373691140E+03  0.58472152951E+03  0.00000000000E+00 0.  1.
</event>
<event>
 4    1  0.3752836E+003  0.2046349E+02  0.7546771E-02  0.1527064E+00
          2   -1    0    0  502    0  0.00000000000E+00  0.00000000000E+00  0.61163400185E+03  0.61163400185E+03  0.00000000000E+00 0. -1.
          1   -1    0    0  501    0 -0.00000000000E+00 -0.00000000000E+00 -0.64900531520E+02  0.64900531520E+02  0.00000000000E+00 0.  1.
          2    1    1    2  501    0 -0.18078406002E+02 -0.95877894239E+01  0.60984504657E+03  0.61018827857E+03  0.00000000000E+00 0. -1.
          1    1    1    2  502    0  0.18078406002E+02  0.95877894239E+01 -0.63111576247E+02  0.66346254800E+02  0.00000000000E+00 0.  1.
</event>
<event>
 4    1  0.3752836E+003  0.2102267E+02  0.7546771E-02  0.1518941E+00
          2   -1    0    0  502    0  0.00000000000E+00  0.00000000000E+00  0.19509751093E+01  0.19509751093E+01  0.00000000000E+00 0.  1.
          1   -1    0    0  501    0 -0.00000000000E+00 -0.00000000000E+00 -0.12787318282E+04  0.12787318282E+04  0.00000000000E+00 0.  1.
          2    1    1    2  501    0  0.11693502728E+02  0.17470393413E+02 -0.57530313835E+02  0.61251038049E+02  0.00000000000E+00 0.  1.
          1    1    1    2  502    0 -0.11693502728E+02 -0.17470393413E+02 -0.12192505392E+04  0.12194317652E+04  0.00000000000E+00 0.  1.
</event>
<event>
 4    1  0.3752836E+003  0.4657388E+02  0.7546771E-02  0.1313752E+00
          2   -1    0    0  502    0  0.00000000000E+00  0.00000000000E+00  0.88635764806E+03  0.88635764806E+03  0.00000000000E+00 0. -1.
          1   -1    0    0  501    0 -0.00000000000E+00 -0.00000000000E+00 -0.58680852245E+01  0.58680852245E+01  0.00000000000E+00 0. -1.
          2    1    1    2  501    0  0.14650734446E+02  0.44209522112E+02  0.78085960432E+03  0.78224730586E+03  0.00000000000E+00 0. -1.
          1    1    1    2  502    0 -0.14650734446E+02 -0.44209522112E+02  0.99629958519E+02  0.10997842743E+03  0.00000000000E+00 0. -1.
</event>
<event>
 4    1  0.3752836E+003  0.2211037E+02  0.7546771E-02  0.1503982E+00
          2   -1    0    0  502    0  0.00000000000E+00  0.00000000000E+00  0.66359301656E+02  0.66359301656E+02  0.00000000000E+00 0.  1.
          1   -1    0    0  501    0 -0.00000000000E+00 -0.00000000000E+00 -0.31623585969E+02  0.31623585969E+02  0.00000000000E+00 0.  1.
          2    1    1    2  501    0 -0.21684458915E+02 -0.43189012697E+01  0.60274997142E+02  0.64202367145E+02  0.00000000000E+00 0.  1.
          1    1    1    2  502    0  0.21684458915E+02  0.43189012697E+01 -0.25539281455E+02  0.33780520479E+02  0.00000000000E+00 0.  1.
</event>
<event>
 4    1  0.3752836E+003  0.3437172E+02  0.7546771E-02  0.1385035E+00
          2   -1    0    0  502    0  0.00000000000E+00  0.00000000000E+00  0.24766307633E+04  0.24766307633E+04  0.00000000000E+00 0. -1.
          1   -1    0    0  501    0 -0.00000000000E+00 -0.00000000000E+00 -0.95232210875E+02  0.95232210875E+02  0.00000000000E+00 0.  1.
          2    1    1    2  501    0 -0.22522727323E+02  0.25964246619E+02  0.24734060568E+04  0.24736448688E+04  0.00000000000E+00 0. -1.
          1    1    1    2  502    0  0.22522727323E+02 -0.25964246619E+02 -0.92007504388E+02  0.98218105318E+02  0.00000000000E+00 0.  1.
</event>
<event>
 4    1  0.3752836E+003  0.1274550E+03  0.7546771E-02  0.1123260E+00
          2   -1    0    0  502    0  0.00000000000E+00  0.00000000000E+00  0.35744290462E+03  0.35744290462E+03  0.00000000000E+00 0. -1.
          1   -1    0    0  501    0 -0.00000000000E+00 -0.00000000000E+00 -0.49059780241E+02  0.49059780241E+02  0.00000000000E+00 0. -1.
          2    1    1    2  501    0  0.14638145081E+02  0.12661165259E+03  0.20934571903E+03  0.24509266807E+03  0.00000000000E+00 0. -1.
          1    1    1    2  502    0 -0.14638145081E+02 -0.12661165259E+03  0.99037405348E+02  0.16141001679E+03  0.00000000000E+00 0. -1.
</event>
<event>
 4    1  0.3752836E+003  0.2354770E+02  0.7546771E-02  0.1485733E+00
          2   -1    0    0  502    0  0.00000000000E+00  0.00000000000E+00  0.11185968767E+04  0.11185968767E+04  0.00000000000E+00 0.  1.
          1   -1    0    0  501    0 -0.00000000000E+00 -0.00000000000E+00 -0.26798803824E+03  0.26798803824E+03  0.00000000000E+00 0. -1.
          2    1    1    2  501    0  0.93765828399E+00  0.23529019641E+02  0.11179553788E+04  0.11182033460E+04  0.00000000000E+00 0.  1.
          1    1    1    2  502    0 -0.93765828399E+00 -0.23529019641E+02 -0.26734654030E+03  0.26838156900E+03  0.00000000000E+00 0. -1.
</event>
<event>
 4    1  0.3752836E+003  0.2108466E+02  0.7546771E-02  0.1518059E+00
          2   -1    0    0  502    0  0.00000000000E+00  0.00000000000E+00  0.23091701335E+02  0.23091701335E+02  0.00000000000E+00 0. -1.
          1   -1    0    0  501    0 -0.00000000000E+00 -0.00000000000E+00 -0.22746801132E+03  0.22746801132E+03  0.00000000000E+00 0.  1.
          2    1    1    2  501    0 -0.19624142423E+02  0.77107670379E+01  0.17672894685E+02  0.27511708429E+02  0.00000000000E+00 0. -1.
          1    1    1    2  502    0  0.19624142423E+02 -0.77107670379E+01 -0.22204920467E+03  0.22304800422E+03  0.00000000000E+00 0.  1.
</event>
<event>
 4    1  0.3752836E+003  0.3566287E+02  0.7546771E-02  0.1375962E+00
          2   -1    0    0  502    0  0.00000000000E+00  0.00000000000E+00  0.10054367553E+04  0.10054367553E+04  0.00000000000E+00 0.  1.
          1   -1    0    0  501    0 -0.00000000000E+00 -0.00000000000E+00 -0.29070381205E+01  0.29070381205E+01  0.00000000000E+00 0.  1.
          2    1    1    2  501    0  0.25030887356E+02  0.25402652215E+02  0.88018685043E+03  0.88090903715E+03  0.00000000000E+00 0.  1.
          1    1    1    2  502    0 -0.25030887356E+02 -0.25402652215E+02  0.12234286674E+03  0.12743475627E+03  0.00000000000E+00 0.  1.
</event>
<event>
 4    1  0.3752836E+003  0.2586450E+02  0.7546771E-02  0.1459360E+00
          2   -1    0    0  502    0  0.00000000000E+00  0.00000000000E+00  0.24411926283E+03  0.24411926283E+03  0.00000000000E+00 0.  1.
          1   -1    0    0  501    0 -0.00000000000E+00 -0.00000000000E+00 -0.75125623672E+01  0.75125623672E+01  0.00000000000E+00 0. -1.
          2    1    1    2  501    0  0.16091924288E+02 -0.20249009747E+02  0.21858035893E+03  0.22010530601E+03  0.00000000000E+00 0.  1.
          1    1    1    2  502    0 -0.16091924288E+02  0.20249009747E+02  0.18026341530E+02  0.31526519187E+02  0.00000000000E+00 0. -1.
</event>
<event>
 4    1  0.3752836E+003  0.3459324E+02  0.7546771E-02  0.1383446E+00
          2   -1    0    0  502    0  0.00000000000E+00  0.00000000000E+00  0.44544000370E+01  0.44544000370E+01  0.00000000000E+00 0. -1.
          1   -1    0    0  501    0 -0.00000000000E+00 -0.00000000000E+00 -0.31124348773E+03  0.31124348773E+03  0.00000000000E+00 0. -1.
          2    1    1    2  501    0 -0.42165388944E+01  0.34335303582E+02 -0.95003951106E+02  0.10110609773E+03  0.00000000000E+00 0. -1.
          1    1    1    2  502    0  0.42165388944E+01 -0.34335303582E+02 -0.21178513659E+03  0.21459179004E+03  0.00000000000E+00 0. -1.
</event>
<event>
 4    1  0.3752836E+003  0.2022688E+02  0.7546771E-02  0.1530595E+00
          2   -1    0    0  502    0  0.00000000000E+00  0.00000000000E+00  0.69718847372E+03  0.69718847372E+03  0.00000000000E+00 0.  1.
          1   -1    0    0  501    0 -0.00000000000E+00 -0.00000000000E+00 -0.97621920467E+02  0.97621920467E+02  0.00000000000E+00 0.  1.
          2    1    1    2  501    0  0.20226864956E+02 -0.20303090905E-01  0.69599223537E+03  0.69628608932E+03  0.00000000000E+00 0.  1.
          1    1    1    2  502    0 -0.20226864956E+02  0.20303090905E-01 -0.96425682118E+02  0.98524304870E+02  0.00000000000E+00 0.  1.
</event>
<event>
 4    1  0.3752836E+003  0.2244605E+02  0.7546771E-02  0.1499574E+00
          2   -1    0    0  502    0  0.00000000000E+00  0.00000000000E+00  0.64369233154E+03  0.64369233154E+03  0.00000000000E+00 0.  1.
          1   -1    0    0  501    0 -0.00000000000E+00 -0.00000000000E+00 -0.85909488672E+00  0.85909488672E+00  0.00000000000E+00 0. -1.
          2    1    1    2  501    0  0.17736829126E+02  0.13756087339E+02  0.41751321026E+03  0.41811613911E+03  0.00000000000E+00 0.  1.
          1    1    1    2  502    0 -0.17736829126E+02 -0.13756087339E+02  0.22532002639E+03  0.22643528731E+03  0.00000000000E+00 0. -1.
</event>
<event>
 4    1  0.3752836E+003  0.3338331E+02  0.7546771E-02  0.1392300E+00
          2   -1    0    0  502    0  0.00000000000E+00  0.00000000000E+00  0.55523633256E+01  0.55523633256E+01  0.00000000000E+00 0. -1.
          1   -1    0    0  501    0 -0.00000000000E+00 -0.00000000000E+00 -0.54050039919E+03  0.54050039919E+03  0.00000000000E+00 0. -1.
          2    1    1    2  501    0  0.22671849088E+02  0.24503723718E+02 -0.50998563887E+02  0.60953250411E+02  0.00000000000E+00 0. -1.
          1    1    1    2  502    0 -0.22671849088E+02 -0.24503723718E+02 -0.48394947197E+03  0.48509951210E+03  0.00000000000E+00 0. -1.
</event>
<event>
 4    1  0.3752836E+003  0.2748188E+02  0.7546771E-02  0.1442827E+00
          2   -1    0    0  502    0  0.00000000000E+00  0.00000000000E+00  0.13099899097E+03  0.13099899097E+03  0.00000000000E+00 0.  1.
          1   -1    0    0  501    0 -0.00000000000E+00 -0.00000000000E+00 -0.31332118330E+02  0.31332118330E+02  0.00000000000E+00 0. -1.
          2    1    1    2  501    0  0.27208060574E+02  0.38697486918E+01  0.12315216034E+03  0.12618125103E+03  0.00000000000E+00 0.  1.
          1    1    1    2  502    0 -0.27208060574E+02 -0.38697486918E+01 -0.23485287695E+02  0.36149858275E+02  0.00000000000E+00 0. -1.
</event>
<event>
 4    1  0.3752836E+003  0.3700453E+02  0.7546771E-02  0.1366993E+00
          2   -1    0    0  502    0  0.00000000000E+00  0.00000000000E+00  0.69742941703E+03  0.69742941703E+03  0.00000000000E+00 0. -1.
          1   -1    0    0  501    0 -0.00000000000E+00 -0.00000000000E+00 -0.23154248270E+01  0.23154248270E+01  0.00000000000E+00 0. -1.
          2    1    1    2  501    0  0.18786197480E+02  0.31881225944E+02  0.21113630411E+03  0.21435454905E+03  0.00000000000E+00 0. -1.
          1    1    1    2  502    0 -0.18786197480E+02 -0.31881225944E+02  0.48397768809E+03  0.48539029280E+03  0.00000000000E+00 0. -1.
</event>
<event>
 4    1  0.3752836E+003  0.2522538E+02  0.7546771E-02  0.1466298E+00
          2   -1    0    0  502    0  0.00000000000E+00  0.00000000000E+00  0.55671054375E+03  0.55671054375E+03  0.00000000000E+00 0. -1.
          1   -1    0    0  501    0 -0.00000000000E+00 -0.00000000000E+00 -0.34786389786E+03  0.34786389786E+03  0.00000000000E+00 0. -1.
          2    1    1    2  501    0  0.60508883490E+01 -0.24488905983E+02  0.55596687743E+03  0.55653884731E+03  0.00000000000E+00 0. -1.
          1    1    1    2  502    0 -0.60508883490E+01  0.24488905983E+02 -0.34712023153E+03  0.34803559431E+03  0.00000000000E+00 0. -1.
</event>
<event>
 4    1  0.3752836E+003  0.2833859E+02  0.7546771E-02  0.1434606E+00
          2   -1    0    0  502    0  0.00000000000E+00  0.00000000000E+00  0.16233360190E+04  0.16233360190E+04  0.00000000000E+00 0. -1.
          1   -1    0    0  501    0 -0.00000000000E+00 -0.00000000000E+00 -0.11085323748E+01  0.11085323748E+01  0.00000000000E+00 0.  1.
          2    1    1    2  501    0  0.13850812218E+02 -0.24723079844E+02  0.14155118953E+04  0.14157955366E+04  0.00000000000E+00 0. -1.
          1    1    1    2  502    0 -0.13850812218E+02  0.24723079844E+02  0.20671559131E+03  0.20864901477E+03  0.00000000000E+00 0.  1.
</event>
<event>
 4    1  0.3752836E+003  0.2097755E+02  0.7546771E-02  0.1519585E+00
          2   -1    0    0  502    0  0.00000000000E+00  0.00000000000E+00  0.41336655321E+03  0.41336655321E+03  0.00000000000E+00 0. -1.
          1   -1    0    0  501    0 -0.00000000000E+00 -0.00000000000E+00 -0.53666921926E+02  0.53666921926E+02  0.00000000000E+00 0.  1.
          2    1    1    2  501    0 -0.19934753962E+02  0.65317155186E+01  0.41103886086E+03  0.41157381217E+03  0.00000000000E+00 0. -1.
          1    1    1    2  502    0  0.19934753962E+02 -0.65317155186E+01 -0.51339229578E+02  0.55459662970E+02  0.00000000000E+00 0.  1.
</event>
<event>
 4    1  0.3752836E+003  0.2038942E+02  0.7546771E-02  0.1528164E+00
          2   -1    0    0  502    0  0.00000000000E+00  0.00000000000E+00  0.15057416093E+04  0.15057416093E+04  0.00000000000E+00 0. -1.
          1   -1    0    0  501    0 -0.00000000000E+00 -0.00000000000E+00 -0.47400117974E+00  0.47400117974E+00  0.00000000000E+00 0.  1.
          2    1    1    2  501    0 -0.15750439984E+02 -0.12948046477E+02  0.12392613886E+04  0.12394291095E+04  0.00000000000E+00 0. -1.
          1    1    1    2  502    0  0.15750439984E+02  0.12948046477E+02  0.26600621948E+03  0.26678650091E+03  0.00000000000E+00 0.  1.
</event>
<event>
 4    1  0.3752836E+003  0.2965210E+02  0.7546771E-02  0.1422644E+00
          2   -1    0    0  502    0  0.00000000000E+00  0.00000000000E+00  0.15442495999E+04  0.15442495999E+04  0.00000000000E+00 0. -1.
          1   -1    0    0  501    0 -0.00000000000E+00 -0.00000000000E+00 -0.69394019607E+02  0.69394019607E+02  0.00000000000E+00 0. -1.
          2    1    1    2  501    0  0.27914058827E+02 -0.10002627424E+02  0.15409328503E+04  0.15412181209E+04  0.00000000000E+00 0. -1.
          1    1    1    2  502    0 -0.27914058827E+02  0.10002627424E+02 -0.66077269981E+02  0.72425498574E+02  0.00000000000E+00 0. -1.
</event>
<event>
 4    1  0.3752836E+003  0.2619450E+02  0.7546771E-02  0.1455872E+00
          2   -1    0    0  502    0  0.00000000000E+00  0.00000000000E+00  0.17682494575E+04  0.17682494575E+04  0.00000000000E+00 0. -1.
          1   -1    0    0  501    0 -0.00000000000E+00 -0.00000000000E+00 -0.97568259540E+00  0.97568259540E+00  0.00000000000E+00 0. -1.
          2    1    1    2  501    0 -0.42889224212E+01  0.25840997484E+02  0.15701603111E+04  0.15703787933E+04  0.00000000000E+00 0. -1.
          1    1    1    2  502    0  0.42889224212E+01 -0.25840997484E+02  0.19711346383E+03  0.19884634679E+03  0.00000000000E+00 0. -1.
</event>
<event>
 4    1  0.3752836E+003  0.2156854E+02  0.7546771E-02  0.1511300E+00
          2   -1    0    0  502    0  0.00000000000E+00  0.00000000000E+00  0.23091683022E+03  0.23091683022E+03  0.00000000000E+00 0. -1.
          1   -1    0    0  501    0 -0.00000000000E+00 -0.00000000000E+00 -0.12804310738E+03  0.12804310738E+03  0.00000000000E+00 0. -1.
          2    1    1    2  501    0 -0.19609357239E+02 -0.89819244727E+01  0.22949929432E+03  0.23051058100E+03  0.00000000000E+00 0. -1.
          1    1    1    2  502    0  0.19609357239E+02  0.89819244727E+01 -0.12662557149E+03  0.12844935661E+03  0.00000000000E+00 0. -1.
</event>
<event>
 4    1  0.3752836E+003  0.2426759E+02  0.7546771E-02  0.1477166E+00
          2   -1    0    0  502    0  0.00000000000E+00  0.00000000000E+00  0.22961484669E+02  0.22961484669E+02  0.00000000000E+00 0.  1.
          1   -1    0    0  501    0 -0.00000000000E+00 -0.00000000000E+00 -0.24893777705E+03  0.24893777705E+03  0.00000000000E+00 0.  1.
          2    1    1    2  501    0  0.14174178181E+02 -0.19697934325E+02  0.15767729910E+02  0.28940235837E+02  0.00000000000E+00 0.  1.
          1    1    1    2  502    0 -0.14174178181E+02  0.19697934325E+02 -0.24174402229E+03  0.24295902588E+03  0.00000000000E+00 0.  1.
</event>
<event>
 4    1  0.3752836E+003  0.2119334E+02  0.7546771E-02  0.1516522E+00
          2   -1    0    0  502    0  0.00000000000E+00  0.00000000000E+00  0.22486162083E+03  0.22486162083E+03  0.00000000000E+00 0. -1.
          1   -1    0    0  501    0 -0.00000000000E+00 -0.00000000000E+00 -0.22231048405E+01  0.22231048405E+01  0.00000000000E+00 0. -1.
          2    1    1    2  501    0 -0.13533935844E+02  0.16309213643E+02  0.14749070966E+03  0.14900559488E+03  0.00000000000E+00 0. -1.
          1    1    1    2  502    0  0.13533935844E+02 -0.16309213643E+02  0.75147806326E+02  0.78079130788E+02  0.00000000000E+00 0. -1.
</event>
<event>
 4    1  0.3752836E+003  0.2437756E+02  0.7546771E-02  0.1475889E+00
          2   -1    0    0  502    0  0.00000000000E+00  0.00000000000E+00  0.13460752507E+04  0.13460752507E+04  0.00000000000E+00 0.  1.
          1   -1    0    0  501    0 -0.00000000000E+00 -0.00000000000E+00 -0.18749433224E+02  0.18749433224E+02  0.00000000000E+00 0. -1.
          2    1    1    2  501    0  0.24366259032E+02 -0.74209929021E+00  0.13379932452E+04  0.13382153001E+04  0.00000000000E+00 0.  1.
          1    1    1    2  502    0 -0.24366259032E+02  0.74209929021E+00 -0.10667427742E+02  0.26609383781E+02  0.00000000000E+00 0. -1.
</event>
<event>
 4    1  0.3752836E+003  0.2283391E+02  0.7546771E-02  0.1494594E+00
          2   -1    0    0  502    0  0.00000000000E+00  0.00000000000E+00  0.10506709787E+02  0.10506709787E+02  0.00000000000E+00 0.  1.
          1   -1    0    0  501    0 -0.00000000000E+00 -0.00000000000E+00 -0.10652009337E+03  0.10652009337E+03  0.00000000000E+00 0.  1.
          2    1    1    2  501    0 -0.22543614333E+02 -0.36294496953E+01 -0.52425365486E+01  0.23428009769E+02  0.00000000000E+00 0.  1.
          1    1    1    2  502    0  0.22543614333E+02  0.36294496953E+01 -0.90770847037E+02  0.93598793390E+02  0.00000000000E+00 0.  1.
</event>
<event>
 4    1  0.3752836E+003  0.2096678E+02  0.7546771E-02  0.1519740E+00
          2   -1    0    0  502    0  0.00000000000E+00  0.00000000000E+00  0.17214020921E+03  0.17214020921E+03  0.00000000000E+00 0. -1.
          1   -1    0    0  501    0 -0.00000000000E+00 -0.00000000000E+00 -0.29219563698E+03  0.29219563698E+03  0.00000000000E+00 0. -1.
          2    1    1    2  501    0 -0.55553718649E+01 -0.20217415947E+02  0.17112341774E+03  0.17240310370E+03  0.00000000000E+00 0. -1.
          1    1    1    2  502    0  0.55553718649E+01  0.20217415947E+02 -0.29117884551E+03  0.29193274249E+03  0.00000000000E+00 0. -1.
</event>
<event>
 4    1  0.3752836E+003  0.7227745E+02  0.7546771E-02  0.1223008E+00
          2   -1    0    0  502    0  0.00000000000E+00  0.00000000000E+00  0.30176686542E+03  0.30176686542E+03  0.00000000000E+00 0. -1.
          1   -1    0    0  501    0 -0.00000000000E+00 -0.00000000000E+00 -0.37293751468E+02  0.37293751468E+02  0.00000000000E+00 0. -1.
          2    1    1    2  501    0  0.72273295239E+02 -0.77499921230E+00  0.25633084384E+03  0.26632598696E+03  0.00000000000E+00 0. -1.
          1    1    1    2  502    0 -0.72273295239E+02  0.77499921230E+00  0.81422701189E+01  0.72734629931E+02  0.00000000000E+00 0. -1.
</event>
<event>
 4    1  0.3752836E+003  0.2003648E+02  0.7546771E-02  0.1533479E+00
          2   -1    0    0  502    0  0.00000000000E+00  0.00000000000E+00  0.20177907559E+01  0.20177907559E+01  0.00000000000E+00 0.  1.
          1   -1    0    0  501    0 -0.00000000000E+00 -0.00000000000E+00 -0.65224268900E+03  0.65224268900E+03  0.00000000000E+00 0.  1.
          2    1    1    2  501    0  0.20034445727E+02  0.28568299364E+00 -0.52402855668E+02  0.56102762076E+02  0.00000000000E+00 0.  1.
          1    1    1    2  502    0 -0.20034445727E+02 -0.28568299364E+00 -0.59782204257E+03  0.59815771768E+03  0.00000000000E+00 0.  1.
</event>
<event>
 4    1  0.3752836E+003  0.3061560E+02  0.7546771E-02  0.1414321E+00
          2   -1    0    0  502    0  0.00000000000E+00  0.00000000000E+00  0.67202469570E+03  0.67202469570E+03  0.00000000000E+00 0. -1.
          1   -1    0    0  501    0 -0.00000000000E+00 -0.00000000000E+00 -0.45730480618E+01  0.45730480618E+01  0.00000000000E+00 0. -1.
          2    1    1    2  501    0 -0.29950657907E+02  0.63460948872E+01  0.61575505645E+03  0.61651569678E+03  0.00000000000E+00 0. -1.
          1    1    1    2  502    0  0.29950657907E+02 -0.63460948872E+01  0.51696591190E+02  0.60082046986E+02  0.00000000000E+00 0. -1.
</event>
<event>
 4    1  0.3752836E+003  0.2823486E+02  0.7546771E-02  0.1435583E+00
          2   -1    0    0  502    0  0.00000000000E+00  0.00000000000E+00  0.46508721843E+03  0.46508721843E+03  0.00000000000E+00 0. -1.
          1   -1    0    0  501    0 -0.00000000000E+00 -0.00000000000E+00 -0.20692231419E+02  0.20692231419E+02  0.00000000000E+00 0. -1.
          2    1    1    2  501    0 -0.28079120429E+02  0.29614465880E+01  0.45480952582E+03  0.45568510174E+03  0.00000000000E+00 0. -1.
          1    1    1    2  502    0  0.28079120429E+02 -0.29614465880E+01 -0.10414538804E+02  0.30094348115E+02  0.00000000000E+00 0. -1.
</event>
<event>
 4    1  0.3752836E+003  0.2110171E+02  0.7546771E-02  0.1517818E+00
          2   -1    0    0  502    0  0.00000000000E+00  0.00000000000E+00  0.71187824383E+03  0.71187824383E+03  0.00000000000E+00 0. -1.
          1   -1    0    0  501    0 -0.00000000000E+00 -0.00000000000E+00 -0.10466645583E+02  0.10466645583E+02  0.00000000000E+00 0. -1.
          2    1    1    2  501    0 -0.76448030040E+01 -0.19668226525E+02  0.70091988225E+03  0.70123745157E+03  0.00000000000E+00 0. -1.
          1    1    1    2  502    0  0.76448030040E+01  0.19668226525E+02  0.49171599334E+00  0.21107437842E+02  0.00000000000E+00 0. -1.
</event>
<event>
 4    1  0.3752836E+003  0.2771375E+02  0.7546771E-02  0.1440567E+00
          2   -1    0    0  502    0  0.00000000000E+00  0.00000000000E+00  0.18753566726E+04  0.18753566726E+04  0.00000000000E+00 0. -1.
          1   -1    0    0  501    0 -0.00000000000E+00 -0.00000000000E+00 -0.87836555474E+01  0.87836555474E+01  0.00000000000E+00 0. -1.
          2    1    1    2  501    0  0.11130769245E+02  0.25380269165E+02  0.18531318642E+04  0.18533390834E+04  0.00000000000E+00 0. -1.
          1    1    1    2  502    0 -0.11130769245E+02 -0.25380269165E+02  0.13441152889E+02  0.30801244746E+02  0.00000000000E+00 0. -1.
</event>
<event>
 4    1  0.3752836E+003  0.2099252E+02  0.7546771E-02  0.1519372E+00
          2   -1    0    0  502    0  0.00000000000E+00  0.00000000000E+00  0.13181222358E+03  0.13181222358E+03  0.00000000000E+00 0.  1.
          1   -1    0    0  501    0 -0.00000000000E+00 -0.00000000000E+00 -0.81343784352E+01  0.81343784352E+01  0.00000000000E+00 0.  1.
          2    1    1    2  501    0 -0.64235894542E+01  0.19985580402E+02  0.11554055197E+03  0.11743212965E+03  0.00000000000E+00 0.  1.
          1    1    1    2  502    0  0.64235894542E+01 -0.19985580402E+02  0.81372931738E+01  0.22514472360E+02  0.00000000000E+00 0.  1.
</event>
<event>
 4    1  0.3752836E+003  0.2094199E+02  0.7546771E-02  0.1520095E+00
          2   -1    0    0  502    0  0.00000000000E+00  0.00000000000E+00  0.32547898369E+03  0.32547898369E+03  0.00000000000E+00 0. -1.
          1   -1    0    0  501    0 -0.00000000000E+00 -0.00000000000E+00 -0.15266081772E+01  0.15266081772E+01  0.00000000000E+00 0. -1.
          2    1    1    2  501    0 -0.16529961464E+02 -0.12857965885E+02  0.21798788790E+03  0.21899152080E+03  0.00000000000E+00 0. -1.
          1    1    1    2  502    0  0.16529961464E+02  0.12857965885E+02  0.10596448761E+03  0.10801407106E+03  0.00000000000E+00 0. -1.
</event>
<event>
 4    1  0.3752836E+003  0.3135422E+02  0.7546771E-02  0.1408182E+00
          2   -1    0    0  502    0  0.00000000000E+00  0.00000000000E+00  0.75230536872E+02  0.75230536872E+02  0.00000000000E+00 0.  1.
          1   -1    0    0  501    0 -0.00000000000E+00 -0.00000000000E+00 -0.12195277746E+03  0.12195277746E+03  0.00000000000E+00 0. -1.
          2    1    1    2  501    0 -0.80932990809E+00  0.31343776059E+02  0.69798685459E+02  0.76517604539E+02  0.00000000000E+00 0.  1.
          1    1    1    2  502    0  0.80932990809E+00 -0.31343776059E+02 -0.11652092605E+03  0.12066570979E+03  0.00000000000E+00 0. -1.
</event>
<event>
 4    1  0.3752836E+003  0.2593711E+02  0.7546771E-02  0.1458587E+00
          2   -1    0    0  502    0  0.00000000000E+00  0.00000000000E+00  0.45828115790E+02  0.45828115790E+02  0.00000000000E+00 0.  1.
          1   -1    0    0  501    0 -0.00000000000E+00 -0.00000000000E+00 -0.52880239649E+02  0.52880239649E+02  0.00000000000E+00 0.  1.
          2    1    1    2  501    0 -0.20327746563E+02 -0.16109509982E+02  0.38422118580E+02  0.46357230163E+02  0.00000000000E+00 0.  1.
          1    1    1    2  502    0  0.20327746563E+02  0.16109509982E+02 -0.45474242439E+02  0.52351125275E+02  0.00000000000E+00 0.  1.
</event>
<event>
 4    1  0.3752836E+003  0.2260194E+02  0.7546771E-02  0.1497558E+00
          2   -1    0    0  502    0  0.00000000000E+00  0.00000000000E+00  0.78096338508E+03  0.78096338508E+03  0.00000000000E+00 0. -1.
          1   -1    0    0  501    0 -0.00000000000E+00 -0.00000000000E+00 -0.66897536949E+00  0.66897536949E+00  0.00000000000E+00 0. -1.
          2    1    1    2  501    0  0.20720074608E+02 -0.90291755833E+01  0.44837620045E+03  0.44894550297E+03  0.00000000000E+00 0. -1.
          1    1    1    2  502    0 -0.20720074608E+02  0.90291755833E+01  0.33191820926E+03  0.33268685748E+03  0.00000000000E+00 0. -1.
</event>
<event>
 4    1  0.3752836E+003  0.2206370E+02  0.7546771E-02  0.1504602E+00
          2   -1    0    0  502    0  0.00000000000E+00  0.00000000000E+00  0.42561680133E+02  0.42561680133E+02  0.00000000000E+00 0. -1.
          1   -1    0    0  501    0 -0.00000000000E+00 -0.00000000000E+00 -0.11523501334E+02  0.11523501334E+02  0.00000000000E+00 0. -1.
          2    1    1    2  501    0 -0.12734093961E+02 -0.18018035337E+02  0.17852877910E+02  0.28381895569E+02  0.00000000000E+00 0. -1.
          1    1    1    2  502    0  0.12734093961E+02  0.18018035337E+02  0.13185300889E+02  0.25703285898E+02  0.00000000000E+00 0. -1.
</event>
<event>
 4    1  0.3752836E+003  0.2705232E+02  0.7546771E-02  0.1447083E+00
          2   -1    0    0  502    0  0.00000000000E+00  0.00000000000E+00  0.52255096438E+01  0.52255096438E+01  0.00000000000E+00 0. -1.
          1   -1    0    0  501    0 -0.00000000000E+00 -0.00000000000E+00 -0.61159174088E+03  0.61159174088E+03  0.00000000000E+00 0.  1.
          2    1    1    2  501    0 -0.57623425732E+01  0.26431483678E+02 -0.32378417010E+02  0.42192295617E+02  0.00000000000E+00 0. -1.
          1    1    1    2  502    0  0.57623425732E+01 -0.26431483678E+02 -0.57398781423E+03  0.57462495491E+03  0.00000000000E+00 0.  1.
</event>
<event>
 4    1  0.3752836E+003  0.2929473E+02  0.7546771E-02  0.1425826E+00
          2   -1    0    0  502    0  0.00000000000E+00  0.00000000000E+00  0.11811927094E+03  0.11811927094E+03  0.00000000000E+00 0. -1.
          1   -1    0    0  501    0 -0.00000000000E+00 -0.00000000000E+00 -0.75453471457E+01  0.75453471457E+01  0.00000000000E+00 0. -1.
          2    1    1    2  501    0 -0.22812363756E+02  0.18378714354E+02  0.67390127068E+02  0.73482040715E+02  0.00000000000E+00 0. -1.
          1    1    1    2  502    0  0.22812363756E+02 -0.18378714354E+02  0.43183796731E+02  0.52182577375E+02  0.00000000000E+00 0. -1.
</event>
<event>
 4    1  0.3752836E+003  0.5297266E+02  0.7546771E-02  0.1285774E+00
          2   -1    0    0  502    0  0.00000000000E+00  0.00000000000E+00  0.66490535492E+01  0.66490535492E+01  0.00000000000E+00 0.  1.
          1   -1    0    0  501    0 -0.00000000000E+00 -0.00000000000E+00 -0.10136863978E+04  0.10136863978E+04  0.00000000000E+00 0. -1.
          2    1    1    2  501    0  0.10827714527E+02  0.51854248495E+02 -0.11375997018E+03  0.12548877760E+03  0.00000000000E+00 0.  1.
          1    1    1    2  502    0 -0.10827714527E+02 -0.51854248495E+02 -0.89327737410E+03  0.89484667378E+03  0.00000000000E+00 0. -1.
</event>
<event>
 4    1  0.3752836E+003  0.5093875E+02  0.7546771E-02  0.1294153E+00
          2   -1    0    0  502    0  0.00000000000E+00  0.00000000000E+00  0.67606015627E+03  0.67606015627E+03  0.00000000000E+00 0. -1.
          1   -1    0    0  501    0 -0.00000000000E+00 -0.00000000000E+00 -0.45262310889E+03  0.45262310889E+03  0.00000000000E+00 0.  1.
          2    1    1    2  501    0 -0.42232275235E+02 -0.28481427020E+02  0.67366237104E+03  0.67558548453E+03  0.00000000000E+00 0. -1.
          1    1    1    2  502    0  0.42232275235E+02  0.28481427020E+02 -0.45022532365E+03  0.45309778063E+03  0.00000000000E+00 0.  1.
</event>
<event>
 4    1  0.3752836E+003  0.2036912E+02  0.7546771E-02  0.1528466E+00
          2   -1    0    0  502    0  0.00000000000E+00  0.00000000000E+00  0.41839662515E+01  0.41839662515E+01  0.00000000000E+00 0. -1.
          1   -1    0    0  501    0 -0.00000000000E+00 -0.00000000000E+00 -0.17458066460E+03  0.17458066460E+03  0.00000000000E+00 0. -1.
          2    1    1    2  501    0  0.14980375140E+02 -0.13801784496E+02 -0.26451338994E+02  0.33385239690E+02  0.00000000000E+00 0. -1.
          1    1    1    2  502    0 -0.14980375140E+02  0.13801784496E+02 -0.14394535935E+03  0.14537939116E+03  0.00000000000E+00 0. -1.
</event>
<event>
 4    1  0.3752836E+003  0.2111145E+02  0.7546771E-02  0.1517679E+00
          2   -1    0    0  502    0  0.00000000000E+00  0.00000000000E+00  0.18104663626E+03  0.18104663626E+03  0.00000000000E+00 0.  1.
          1   -1    0    0  501    0 -0.00000000000E+00 -0.00000000000E+00 -0.33976101326E+02  0.33976101326E+02  0.00000000000E+00 0. -1.
          2    1    1    2  501    0 -0.19021082542E+02  0.91592445326E+01  0.17707850444E+03  0.17833252669E+03  0.00000000000E+00 0.  1.
          1    1    1    2  502    0  0.19021082542E+02 -0.91592445326E+01 -0.30007969507E+02  0.36690210893E+02  0.00000000000E+00 0. -1.
</event>
<event>
 4    1  0.3752836E+003  0.2601709E+02  0.7546771E-02  0.1457740E+00
          2   -1    0    0  502    0  0.00000000000E+00  0.00000000000E+00  0.27956390382E+01  0.27956390382E+01  0.00000000000E+00 0.  1.
          1   -1    0    0  501    0 -0.00000000000E+00 -0.00000000000E+00 -0.27820348259E+03  0.27820348259E+03  0.00000000000E+00 0. -1.
          2    1    1    2  501    0 -0.11434409682E+02 -0.23369705937E+02 -0.87106421788E+02  0.90908842238E+02  0.00000000000E+00 0.  1.
          1    1    1    2  502    0  0.11434409682E+02  0.23369705937E+02 -0.18830142177E+03  0.19009027939E+03  0.00000000000E+00 0. -1.
</event>
<event>
 4    1  0.3752836E+003  0.2282908E+02  0.7546771E-02  0.1494656E+00
          2   -1    0    0  502    0  0.00000000000E+00  0.00000000000E+00  0.55173060140E+03  0.55173060140E+03  0.00000000000E+00 0.  1.
          1   -1    0    0  501    0 -0.00000000000E+00 -0.00000000000E+00 -0.30328962311E+01  0.30328962311E+01  0.00000000000E+00 0.  1.
          2    1    1    2  501    0  0.22819222247E+02 -0.67094142345E+00  0.50451673254E+03  0.50503296970E+03  0.00000000000E+00 0.  1.
          1    1    1    2  502    0 -0.22819222247E+02  0.67094142345E+00  0.44180972627E+02  0.49730527935E+02  0.00000000000E+00 0.  1.
</event>
<event>
 4    1  0.3752836E+003  0.3902031E+02  0.7546771E-02  0.1354324E+00
          2   -1    0    0  502    0  0.00000000000E+00  0.00000000000E+00  0.79352731549E+03  0.79352731549E+03  0.00000000000E+00 0.  1.
          1   -1    0    0  501    0 -0.00000000000E+00 -0.00000000000E+00 -0.23662093561E+01  0.23662093561E+01  0.00000000000E+00 0. -1.
          2    1    1    2  501    0  0.25987984322E+02  0.29106860913E+02  0.56863097162E+03  0.56996821540E+03  0.00000000000E+00 0.  1.
          1    1    1    2  502    0 -0.25987984322E+02 -0.29106860913E+02  0.22253013452E+03  0.22592530945E+03  0.00000000000E+00 0. -1.
</event>
<event>
 4    1  0.3752836E+003  0.2399831E+02  0.7546771E-02  0.1480329E+00
          2   -1    0    0  502    0  0.00000000000E+00  0.00000000000E+00  0.25806455696E+01  0.25806455696E+01  0.00000000000E+00 0. -1.
          1   -1    0    0  501    0 -0.00000000000E+00 -0.00000000000E+00 -0.22775867296E+03  0.22775867296E+03  0.00000000000E+00 0. -1.
          2    1    1    2  501    0  0.36148924838E+01  0.23724473400E+02 -0.12893940881E+03  0.13115368554E+03  0.00000000000E+00 0. -1.
          1    1    1    2  502    0 -0.36148924838E+01 -0.23724473400E+02 -0.96238618579E+02  0.99185632990E+02  0.00000000000E+00 0. -1.
</event>
<event>
 4    1  0.3752836E+003  0.2155701E+02  0.7546771E-02  0.1511459E+00
          2   -1    0    0  502    0  0.00000000000E+00  0.00000000000E+00  0.41057068564E+03  0.41057068564E+03  0.00000000000E+00 0. -1.
          1   -1    0    0  501    0 -0.00000000000E+00 -0.00000000000E+00 -0.13231057511E+02  0.13231057511E+02  0.00000000000E+00 0.  1.
          2    1    1    2  501    0  0.10970611551E+02  0.18556678501E+02  0.40130456090E+03  0.40188313629E+03  0.00000000000E+00 0. -1.
          1    1    1    2  502    0 -0.10970611551E+02 -0.18556678501E+02 -0.39649327735E+01  0.21918606860E+02  0.00000000000E+00 0.  1.
</event>
<event>
 4    1  0.3752836E+003  0.4353559E+02  0.7546771E-02  0.1328926E+00
          2   -1    0    0  502    0  0.00000000000E+00  0.00000000000E+00  0.99101661362E+02  0.99101661362E+02  0.00000000000E+00 0. -1.
          1   -1    0    0  501    0 -0.00000000000E+00 -0.00000000000E+00 -0.28157910561E+03  0.28157910561E+03  0.00000000000E+00 0. -1.
          2    1    1    2  501    0 -0.16852134351E+02  0.40141665705E+02  0.92523898233E+02  0.10225467961E+03  0.00000000000E+00 0. -1.
          1    1    1    2  502    0  0.16852134351E+02 -0.40141665705E+02 -0.27500134248E+03  0.27842608736E+03  0.00000000000E+00 0. -1.
</event>
<event>
 4    1  0.3752836E+003  0.2252784E+02  0.7546771E-02  0.1498514E+00
          2   -1    0    0  502    0  0.00000000000E+00  0.00000000000E+00  0.37974696619E+01  0.37974696619E+01  0.00000000000E+00 0.  1.
          1   -1    0    0  501    0 -0.00000000000E+00 -0.00000000000E+00 -0.25347684011E+03  0.25347684011E+03  0.00000000000E+00 0. -1.
          2    1    1    2  501    0  0.26360804043E+01  0.22373079562E+02 -0.36391729531E+02  0.42800252187E+02  0.00000000000E+00 0.  1.
          1    1    1    2  502    0 -0.26360804043E+01 -0.22373079562E+02 -0.21328764092E+03  0.21447405759E+03  0.00000000000E+00 0. -1.
</event>
<event>
 4    1  0.3752836E+003  0.2029085E+02  0.7546771E-02  0.1529635E+00
          2   -1    0    0  502    0  0.00000000000E+00  0.00000000000E+00  0.14176499762E+01  0.14176499762E+01  0.00000000000E+00 0. -1.
          1   -1    0    0  501    0 -0.00000000000E+00 -0.00000000000E+00 -0.14812555048E+04  0.14812555048E+04  0.00000000000E+00 0. -1.
          2    1    1    2  501    0  0.80065810412E+01  0.18644388171E+02 -0.75218849082E+02  0.77907597881E+02  0.00000000000E+00 0. -1.
          1    1    1    2  502    0 -0.80065810412E+01 -0.18644388171E+02 -0.14046190058E+04  0.14047655569E+04  0.00000000000E+00 0. -1.
</event>
<event>
 4    1  0.3752836E+003  0.2297209E+02  0.7546771E-02  0.1492849E+00
          2   -1    0    0  502    0  0.00000000000E+00  0.00000000000E+00  0.17928953175E+03  0.17928953175E+03  0.00000000000E+00 0.  1.
          1   -1    0    0  501    0 -0.00000000000E+00 -0.00000000000E+00 -0.60748366390E+01  0.60748366390E+01  0.00000000000E+00 0.  1.
          2    1    1    2  501    0  0.14765055311E+02  0.17598586312E+02  0.15315032161E+03  0.15486361131E+03  0.00000000000E+00 0.  1.
          1    1    1    2  502    0 -0.14765055311E+02 -0.17598586312E+02  0.20064373505E+02  0.30500757083E+02  0.00000000000E+00 0.  1.
</event>
<event>
 4    1  0.3752836E+003  0.2131676E+02  0.7546771E-02  0.1514790E+00
          2   -1    0    0  502    0  0.00000000000E+00  0.00000000000E+00  0.76574360554E+03  0.76574360554E+03  0.00000000000E+00 0. -1.
          1   -1    0    0  501    0 -0.00000000000E+00 -0.00000000000E+00 -0.39536385730E+01  0.39536385730E+01  0.00000000000E+00 0.  1.
          2    1    1    2  501    0  0.21878766167E+01 -0.21204187275E+02  0.73568834732E+03  0.73599711191E+03  0.00000000000E+00 0. -1.
          1    1    1    2  502    0 -0.21878766167E+01  0.21204187275E+02  0.26101619648E+02  0.33700132200E+02  0.00000000000E+00 0.  1.
</event>
<event>
 4    1  0.3752836E+003  0.3949362E+02  0.7546771E-02  0.1351479E+00
          2   -1    0    0  502    0  0.00000000000E+00  0.00000000000E+00  0.13245689509E+03  0.13245689509E+03  0.00000000000E+00 0. -1.
          1   -1    0    0  501    0 -0.00000000000E+00 -0.00000000000E+00 -0.12192246432E+02  0.12192246432E+02  0.00000000000E+00 0. -1.
          2    1    1    2  501    0 -0.35727419621E+02  0.16831437825E+02  0.73503861777E+02  0.83441976895E+02  0.00000000000E+00 0. -1.
          1    1    1    2  502    0  0.35727419621E+02 -0.16831437825E+02  0.46760786884E+02  0.61207164630E+02  0.00000000000E+00 0. -1.
</event>
<event>
 4    1  0.3752836E+003  0.2366231E+02  0.7546771E-02  0.1484345E+00
          2   -1    0    0  502    0  0.00000000000E+00  0.00000000000E+00  0.15164184761E+04  0.15164184761E+04  0.00000000000E+00 0.  1.
          1   -1    0    0  501    0 -0.00000000000E+00 -0.00000000000E+00 -0.49236063855E+01  0.49236063855E+01  0.00000000000E+00 0. -1.
          2    1    1    2  501    0 -0.19587108485E+02  0.13275916722E+02  0.14873407948E+04  0.14875290063E+04  0.00000000000E+00 0.  1.
          1    1    1    2  502    0  0.19587108485E+02 -0.13275916722E+02  0.24154074873E+02  0.33813076118E+02  0.00000000000E+00 0. -1.
</event>
<event>
 4    1  0.3752836E+003  0.2124398E+02  0.7546771E-02  0.1515810E+00
          2   -1    0    0  502    0  0.00000000000E+00  0.00000000000E+00  0.63445811604E+03  0.63445811604E+03  0.00000000000E+00 0. -1.
          1   -1    0    0  501    0 -0.00000000000E+00 -0.00000000000E+00 -0.10447419407E+02  0.10447419407E+02  0.00000000000E+00 0.  1.
          2    1    1    2  501    0  0.20397627456E+02  0.59366310383E+01  0.62328730781E+03  0.62364924025E+03  0.00000000000E+00 0. -1.
          1    1    1    2  502    0 -0.20397627456E+02 -0.59366310383E+01  0.72338882272E+00  0.21256295192E+02  0.00000000000E+00 0.  1.
</event>
<event>
 4    1  0.3752836E+003  0.3530168E+02  0.7546771E-02  0.1378455E+00
          2   -1    0    0  502    0  0.00000000000E+00  0.00000000000E+00  0.21364836381E+04  0.21364836381E+04  0.00000000000E+00 0. -1.
          1   -1    0    0  501    0 -0.00000000000E+00 -0.00000000000E+00 -0.79703841173E+00  0.79703841173E+00  0.00000000000E+00 0. -1.
          2    1    1    2  501    0  0.20968657560E+02 -0.28399363277E+02  0.16212372435E+04  0.16216215367E+04  0.00000000000E+00 0. -1.
          1    1    1    2  502    0 -0.20968657560E+02  0.28399363277E+02  0.51444935616E+03  0.51565913983E+03  0.00000000000E+00 0. -1.
</event>
<event>
 4    1  0.3752836E+003  0.2620056E+02  0.7546771E-02  0.1455808E+00
          2   -1    0    0  502    0  0.00000000000E+00  0.00000000000E+00  0.30175858397E+03  0.30175858397E+03  0.00000000000E+00 0. -1.
          1   -1    0    0  501    0 -0.00000000000E+00 -0.00000000000E+00 -0.31936668305E+01  0.31936668305E+01  0.00000000000E+00 0. -1.
          2    1    1    2  501    0 -0.22295790898E+02  0.13761077742E+02  0.23106498453E+03  0.23254568719E+03  0.00000000000E+00 0. -1.
          1    1    1    2  502    0  0.22295790898E+02 -0.13761077742E+02  0.67499932611E+02  0.72406563617E+02  0.00000000000E+00 0. -1.
</event>
<event>
 4    1  0.3752836E+003  0.3543888E+02  0.7546771E-02  0.1377504E+00
          2   -1    0    0  502    0  0.00000000000E+00  0.00000000000E+00  0.70582279233E+01  0.70582279233E+01  0.00000000000E+00 0. -1.
          1   -1    0    0  501    0 -0.00000000000E+00 -0.00000000000E+00 -0.20765249036E+03  0.20765249036E+03  0.00000000000E+00 0.  1.
          2    1    1    2  501    0 -0.11820608670E+02 -0.33409392672E+02 -0.59685316202E+02  0.69413624586E+02  0.00000000000E+00 0. -1.
          1    1    1    2  502    0  0.11820608670E+02  0.33409392672E+02 -0.14090894624E+03  0.14529709370E+03  0.00000000000E+00 0.  1.
</event>
<event>
 4    1  0.3752836E+003  0.2001589E+02  0.7546771E-02  0.1533793E+00
          2   -1    0    0  502    0  0.00000000000E+00  0.00000000000E+00  0.14432119529E+04  0.14432119529E+04  0.00000000000E+00 0. -1.
          1   -1    0    0  501    0 -0.00000000000E+00 -0.00000000000E+00 -0.92314447984E+01  0.92314447984E+01  0.00000000000E+00 0.  1.
          2    1    1    2  501    0  0.15160760799E+02  0.13068558524E+02  0.14322094457E+04  0.14323493052E+04  0.00000000000E+00 0. -1.
          1    1    1    2  502    0 -0.15160760799E+02 -0.13068558524E+02  0.17710624147E+01  0.20094092464E+02  0.00000000000E+00 0.  1.
</event>
<event>
 4    1  0.3752836E+003  0.6355468E+02  0.7546771E-02  0.1248211E+00
          2   -1    0    0  502    0  0.00000000000E+00  0.00000000000E+00  0.74267446778E+03  0.74267446778E+03  0.00000000000E+00 0.  1.
          1   -1    0    0  501    0 -0.00000000000E+00 -0.00000000000E+00 -0.22191268822E+02  0.22191268822E+02  0.00000000000E+00 0.  1.
          2    1    1    2  501    0  0.61327997110E+02  0.16675546532E+02  0.69252191495E+03  0.69543209572E+03  0.00000000000E+00 0.  1.
          1    1    1    2  502    0 -0.61327997110E+02 -0.16675546532E+02  0.27961284008E+02  0.69433640875E+02  0.00000000000E+00 0.  1.
</event>
<event>
 4    1  0.3752836E+003  0.2021107E+02  0.7546771E-02  0.1530833E+00
          2   -1    0    0  502    0  0.00000000000E+00  0.00000000000E+00  0.70361940565E+02  0.70361940565E+02  0.00000000000E+00 0. -1.
          1   -1    0    0  501    0 -0.00000000000E+00 -0.00000000000E+00 -0.13155007369E+02  0.13155007369E+02  0.00000000000E+00 0. -1.
          2    1    1    2  501    0  0.15972715726E+02  0.12383844531E+02  0.59815909682E+02  0.63138184200E+02  0.00000000000E+00 0. -1.
          1    1    1    2  502    0 -0.15972715726E+02 -0.12383844531E+02 -0.26089764853E+01  0.20378763734E+02  0.00000000000E+00 0. -1.
</event>
<event>
 4    1  0.3752836E+003  0.2414708E+02  0.7546771E-02  0.1478575E+00
          2   -1    0    0  502    0  0.00000000000E+00  0.00000000000E+00  0.34793841953E+01  0.34793841953E+01  0.00000000000E+00 0.  1.
          1   -1    0    0  501    0 -0.00000000000E+00 -0.00000000000E+00 -0.21783194290E+03  0.21783194290E+03  0.00000000000E+00 0.  1.
          2    1    1    2  501    0 -0.23436014141E+02  0.58167735470E+01 -0.54028963937E+02  0.59179477502E+02  0.00000000000E+00 0.  1.
          1    1    1    2  502    0  0.23436014141E+02 -0.58167735470E+01 -0.16032359477E+03  0.16213184960E+03  0.00000000000E+00 0.  1.
</event>
<event>
 4    1  0.3752836E+003  0.2495980E+02  0.7546771E-02  0.1469254E+00
          2   -1    0    0  502    0  0.00000000000E+00  0.00000000000E+00  0.75101398459E+03  0.75101398459E+03  0.00000000000E+00 0. -1.
          1   -1    0    0  501    0 -0.00000000000E+00 -0.00000000000E+00 -0.14083083250E+03  0.14083083250E+03  0.00000000000E+00 0. -1.
          2    1    1    2  501    0 -0.24937323638E+02 -0.10589177967E+01  0.74969873995E+03  0.75011411939E+03  0.00000000000E+00 0. -1.
          1    1    1    2  502    0  0.24937323638E+02  0.10589177967E+01 -0.13951558785E+03  0.14173069770E+03  0.00000000000E+00 0. -1.
</event>
<event>
 4    1  0.3752836E+003  0.2895626E+02  0.7546771E-02  0.1428888E+00
          2   -1    0    0  502    0  0.00000000000E+00  0.00000000000E+00  0.24068076389E+03  0.24068076389E+03  0.00000000000E+00 0. -1.
          1   -1    0    0  501    0 -0.00000000000E+00 -0.00000000000E+00 -0.37029602027E+01  0.37029602027E+01  0.00000000000E+00 0. -1.
          2    1    1    2  501    0 -0.39381633855E+01  0.28687210150E+02  0.14822094161E+03  0.15102288796E+03  0.00000000000E+00 0. -1.
          1    1    1    2  502    0  0.39381633855E+01 -0.28687210150E+02  0.88756862083E+02  0.93360836136E+02  0.00000000000E+00 0. -1.
</event>
<event>
 4    1  0.3752836E+003  0.2051997E+02  0.7546771E-02  0.1526230E+00
          2   -1    0    0  502    0  0.00000000000E+00  0.00000000000E+00  0.20624722797E+02  0.20624722797E+02  0.00000000000E+00 0.  1.
          1   -1    0    0  501    0 -0.00000000000E+00 -0.00000000000E+00 -0.25669005987E+03  0.25669005987E+03  0.00000000000E+00 0.  1.
          2    1    1    2  501    0  0.33193352943E+01  0.20249715625E+02  0.14996464521E+02  0.25415800554E+02  0.00000000000E+00 0.  1.
          1    1    1    2  502    0 -0.33193352943E+01 -0.20249715625E+02 -0.25106180159E+03  0.25189898211E+03  0.00000000000E+00 0.  1.
</event>
<event>
 4    1  0.3752836E+003  0.3062840E+02  0.7546771E-02  0.1414213E+00
          2   -1    0    0  502    0  0.00000000000E+00  0.00000000000E+00  0.13883837224E+04  0.13883837224E+04  0.00000000000E+00 0. -1.
          1   -1    0    0  501    0 -0.00000000000E+00 -0.00000000000E+00 -0.54103623063E+02  0.54103623063E+02  0.00000000000E+00 0.  1.
          2    1    1    2  501    0  0.25883517317E+02  0.16375053574E+02  0.13838659216E+04  0.13842048214E+04  0.00000000000E+00 0. -1.
          1    1    1    2  502    0 -0.25883517317E+02 -0.16375053574E+02 -0.49585822188E+02  0.58282524056E+02  0.00000000000E+00 0.  1.
</event>
<event>
 4    1  0.5315693E+003  0.2475082E+02  0.7546771E-02  0.1471610E+00
          2   -1    0    0  502    0  0.00000000000E+00  0.00000000000E+00  0.13577113942E+04  0.13577113942E+04  0.00000000000E+00 0. -1.
          1   -1    0    0  501    0 -0.00000000000E+00 -0.00000000000E+00 -0.11823597221E+04  0.11823597221E+04  0.00000000000E+00 0. -1.
          2    1    1    2  501    0 -0.23348728970E+02  0.82121936672E+01  0.13574690405E+04  0.13576946635E+04  0.00000000000E+00 0. -1.
          1    1    1    2  502    0  0.23348728970E+02 -0.82121936672E+01 -0.11821173685E+04  0.11823764528E+04  0.00000000000E+00 0. -1.
</event>
<event>
 4    1  0.3752836E+003  0.2416911E+02  0.7546771E-02  0.1478317E+00
          2   -1    0    0  502    0  0.00000000000E+00  0.00000000000E+00  0.88504305860E+03  0.88504305860E+03  0.00000000000E+00 0.  1.
          1   -1    0    0  501    0 -0.00000000000E+00 -0.00000000000E+00 -0.11776771464E+01  0.11776771464E+01  0.00000000000E+00 0.  1.
          2    1    1    2  501    0  0.15854189217E+02 -0.18242548684E+02  0.73571118457E+03  0.73610807155E+03  0.00000000000E+00 0.  1.
          1    1    1    2  502    0 -0.15854189217E+02  0.18242548684E+02  0.14815419688E+03  0.15011266419E+03  0.00000000000E+00 0.  1.
</event>
<event>
 4    1  0.3752836E+003  0.5827322E+02  0.7546771E-02  0.1265815E+00
          2   -1    0    0  502    0  0.00000000000E+00  0.00000000000E+00  0.14779050108E+03  0.14779050108E+03  0.00000000000E+00 0.  1.
          1   -1    0    0  501    0 -0.00000000000E+00 -0.00000000000E+00 -0.26395846457E+03  0.26395846457E+03  0.00000000000E+00 0. -1.
          2    1    1    2  501    0 -0.29109033016E+02  0.50482003324E+02  0.13862610452E+03  0.15037607960E+03  0.00000000000E+00 0.  1.
          1    1    1    2  502    0  0.29109033016E+02 -0.50482003324E+02 -0.25479406801E+03  0.26137288604E+03  0.00000000000E+00 0. -1.
</event>
<event>
 4    1  0.3752836E+003  0.2078087E+02  0.7546771E-02  0.1522417E+00
          2   -1    0    0  502    0  0.00000000000E+00  0.00000000000E+00  0.13844048553E+04  0.13844048553E+04  0.00000000000E+00 0. -1.
          1   -1    0    0  501    0 -0.00000000000E+00 -0.00000000000E+00 -0.15079085159E+01  0.15079085159E+01  0.00000000000E+00 0. -1.
          2    1    1    2  501    0  0.24523632635E+01  0.20635657113E+02  0.13085820414E+04  0.13087470357E+04  0.00000000000E+00 0. -1.
          1    1    1    2  502    0 -0.24523632635E+01 -0.20635657113E+02  0.74314905327E+02  0.77165728040E+02  0.00000000000E+00 0. -1.
</event>
<event>
 4    1  0.3752836E+003  0.2851299E+02  0.7546771E-02  0.1432974E+00
          2   -1    0    0  502    0  0.00000000000E+00  0.00000000000E+00  0.54182106536E+03  0.54182106536E+03  0.00000000000E+00 0. -1.
          1   -1    0    0  501    0 -0.00000000000E+00 -0.00000000000E+00 -0.16710932175E+01  0.16710932175E+01  0.00000000000E+00 0. -1.
          2    1    1    2  501    0  0.10076661796E+02 -0.26673052670E+02  0.35690526828E+03  0.35804240165E+03  0.00000000000E+00 0. -1.
          1    1    1    2  502    0 -0.10076661796E+02  0.26673052670E+02  0.18324470386E+03  0.18544975693E+03  0.00000000000E+00 0. -1.
</event>
<event>
 4    1  0.3752836E+003  0.3593270E+02  0.7546771E-02  0.1374122E+00
          2   -1    0    0  502    0  0.00000000000E+00  0.00000000000E+00  0.17712723291E+04  0.17712723291E+04  0.00000000000E+00 0. -1.
          1   -1    0    0  501    0 -0.00000000000E+00 -0.00000000000E+00 -0.33352763767E+02  0.33352763767E+02  0.00000000000E+00 0.  1.
          2    1    1    2  501    0  0.35928734991E+02 -0.53353638476E+00  0.17613575720E+04  0.17617240576E+04  0.00000000000E+00 0. -1.
          1    1    1    2  502    0 -0.35928734991E+02  0.53353638476E+00 -0.23438006758E+02  0.42901035185E+02  0.00000000000E+00 0.  1.
</event>
<event>
 4    1  0.3752836E+003  0.3539238E+02  0.7546771E-02  0.1377825E+00
          2   -1    0    0  502    0  0.00000000000E+00  0.00000000000E+00  0.10958477169E+04  0.10958477169E+04  0.00000000000E+00 0. -1.
          1   -1    0    0  501    0 -0.00000000000E+00 -0.00000000000E+00 -0.52324459052E+02  0.52324459052E+02  0.00000000000E+00 0. -1.
          2    1    1    2  501    0 -0.16720261496E+02  0.31193807997E+02  0.10895424536E+04  0.10901171401E+04  0.00000000000E+00 0. -1.
          1    1    1    2  502    0  0.16720261496E+02 -0.31193807997E+02 -0.46019195827E+02  0.58055035841E+02  0.00000000000E+00 0. -1.
</event>
<event>
 4    1  0.3752836E+003  0.2024141E+02  0.7546771E-02  0.1530377E+00
          2   -1    0    0  502    0  0.00000000000E+00  0.00000000000E+00  0.96888379747E+03  0.96888379747E+03  0.00000000000E+00 0.  1.
          1   -1    0    0  501    0 -0.00000000000E+00 -0.00000000000E+00 -0.55375570564E+01  0.55375570564E+01  0.00000000000E+00 0. -1.
          2    1    1    2  501    0  0.12636618865E+01  0.20201929602E+02  0.94991159454E+03  0.95012722950E+03  0.00000000000E+00 0.  1.
          1    1    1    2  502    0 -0.12636618865E+01 -0.20201929602E+02  0.13434645879E+02  0.24294125029E+02  0.00000000000E+00 0. -1.
</event>
<event>
 4    1  0.3752836E+003  0.2021865E+02  0.7546771E-02  0.1530719E+00
          2   -1    0    0  502    0  0.00000000000E+00  0.00000000000E+00  0.98396792125E+02  0.98396792125E+02  0.00000000000E+00 0. -1.
          1   -1    0    0  501    0 -0.00000000000E+00 -0.00000000000E+00 -0.15756189935E+02  0.15756189935E+02  0.00000000000E+00 0. -1.
          2    1    1    2  501    0 -0.17513917519E+02  0.10102300956E+02  0.90297220788E+02  0.92533139326E+02  0.00000000000E+00 0. -1.
          1    1    1    2  502    0  0.17513917519E+02 -0.10102300956E+02 -0.76566185974E+01  0.21619842734E+02  0.00000000000E+00 0. -1.
</event>
<event>
 4    1  0.3752836E+003  0.2153378E+02  0.7546771E-02  0.1511779E+00
          2   -1    0    0  502    0  0.00000000000E+00  0.00000000000E+00  0.49446473969E+02  0.49446473969E+02  0.00000000000E+00 0. -1.
          1   -1    0    0  501    0 -0.00000000000E+00 -0.00000000000E+00 -0.54891777764E+02  0.54891777764E+02  0.00000000000E+00 0. -1.
          2    1    1    2  501    0 -0.10799229638E+02 -0.18630089525E+02  0.44781533861E+02  0.49689932294E+02  0.00000000000E+00 0. -1.
          1    1    1    2  502    0  0.10799229638E+02  0.18630089525E+02 -0.50226837657E+02  0.54648319439E+02  0.00000000000E+00 0. -1.
</event>
<event>
 4    1  0.3752836E+003  0.2439349E+02  0.7546771E-02  0.1475704E+00
          2   -1    0    0  502    0  0.00000000000E+00  0.00000000000E+00  0.48978668645E+03  0.48978668645E+03  0.00000000000E+00 0. -1.
          1   -1    0    0  501    0 -0.00000000000E+00 -0.00000000000E+00 -0.96024274075E+03  0.96024274075E+03  0.00000000000E+00 0.  1.
          2    1    1    2  501    0 -0.13901876618E+02  0.20044454110E+02  0.48932789629E+03  0.48993553903E+03  0.00000000000E+00 0. -1.
          1    1    1    2  502    0  0.13901876618E+02 -0.20044454110E+02 -0.95978395059E+03  0.96009388818E+03  0.00000000000E+00 0.  1.
</event>
<event>
 4    1  0.3752836E+003  0.2142548E+02  0.7546771E-02  0.1513276E+00
          2   -1    0    0  502    0  0.00000000000E+00  0.00000000000E+00  0.47534867415E+03  0.47534867415E+03  0.00000000000E+00 0. -1.
          1   -1    0    0  501    0 -0.00000000000E+00 -0.00000000000E+00 -0.95317775093E+01  0.95317775093E+01  0.00000000000E+00 0. -1.
          2    1    1    2  501    0  0.18675319580E+02  0.10501591676E+02  0.46273932318E+03  0.46323507230E+03  0.00000000000E+00 0. -1.
          1    1    1    2  502    0 -0.18675319580E+02 -0.10501591676E+02  0.30775734562E+01  0.21645379357E+02  0.00000000000E+00 0. -1.
</event>
<event>
 4    1  0.3752836E+003  0.2258531E+02  0.7546771E-02  0.1497772E+00
          2   -1    0    0  502    0  0.00000000000E+00  0.00000000000E+00  0.89682549062E+02  0.89682549062E+02  0.00000000000E+00 0.  1.
          1   -1    0    0  501    0 -0.00000000000E+00 -0.00000000000E+00 -0.11163017202E+04  0.11163017202E+04  0.00000000000E+00 0. -1.
          2    1    1    2  501    0  0.11686527427E+02 -0.19326697394E+02  0.88144399982E+02  0.90991930431E+02  0.00000000000E+00 0.  1.
          1    1    1    2  502    0 -0.11686527427E+02  0.19326697394E+02 -0.11147635711E+04  0.11149923388E+04  0.00000000000E+00 0. -1.
</event>
<event>
 4    1  0.3752836E+003  0.2223117E+02  0.7546771E-02  0.1502385E+00
          2   -1    0    0  502    0  0.00000000000E+00  0.00000000000E+00  0.11446407016E+03  0.11446407016E+03  0.00000000000E+00 0.  1.
          1   -1    0    0  501    0 -0.00000000000E+00 -0.00000000000E+00 -0.46269255342E+01  0.46269255342E+01  0.00000000000E+00 0.  1.
          2    1    1    2  501    0  0.22016919790E+02 -0.30790154677E+01  0.70311399755E+02  0.73742240465E+02  0.00000000000E+00 0.  1.
          1    1    1    2  502    0 -0.22016919790E+02  0.30790154677E+01  0.39525744875E+02  0.45348755234E+02  0.00000000000E+00 0.  1.
</event>
<event>
 4    1  0.3752836E+003  0.2156852E+02  0.7546771E-02  0.1511300E+00
          2   -1    0    0  502    0  0.00000000000E+00  0.00000000000E+00  0.19234938477E+03  0.19234938477E+03  0.00000000000E+00 0. -1.
          1   -1    0    0  501    0 -0.00000000000E+00 -0.00000000000E+00 -0.77513298837E+01  0.77513298837E+01  0.00000000000E+00 0. -1.
          2    1    1    2  501    0 -0.21301423257E+02 -0.33838388837E+01  0.17528573791E+03  0.17660773175E+03  0.00000000000E+00 0. -1.
          1    1    1    2  502    0  0.21301423257E+02  0.33838388837E+01  0.93123169763E+01  0.23492982906E+02  0.00000000000E+00 0. -1.
</event>
<event>
 4    1  0.3752836E+003  0.2062024E+02  0.7546771E-02  0.1524756E+00
          2   -1    0    0  502    0  0.00000000000E+00  0.00000000000E+00  0.99182170981E+01  0.99182170981E+01  0.00000000000E+00 0. -1.
          1   -1    0    0  501    0 -0.00000000000E+00 -0.00000000000E+00 -0.68406253066E+02  0.68406253066E+02  0.00000000000E+00 0. -1.
          2    1    1    2  501    0  0.10124113822E+02 -0.17963758872E+02 -0.53164885889E+01  0.21294585330E+02  0.00000000000E+00 0. -1.
          1    1    1    2  502    0 -0.10124113822E+02  0.17963758872E+02 -0.53171547379E+02  0.57029884834E+02  0.00000000000E+00 0. -1.
</event>
<event>
 4    1  0.3752836E+003  0.6750185E+02  0.7546771E-02  0.1236274E+00
          2   -1    0    0  502    0  0.00000000000E+00  0.00000000000E+00  0.11369142394E+03  0.11369142394E+03  0.00000000000E+00 0. -1.
          1   -1    0    0  501    0 -0.00000000000E+00 -0.00000000000E+00 -0.53631772596E+02  0.53631772596E+02  0.00000000000E+00 0. -1.
          2    1    1    2  501    0 -0.65083019907E+02 -0.17908097509E+02  0.72087840092E+02  0.98758068661E+02  0.00000000000E+00 0. -1.
          1    1    1    2  502    0  0.65083019907E+02  0.17908097509E+02 -0.12028188744E+02  0.68565127878E+02  0.00000000000E+00 0. -1.
</event>
<event>
 4    1  0.3752836E+003  0.2045447E+02  0.7546771E-02  0.1527198E+00
          2   -1    0    0  502    0  0.00000000000E+00  0.00000000000E+00  0.82234470917E+01  0.82234470917E+01  0.00000000000E+00 0. -1.
          1   -1    0    0  501    0 -0.00000000000E+00 -0.00000000000E+00 -0.18767580011E+03  0.18767580011E+03  0.00000000000E+00 0. -1.
          2    1    1    2  501    0 -0.15741215651E+02  0.13061368791E+02 -0.61005080414E+01  0.21344821930E+02  0.00000000000E+00 0. -1.
          1    1    1    2  502    0  0.15741215651E+02 -0.13061368791E+02 -0.17335184497E+03  0.17455442527E+03  0.00000000000E+00 0. -1.
</event>
<event>
 4    1  0.3752836E+003  0.2020737E+02  0.7546771E-02  0.1530889E+00
          2   -1    0    0  502    0  0.00000000000E+00  0.00000000000E+00  0.32843142662E+03  0.32843142662E+03  0.00000000000E+00 0. -1.
          1   -1    0    0  501    0 -0.00000000000E+00 -0.00000000000E+00 -0.41344704870E+03  0.41344704870E+03  0.00000000000E+00 0. -1.
          2    1    1    2  501    0 -0.15987136328E+02 -0.12359185766E+02  0.32787327159E+03  0.32849538844E+03  0.00000000000E+00 0. -1.
          1    1    1    2  502    0  0.15987136328E+02  0.12359185766E+02 -0.41288889368E+03  0.41338308688E+03  0.00000000000E+00 0. -1.
</event>
<event>
 4    1  0.3752836E+003  0.2951802E+02  0.7546771E-02  0.1423832E+00
          2   -1    0    0  502    0  0.00000000000E+00  0.00000000000E+00  0.89605008763E+01  0.89605008763E+01  0.00000000000E+00 0. -1.
          1   -1    0    0  501    0 -0.00000000000E+00 -0.00000000000E+00 -0.11540237993E+04  0.11540237993E+04  0.00000000000E+00 0. -1.
          2    1    1    2  501    0  0.11834103937E+01 -0.29494288778E+02 -0.16077128671E+02  0.33612313175E+02  0.00000000000E+00 0. -1.
          1    1    1    2  502    0 -0.11834103937E+01  0.29494288778E+02 -0.11289861698E+04  0.11293719870E+04  0.00000000000E+00 0. -1.
</event>
<event>
 4    1  0.3752836E+003  0.4578281E+02  0.7546771E-02  0.1317571E+00
          2   -1    0    0  502    0  0.00000000000E+00  0.00000000000E+00  0.17601845982E+04  0.17601845982E+04  0.00000000000E+00 0. -1.
          1   -1    0    0  501    0 -0.00000000000E+00 -0.00000000000E+00 -0.16230770607E+03  0.16230770607E+03  0.00000000000E+00 0.  1.
          2    1    1    2  501    0  0.38908705378E+02 -0.24128364097E+02  0.17566518649E+04  0.17572483717E+04  0.00000000000E+00 0. -1.
          1    1    1    2  502    0 -0.38908705378E+02  0.24128364097E+02 -0.15877497273E+03  0.16524393263E+03  0.00000000000E+00 0.  1.
</event>
<event>
 4    1  0.3752836E+003  0.2242054E+02  0.7546771E-02  0.1499905E+00
          2   -1    0    0  502    0  0.00000000000E+00  0.00000000000E+00  0.44847248279E+01  0.44847248279E+01  0.00000000000E+00 0. -1.
          1   -1    0    0  501    0 -0.00000000000E+00 -0.00000000000E+00 -0.25417882055E+03  0.25417882055E+03  0.00000000000E+00 0. -1.
          2    1    1    2  501    0 -0.23796295620E+01  0.22293902694E+02 -0.28148574315E+02  0.35986427582E+02  0.00000000000E+00 0. -1.
          1    1    1    2  502    0  0.23796295620E+01 -0.22293902694E+02 -0.22154552140E+03  0.22267711779E+03  0.00000000000E+00 0. -1.
</event>
<event>
 4    1  0.3752836E+003  0.2706152E+02  0.7546771E-02  0.1446991E+00
          2   -1    0    0  502    0  0.00000000000E+00  0.00000000000E+00  0.10103286731E+04  0.10103286731E+04  0.00000000000E+00 0. -1.
          1   -1    0    0  501    0 -0.00000000000E+00 -0.00000000000E+00 -0.36782301892E+02  0.36782301892E+02  0.00000000000E+00 0. -1.
          2    1    1    2  501    0  0.21366497764E+02  0.16607189133E+02  0.10051443612E+04  0.10055085841E+04  0.00000000000E+00 0. -1.
          1    1    1    2  502    0 -0.21366497764E+02 -0.16607189133E+02 -0.31597989952E+02  0.41602390876E+02  0.00000000000E+00 0. -1.
</event>
<event>
 4    1  0.3752836E+003  0.2108890E+02  0.7546771E-02  0.1517999E+00
          2   -1    0    0  502    0  0.00000000000E+00  0.00000000000E+00  0.11227204047E+01  0.11227204047E+01  0.00000000000E+00 0.  1.
          1   -1    0    0  501    0 -0.00000000000E+00 -0.00000000000E+00 -0.72569912867E+03  0.72569912867E+03  0.00000000000E+00 0.  1.
          2    1    1    2  501    0  0.17732600117E+02  0.11414757160E+02 -0.11738538286E+03  0.11926470516E+03  0.00000000000E+00 0.  1.
          1    1    1    2  502    0 -0.17732600117E+02 -0.11414757160E+02 -0.60719102540E+03  0.60755714391E+03  0.00000000000E+00 0.  1.
</event>
<event>
 4    1  0.3752836E+003  0.3808900E+02  0.7546771E-02  0.1360063E+00
          2   -1    0    0  502    0  0.00000000000E+00  0.00000000000E+00  0.39373837997E+03  0.39373837997E+03  0.00000000000E+00 0. -1.
          1   -1    0    0  501    0 -0.00000000000E+00 -0.00000000000E+00 -0.68663826728E+02  0.68663826728E+02  0.00000000000E+00 0.  1.
          2    1    1    2  501    0  0.38086264901E+02 -0.45644306751E+00  0.38744954224E+03  0.38931724814E+03  0.00000000000E+00 0. -1.
          1    1    1    2  502    0 -0.38086264901E+02  0.45644306751E+00 -0.62374989002E+02  0.73084958558E+02  0.00000000000E+00 0.  1.
</event>
<event>
 4    1  0.3752836E+003  0.3912137E+02  0.7546771E-02  0.1353713E+00
          2   -1    0    0  502    0  0.00000000000E+00  0.00000000000E+00  0.37974296901E+01  0.37974296901E+01  0.00000000000E+00 0.  1.
          1   -1    0    0  501    0 -0.00000000000E+00 -0.00000000000E+00 -0.11979900925E+04  0.11979900925E+04  0.00000000000E+00 0. -1.
          2    1    1    2  501    0  0.39107120310E+02 -0.10556637506E+01 -0.10760667905E+03  0.11449750505E+03  0.00000000000E+00 0.  1.
          1    1    1    2  502    0 -0.39107120310E+02  0.10556637506E+01 -0.10865859838E+04  0.10872900171E+04  0.00000000000E+00 0. -1.
</event>
<event>
 4    1  0.3752836E+003  0.2117156E+02  0.7546771E-02  0.1516829E+00
          2   -1    0    0  502    0  0.00000000000E+00  0.00000000000E+00  0.28622390734E+02  0.28622390734E+02  0.00000000000E+00 0. -1.
          1   -1    0    0  501    0 -0.00000000000E+00 -0.00000000000E+00 -0.25874793921E+02  0.25874793921E+02  0.00000000000E+00 0. -1.
          2    1    1    2  501    0  0.21166863902E+02 -0.44572506201E+00  0.18494216495E+02  0.28111756296E+02  0.00000000000E+00 0. -1.
          1    1    1    2  502    0 -0.21166863902E+02  0.44572506201E+00 -0.15746619682E+02  0.26385428359E+02  0.00000000000E+00 0. -1.
</event>
<event>
 4    1  0.3752836E+003  0.2032537E+02  0.7546771E-02  0.1529119E+00
          2   -1    0    0  502    0  0.00000000000E+00  0.00000000000E+00  0.44595905773E+01  0.44595905773E+01  0.00000000000E+00 0. -1.
          1   -1    0    0  501    0 -0.00000000000E+00 -0.00000000000E+00 -0.13072285131E+04  0.13072285131E+04  0.00000000000E+00 0. -1.
          2    1    1    2  501    0 -0.57463642408E+01  0.19496151844E+02 -0.19205486970E+02  0.27963750973E+02  0.00000000000E+00 0. -1.
          1    1    1    2  502    0  0.57463642408E+01 -0.19496151844E+02 -0.12835634355E+04  0.12837243527E+04  0.00000000000E+00 0. -1.
</event>
<event>
 4    1  0.3752836E+003  0.6878730E+02  0.7546771E-02  0.1232583E+00
          2   -1    0    0  502    0  0.00000000000E+00  0.00000000000E+00  0.21761037413E+03  0.21761037413E+03  0.00000000000E+00 0. -1.
          1   -1    0    0  501    0 -0.00000000000E+00 -0.00000000000E+00 -0.52196712063E+02  0.52196712063E+02  0.00000000000E+00 0.  1.
          2    1    1    2  501    0  0.11325766588E+02 -0.67848506976E+02  0.18574915815E+03  0.19807686043E+03  0.00000000000E+00 0. -1.
          1    1    1    2  502    0 -0.11325766588E+02  0.67848506976E+02 -0.20335496074E+02  0.71730225764E+02  0.00000000000E+00 0.  1.
</event>
<event>
 4    1  0.3752836E+003  0.3785087E+02  0.7546771E-02  0.1361562E+00
          2   -1    0    0  502    0  0.00000000000E+00  0.00000000000E+00  0.57547068816E+01  0.57547068816E+01  0.00000000000E+00 0.  1.
          1   -1    0    0  501    0 -0.00000000000E+00 -0.00000000000E+00 -0.25193877411E+03  0.25193877411E+03  0.00000000000E+00 0.  1.
          2    1    1    2  501    0  0.32764634027E+02 -0.18951672872E+02 -0.13710415731E+03  0.14223303801E+03  0.00000000000E+00 0.  1.
          1    1    1    2  502    0 -0.32764634027E+02  0.18951672872E+02 -0.10907990992E+03  0.11546044299E+03  0.00000000000E+00 0.  1.
</event>
<event>
 4    1  0.3752836E+003  0.2301830E+02  0.7546771E-02  0.1492268E+00
          2   -1    0    0  502    0  0.00000000000E+00  0.00000000000E+00  0.42406315701E+02  0.42406315701E+02  0.00000000000E+00 0.  1.
          1   -1    0    0  501    0 -0.00000000000E+00 -0.00000000000E+00 -0.24249712806E+02  0.24249712806E+02  0.00000000000E+00 0. -1.
          2    1    1    2  501    0  0.22157399155E+02 -0.62363442099E+01  0.32282835967E+02  0.39648755649E+02  0.00000000000E+00 0.  1.
          1    1    1    2  502    0 -0.22157399155E+02  0.62363442099E+01 -0.14126233073E+02  0.27007272858E+02  0.00000000000E+00 0. -1.
</event>
<event>
 4    1  0.3752836E+003  0.2786720E+02  0.7546771E-02  0.1439086E+00
          2   -1    0    0  502    0  0.00000000000E+00  0.00000000000E+00  0.81621978790E+03  0.81621978790E+03  0.00000000000E+00 0.  1.
          1   -1    0    0  501    0 -0.00000000000E+00 -0.00000000000E+00 -0.80367715387E+01  0.80367715387E+01  0.00000000000E+00 0.  1.
          2    1    1    2  501    0 -0.69813145535E+01  0.26978543541E+02  0.79105663477E+03  0.79154733275E+03  0.00000000000E+00 0.  1.
          1    1    1    2  502    0  0.69813145535E+01 -0.26978543541E+02  0.17126381595E+02  0.32709226696E+02  0.00000000000E+00 0.  1.
</event>
<event>
 4    1  0.3752836E+003  0.2569869E+02  0.7546771E-02  0.1461137E+00
          2   -1    0    0  502    0  0.00000000000E+00  0.00000000000E+00  0.80405560053E+03  0.80405560053E+03  0.00000000000E+00 0. -1.
          1   -1    0    0  501    0 -0.00000000000E+00 -0.00000000000E+00 -0.98447380833E+02  0.98447380833E+02  0.00000000000E+00 0.  1.
          2    1    1    2  501    0 -0.22268424375E+02 -0.12827309562E+02  0.80216922122E+03  0.80258076357E+03  0.00000000000E+00 0. -1.
          1    1    1    2  502    0  0.22268424375E+02  0.12827309562E+02 -0.96561001515E+02  0.99922217791E+02  0.00000000000E+00 0.  1.
</event>
<event>
 4    1  0.3752836E+003  0.2152710E+02  0.7546771E-02  0.1511871E+00
          2   -1    0    0  502    0  0.00000000000E+00  0.00000000000E+00  0.14492640326E+04  0.14492640326E+04  0.00000000000E+00 0.  1.
          1   -1    0    0  501    0 -0.00000000000E+00 -0.00000000000E+00 -0.34480555806E+02  0.34480555806E+02  0.00000000000E+00 0. -1.
          2    1    1    2  501    0  0.22955760834E+01  0.21404356182E+02  0.14458160987E+04  0.14459763509E+04  0.00000000000E+00 0.  1.
          1    1    1    2  502    0 -0.22955760834E+01 -0.21404356182E+02 -0.31032621965E+02  0.37768237437E+02  0.00000000000E+00 0. -1.
</event>
<event>
 4    1  0.3752836E+003  0.4714898E+02  0.7546771E-02  0.1311030E+00
          2   -1    0    0  502    0  0.00000000000E+00  0.00000000000E+00  0.13828430294E+02  0.13828430294E+02  0.00000000000E+00 0.  1.
          1   -1    0    0  501    0 -0.00000000000E+00 -0.00000000000E+00 -0.13265181512E+04  0.13265181512E+04  0.00000000000E+00 0. -1.
          2    1    1    2  501    0  0.42609820052E+02 -0.20184874814E+02 -0.28090971920E+02  0.54882862894E+02  0.00000000000E+00 0.  1.
          1    1    1    2  502    0 -0.42609820052E+02  0.20184874814E+02 -0.12845987490E+04  0.12854637186E+04  0.00000000000E+00 0. -1.
</event>
<event>
 4    1  0.3752836E+003  0.2036270E+02  0.7546771E-02  0.1528562E+00
          2   -1    0    0  502    0  0.00000000000E+00  0.00000000000E+00  0.15038766184E+04  0.15038766184E+04  0.00000000000E+00 0.  1.
          1   -1    0    0  501    0 -0.00000000000E+00 -0.00000000000E+00 -0.21849592316E+03  0.21849592316E+03  0.00000000000E+00 0.  1.
          2    1    1    2  501    0 -0.18404102003E+02 -0.87136981601E+01  0.15033330937E+04  0.15034709941E+04  0.00000000000E+00 0.  1.
          1    1    1    2  502    0  0.18404102003E+02  0.87136981601E+01 -0.21795239843E+03  0.21890154748E+03  0.00000000000E+00 0.  1.
</event>
<event>
 4    1  0.3752836E+003  0.2750547E+02  0.7546771E-02  0.1442596E+00
          2   -1    0    0  502    0  0.00000000000E+00  0.00000000000E+00  0.21581519427E+02  0.21581519427E+02  0.00000000000E+00 0.  1.
          1   -1    0    0  501    0 -0.00000000000E+00 -0.00000000000E+00 -0.14827240658E+04  0.14827240658E+04  0.00000000000E+00 0.  1.
          2    1    1    2  501    0  0.78920038680E+01 -0.26348949313E+02  0.12636899792E+02  0.30269491098E+02  0.00000000000E+00 0.  1.
          1    1    1    2  502    0 -0.78920038680E+01  0.26348949313E+02 -0.14737794461E+04  0.14740360941E+04  0.00000000000E+00 0.  1.
</event>
<event>
 4    1  0.3752836E+003  0.2249874E+02  0.7546771E-02  0.1498890E+00
          2   -1    0    0  502    0  0.00000000000E+00  0.00000000000E+00  0.10027919191E+03  0.10027919191E+03  0.00000000000E+00 0. -1.
          1   -1    0    0  501    0 -0.00000000000E+00 -0.00000000000E+00 -0.28412573499E+03  0.28412573499E+03  0.00000000000E+00 0.  1.
          2    1    1    2  501    0  0.14794100933E+02  0.16950751193E+02  0.98564184713E+02  0.10109941591E+03  0.00000000000E+00 0. -1.
          1    1    1    2  502    0 -0.14794100933E+02 -0.16950751193E+02 -0.28241072779E+03  0.28330551099E+03  0.00000000000E+00 0.  1.
</event>
<event>
 4    1  0.3752836E+003  0.2754823E+02  0.7546771E-02  0.1442177E+00
          2   -1    0    0  502    0  0.00000000000E+00  0.00000000000E+00  0.14694337705E+02  0.14694337705E+02  0.00000000000E+00 0.  1.
          1   -1    0    0  501    0 -0.00000000000E+00 -0.00000000000E+00 -0.17920241887E+03  0.17920241887E+03  0.00000000000E+00 0.  1.
          2    1    1    2  501    0  0.71641824781E+01  0.26600368834E+02 -0.46038553251E+00  0.27552079549E+02  0.00000000000E+00 0.  1.
          1    1    1    2  502    0 -0.71641824781E+01 -0.26600368834E+02 -0.16404769563E+03  0.16634467702E+03  0.00000000000E+00 0.  1.
</event>
<event>
 4    1  0.3752836E+003  0.2416481E+02  0.7546771E-02  0.1478368E+00
          2   -1    0    0  502    0  0.00000000000E+00  0.00000000000E+00  0.61451184985E+03  0.61451184985E+03  0.00000000000E+00 0.  1.
          1   -1    0    0  501    0 -0.00000000000E+00 -0.00000000000E+00 -0.14852951722E+03  0.14852951722E+03  0.00000000000E+00 0.  1.
          2    1    1    2  501    0 -0.22036210350E+01 -0.24064125973E+02  0.61328946441E+03  0.61376535032E+03  0.00000000000E+00 0.  1.
          1    1    1    2  502    0  0.22036210350E+01  0.24064125973E+02 -0.14730713177E+03  0.14927601675E+03  0.00000000000E+00 0.  1.
</event>
<event>
 4    1  0.3752836E+003  0.2029500E+02  0.7546771E-02  0.1529573E+00
          2   -1    0    0  502    0  0.00000000000E+00  0.00000000000E+00  0.13542758975E+01  0.13542758975E+01  0.00000000000E+00 0. -1.
          1   -1    0    0  501    0 -0.00000000000E+00 -0.00000000000E+00 -0.52537975228E+03  0.52537975228E+03  0.00000000000E+00 0. -1.
          2    1    1    2  501    0 -0.67423222216E+01 -0.19142313311E+02 -0.91106451596E+02  0.93339555336E+02  0.00000000000E+00 0. -1.
          1    1    1    2  502    0  0.67423222216E+01  0.19142313311E+02 -0.43291902479E+03  0.43339447285E+03  0.00000000000E+00 0. -1.
</event>
<event>
 4    1  0.3752836E+003  0.2625640E+02  0.7546771E-02  0.1455224E+00
          2   -1    0    0  502    0  0.00000000000E+00  0.00000000000E+00  0.54894764951E+02  0.54894764951E+02  0.00000000000E+00 0. -1.
          1   -1    0    0  501    0 -0.00000000000E+00 -0.00000000000E+00 -0.26934091486E+02  0.26934091486E+02  0.00000000000E+00 0. -1.
          2    1    1    2  501    0 -0.24242120511E+02  0.10085543761E+02  0.43871129999E+02  0.51128022133E+02  0.00000000000E+00 0. -1.
          1    1    1    2  502    0  0.24242120511E+02 -0.10085543761E+02 -0.15910456534E+02  0.30700834304E+02  0.00000000000E+00 0. -1.
</event>
<event>
 4    1  0.3752836E+003  0.2258423E+02  0.7546771E-02  0.1497786E+00
          2   -1    0    0  502    0  0.00000000000E+00  0.00000000000E+00  0.10573575368E+04  0.10573575368E+04  0.00000000000E+00 0.  1.
          1   -1    0    0  501    0 -0.00000000000E+00 -0.00000000000E+00 -0.17771710362E+01  0.17771710362E+01  0.00000000000E+00 0. -1.
          2    1    1    2  501    0 -0.21801418947E+02  0.58945498864E+01  0.97980900495E+03  0.98006924948E+03  0.00000000000E+00 0.  1.
          1    1    1    2  502    0  0.21801418947E+02 -0.58945498864E+01  0.75771360851E+02  0.79065458398E+02  0.00000000000E+00 0. -1.
</event>
<event>
 4    1  0.3752836E+003  0.2174932E+02  0.7546771E-02  0.1508830E+00
          2   -1    0    0  502    0  0.00000000000E+00  0.00000000000E+00  0.25494210596E+03  0.25494210596E+03  0.00000000000E+00 0.  1.
          1   -1    0    0  501    0 -0.00000000000E+00 -0.00000000000E+00 -0.18557658881E+01  0.18557658881E+01  0.00000000000E+00 0.  1.
          2    1    1    2  501    0  0.21637767333E+02  0.22000219500E+01  0.12821064223E+03  0.13004230794E+03  0.00000000000E+00 0.  1.
          1    1    1    2  502    0 -0.21637767333E+02 -0.22000219500E+01  0.12487569784E+03  0.12675556391E+03  0.00000000000E+00 0.  1.
</event>
<event>
 4    1  0.3752836E+003  0.2878324E+02  0.7546771E-02  0.1430473E+00
          2   -1    0    0  502    0  0.00000000000E+00  0.00000000000E+00  0.45210321283E+01  0.45210321283E+01  0.00000000000E+00 0. -1.
          1   -1    0    0  501    0 -0.00000000000E+00 -0.00000000000E+00 -0.97027077175E+03  0.97027077175E+03  0.00000000000E+00 0.  1.
          2    1    1    2  501    0 -0.89183128295E+01 -0.27366746690E+02 -0.43911035347E+02  0.52503848939E+02  0.00000000000E+00 0. -1.
          1    1    1    2  502    0  0.89183128295E+01  0.27366746690E+02 -0.92183870428E+03  0.92228795494E+03  0.00000000000E+00 0.  1.
</event>
<event>
 4    1  0.3752836E+003  0.3311750E+02  0.7546771E-02  0.1394304E+00
          2   -1    0    0  502    0  0.00000000000E+00  0.00000000000E+00  0.53791716388E+02  0.53791716388E+02  0.00000000000E+00 0.  1.
          1   -1    0    0  501    0 -0.00000000000E+00 -0.00000000000E+00 -0.76227877194E+02  0.76227877194E+02  0.00000000000E+00 0. -1.
          2    1    1    2  501    0  0.31654265200E+02 -0.97353184064E+01  0.44422229261E+02  0.55408513627E+02  0.00000000000E+00 0.  1.
          1    1    1    2  502    0 -0.31654265200E+02  0.97353184064E+01 -0.66858390066E+02  0.74611079955E+02  0.00000000000E+00 0. -1.
</event>
<event>
 4    1  0.3752836E+003  0.2955489E+02  0.7546771E-02  0.1423504E+00
          2   -1    0    0  502    0  0.00000000000E+00  0.00000000000E+00  0.34701188332E+03  0.34701188332E+03  0.00000000000E+00 0. -1.
          1   -1    0    0  501    0 -0.00000000000E+00 -0.00000000000E+00 -0.90530004846E+02  0.90530004846E+02  0.00000000000E+00 0.  1.
          2    1    1    2  501    0  0.18274429210E+02 -0.23227931208E+02  0.34394898685E+03  0.34521644964E+03  0.00000000000E+00 0. -1.
          1    1    1    2  502    0 -0.18274429210E+02  0.23227931208E+02 -0.87467108374E+02  0.92325438523E+02  0.00000000000E+00 0.  1.
</event>
<event>
 4    1  0.3752836E+003  0.2955348E+02  0.7546771E-02  0.1423517E+00
          2   -1    0    0  502    0  0.00000000000E+00  0.00000000000E+00  0.27098883562E+03  0.27098883562E+03  0.00000000000E+00 0.  1.
          1   -1    0    0  501    0 -0.00000000000E+00 -0.00000000000E+00 -0.45812421895E+01  0.45812421895E+01  0.00000000000E+00 0.  1.
          2    1    1    2  501    0 -0.37037753250E+01  0.29320472916E+02  0.20822646678E+03  0.21031326527E+03  0.00000000000E+00 0.  1.
          1    1    1    2  502    0  0.37037753250E+01 -0.29320472916E+02  0.58181126652E+02  0.65256812534E+02  0.00000000000E+00 0.  1.
</event>
<event>
 4    1  0.3752836E+003  0.2156629E+02  0.7546771E-02  0.1511331E+00
          2   -1    0    0  502    0  0.00000000000E+00  0.00000000000E+00  0.35833017145E+03  0.35833017145E+03  0.00000000000E+00 0. -1.
          1   -1    0    0  501    0 -0.00000000000E+00 -0.00000000000E+00 -0.19031707139E+03  0.19031707139E+03  0.00000000000E+00 0. -1.
          2    1    1    2  501    0 -0.13302720496E+02  0.16974766112E+02  0.35739311548E+03  0.35804321534E+03  0.00000000000E+00 0. -1.
          1    1    1    2  502    0  0.13302720496E+02 -0.16974766112E+02 -0.18938001542E+03  0.19060402749E+03  0.00000000000E+00 0. -1.
</event>
<event>
 4    1  0.3752836E+003  0.2171212E+02  0.7546771E-02  0.1509336E+00
          2   -1    0    0  502    0  0.00000000000E+00  0.00000000000E+00  0.82148630542E+02  0.82148630542E+02  0.00000000000E+00 0.  1.
          1   -1    0    0  501    0 -0.00000000000E+00 -0.00000000000E+00 -0.47025710579E+02  0.47025710579E+02  0.00000000000E+00 0.  1.
          2    1    1    2  501    0 -0.10130450186E+02  0.19203911571E+02  0.78079651624E+02  0.81042262051E+02  0.00000000000E+00 0.  1.
          1    1    1    2  502    0  0.10130450186E+02 -0.19203911571E+02 -0.42956731661E+02  0.48132079070E+02  0.00000000000E+00 0.  1.
</event>
<event>
 4    1  0.3752836E+003  0.4286912E+02  0.7546771E-02  0.1332446E+00
          2   -1    0    0  502    0  0.00000000000E+00  0.00000000000E+00  0.12414167898E+02  0.12414167898E+02  0.00000000000E+00 0. -1.
          1   -1    0    0  501    0 -0.00000000000E+00 -0.00000000000E+00 -0.82992883552E+03  0.82992883552E+03  0.00000000000E+00 0.  1.
          2    1    1    2  501    0 -0.95889377271E+01 -0.41782940359E+02 -0.26992298425E+02  0.50659115725E+02  0.00000000000E+00 0. -1.
          1    1    1    2  502    0  0.95889377271E+01  0.41782940359E+02 -0.79052236919E+03  0.79168388769E+03  0.00000000000E+00 0.  1.
</event>
<event>
 4    1  0.3752836E+003  0.3801699E+02  0.7546771E-02  0.1360515E+00
          2   -1    0    0  502    0  0.00000000000E+00  0.00000000000E+00  0.12532101521E+04  0.12532101521E+04  0.00000000000E+00 0.  1.
          1   -1    0    0  501    0 -0.00000000000E+00 -0.00000000000E+00 -0.25996106307E+01  0.25996106307E+01  0.00000000000E+00 0. -1.
          2    1    1    2  501    0  0.36430437125E+02 -0.10868071451E+02  0.10936598322E+04  0.10943203920E+04  0.00000000000E+00 0.  1.
          1    1    1    2  502    0 -0.36430437125E+02  0.10868071451E+02  0.15695070921E+03  0.16148937070E+03  0.00000000000E+00 0. -1.
</event>
<event>
 4    1  0.3752836E+003  0.2677880E+02  0.7546771E-02  0.1449843E+00
          2   -1    0    0  502    0  0.00000000000E+00  0.00000000000E+00  0.34823791365E+01  0.34823791365E+01  0.00000000000E+00 0.  1.
          1   -1    0    0  501    0 -0.00000000000E+00 -0.00000000000E+00 -0.62047137680E+03  0.62047137680E+03  0.00000000000E+00 0.  1.
          2    1    1    2  501    0  0.91246286536E+01 -0.25176286180E+02 -0.53489438252E+02  0.59818260075E+02  0.00000000000E+00 0.  1.
          1    1    1    2  502    0 -0.91246286536E+01  0.25176286180E+02 -0.56349955941E+03  0.56413549586E+03  0.00000000000E+00 0.  1.
</event>
<event>
 4    1  0.3752836E+003  0.2427583E+02  0.7546771E-02  0.1477070E+00
          2   -1    0    0  502    0  0.00000000000E+00  0.00000000000E+00  0.24917936607E+03  0.24917936607E+03  0.00000000000E+00 0. -1.
          1   -1    0    0  501    0 -0.00000000000E+00 -0.00000000000E+00 -0.21208228102E+02  0.21208228102E+02  0.00000000000E+00 0.  1.
          2    1    1    2  501    0  0.24249527172E+02 -0.11298591814E+01  0.24141856812E+03  0.24263602615E+03  0.00000000000E+00 0. -1.
          1    1    1    2  502    0 -0.24249527172E+02  0.11298591814E+01 -0.13447430158E+02  0.27751568022E+02  0.00000000000E+00 0.  1.
</event>
<event>
 4    1  0.3752836E+003  0.5056461E+02  0.7546771E-02  0.1295743E+00
          2   -1    0    0  502    0  0.00000000000E+00  0.00000000000E+00  0.57104287486E+01  0.57104287486E+01  0.00000000000E+00 0. -1.
          1   -1    0    0  501    0 -0.00000000000E+00 -0.00000000000E+00 -0.78706750643E+03  0.78706750643E+03  0.00000000000E+00 0. -1.
          2    1    1    2  501    0 -0.97723575580E+01  0.49611297960E+02 -0.13040744251E+03  0.13986736903E+03  0.00000000000E+00 0. -1.
          1    1    1    2  502    0  0.97723575580E+01 -0.49611297960E+02 -0.65094963518E+03  0.65291056616E+03  0.00000000000E+00 0. -1.
</event>
<event>
 4    1  0.3752836E+003  0.2562582E+02  0.7546771E-02  0.1461923E+00
          2   -1    0    0  502    0  0.00000000000E+00  0.00000000000E+00  0.55574117040E+01  0.55574117040E+01  0.00000000000E+00 0.  1.
          1   -1    0    0  501    0 -0.00000000000E+00 -0.00000000000E+00 -0.23334487479E+03  0.23334487479E+03  0.00000000000E+00 0.  1.
          2    1    1    2  501    0  0.85768250943E+01  0.24147896731E+02 -0.29970454704E+02  0.39432359812E+02  0.00000000000E+00 0.  1.
          1    1    1    2  502    0 -0.85768250943E+01 -0.24147896731E+02 -0.19781700839E+03  0.19946992669E+03  0.00000000000E+00 0.  1.
</event>
<event>
 4    1  0.3752836E+003  0.3447775E+02  0.7546771E-02  0.1384272E+00
          2   -1    0    0  502    0  0.00000000000E+00  0.00000000000E+00  0.18329923556E+03  0.18329923556E+03  0.00000000000E+00 0. -1.
          1   -1    0    0  501    0 -0.00000000000E+00 -0.00000000000E+00 -0.12047995379E+02  0.12047995379E+02  0.00000000000E+00 0.  1.
          2    1    1    2  501    0 -0.34425518235E+02  0.18970178919E+01  0.15199535414E+03  0.15585667346E+03  0.00000000000E+00 0. -1.
          1    1    1    2  502    0  0.34425518235E+02 -0.18970178919E+01  0.19255886043E+02  0.39490557478E+02  0.00000000000E+00 0.  1.
</event>
<event>
 4    1  0.3752836E+003  0.2089608E+02  0.7546771E-02  0.1520754E+00
          2   -1    0    0  502    0  0.00000000000E+00  0.00000000000E+00  0.82268718617E+00  0.82268718617E+00  0.00000000000E+00 0.  1.
          1   -1    0    0  501    0 -0.00000000000E+00 -0.00000000000E+00 -0.15955423021E+04  0.15955423021E+04  0.00000000000E+00 0. -1.
          2    1    1    2  501    0  0.19223584872E+02  0.81914591251E+01 -0.14531228247E+03  0.14680703544E+03  0.00000000000E+00 0.  1.
          1    1    1    2  502    0 -0.19223584872E+02 -0.81914591251E+01 -0.14494073324E+04  0.14495579538E+04  0.00000000000E+00 0. -1.
</event>
<event>
 4    1  0.3752836E+003  0.2694244E+02  0.7546771E-02  0.1448187E+00
          2   -1    0    0  502    0  0.00000000000E+00  0.00000000000E+00  0.19229442366E+04  0.19229442366E+04  0.00000000000E+00 0.  1.
          1   -1    0    0  501    0 -0.00000000000E+00 -0.00000000000E+00 -0.38446342391E+02  0.38446342391E+02  0.00000000000E+00 0. -1.
          2    1    1    2  501    0  0.22320226379E+02  0.15089812745E+02  0.19181178051E+04  0.19183070164E+04  0.00000000000E+00 0.  1.
          1    1    1    2  502    0 -0.22320226379E+02 -0.15089812745E+02 -0.33619910906E+02  0.43083562569E+02  0.00000000000E+00 0. -1.
</event>
<event>
 4    1  0.3752836E+003  0.2243945E+02  0.7546771E-02  0.1499660E+00
          2   -1    0    0  502    0  0.00000000000E+00  0.00000000000E+00  0.11171222953E+04  0.11171222953E+04  0.00000000000E+00 0. -1.
          1   -1    0    0  501    0 -0.00000000000E+00 -0.00000000000E+00 -0.21770995967E+03  0.21770995967E+03  0.00000000000E+00 0.  1.
          2    1    1    2  501    0  0.43905414186E+01 -0.22005728161E+02  0.11164310422E+04  0.11166565277E+04  0.00000000000E+00 0. -1.
          1    1    1    2  502    0 -0.43905414186E+01  0.22005728161E+02 -0.21701870660E+03  0.21817572721E+03  0.00000000000E+00 0.  1.
</event>
<event>
 4    1  0.3752836E+003  0.2748230E+02  0.7546771E-02  0.1442823E+00
          2   -1    0    0  502    0  0.00000000000E+00  0.00000000000E+00  0.12390050935E+04  0.12390050935E+04  0.00000000000E+00 0. -1.
          1   -1    0    0  501    0 -0.00000000000E+00 -0.00000000000E+00 -0.38055919497E+01  0.38055919497E+01  0.00000000000E+00 0.  1.
          2    1    1    2  501    0  0.27458630470E+02 -0.11402997293E+01  0.11870658220E+04  0.11873839069E+04  0.00000000000E+00 0. -1.
          1    1    1    2  502    0 -0.27458630470E+02  0.11402997293E+01  0.48133679585E+02  0.55426778556E+02  0.00000000000E+00 0.  1.
</event>
<event>
 4    1  0.3752836E+003  0.2335247E+02  0.7546771E-02  0.1488119E+00
          2   -1    0    0  502    0  0.00000000000E+00  0.00000000000E+00  0.30748153606E+02  0.30748153606E+02  0.00000000000E+00 0. -1.
          1   -1    0    0  501    0 -0.00000000000E+00 -0.00000000000E+00 -0.18244414527E+02  0.18244414527E+02  0.00000000000E+00 0. -1.
          2    1    1    2  501    0 -0.60320337333E+01  0.22559976186E+02  0.10342601915E+02  0.25540308747E+02  0.00000000000E+00 0. -1.
          1    1    1    2  502    0  0.60320337333E+01 -0.22559976186E+02  0.21611371638E+01  0.23452259386E+02  0.00000000000E+00 0. -1.
</event>
<event>
 4    1  0.3752836E+003  0.2239676E+02  0.7546771E-02  0.1500215E+00
          2   -1    0    0  502    0  0.00000000000E+00  0.00000000000E+00  0.31485972952E+01  0.31485972952E+01  0.00000000000E+00 0. -1.
          1   -1    0    0  501    0 -0.00000000000E+00 -0.00000000000E+00 -0.19318188471E+03  0.19318188471E+03  0.00000000000E+00 0.  1.
          2    1    1    2  501    0  0.19486911021E+02  0.11039708669E+02 -0.53913965266E+02  0.58380908860E+02  0.00000000000E+00 0. -1.
          1    1    1    2  502    0 -0.19486911021E+02 -0.11039708669E+02 -0.13611932215E+03  0.13794957315E+03  0.00000000000E+00 0.  1.
</event>
<event>
 4    1  0.3752836E+003  0.4855753E+02  0.7546771E-02  0.1304551E+00
          2   -1    0    0  502    0  0.00000000000E+00  0.00000000000E+00  0.31480684938E+01  0.31480684938E+01  0.00000000000E+00 0. -1.
          1   -1    0    0  501    0 -0.00000000000E+00 -0.00000000000E+00 -0.77908555293E+03  0.77908555293E+03  0.00000000000E+00 0. -1.
          2    1    1    2  501    0  0.18410078774E+02 -0.44932199553E+02 -0.31108177106E+03  0.31484869674E+03  0.00000000000E+00 0. -1.
          1    1    1    2  502    0 -0.18410078774E+02  0.44932199553E+02 -0.46485571338E+03  0.46738492468E+03  0.00000000000E+00 0. -1.
</event>
<event>
 4    1  0.3752836E+003  0.2343732E+02  0.7546771E-02  0.1487078E+00
          2   -1    0    0  502    0  0.00000000000E+00  0.00000000000E+00  0.35843174592E+02  0.35843174592E+02  0.00000000000E+00 0.  1.
          1   -1    0    0  501    0 -0.00000000000E+00 -0.00000000000E+00 -0.35106377709E+02  0.35106377709E+02  0.00000000000E+00 0. -1.
          2    1    1    2  501    0  0.17156169277E+02 -0.15967903762E+02  0.26997187413E+02  0.35751310788E+02  0.00000000000E+00 0.  1.
          1    1    1    2  502    0 -0.17156169277E+02  0.15967903762E+02 -0.26260390530E+02  0.35198241514E+02  0.00000000000E+00 0. -1.
</event>
<event>
 4    1  0.3752836E+003  0.2464080E+02  0.7546771E-02  0.1472862E+00
          2   -1    0    0  502    0  0.00000000000E+00  0.00000000000E+00  0.24994078190E+03  0.24994078190E+03  0.00000000000E+00 0.  1.
          1   -1    0    0  501    0 -0.00000000000E+00 -0.00000000000E+00 -0.34974825720E+02  0.34974825720E+02  0.00000000000E+00 0.  1.
          2    1    1    2  501    0 -0.24325005913E+02  0.39323199619E+01  0.24490439863E+03  0.24614088145E+03  0.00000000000E+00 0.  1.
          1    1    1    2  502    0  0.24325005913E+02 -0.39323199619E+01 -0.29938442452E+02  0.38774726168E+02  0.00000000000E+00 0.  1.
</event>
<event>
 4    1  0.3752836E+003  0.2360798E+02  0.7546771E-02  0.1485002E+00
          2   -1    0    0  502    0  0.00000000000E+00  0.00000000000E+00  0.99866905416E+03  0.99866905416E+03  0.00000000000E+00 0. -1.
          1   -1    0    0  501    0 -0.00000000000E+00 -0.00000000000E+00 -0.84738983125E+00  0.84738983125E+00  0.00000000000E+00 0. -1.
          2    1    1    2  501    0  0.17163200882E+02 -0.16209915117E+02  0.79092251714E+03  0.79127477208E+03  0.00000000000E+00 0. -1.
          1    1    1    2  502    0 -0.17163200882E+02  0.16209915117E+02  0.20689914719E+03  0.20824167192E+03  0.00000000000E+00 0. -1.
</event>
<event>
 4    1  0.3752836E+003  0.3436510E+02  0.7546771E-02  0.1385082E+00
          2   -1    0    0  502    0  0.00000000000E+00  0.00000000000E+00  0.19157020232E+04  0.19157020232E+04  0.00000000000E+00 0. -1.
          1   -1    0    0  501    0 -0.00000000000E+00 -0.00000000000E+00 -0.16194484151E+01  0.16194484151E+01  0.00000000000E+00 0.  1.
          2    1    1    2  501    0  0.32972798406E+02 -0.96826934416E+01  0.17114880949E+04  0.17118330699E+04  0.00000000000E+00 0. -1.
          1    1    1    2  502    0 -0.32972798406E+02  0.96826934416E+01  0.20259447982E+03  0.20548840171E+03  0.00000000000E+00 0.  1.
</event>
<event>
 4    1  0.3752836E+003  0.2170712E+02  0.7546771E-02  0.1509404E+00
          2   -1    0    0  502    0  0.00000000000E+00  0.00000000000E+00  0.18272354089E+03  0.18272354089E+03  0.00000000000E+00 0. -1.
          1   -1    0    0  501    0 -0.00000000000E+00 -0.00000000000E+00 -0.39270411646E+03  0.39270411646E+03  0.00000000000E+00 0. -1.
          2    1    1    2  501    0 -0.21147058651E+02 -0.48990776410E+01  0.18177732569E+03  0.18306882637E+03  0.00000000000E+00 0. -1.
          1    1    1    2  502    0  0.21147058651E+02  0.48990776410E+01 -0.39175790127E+03  0.39235883099E+03  0.00000000000E+00 0. -1.
</event>
<event>
 4    1  0.3752836E+003  0.2149668E+02  0.7546771E-02  0.1512290E+00
          2   -1    0    0  502    0  0.00000000000E+00  0.00000000000E+00  0.93263483296E+02  0.93263483296E+02  0.00000000000E+00 0. -1.
          1   -1    0    0  501    0 -0.00000000000E+00 -0.00000000000E+00 -0.69114564799E+03  0.69114564799E+03  0.00000000000E+00 0.  1.
          2    1    1    2  501    0  0.20637548477E+02 -0.60165492638E+01  0.91855087521E+02  0.94336972475E+02  0.00000000000E+00 0. -1.
          1    1    1    2  502    0 -0.20637548477E+02  0.60165492638E+01 -0.68973725222E+03  0.69007215881E+03  0.00000000000E+00 0.  1.
</event>
<event>
 4    1  0.3752836E+003  0.2070081E+02  0.7546771E-02  0.1523580E+00
          2   -1    0    0  502    0  0.00000000000E+00  0.00000000000E+00  0.12166644200E+03  0.12166644200E+03  0.00000000000E+00 0. -1.
          1   -1    0    0  501    0 -0.00000000000E+00 -0.00000000000E+00 -0.65511843942E+01  0.65511843942E+01  0.00000000000E+00 0. -1.
          2    1    1    2  501    0  0.14640520393E+02 -0.14634839984E+02  0.10115018456E+03  0.10324671043E+03  0.00000000000E+00 0. -1.
          1    1    1    2  502    0 -0.14640520393E+02  0.14634839984E+02  0.13965073044E+02  0.24970915960E+02  0.00000000000E+00 0. -1.
</event>
<event>
 4    1  0.3752836E+003  0.2082562E+02  0.7546771E-02  0.1521769E+00
          2   -1    0    0  502    0  0.00000000000E+00  0.00000000000E+00  0.57567100916E+03  0.57567100916E+03  0.00000000000E+00 0.  1.
          1   -1    0    0  501    0 -0.00000000000E+00 -0.00000000000E+00 -0.29151745532E+03  0.29151745532E+03  0.00000000000E+00 0. -1.
          2    1    1    2  501    0  0.86130234669E+01 -0.18961070165E+02  0.57511035993E+03  0.57548729999E+03  0.00000000000E+00 0.  1.
          1    1    1    2  502    0 -0.86130234669E+01  0.18961070165E+02 -0.29095680609E+03  0.29170116449E+03  0.00000000000E+00 0. -1.
</event>
<event>
 4    1  0.3752836E+003  0.4522030E+02  0.7546771E-02  0.1320341E+00
          2   -1    0    0  502    0  0.00000000000E+00  0.00000000000E+00  0.20314909588E+02  0.20314909588E+02  0.00000000000E+00 0.  1.
          1   -1    0    0  501    0 -0.00000000000E+00 -0.00000000000E+00 -0.43770137711E+03  0.43770137711E+03  0.00000000000E+00 0. -1.
          2    1    1    2  501    0  0.11337444997E+02  0.43775994386E+02 -0.77356855542E+01  0.45877185774E+02  0.00000000000E+00 0.  1.
          1    1    1    2  502    0 -0.11337444997E+02 -0.43775994386E+02 -0.40965078197E+03  0.41213910092E+03  0.00000000000E+00 0. -1.
</event>
<event>
 4    1  0.3752836E+003  0.2216849E+02  0.7546771E-02  0.1503212E+00
          2   -1    0    0  502    0  0.00000000000E+00  0.00000000000E+00  0.13865771736E+04  0.13865771736E+04  0.00000000000E+00 0. -1.
          1   -1    0    0  501    0 -0.00000000000E+00 -0.00000000000E+00 -0.40407924894E+00  0.40407924894E+00  0.00000000000E+00 0. -1.
          2    1    1    2  501    0 -0.21494055265E+02  0.54265458919E+01  0.93617945660E+03  0.93644189183E+03  0.00000000000E+00 0. -1.
          1    1    1    2  502    0  0.21494055265E+02 -0.54265458919E+01  0.44999363778E+03  0.45053936105E+03  0.00000000000E+00 0. -1.
</event>
<event>
 4    1  0.3752836E+003  0.5044527E+02  0.7546771E-02  0.1296253E+00
          2   -1    0    0  502    0  0.00000000000E+00  0.00000000000E+00  0.20851453816E+04  0.20851453816E+04  0.00000000000E+00 0.  1.
          1   -1    0    0  501    0 -0.00000000000E+00 -0.00000000000E+00 -0.10483449013E+03  0.10483449013E+03  0.00000000000E+00 0. -1.
          2    1    1    2  501    0  0.48501086579E+02  0.13869737274E+02  0.20787531876E+04  0.20793651771E+04  0.00000000000E+00 0.  1.
          1    1    1    2  502    0 -0.48501086579E+02 -0.13869737274E+02 -0.98442296072E+02  0.11061469463E+03  0.00000000000E+00 0. -1.
</event>
<event>
 4    1  0.3752836E+003  0.2542386E+02  0.7546771E-02  0.1464117E+00
          2   -1    0    0  502    0  0.00000000000E+00  0.00000000000E+00  0.39793310004E+03  0.39793310004E+03  0.00000000000E+00 0.  1.
          1   -1    0    0  501    0 -0.00000000000E+00 -0.00000000000E+00 -0.31372099730E+01  0.31372099730E+01  0.00000000000E+00 0. -1.
          2    1    1    2  501    0 -0.77990599411E+01  0.24198081547E+02  0.33665645690E+03  0.33761508032E+03  0.00000000000E+00 0.  1.
          1    1    1    2  502    0  0.77990599411E+01 -0.24198081547E+02  0.58139433170E+02  0.63455229696E+02  0.00000000000E+00 0. -1.
</event>
<event>
 4    1  0.3752836E+003  0.3854685E+02  0.7546771E-02  0.1357218E+00
          2   -1    0    0  502    0  0.00000000000E+00  0.00000000000E+00  0.74078142165E+03  0.74078142165E+03  0.00000000000E+00 0.  1.
          1   -1    0    0  501    0 -0.00000000000E+00 -0.00000000000E+00 -0.20443396503E+01  0.20443396503E+01  0.00000000000E+00 0.  1.
          2    1    1    2  501    0 -0.38546745778E+02  0.89089472292E-01  0.42036417743E+03  0.42212782568E+03  0.00000000000E+00 0.  1.
          1    1    1    2  502    0  0.38546745778E+02 -0.89089472292E-01  0.31837290457E+03  0.32069793562E+03  0.00000000000E+00 0.  1.
</event>
<event>
 4    1  0.3752836E+003  0.2789908E+02  0.7546771E-02  0.1438780E+00
          2   -1    0    0  502    0  0.00000000000E+00  0.00000000000E+00  0.33181194342E+03  0.33181194342E+03  0.00000000000E+00 0.  1.
          1   -1    0    0  501    0 -0.00000000000E+00 -0.00000000000E+00 -0.22344003709E+02  0.22344003709E+02  0.00000000000E+00 0.  1.
          2    1    1    2  501    0  0.64827927855E+01 -0.27135439903E+02  0.32225900908E+03  0.32346441479E+03  0.00000000000E+00 0.  1.
          1    1    1    2  502    0 -0.64827927855E+01  0.27135439903E+02 -0.12791069379E+02  0.30691532332E+02  0.00000000000E+00 0.  1.
</event>
<event>
 4    1  0.3752836E+003  0.3255575E+02  0.7546771E-02  0.1398612E+00
          2   -1    0    0  502    0  0.00000000000E+00  0.00000000000E+00  0.18105850542E+03  0.18105850542E+03  0.00000000000E+00 0.  1.
          1   -1    0    0  501    0 -0.00000000000E+00 -0.00000000000E+00 -0.21182273211E+02  0.21182273211E+02  0.00000000000E+00 0.  1.
          2    1    1    2  501    0  0.11140585960E+02  0.30590264356E+02  0.16595865561E+03  0.16912170855E+03  0.00000000000E+00 0.  1.
          1    1    1    2  502    0 -0.11140585960E+02 -0.30590264356E+02 -0.60824234031E+01  0.33119070086E+02  0.00000000000E+00 0.  1.
</event>
<event>
 4    1  0.3752836E+003  0.3006448E+02  0.7546771E-02  0.1419037E+00
          2   -1    0    0  502    0  0.00000000000E+00  0.00000000000E+00  0.41146686747E+03  0.41146686747E+03  0.00000000000E+00 0. -1.
          1   -1    0    0  501    0 -0.00000000000E+00 -0.00000000000E+00 -0.56332889624E+01  0.56332889624E+01  0.00000000000E+00 0. -1.
          2    1    1    2  501    0  0.26360469342E+02 -0.14456783938E+02  0.36580609531E+03  0.36703946969E+03  0.00000000000E+00 0. -1.
          1    1    1    2  502    0 -0.26360469342E+02  0.14456783938E+02  0.40027483195E+02  0.50060686738E+02  0.00000000000E+00 0. -1.
</event>
<event>
 4    1  0.3752836E+003  0.2053099E+02  0.7546771E-02  0.1526068E+00
          2   -1    0    0  502    0  0.00000000000E+00  0.00000000000E+00  0.29176728154E+03  0.29176728154E+03  0.00000000000E+00 0. -1.
          1   -1    0    0  501    0 -0.00000000000E+00 -0.00000000000E+00 -0.21141190634E+01  0.21141190634E+01  0.00000000000E+00 0. -1.
          2    1    1    2  501    0 -0.16107350285E+02 -0.12730853908E+02  0.22751042542E+03  0.22843492520E+03  0.00000000000E+00 0. -1.
          1    1    1    2  502    0  0.16107350285E+02  0.12730853908E+02  0.62142737059E+02  0.65446475410E+02  0.00000000000E+00 0. -1.
</event>
<event>
 4    1  0.3752836E+003  0.2054873E+02  0.7546771E-02  0.1525806E+00
          2   -1    0    0  502    0  0.00000000000E+00  0.00000000000E+00  0.23313324796E+02  0.23313324796E+02  0.00000000000E+00 0.  1.
          1   -1    0    0  501    0 -0.00000000000E+00 -0.00000000000E+00 -0.24091928872E+02  0.24091928872E+02  0.00000000000E+00 0. -1.
          2    1    1    2  501    0 -0.20510115587E+02  0.12589211265E+01 -0.12198233296E+02  0.23896581750E+02  0.00000000000E+00 0.  1.
          1    1    1    2  502    0  0.20510115587E+02 -0.12589211265E+01  0.11419629220E+02  0.23508671918E+02  0.00000000000E+00 0. -1.
</event>
<event>
 4    1  0.3752836E+003  0.2087893E+02  0.7546771E-02  0.1521000E+00
          2   -1    0    0  502    0  0.00000000000E+00  0.00000000000E+00  0.48120747748E+02  0.48120747748E+02  0.00000000000E+00 0.  1.
          1   -1    0    0  501    0 -0.00000000000E+00 -0.00000000000E+00 -0.29698955667E+03  0.29698955667E+03  0.00000000000E+00 0.  1.
          2    1    1    2  501    0  0.11856396072E+02 -0.17185915673E+02  0.45468638950E+02  0.50033258472E+02  0.00000000000E+00 0.  1.
          1    1    1    2  502    0 -0.11856396072E+02  0.17185915673E+02 -0.29433744788E+03  0.29507704595E+03  0.00000000000E+00 0.  1.
</event>
<event>
 4    1  0.3752836E+003  0.3424118E+02  0.7546771E-02  0.1385978E+00
          2   -1    0    0  502    0  0.00000000000E+00  0.00000000000E+00  0.92784422815E+03  0.92784422815E+03  0.00000000000E+00 0. -1.
          1   -1    0    0  501    0 -0.00000000000E+00 -0.00000000000E+00 -0.20693742882E+03  0.20693742882E+03  0.00000000000E+00 0.  1.
          2    1    1    2  501    0 -0.35614857563E+00  0.34239329300E+02  0.92610922529E+03  0.92674201139E+03  0.00000000000E+00 0. -1.
          1    1    1    2  502    0  0.35614857563E+00 -0.34239329300E+02 -0.20520242596E+03  0.20803964558E+03  0.00000000000E+00 0.  1.
</event>
<event>
 4    1  0.3752836E+003  0.4044800E+02  0.7546771E-02  0.1345880E+00
          2   -1    0    0  502    0  0.00000000000E+00  0.00000000000E+00  0.68181006079E+02  0.68181006079E+02  0.00000000000E+00 0. -1.
          1   -1    0    0  501    0 -0.00000000000E+00 -0.00000000000E+00 -0.41965683875E+02  0.41965683875E+02  0.00000000000E+00 0. -1.
          2    1    1    2  501    0 -0.27252981462E+02  0.29888384069E+02  0.49146434516E+02  0.63650707195E+02  0.00000000000E+00 0. -1.
          1    1    1    2  502    0  0.27252981462E+02 -0.29888384069E+02 -0.22931112311E+02  0.46495982759E+02  0.00000000000E+00 0. -1.
</event>
<event>
 4    1  0.3752836E+003  0.2049247E+02  0.7546771E-02  0.1526636E+00
          2   -1    0    0  502    0  0.00000000000E+00  0.00000000000E+00  0.17648883020E+02  0.17648883020E+02  0.00000000000E+00 0.  1.
          1   -1    0    0  501    0 -0.00000000000E+00 -0.00000000000E+00 -0.29906880224E+02  0.29906880224E+02  0.00000000000E+00 0. -1.
          2    1    1    2  501    0  0.10411140962E+02  0.17650765559E+02  0.46208607469E+01  0.21006992526E+02  0.00000000000E+00 0.  1.
          1    1    1    2  502    0 -0.10411140962E+02 -0.17650765559E+02 -0.16878857951E+02  0.26548770719E+02  0.00000000000E+00 0. -1.
</event>
<event>
 4    1  0.3752836E+003  0.5250623E+02  0.7546771E-02  0.1287657E+00
          2   -1    0    0  502    0  0.00000000000E+00  0.00000000000E+00  0.17667372872E+02  0.17667372872E+02  0.00000000000E+00 0. -1.
          1   -1    0    0  501    0 -0.00000000000E+00 -0.00000000000E+00 -0.46215686961E+03  0.46215686961E+03  0.00000000000E+00 0.  1.
          2    1    1    2  501    0 -0.14798183041E+02 -0.50377756381E+02 -0.26991802550E+02  0.59037801147E+02  0.00000000000E+00 0. -1.
          1    1    1    2  502    0  0.14798183041E+02  0.50377756381E+02 -0.41749769419E+03  0.42078644134E+03  0.00000000000E+00 0.  1.
</event>
<event>
 4    1  0.3752836E+003  0.2562715E+02  0.7546771E-02  0.1461908E+00
          2   -1    0    0  502    0  0.00000000000E+00  0.00000000000E+00  0.13521480707E+03  0.13521480707E+03  0.00000000000E+00 0.  1.
          1   -1    0    0  501    0 -0.00000000000E+00 -0.00000000000E+00 -0.53379784409E+01  0.53379784409E+01  0.00000000000E+00 0. -1.
          2    1    1    2  501    0 -0.82914457080E+01 -0.24248758815E+02  0.43845159735E+02  0.50785316856E+02  0.00000000000E+00 0.  1.
          1    1    1    2  502    0  0.82914457080E+01  0.24248758815E+02  0.86031668890E+02  0.89767468651E+02  0.00000000000E+00 0. -1.
</event>
<event>
 4    1  0.3752836E+003  0.5800351E+02  0.7546771E-02  0.1266771E+00
          2   -1    0    0  502    0  0.00000000000E+00  0.00000000000E+00  0.13680248128E+04  0.13680248128E+04  0.00000000000E+00 0. -1.
          1   -1    0    0  501    0 -0.00000000000E+00 -0.00000000000E+00 -0.27441949636E+02  0.27441949636E+02  0.00000000000E+00 0.  1.
          2    1    1    2  501    0 -0.56629740610E+02 -0.12549087275E+02  0.13360260145E+04  0.13372845316E+04  0.00000000000E+00 0. -1.
          1    1    1    2  502    0  0.56629740610E+02  0.12549087275E+02  0.45568486743E+01  0.58182230817E+02  0.00000000000E+00 0.  1.
</event>
<event>
 4    1  0.3752836E+003  0.2186869E+02  0.7546771E-02  0.1507215E+00
          2   -1    0    0  502    0  0.00000000000E+00  0.00000000000E+00  0.15404561693E+03  0.15404561693E+03  0.00000000000E+00 0. -1.
          1   -1    0    0  501    0 -0.00000000000E+00 -0.00000000000E+00 -0.83803726131E+01  0.83803726131E+01  0.00000000000E+00 0. -1.
          2    1    1    2  501    0 -0.18076350653E+02  0.12307930393E+02  0.13727027006E+03  0.13900131887E+03  0.00000000000E+00 0. -1.
          1    1    1    2  502    0  0.18076350653E+02 -0.12307930393E+02  0.83949742514E+01  0.23424670674E+02  0.00000000000E+00 0. -1.
</event>
<event>
 4    1  0.3752836E+003  0.2011796E+02  0.7546771E-02  0.1532240E+00
          2   -1    0    0  502    0  0.00000000000E+00  0.00000000000E+00  0.14987727201E+04  0.14987727201E+04  0.00000000000E+00 0.  1.
          1   -1    0    0  501    0 -0.00000000000E+00 -0.00000000000E+00 -0.34538952237E+00  0.34538952237E+00  0.00000000000E+00 0.  1.
          2    1    1    2  501    0  0.18663560855E+02 -0.75102513337E+01  0.10993073147E+04  0.10994913845E+04  0.00000000000E+00 0.  1.
          1    1    1    2  502    0 -0.18663560855E+02  0.75102513337E+01  0.39912001586E+03  0.39962672513E+03  0.00000000000E+00 0.  1.
</event>
<event>
 4    1  0.3752836E+003  0.2102858E+02  0.7546771E-02  0.1518857E+00
          2   -1    0    0  502    0  0.00000000000E+00  0.00000000000E+00  0.43934840404E+02  0.43934840404E+02  0.00000000000E+00 0.  1.
          1   -1    0    0  501    0 -0.00000000000E+00 -0.00000000000E+00 -0.27546229559E+03  0.27546229559E+03  0.00000000000E+00 0.  1.
          2    1    1    2  501    0 -0.15964251130E+02 -0.13687362597E+02  0.40990131818E+02  0.46069427124E+02  0.00000000000E+00 0.  1.
          1    1    1    2  502    0  0.15964251130E+02  0.13687362597E+02 -0.27251758701E+03  0.27332770887E+03  0.00000000000E+00 0.  1.
</event>
<event>
 4    1  0.3752836E+003  0.2210090E+02  0.7546771E-02  0.1504108E+00
          2   -1    0    0  502    0  0.00000000000E+00  0.00000000000E+00  0.11891422833E+01  0.11891422833E+01  0.00000000000E+00 0.  1.
          1   -1    0    0  501    0 -0.00000000000E+00 -0.00000000000E+00 -0.55747795242E+03  0.55747795242E+03  0.00000000000E+00 0.  1.
          2    1    1    2  501    0  0.21412442579E+02  0.54733143226E+01 -0.13484194793E+03  0.13664113871E+03  0.00000000000E+00 0.  1.
          1    1    1    2  502    0 -0.21412442579E+02 -0.54733143226E+01 -0.42144686221E+03  0.42202595600E+03  0.00000000000E+00 0.  1.
</event>
<event>
 4    1  0.3752836E+003  0.2482894E+02  0.7546771E-02  0.1470726E+00
          2   -1    0    0  502    0  0.00000000000E+00  0.00000000000E+00  0.15296085107E+04  0.15296085107E+04  0.00000000000E+00 0.  1.
          1   -1    0    0  501    0 -0.00000000000E+00 -0.00000000000E+00 -0.29501353490E+01  0.29501353490E+01  0.00000000000E+00 0. -1.
          2    1    1    2  501    0  0.42118644704E+01  0.24469094949E+02  0.14753450768E+04  0.14755539882E+04  0.00000000000E+00 0.  1.
          1    1    1    2  502    0 -0.42118644704E+01 -0.24469094949E+02  0.51313298540E+02  0.57004657853E+02  0.00000000000E+00 0. -1.
</event>
<event>
 4    1  0.3752836E+003  0.2450721E+02  0.7546771E-02  0.1474392E+00
          2   -1    0    0  502    0  0.00000000000E+00  0.00000000000E+00  0.39988793933E+01  0.39988793933E+01  0.00000000000E+00 0. -1.
          1   -1    0    0  501    0 -0.00000000000E+00 -0.00000000000E+00 -0.71175445854E+03  0.71175445854E+03  0.00000000000E+00 0. -1.
          2    1    1    2  501    0 -0.20397897138E+02 -0.13584146543E+02 -0.35995027307E+02  0.43545898036E+02  0.00000000000E+00 0. -1.
          1    1    1    2  502    0  0.20397897138E+02  0.13584146543E+02 -0.67176055184E+03  0.67220743989E+03  0.00000000000E+00 0. -1.
</event>
<event>
 4    1  0.3752836E+003  0.2075738E+02  0.7546771E-02  0.1522757E+00
          2   -1    0    0  502    0  0.00000000000E+00  0.00000000000E+00  0.10365937467E+03  0.10365937467E+03  0.00000000000E+00 0.  1.
          1   -1    0    0  501    0 -0.00000000000E+00 -0.00000000000E+00 -0.94415879340E+01  0.94415879340E+01  0.00000000000E+00 0.  1.
          2    1    1    2  501    0  0.19262659941E+02 -0.77342708917E+01  0.89418247521E+02  0.91795925857E+02  0.00000000000E+00 0.  1.
          1    1    1    2  502    0 -0.19262659941E+02  0.77342708917E+01  0.47995392183E+01  0.21305036750E+02  0.00000000000E+00 0.  1.
</event>
<event>
 4    1  0.3752836E+003  0.3263066E+02  0.7546771E-02  0.1398032E+00
          2   -1    0    0  502    0  0.00000000000E+00  0.00000000000E+00  0.13596215920E+02  0.13596215920E+02  0.00000000000E+00 0.  1.
          1   -1    0    0  501    0 -0.00000000000E+00 -0.00000000000E+00 -0.32362682872E+03  0.32362682872E+03  0.00000000000E+00 0. -1.
          2    1    1    2  501    0 -0.34832940232E+01 -0.32444204267E+02 -0.82153070767E+01  0.33648937549E+02  0.00000000000E+00 0.  1.
          1    1    1    2  502    0  0.34832940232E+01  0.32444204267E+02 -0.30181530572E+03  0.30357410709E+03  0.00000000000E+00 0. -1.
</event>
<event>
 4    1  0.3752836E+003  0.2050469E+02  0.7546771E-02  0.1526455E+00
          2   -1    0    0  502    0  0.00000000000E+00  0.00000000000E+00  0.25278405906E+04  0.25278405906E+04  0.00000000000E+00 0. -1.
          1   -1    0    0  501    0 -0.00000000000E+00 -0.00000000000E+00 -0.16883007022E+00  0.16883007022E+00  0.00000000000E+00 0. -1.
          2    1    1    2  501    0 -0.19966729279E+02  0.46660051398E+01  0.11098520801E+04  0.11100414775E+04  0.00000000000E+00 0. -1.
          1    1    1    2  502    0  0.19966729279E+02 -0.46660051398E+01  0.14178196804E+04  0.14179679432E+04  0.00000000000E+00 0. -1.
</event>
<event>
 4    1  0.3752836E+003  0.2215928E+02  0.7546771E-02  0.1503334E+00
          2   -1    0    0  502    0  0.00000000000E+00  0.00000000000E+00  0.34330197540E+03  0.34330197540E+03  0.00000000000E+00 0. -1.
          1   -1    0    0  501    0 -0.00000000000E+00 -0.00000000000E+00 -0.79202667213E+02  0.79202667213E+02  0.00000000000E+00 0. -1.
          2    1    1    2  501    0  0.19600862765E+02 -0.10336336072E+02  0.34138577554E+03  0.34210419671E+03  0.00000000000E+00 0. -1.
          1    1    1    2  502    0 -0.19600862765E+02  0.10336336072E+02 -0.77286467357E+02  0.80400445900E+02  0.00000000000E+00 0. -1.
</event>
<event>
 4    1  0.3752836E+003  0.2343016E+02  0.7546771E-02  0.1487166E+00
          2   -1    0    0  502    0  0.00000000000E+00  0.00000000000E+00  0.16398348976E+04  0.16398348976E+04  0.00000000000E+00 0.  1.
          1   -1    0    0  501    0 -0.00000000000E+00 -0.00000000000E+00 -0.10861032688E+02  0.10861032688E+02  0.00000000000E+00 0.  1.
          2    1    1    2  501    0 -0.19254068718E+02 -0.13351157238E+02  0.16270153577E+04  0.16271840543E+04  0.00000000000E+00 0.  1.
          1    1    1    2  502    0  0.19254068718E+02  0.13351157238E+02  0.19585072701E+01  0.23511875989E+02  0.00000000000E+00 0.  1.
</event>
<event>
 4    1  0.3752836E+003  0.2494622E+02  0.7546771E-02  0.1469406E+00
          2   -1    0    0  502    0  0.00000000000E+00  0.00000000000E+00  0.11871569922E+01  0.11871569922E+01  0.00000000000E+00 0. -1.
          1   -1    0    0  501    0 -0.00000000000E+00 -0.00000000000E+00 -0.12321734128E+04  0.12321734128E+04  0.00000000000E+00 0. -1.
          2    1    1    2  501    0  0.19730912762E+02 -0.15264498161E+02 -0.14804756815E+03  0.15013459380E+03  0.00000000000E+00 0. -1.
          1    1    1    2  502    0 -0.19730912762E+02  0.15264498161E+02 -0.10829386877E+04  0.10832259760E+04  0.00000000000E+00 0. -1.
</event>
<event>
 4    1  0.3752836E+003  0.4989548E+02  0.7546771E-02  0.1298626E+00
          2   -1    0    0  502    0  0.00000000000E+00  0.00000000000E+00  0.80667652577E+02  0.80667652577E+02  0.00000000000E+00 0. -1.
          1   -1    0    0  501    0 -0.00000000000E+00 -0.00000000000E+00 -0.23844193066E+03  0.23844193066E+03  0.00000000000E+00 0.  1.
          2    1    1    2  501    0  0.48194756077E+02  0.12916065886E+02  0.69984267993E+02  0.85949735531E+02  0.00000000000E+00 0. -1.
          1    1    1    2  502    0 -0.48194756077E+02 -0.12916065886E+02 -0.22775854608E+03  0.23315984771E+03  0.00000000000E+00 0.  1.
</event>
<event>
 4    1  0.3752836E+003  0.2002199E+02  0.7546771E-02  0.1533700E+00
          2   -1    0    0  502    0  0.00000000000E+00  0.00000000000E+00  0.82971237398E+03  0.82971237398E+03  0.00000000000E+00 0. -1.
          1   -1    0    0  501    0 -0.00000000000E+00 -0.00000000000E+00 -0.88266605002E+01  0.88266605002E+01  0.00000000000E+00 0. -1.
          2    1    1    2  501    0 -0.13060982814E+02 -0.15175340602E+02  0.81807585947E+03  0.81832083689E+03  0.00000000000E+00 0. -1.
          1    1    1    2  502    0  0.13060982814E+02  0.15175340602E+02  0.28098540110E+01  0.20218197595E+02  0.00000000000E+00 0. -1.
</event>
<event>
 4    1  0.3752836E+003  0.2271004E+02  0.7546771E-02  0.1496172E+00
          2   -1    0    0  502    0  0.00000000000E+00  0.00000000000E+00  0.27720258574E+02  0.27720258574E+02  0.00000000000E+00 0.  1.
          1   -1    0    0  501    0 -0.00000000000E+00 -0.00000000000E+00 -0.25372848585E+02  0.25372848585E+02  0.00000000000E+00 0.  1.
          2    1    1    2  501    0  0.21877422055E+02 -0.60929825560E+01  0.14883676601E+02  0.27152713701E+02  0.00000000000E+00 0.  1.
          1    1    1    2  502    0 -0.21877422055E+02  0.60929825560E+01 -0.12536266611E+02  0.25940393458E+02  0.00000000000E+00 0.  1.
</event>
<event>
 4    1  0.3752836E+003  0.3723793E+02  0.7546771E-02  0.1365479E+00
          2   -1    0    0  502    0  0.00000000000E+00  0.00000000000E+00  0.33973642649E+03  0.33973642649E+03  0.00000000000E+00 0. -1.
          1   -1    0    0  501    0 -0.00000000000E+00 -0.00000000000E+00 -0.67304336977E+02  0.67304336977E+02  0.00000000000E+00 0.  1.
          2    1    1    2  501    0 -0.23040712983E+02  0.29253874993E+02  0.33346879891E+03  0.33554150787E+03  0.00000000000E+00 0. -1.
          1    1    1    2  502    0  0.23040712983E+02 -0.29253874993E+02 -0.61036709398E+02  0.71499255597E+02  0.00000000000E+00 0.  1.
</event>
<event>
 4    1  0.3752836E+003  0.2267485E+02  0.7546771E-02  0.1496622E+00
          2   -1    0    0  502    0  0.00000000000E+00  0.00000000000E+00  0.18946363717E+00  0.18946363717E+00  0.00000000000E+00 0. -1.
          1   -1    0    0  501    0 -0.00000000000E+00 -0.00000000000E+00 -0.27389192043E+04  0.27389192043E+04  0.00000000000E+00 0.  1.
          2    1    1    2  501    0  0.13774705466E+02  0.18011272422E+02 -0.15007696413E+04  0.15009409264E+04  0.00000000000E+00 0. -1.
          1    1    1    2  502    0 -0.13774705466E+02 -0.18011272422E+02 -0.12379600994E+04  0.12381677416E+04  0.00000000000E+00 0.  1.
</event>
<event>
 4    1  0.3752836E+003  0.4830707E+02  0.7546771E-02  0.1305684E+00
          2   -1    0    0  502    0  0.00000000000E+00  0.00000000000E+00  0.96356463717E+03  0.96356463717E+03  0.00000000000E+00 0.  1.
          1   -1    0    0  501    0 -0.00000000000E+00 -0.00000000000E+00 -0.49233760038E+02  0.49233760038E+02  0.00000000000E+00 0. -1.
          2    1    1    2  501    0 -0.38397819982E+02  0.29311778884E+02  0.95095267717E+03  0.95217885252E+03  0.00000000000E+00 0.  1.
          1    1    1    2  502    0  0.38397819982E+02 -0.29311778884E+02 -0.36621800037E+02  0.60619544693E+02  0.00000000000E+00 0. -1.
</event>
<event>
 4    1  0.3752836E+003  0.6129468E+02  0.7546771E-02  0.1255496E+00
          2   -1    0    0  502    0  0.00000000000E+00  0.00000000000E+00  0.19378469347E+04  0.19378469347E+04  0.00000000000E+00 0.  1.
          1   -1    0    0  501    0 -0.00000000000E+00 -0.00000000000E+00 -0.19396934237E+01  0.19396934237E+01  0.00000000000E+00 0.  1.
          2    1    1    2  501    0  0.39855765556E+02  0.46567750489E+02  0.98912790327E+03  0.99102525016E+03  0.00000000000E+00 0.  1.
          1    1    1    2  502    0 -0.39855765556E+02 -0.46567750489E+02  0.94677933798E+03  0.94876137794E+03  0.00000000000E+00 0.  1.
</event>
<event>
 4    1  0.3752836E+003  0.4972282E+02  0.7546771E-02  0.1299379E+00
          2   -1    0    0  502    0  0.00000000000E+00  0.00000000000E+00  0.15837173213E+04  0.15837173213E+04  0.00000000000E+00 0. -1.
          1   -1    0    0  501    0 -0.00000000000E+00 -0.00000000000E+00 -0.23797710316E+01  0.23797710316E+01  0.00000000000E+00 0.  1.
          2    1    1    2  501    0  0.46130713387E+02  0.18555744803E+02  0.12558091144E+04  0.12567930976E+04  0.00000000000E+00 0. -1.
          1    1    1    2  502    0 -0.46130713387E+02 -0.18555744803E+02  0.32552843591E+03  0.32930399476E+03  0.00000000000E+00 0.  1.
</event>
<event>
 4    1  0.3752836E+003  0.2985937E+02  0.7546771E-02  0.1420823E+00
          2   -1    0    0  502    0  0.00000000000E+00  0.00000000000E+00  0.24143994100E+03  0.24143994100E+03  0.00000000000E+00 0.  1.
          1   -1    0    0  501    0 -0.00000000000E+00 -0.00000000000E+00 -0.37647737258E+03  0.37647737258E+03  0.00000000000E+00 0. -1.
          2    1    1    2  501    0 -0.21653598718E+02 -0.20559758767E+02  0.23992095914E+03  0.24177189384E+03  0.00000000000E+00 0.  1.
          1    1    1    2  502    0  0.21653598718E+02  0.20559758767E+02 -0.37495839072E+03  0.37614541974E+03  0.00000000000E+00 0. -1.
</event>
<event>
 4    1  0.3752836E+003  0.2102570E+02  0.7546771E-02  0.1518898E+00
          2   -1    0    0  502    0  0.00000000000E+00  0.00000000000E+00  0.20942481069E+01  0.20942481069E+01  0.00000000000E+00 0. -1.
          1   -1    0    0  501    0 -0.00000000000E+00 -0.00000000000E+00 -0.21124056684E+03  0.21124056684E+03  0.00000000000E+00 0. -1.
          2    1    1    2  501    0  0.15813159031E+02  0.13857281955E+02 -0.10174999198E+03  0.10389966857E+03  0.00000000000E+00 0. -1.
          1    1    1    2  502    0 -0.15813159031E+02 -0.13857281955E+02 -0.10739632676E+03  0.10943514638E+03  0.00000000000E+00 0. -1.
</event>
<event>
 4    1  0.3752836E+003  0.2133384E+02  0.7546771E-02  0.1514552E+00
          2   -1    0    0  502    0  0.00000000000E+00  0.00000000000E+00  0.12251956392E+04  0.12251956392E+04  0.00000000000E+00 0. -1.
          1   -1    0    0  501    0 -0.00000000000E+00 -0.00000000000E+00 -0.24296723773E+01  0.24296723773E+01  0.00000000000E+00 0. -1.
          2    1    1    2  501    0  0.21301235118E+02  0.11790248340E+01  0.11763267459E+04  0.11765201850E+04  0.00000000000E+00 0. -1.
          1    1    1    2  502    0 -0.21301235118E+02 -0.11790248340E+01  0.46439220917E+02  0.51105126519E+02  0.00000000000E+00 0. -1.
</event>
<event>
 4    1  0.3752836E+003  0.2294052E+02  0.7546771E-02  0.1493246E+00
          2   -1    0    0  502    0  0.00000000000E+00  0.00000000000E+00  0.56166085538E+01  0.56166085538E+01  0.00000000000E+00 0. -1.
          1   -1    0    0  501    0 -0.00000000000E+00 -0.00000000000E+00 -0.82099314589E+03  0.82099314589E+03  0.00000000000E+00 0.  1.
          2    1    1    2  501    0 -0.55795371400E+01 -0.22251655642E+02 -0.18682555115E+02  0.29585558625E+02  0.00000000000E+00 0. -1.
          1    1    1    2  502    0  0.55795371400E+01  0.22251655642E+02 -0.79669398222E+03  0.79702419582E+03  0.00000000000E+00 0.  1.
</event>
<event>
 4    1  0.3752836E+003  0.2026284E+02  0.7546771E-02  0.1530055E+00
          2   -1    0    0  502    0  0.00000000000E+00  0.00000000000E+00  0.10680102387E+01  0.10680102387E+01  0.00000000000E+00 0. -1.
          1   -1    0    0  501    0 -0.00000000000E+00 -0.00000000000E+00 -0.14410222704E+04  0.14410222704E+04  0.00000000000E+00 0. -1.
          2    1    1    2  501    0 -0.15545808694E+02  0.12996561068E+02 -0.10255902349E+03  0.10454155187E+03  0.00000000000E+00 0. -1.
          1    1    1    2  502    0  0.15545808694E+02 -0.12996561068E+02 -0.13373952367E+04  0.13375487288E+04  0.00000000000E+00 0. -1.
</event>
<event>
 4    1  0.3752836E+003  0.2255824E+02  0.7546771E-02  0.1498121E+00
          2   -1    0    0  502    0  0.00000000000E+00  0.00000000000E+00  0.25567422773E+03  0.25567422773E+03  0.00000000000E+00 0. -1.
          1   -1    0    0  501    0 -0.00000000000E+00 -0.00000000000E+00 -0.26017921412E+02  0.26017921412E+02  0.00000000000E+00 0. -1.
          2    1    1    2  501    0 -0.13356678250E+02  0.18178921722E+02  0.25017982980E+03  0.25119478754E+03  0.00000000000E+00 0. -1.
          1    1    1    2  502    0  0.13356678250E+02 -0.18178921722E+02 -0.20523523479E+02  0.30497361605E+02  0.00000000000E+00 0. -1.
</event>
<event>
 4    1  0.3752836E+003  0.2481891E+02  0.7546771E-02  0.1470839E+00
          2   -1    0    0  502    0  0.00000000000E+00  0.00000000000E+00  0.51701611738E+03  0.51701611738E+03  0.00000000000E+00 0.  1.
          1   -1    0    0  501    0 -0.00000000000E+00 -0.00000000000E+00 -0.12060921503E+02  0.12060921503E+02  0.00000000000E+00 0. -1.
          2    1    1    2  501    0 -0.58689328444E+01 -0.24115016032E+02  0.50361053663E+03  0.50422172799E+03  0.00000000000E+00 0.  1.
          1    1    1    2  502    0  0.58689328444E+01  0.24115016032E+02  0.13446592430E+01  0.24855310890E+02  0.00000000000E+00 0. -1.
</event>
<event>
 4    1  0.3752836E+003  0.2076020E+02  0.7546771E-02  0.1522716E+00
          2   -1    0    0  502    0  0.00000000000E+00  0.00000000000E+00  0.23500229163E+03  0.23500229163E+03  0.00000000000E+00 0. -1.
          1   -1    0    0  501    0 -0.00000000000E+00 -0.00000000000E+00 -0.25353723664E+01  0.25353723664E+01  0.00000000000E+00 0. -1.
          2    1    1    2  501    0  0.49086120441E+01  0.20171545695E+02  0.17870282584E+03  0.17990465722E+03  0.00000000000E+00 0. -1.
          1    1    1    2  502    0 -0.49086120441E+01 -0.20171545695E+02  0.53764093428E+02  0.57633006776E+02  0.00000000000E+00 0. -1.
</event>
<event>
 4    1  0.3752836E+003  0.6869103E+02  0.7546771E-02  0.1232856E+00
          2   -1    0    0  502    0  0.00000000000E+00  0.00000000000E+00  0.19992291473E+02  0.19992291473E+02  0.00000000000E+00 0. -1.
          1   -1    0    0  501    0 -0.00000000000E+00 -0.00000000000E+00 -0.10644884109E+04  0.10644884109E+04  0.00000000000E+00 0.  1.
          2    1    1    2  501    0 -0.67958385758E+02  0.10005795822E+02 -0.43881352383E+02  0.81510927070E+02  0.00000000000E+00 0. -1.
          1    1    1    2  502    0  0.67958385758E+02 -0.10005795822E+02 -0.10006147671E+04  0.10029697753E+04  0.00000000000E+00 0.  1.
</event>
<event>
 4    1  0.3752836E+003  0.2436473E+02  0.7546771E-02  0.1476037E+00
          2   -1    0    0  502    0  0.00000000000E+00  0.00000000000E+00  0.18011284782E+01  0.18011284782E+01  0.00000000000E+00 0. -1.
          1   -1    0    0  501    0 -0.00000000000E+00 -0.00000000000E+00 -0.14035739837E+04  0.14035739837E+04  0.00000000000E+00 0.  1.
          2    1    1    2  501    0 -0.19291038761E+02  0.14882744159E+02 -0.86215317743E+02  0.89591970977E+02  0.00000000000E+00 0. -1.
          1    1    1    2  502    0  0.19291038761E+02 -0.14882744159E+02 -0.13155575375E+04  0.13157831412E+04  0.00000000000E+00 0.  1.
</event>
<event>
 4    1  0.3752836E+003  0.2618803E+02  0.7546771E-02  0.1455939E+00
          2   -1    0    0  502    0  0.00000000000E+00  0.00000000000E+00  0.55396022109E+01  0.55396022109E+01  0.00000000000E+00 0.  1.
          1   -1    0    0  501    0 -0.00000000000E+00 -0.00000000000E+00 -0.12554343401E+03  0.12554343401E+03  0.00000000000E+00 0.  1.
          2    1    1    2  501    0 -0.19933558263E+02 -0.16984271976E+02 -0.67721766021E+02  0.72608882601E+02  0.00000000000E+00 0.  1.
          1    1    1    2  502    0  0.19933558263E+02  0.16984271976E+02 -0.52282065781E+02  0.58474153623E+02  0.00000000000E+00 0.  1.
</event>
<event>
 4    1  0.3752836E+003  0.3452908E+02  0.7546771E-02  0.1383904E+00
          2   -1    0    0  502    0  0.00000000000E+00  0.00000000000E+00  0.15071530677E+04  0.15071530677E+04  0.00000000000E+00 0. -1.
          1   -1    0    0  501    0 -0.00000000000E+00 -0.00000000000E+00 -0.80947861666E+00  0.80947861666E+00  0.00000000000E+00 0. -1.
          2    1    1    2  501    0 -0.29421683018E+02 -0.18072679318E+02  0.86688701355E+03  0.86757440686E+03  0.00000000000E+00 0. -1.
          1    1    1    2  502    0  0.29421683018E+02  0.18072679318E+02  0.63945657549E+03  0.64038813942E+03  0.00000000000E+00 0. -1.
</event>
<event>
 4    1  0.3752836E+003  0.2035239E+02  0.7546771E-02  0.1528715E+00
          2   -1    0    0  502    0  0.00000000000E+00  0.00000000000E+00  0.29568706994E+03  0.29568706994E+03  0.00000000000E+00 0. -1.
          1   -1    0    0  501    0 -0.00000000000E+00 -0.00000000000E+00 -0.14811825468E+03  0.14811825468E+03  0.00000000000E+00 0.  1.
          2    1    1    2  501    0  0.19986336489E+02  0.38426530428E+01  0.29463522238E+03  0.29533732222E+03  0.00000000000E+00 0. -1.
          1    1    1    2  502    0 -0.19986336489E+02 -0.38426530428E+01 -0.14706640713E+03  0.14846800240E+03  0.00000000000E+00 0.  1.
</event>
<event>
 4    1  0.3752836E+003  0.2237892E+02  0.7546771E-02  0.1500448E+00
          2   -1    0    0  502    0  0.00000000000E+00  0.00000000000E+00  0.92084433214E+00  0.92084433214E+00  0.00000000000E+00 0.  1.
          1   -1    0    0  501    0 -0.00000000000E+00 -0.00000000000E+00 -0.61067247053E+03  0.61067247053E+03  0.00000000000E+00 0.  1.
          2    1    1    2  501    0  0.17983294545E+02 -0.13319810939E+02 -0.20373261349E+03  0.20495802996E+03  0.00000000000E+00 0.  1.
          1    1    1    2  502    0 -0.17983294545E+02  0.13319810939E+02 -0.40601901271E+03  0.40663528490E+03  0.00000000000E+00 0.  1.
</event>
<event>
 4    1  0.3752836E+003  0.2452604E+02  0.7546771E-02  0.1474176E+00
          2   -1    0    0  502    0  0.00000000000E+00  0.00000000000E+00  0.10109098243E+02  0.10109098243E+02  0.00000000000E+00 0.  1.
          1   -1    0    0  501    0 -0.00000000000E+00 -0.00000000000E+00 -0.19329921661E+03  0.19329921661E+03  0.00000000000E+00 0. -1.
          2    1    1    2  501    0 -0.22230835599E+02 -0.10359361541E+02 -0.69805551660E+01  0.25500089674E+02  0.00000000000E+00 0.  1.
          1    1    1    2  502    0  0.22230835599E+02  0.10359361541E+02 -0.17620956320E+03  0.17790822518E+03  0.00000000000E+00 0. -1.
</event>
<event>
 4    1  0.3752836E+003  0.2547800E+02  0.7546771E-02  0.1463526E+00
          2   -1    0    0  502    0  0.00000000000E+00  0.00000000000E+00  0.15331803813E+03  0.15331803813E+03  0.00000000000E+00 0.  1.
          1   -1    0    0  501    0 -0.00000000000E+00 -0.00000000000E+00 -0.44426449720E+01  0.44426449720E+01  0.00000000000E+00 0. -1.
          2    1    1    2  501    0 -0.25181979592E+02  0.38725037735E+01  0.91537415127E+02  0.95016981376E+02  0.00000000000E+00 0.  1.
          1    1    1    2  502    0  0.25181979592E+02 -0.38725037735E+01  0.57337978031E+02  0.62743701727E+02  0.00000000000E+00 0. -1.
</event>
<event>
 4    1  0.3752836E+003  0.3529491E+02  0.7546771E-02  0.1378502E+00
          2   -1    0    0  502    0  0.00000000000E+00  0.00000000000E+00  0.75672468901E+01  0.75672468901E+01  0.00000000000E+00 0.  1.
          1   -1    0    0  501    0 -0.00000000000E+00 -0.00000000000E+00 -0.18337130151E+03  0.18337130151E+03  0.00000000000E+00 0.  1.
          2    1    1    2  501    0  0.28570982125E+02  0.20722651521E+02 -0.11843012091E+03  0.12357759848E+03  0.00000000000E+00 0.  1.
          1    1    1    2  502    0 -0.28570982125E+02 -0.20722651521E+02 -0.57373933708E+02  0.67360949925E+02  0.00000000000E+00 0.  1.
</event>
<event>
 4    1  0.3752836E+003  0.3346992E+02  0.7546771E-02  0.1391651E+00
          2   -1    0    0  502    0  0.00000000000E+00  0.00000000000E+00  0.90658917771E+03  0.90658917771E+03  0.00000000000E+00 0.  1.
          1   -1    0    0  501    0 -0.00000000000E+00 -0.00000000000E+00 -0.13465237013E+01  0.13465237013E+01  0.00000000000E+00 0. -1.
          2    1    1    2  501    0  0.16048895298E+02  0.29371217983E+02  0.58288216208E+03  0.58384231635E+03  0.00000000000E+00 0.  1.
          1    1    1    2  502    0 -0.16048895298E+02 -0.29371217983E+02  0.32236049192E+03  0.32409338506E+03  0.00000000000E+00 0. -1.
</event>
<event>
 4    1  0.3752836E+003  0.2309064E+02  0.7546771E-02  0.1491363E+00
          2   -1    0    0  502    0  0.00000000000E+00  0.00000000000E+00  0.93230939522E+03  0.93230939522E+03  0.00000000000E+00 0. -1.
          1   -1    0    0  501    0 -0.00000000000E+00 -0.00000000000E+00 -0.34028554411E+01  0.34028554411E+01  0.00000000000E+00 0.  1.
          2    1    1    2  501    0 -0.14475225225E+02 -0.17990146570E+02  0.89118793925E+03  0.89148702771E+03  0.00000000000E+00 0. -1.
          1    1    1    2  502    0  0.14475225225E+02  0.17990146570E+02  0.37718600537E+02  0.44225222955E+02  0.00000000000E+00 0.  1.
</event>
<event>
 4    1  0.3752836E+003  0.2604733E+02  0.7546771E-02  0.1457420E+00
          2   -1    0    0  502    0  0.00000000000E+00  0.00000000000E+00  0.26106256528E+02  0.26106256528E+02  0.00000000000E+00 0.  1.
          1   -1    0    0  501    0 -0.00000000000E+00 -0.00000000000E+00 -0.28622184924E+02  0.28622184924E+02  0.00000000000E+00 0.  1.
          2    1    1    2  501    0 -0.25772259511E+02  0.37753804475E+01 -0.95586181171E+01  0.27745811182E+02  0.00000000000E+00 0.  1.
          1    1    1    2  502    0  0.25772259511E+02 -0.37753804475E+01  0.70426897205E+01  0.26982630271E+02  0.00000000000E+00 0.  1.
</event>
<event>
 4    1  0.3752836E+003  0.3554243E+02  0.7546771E-02  0.1376789E+00
          2   -1    0    0  502    0  0.00000000000E+00  0.00000000000E+00  0.12710752107E+03  0.12710752107E+03  0.00000000000E+00 0.  1.
          1   -1    0    0  501    0 -0.00000000000E+00 -0.00000000000E+00 -0.24331937616E+02  0.24331937616E+02  0.00000000000E+00 0. -1.
          2    1    1    2  501    0  0.34660836134E+02 -0.78670618842E+01  0.10962522738E+03  0.11524302453E+03  0.00000000000E+00 0.  1.
          1    1    1    2  502    0 -0.34660836134E+02  0.78670618842E+01 -0.68496439225E+01  0.36196434162E+02  0.00000000000E+00 0. -1.
</event>
<event>
 4    1  0.3752836E+003  0.3573588E+02  0.7546771E-02  0.1375462E+00
          2   -1    0    0  502    0  0.00000000000E+00  0.00000000000E+00  0.96391182394E+02  0.96391182394E+02  0.00000000000E+00 0. -1.
          1   -1    0    0  501    0 -0.00000000000E+00 -0.00000000000E+00 -0.29262535034E+03  0.29262535034E+03  0.00000000000E+00 0. -1.
          2    1    1    2  501    0  0.21380982605E+01  0.35671860639E+02  0.91936988908E+02  0.98638040507E+02  0.00000000000E+00 0. -1.
          1    1    1    2  502    0 -0.21380982605E+01 -0.35671860639E+02 -0.28817115685E+03  0.29037849222E+03  0.00000000000E+00 0. -1.
</event>
<event>
 4    1  0.3752836E+003  0.3504497E+02  0.7546771E-02  0.1380247E+00
          2   -1    0    0  502    0  0.00000000000E+00  0.00000000000E+00  0.83162982279E+01  0.83162982279E+01  0.00000000000E+00 0. -1.
          1   -1    0    0  501    0 -0.00000000000E+00 -0.00000000000E+00 -0.15007634980E+03  0.15007634980E+03  0.00000000000E+00 0. -1.
          2    1    1    2  501    0 -0.57298116903E+01 -0.34573372977E+02 -0.80888006516E+02  0.88153380304E+02  0.00000000000E+00 0. -1.
          1    1    1    2  502    0  0.57298116903E+01  0.34573372977E+02 -0.60872045061E+02  0.70239267728E+02  0.00000000000E+00 0. -1.
</event>
<event>
 4    1  0.3752836E+003  0.2111954E+02  0.7546771E-02  0.1517565E+00
          2   -1    0    0  502    0  0.00000000000E+00  0.00000000000E+00  0.44618932537E+03  0.44618932537E+03  0.00000000000E+00 0.  1.
          1   -1    0    0  501    0 -0.00000000000E+00 -0.00000000000E+00 -0.11413624876E+01  0.11413624876E+01  0.00000000000E+00 0.  1.
          2    1    1    2  501    0  0.40220894186E+01  0.20733007543E+02  0.30133470374E+03  0.30207389574E+03  0.00000000000E+00 0.  1.
          1    1    1    2  502    0 -0.40220894186E+01 -0.20733007543E+02  0.14371325914E+03  0.14525679212E+03  0.00000000000E+00 0.  1.
</event>
<event>
 4    1  0.3752836E+003  0.3185368E+02  0.7546771E-02  0.1404144E+00
          2   -1    0    0  502    0  0.00000000000E+00  0.00000000000E+00  0.82052327118E+03  0.82052327118E+03  0.00000000000E+00 0. -1.
          1   -1    0    0  501    0 -0.00000000000E+00 -0.00000000000E+00 -0.13184332982E+01  0.13184332982E+01  0.00000000000E+00 0.  1.
          2    1    1    2  501    0 -0.19486829058E+01  0.31794013645E+02  0.51197930483E+03  0.51296926345E+03  0.00000000000E+00 0. -1.
          1    1    1    2  502    0  0.19486829058E+01 -0.31794013645E+02  0.30722553305E+03  0.30887244103E+03  0.00000000000E+00 0.  1.
</event>
<event>
 4    1  0.3752836E+003  0.2090303E+02  0.7546771E-02  0.1520654E+00
          2   -1    0    0  502    0  0.00000000000E+00  0.00000000000E+00  0.97082543867E+01  0.97082543867E+01  0.00000000000E+00 0. -1.
          1   -1    0    0  501    0 -0.00000000000E+00 -0.00000000000E+00 -0.38930433500E+03  0.38930433500E+03  0.00000000000E+00 0.  1.
          2    1    1    2  501    0  0.90557693272E+01  0.18839574616E+02 -0.21780970386E+01  0.21016199384E+02  0.00000000000E+00 0. -1.
          1    1    1    2  502    0 -0.90557693272E+01 -0.18839574616E+02 -0.37741798358E+03  0.37799639001E+03  0.00000000000E+00 0.  1.
</event>
<event>
 4    1  0.3752836E+003  0.3494788E+02  0.7546771E-02  0.1380930E+00
          2   -1    0    0  502    0  0.00000000000E+00  0.00000000000E+00  0.97108596857E+03  0.97108596857E+03  0.00000000000E+00 0. -1.
          1   -1    0    0  501    0 -0.00000000000E+00 -0.00000000000E+00 -0.36248269194E+01  0.36248269194E+01  0.00000000000E+00 0. -1.
          2    1    1    2  501    0  0.33849246390E+02 -0.86938438521E+01  0.87756262970E+03  0.87825823278E+03  0.00000000000E+00 0. -1.
          1    1    1    2  502    0 -0.33849246390E+02  0.86938438521E+01  0.89898511954E+02  0.96452562711E+02  0.00000000000E+00 0. -1.
</event>
<event>
 4    1  0.3752836E+003  0.2062544E+02  0.7546771E-02  0.1524680E+00
          2   -1    0    0  502    0  0.00000000000E+00  0.00000000000E+00  0.44301773365E+03  0.44301773365E+03  0.00000000000E+00 0.  1.
          1   -1    0    0  501    0 -0.00000000000E+00 -0.00000000000E+00 -0.20067701396E+01  0.20067701396E+01  0.00000000000E+00 0. -1.
          2    1    1    2  501    0 -0.19264161969E+02  0.73689228077E+01  0.38119159871E+03  0.38174918977E+03  0.00000000000E+00 0.  1.
          1    1    1    2  502    0  0.19264161969E+02 -0.73689228077E+01  0.59819364803E+02  0.63275314026E+02  0.00000000000E+00 0. -1.
</event>
<event>
 4    1  0.3752836E+003  0.3517932E+02  0.7546771E-02  0.1379307E+00
          2   -1    0    0  502    0  0.00000000000E+00  0.00000000000E+00  0.95365517217E+02  0.95365517217E+02  0.00000000000E+00 0. -1.
          1   -1    0    0  501    0 -0.00000000000E+00 -0.00000000000E+00 -0.31987362391E+02  0.31987362391E+02  0.00000000000E+00 0. -1.
          2    1    1    2  501    0 -0.32371475131E+02  0.13772141808E+02  0.80777790308E+02  0.88105821029E+02  0.00000000000E+00 0. -1.
          1    1    1    2  502    0  0.32371475131E+02 -0.13772141808E+02 -0.17399635483E+02  0.39247058579E+02  0.00000000000E+00 0. -1.
</event>
<event>
 4    1  0.3752836E+003  0.3276757E+02  0.7546771E-02  0.1396976E+00
          2   -1    0    0  502    0  0.00000000000E+00  0.00000000000E+00  0.13536648967E+04  0.13536648967E+04  0.00000000000E+00 0.  1.
          1   -1    0    0  501    0 -0.00000000000E+00 -0.00000000000E+00 -0.16664408761E+01  0.16664408761E+01  0.00000000000E+00 0.  1.
          2    1    1    2  501    0  0.27019881548E+02 -0.18537523939E+02  0.11665567995E+04  0.11670169152E+04  0.00000000000E+00 0.  1.
          1    1    1    2  502    0 -0.27019881548E+02  0.18537523939E+02  0.18544165635E+03  0.18831442245E+03  0.00000000000E+00 0.  1.
</event>
<event>
 4    1  0.3752836E+003  0.2007358E+02  0.7546771E-02  0.1532914E+00
          2   -1    0    0  502    0  0.00000000000E+00  0.00000000000E+00  0.57893577480E+01  0.57893577480E+01  0.00000000000E+00 0. -1.
          1   -1    0    0  501    0 -0.00000000000E+00 -0.00000000000E+00 -0.58270945398E+03  0.58270945398E+03  0.00000000000E+00 0.  1.
          2    1    1    2  501    0 -0.66592657371E+01 -0.18936806436E+02 -0.12342568027E+02  0.23564537841E+02  0.00000000000E+00 0. -1.
          1    1    1    2  502    0  0.66592657371E+01  0.18936806436E+02 -0.56457752820E+03  0.56493427388E+03  0.00000000000E+00 0.  1.
</event>
<event>
 4    1  0.3752836E+003  0.2826926E+02  0.7546771E-02  0.1435259E+00
          2   -1    0    0  502    0  0.00000000000E+00  0.00000000000E+00  0.17210361474E+03  0.17210361474E+03  0.00000000000E+00 0. -1.
          1   -1    0    0  501    0 -0.00000000000E+00 -0.00000000000E+00 -0.16197084089E+03  0.16197084089E+03  0.00000000000E+00 0. -1.
          2    1    1    2  501    0 -0.23032979592E+01  0.28175268458E+02  0.16969186696E+03  0.17203046430E+03  0.00000000000E+00 0. -1.
          1    1    1    2  502    0  0.23032979592E+01 -0.28175268458E+02 -0.15955909311E+03  0.16204399134E+03  0.00000000000E+00 0. -1.
</event>
<event>
 4    1  0.3752836E+003  0.2207711E+02  0.7546771E-02  0.1504424E+00
          2   -1    0    0  502    0  0.00000000000E+00  0.00000000000E+00  0.26214540608E+03  0.26214540608E+03  0.00000000000E+00 0.  1.
          1   -1    0    0  501    0 -0.00000000000E+00 -0.00000000000E+00 -0.15540345339E+04  0.15540345339E+04  0.00000000000E+00 0.  1.
          2    1    1    2  501    0 -0.19920033357E+02  0.95179368126E+01  0.26160201760E+03  0.26253193037E+03  0.00000000000E+00 0.  1.
          1    1    1    2  502    0  0.19920033357E+02 -0.95179368126E+01 -0.15534911455E+04  0.15536480096E+04  0.00000000000E+00 0.  1.
</event>
<event>
 4    1  0.3752836E+003  0.2837749E+02  0.7546771E-02  0.1434241E+00
          2   -1    0    0  502    0  0.00000000000E+00  0.00000000000E+00  0.66452366530E+03  0.66452366530E+03  0.00000000000E+00 0. -1.
          1   -1    0    0  501    0 -0.00000000000E+00 -0.00000000000E+00 -0.45423339238E+02  0.45423339238E+02  0.00000000000E+00 0. -1.
          2    1    1    2  501    0 -0.26836541281E+02 -0.92239867329E+01  0.65975660842E+03  0.66036661350E+03  0.00000000000E+00 0. -1.
          1    1    1    2  502    0  0.26836541281E+02  0.92239867329E+01 -0.40656282362E+02  0.49580391029E+02  0.00000000000E+00 0. -1.
</event>
<event>
 4    1  0.3752836E+003  0.1615349E+03  0.7546771E-02  0.1086349E+00
          2   -1    0    0  502    0  0.00000000000E+00  0.00000000000E+00  0.38644931759E+03  0.38644931759E+03  0.00000000000E+00 0. -1.
          1   -1    0    0  501    0 -0.00000000000E+00 -0.00000000000E+00 -0.27658113943E+03  0.27658113943E+03  0.00000000000E+00 0. -1.
          2    1    1    2  501    0 -0.14618318649E+03  0.68731334494E+02  0.34315641323E+03  0.37927542010E+03  0.00000000000E+00 0. -1.
          1    1    1    2  502    0  0.14618318649E+03 -0.68731334494E+02 -0.23328823507E+03  0.28375503692E+03  0.00000000000E+00 0. -1.
</event>
<event>
 4    1  0.3752836E+003  0.3197949E+02  0.7546771E-02  0.1403140E+00
          2   -1    0    0  502    0  0.00000000000E+00  0.00000000000E+00  0.10830447202E+04  0.10830447202E+04  0.00000000000E+00 0. -1.
          1   -1    0    0  501    0 -0.00000000000E+00 -0.00000000000E+00 -0.12280139931E+01  0.12280139931E+01  0.00000000000E+00 0.  1.
          2    1    1    2  501    0  0.14600225564E+02 -0.28452082836E+02  0.80150542931E+03  0.80214315482E+03  0.00000000000E+00 0. -1.
          1    1    1    2  502    0 -0.14600225564E+02  0.28452082836E+02  0.28031127691E+03  0.28212957939E+03  0.00000000000E+00 0.  1.
</event>
<event>
 4    1  0.3752836E+003  0.2374467E+02  0.7546771E-02  0.1483353E+00
          2   -1    0    0  502    0  0.00000000000E+00  0.00000000000E+00  0.17524657897E+01  0.17524657897E+01  0.00000000000E+00 0.  1.
          1   -1    0    0  501    0 -0.00000000000E+00 -0.00000000000E+00 -0.78867051841E+03  0.78867051841E+03  0.00000000000E+00 0. -1.
          2    1    1    2  501    0 -0.38848594534E+01 -0.23424709831E+02 -0.89359576288E+02  0.92460494472E+02  0.00000000000E+00 0.  1.
          1    1    1    2  502    0  0.38848594534E+01  0.23424709831E+02 -0.69755847633E+03  0.69796248973E+03  0.00000000000E+00 0. -1.
</event>
<event>
 4    1  0.3752836E+003  0.3817203E+02  0.7546771E-02  0.1359544E+00
          2   -1    0    0  502    0  0.00000000000E+00  0.00000000000E+00  0.32536771981E+03  0.32536771981E+03  0.00000000000E+00 0.  1.
          1   -1    0    0  501    0 -0.00000000000E+00 -0.00000000000E+00 -0.17840897046E+02  0.17840897046E+02  0.00000000000E+00 0.  1.
          2    1    1    2  501    0 -0.36026454879E+02  0.12617400622E+02  0.30227651740E+03  0.30467720167E+03  0.00000000000E+00 0.  1.
          1    1    1    2  502    0  0.36026454879E+02 -0.12617400622E+02  0.52503053672E+01  0.38531415184E+02  0.00000000000E+00 0.  1.
</event>
<event>
 4    1  0.3752836E+003  0.3322724E+02  0.7546771E-02  0.1393474E+00
          2   -1    0    0  502    0  0.00000000000E+00  0.00000000000E+00  0.55856556584E+01  0.55856556584E+01  0.00000000000E+00 0. -1.
          1   -1    0    0  501    0 -0.00000000000E+00 -0.00000000000E+00 -0.25042666071E+03  0.25042666071E+03  0.00000000000E+00 0. -1.
          2    1    1    2  501    0 -0.63154748668E+01  0.32621533129E+02 -0.63660943295E+02  0.71810621412E+02  0.00000000000E+00 0. -1.
          1    1    1    2  502    0  0.63154748668E+01 -0.32621533129E+02 -0.18118006176E+03  0.18420169496E+03  0.00000000000E+00 0. -1.
</event>
<event>
 4    1  0.3752836E+003  0.2326107E+02  0.7546771E-02  0.1489246E+00
          2   -1    0    0  502    0  0.00000000000E+00  0.00000000000E+00  0.18692669838E+04  0.18692669838E+04  0.00000000000E+00 0. -1.
          1   -1    0    0  501    0 -0.00000000000E+00 -0.00000000000E+00 -0.44617447235E+00  0.44617447235E+00  0.00000000000E+00 0. -1.
          2    1    1    2  501    0  0.85852764413E+01 -0.21618746534E+02  0.14884589389E+04  0.14886406854E+04  0.00000000000E+00 0. -1.
          1    1    1    2  502    0 -0.85852764413E+01  0.21618746534E+02  0.38036187040E+03  0.38107247293E+03  0.00000000000E+00 0. -1.
</event>
<event>
 4    1  0.3752836E+003  0.3009342E+02  0.7546771E-02  0.1418786E+00
          2   -1    0    0  502    0  0.00000000000E+00  0.00000000000E+00  0.12591676887E+02  0.12591676887E+02  0.00000000000E+00 0.  1.
          1   -1    0    0  501    0 -0.00000000000E+00 -0.00000000000E+00 -0.14705070590E+03  0.14705070590E+03  0.00000000000E+00 0.  1.
          2    1    1    2  501    0  0.26387704505E+02 -0.14467307315E+02 -0.10175176395E+02  0.31767092166E+02  0.00000000000E+00 0.  1.
          1    1    1    2  502    0 -0.26387704505E+02  0.14467307315E+02 -0.12428385262E+03  0.12787529062E+03  0.00000000000E+00 0.  1.
</event>
<event>
 4    1  0.3752836E+003  0.2565231E+02  0.7546771E-02  0.1461637E+00
          2   -1    0    0  502    0  0.00000000000E+00  0.00000000000E+00  0.14687758148E+02  0.14687758148E+02  0.00000000000E+00 0. -1.
          1   -1    0    0  501    0 -0.00000000000E+00 -0.00000000000E+00 -0.14231402059E+03  0.14231402059E+03  0.00000000000E+00 0.  1.
          2    1    1    2  501    0  0.20178115086E+02  0.15839337833E+02  0.11668840604E+01  0.25678835056E+02  0.00000000000E+00 0. -1.
          1    1    1    2  502    0 -0.20178115086E+02 -0.15839337833E+02 -0.12879314651E+03  0.13132294369E+03  0.00000000000E+00 0.  1.
</event>
<event>
 4    1  0.3752836E+003  0.2096585E+02  0.7546771E-02  0.1519753E+00
          2   -1    0    0  502    0  0.00000000000E+00  0.00000000000E+00  0.54806447315E+00  0.54806447315E+00  0.00000000000E+00 0. -1.
          1   -1    0    0  501    0 -0.00000000000E+00 -0.00000000000E+00 -0.11597857378E+04  0.11597857378E+04  0.00000000000E+00 0.  1.
          2    1    1    2  501    0  0.77729759029E+01  0.19471716000E+02 -0.25739746051E+03  0.25824991685E+03  0.00000000000E+00 0. -1.
          1    1    1    2  502    0 -0.77729759029E+01 -0.19471716000E+02 -0.90184021286E+03  0.90208388546E+03  0.00000000000E+00 0.  1.
</event>
<event>
 4    1  0.3752836E+003  0.2757434E+02  0.7546771E-02  0.1441923E+00
          2   -1    0    0  502    0  0.00000000000E+00  0.00000000000E+00  0.81603211054E+03  0.81603211054E+03  0.00000000000E+00 0.  1.
          1   -1    0    0  501    0 -0.00000000000E+00 -0.00000000000E+00 -0.62221434602E+01  0.62221434602E+01  0.00000000000E+00 0. -1.
          2    1    1    2  501    0 -0.22304143706E+02  0.16213245410E+02  0.78400150213E+03  0.78448626469E+03  0.00000000000E+00 0.  1.
          1    1    1    2  502    0  0.22304143706E+02 -0.16213245410E+02  0.25808464953E+02  0.37767989309E+02  0.00000000000E+00 0. -1.
</event>
<event>
 4    1  0.3752836E+003  0.2047371E+02  0.7546771E-02  0.1526913E+00
          2   -1    0    0  502    0  0.00000000000E+00  0.00000000000E+00  0.45577161911E+00  0.45577161911E+00  0.00000000000E+00 0.  1.
          1   -1    0    0  501    0 -0.00000000000E+00 -0.00000000000E+00 -0.10005753518E+04  0.10005753518E+04  0.00000000000E+00 0.  1.
          2    1    1    2  501    0  0.12942477045E+02 -0.15863949953E+02 -0.35776010303E+03  0.35834545336E+03  0.00000000000E+00 0.  1.
          1    1    1    2  502    0 -0.12942477045E+02  0.15863949953E+02 -0.64235947711E+03  0.64268567002E+03  0.00000000000E+00 0.  1.
</event>
<event>
 4    1  0.3752836E+003  0.2064232E+02  0.7546771E-02  0.1524433E+00
          2   -1    0    0  502    0  0.00000000000E+00  0.00000000000E+00  0.38544280469E+02  0.38544280469E+02  0.00000000000E+00 0. -1.
          1   -1    0    0  501    0 -0.00000000000E+00 -0.00000000000E+00 -0.88150510652E+03  0.88150510652E+03  0.00000000000E+00 0. -1.
          2    1    1    2  501    0 -0.26452325282E+01 -0.20472126890E+02  0.35650595069E+02  0.41195511446E+02  0.00000000000E+00 0. -1.
          1    1    1    2  502    0  0.26452325282E+01  0.20472126890E+02 -0.87861142112E+03  0.87885387554E+03  0.00000000000E+00 0. -1.
</event>
<event>
 4    1  0.3752836E+003  0.2652259E+02  0.7546771E-02  0.1452464E+00
          2   -1    0    0  502    0  0.00000000000E+00  0.00000000000E+00  0.69858686526E+03  0.69858686526E+03  0.00000000000E+00 0.  1.
          1   -1    0    0  501    0 -0.00000000000E+00 -0.00000000000E+00 -0.71597557929E+02  0.71597557929E+02  0.00000000000E+00 0.  1.
          2    1    1    2  501    0  0.24924186417E+02  0.90682212880E+01  0.69586928084E+03  0.69637454270E+03  0.00000000000E+00 0.  1.
          1    1    1    2  502    0 -0.24924186417E+02 -0.90682212880E+01 -0.68879973512E+02  0.73809880483E+02  0.00000000000E+00 0.  1.
</event>
<event>
 4    1  0.3752836E+003  0.2033028E+02  0.7546771E-02  0.1529045E+00
          2   -1    0    0  502    0  0.00000000000E+00  0.00000000000E+00  0.44418774927E+03  0.44418774927E+03  0.00000000000E+00 0. -1.
          1   -1    0    0  501    0 -0.00000000000E+00 -0.00000000000E+00 -0.21166223544E+01  0.21166223544E+01  0.00000000000E+00 0.  1.
          2    1    1    2  501    0 -0.16255327010E+02 -0.12210016993E+02  0.38808413683E+03  0.38861628560E+03  0.00000000000E+00 0. -1.
          1    1    1    2  502    0  0.16255327010E+02  0.12210016993E+02  0.53986990090E+02  0.57688086033E+02  0.00000000000E+00 0.  1.
</event>
<event>
 4    1  0.3752836E+003  0.3461403E+02  0.7546771E-02  0.1383297E+00
          2   -1    0    0  502    0  0.00000000000E+00  0.00000000000E+00  0.10271081549E+04  0.10271081549E+04  0.00000000000E+00 0. -1.
          1   -1    0    0  501    0 -0.00000000000E+00 -0.00000000000E+00 -0.16309420601E+03  0.16309420601E+03  0.00000000000E+00 0. -1.
          2    1    1    2  501    0 -0.24080622417E+02 -0.24864730964E+02  0.10249761454E+04  0.10255604467E+04  0.00000000000E+00 0. -1.
          1    1    1    2  502    0  0.24080622417E+02  0.24864730964E+02 -0.16096219649E+03  0.16464191422E+03  0.00000000000E+00 0. -1.
</event>
<event>
 4    1  0.3752836E+003  0.2970936E+02  0.7546771E-02  0.1422139E+00
          2   -1    0    0  502    0  0.00000000000E+00  0.00000000000E+00  0.23009094475E+02  0.23009094475E+02  0.00000000000E+00 0.  1.
          1   -1    0    0  501    0 -0.00000000000E+00 -0.00000000000E+00 -0.12750804720E+03  0.12750804720E+03  0.00000000000E+00 0.  1.
          2    1    1    2  501    0 -0.44860600876E+01  0.29368710359E+02  0.10678140520E+02  0.31570058097E+02  0.00000000000E+00 0.  1.
          1    1    1    2  502    0  0.44860600876E+01 -0.29368710359E+02 -0.11517709324E+03  0.11894708358E+03  0.00000000000E+00 0.  1.
</event>
<event>
 4    1  0.3752836E+003  0.4602428E+02  0.7546771E-02  0.1316396E+00
          2   -1    0    0  502    0  0.00000000000E+00  0.00000000000E+00  0.41413809365E+02  0.41413809365E+02  0.00000000000E+00 0.  1.
          1   -1    0    0  501    0 -0.00000000000E+00 -0.00000000000E+00 -0.11379397862E+03  0.11379397862E+03  0.00000000000E+00 0.  1.
          2    1    1    2  501    0  0.43750061050E+02  0.14288696800E+02  0.21389744691E+02  0.50751905147E+02  0.00000000000E+00 0.  1.
          1    1    1    2  502    0 -0.43750061050E+02 -0.14288696800E+02 -0.93769913947E+02  0.10445588284E+03  0.00000000000E+00 0.  1.
</event>
<event>
 4    1  0.3752836E+003  0.2320591E+02  0.7546771E-02  0.1489929E+00
          2   -1    0    0  502    0  0.00000000000E+00  0.00000000000E+00  0.23105036544E+04  0.23105036544E+04  0.00000000000E+00 0.  1.
          1   -1    0    0  501    0 -0.00000000000E+00 -0.00000000000E+00 -0.23650468011E+00  0.23650468011E+00  0.00000000000E+00 0.  1.
          2    1    1    2  501    0  0.81343901412E+00 -0.23191643895E+02  0.12943239167E+04  0.12945319291E+04  0.00000000000E+00 0.  1.
          1    1    1    2  502    0 -0.81343901412E+00  0.23191643895E+02  0.10159432330E+04  0.10162082300E+04  0.00000000000E+00 0.  1.
</event>
<event>
 4    1  0.3752836E+003  0.3425692E+02  0.7546771E-02  0.1385864E+00
          2   -1    0    0  502    0  0.00000000000E+00  0.00000000000E+00  0.31693499279E+02  0.31693499279E+02  0.00000000000E+00 0. -1.
          1   -1    0    0  501    0 -0.00000000000E+00 -0.00000000000E+00 -0.13932718476E+03  0.13932718476E+03  0.00000000000E+00 0.  1.
          2    1    1    2  501    0  0.13478689026E+02  0.31493835496E+02  0.19455061658E+02  0.39395890093E+02  0.00000000000E+00 0. -1.
          1    1    1    2  502    0 -0.13478689026E+02 -0.31493835496E+02 -0.12708874714E+03  0.13162479395E+03  0.00000000000E+00 0.  1.
</event>
<event>
 4    1  0.3752836E+003  0.2944754E+02  0.7546771E-02  0.1424459E+00
          2   -1    0    0  502    0  0.00000000000E+00  0.00000000000E+00  0.22718245524E+02  0.22718245524E+02  0.00000000000E+00 0. -1.
          1   -1    0    0  501    0 -0.00000000000E+00 -0.00000000000E+00 -0.12716202959E+04  0.12716202959E+04  0.00000000000E+00 0. -1.
          2    1    1    2  501    0  0.16006790716E+02 -0.24717202186E+02  0.12931237265E+02  0.32161690411E+02  0.00000000000E+00 0. -1.
          1    1    1    2  502    0 -0.16006790716E+02  0.24717202186E+02 -0.12618332876E+04  0.12621768510E+04  0.00000000000E+00 0. -1.
</event>
<event>
 4    1  0.3752836E+003  0.2132699E+02  0.7546771E-02  0.1514647E+00
          2   -1    0    0  502    0  0.00000000000E+00  0.00000000000E+00  0.34824348348E+00  0.34824348348E+00  0.00000000000E+00 0. -1.
          1   -1    0    0  501    0 -0.00000000000E+00 -0.00000000000E+00 -0.14434903823E+04  0.14434903823E+04  0.00000000000E+00 0. -1.
          2    1    1    2  501    0  0.17812371264E+02 -0.11728584306E+02 -0.94429269757E+03  0.94453350335E+03  0.00000000000E+00 0. -1.
          1    1    1    2  502    0 -0.17812371264E+02  0.11728584306E+02 -0.49884944121E+03  0.49930512240E+03  0.00000000000E+00 0. -1.
</event>
<event>
 4    1  0.3752836E+003  0.2610772E+02  0.7546771E-02  0.1456783E+00
          2   -1    0    0  502    0  0.00000000000E+00  0.00000000000E+00  0.16210841679E+03  0.16210841679E+03  0.00000000000E+00 0.  1.
          1   -1    0    0  501    0 -0.00000000000E+00 -0.00000000000E+00 -0.97072106357E+02  0.97072106357E+02  0.00000000000E+00 0.  1.
          2    1    1    2  501    0 -0.11348936627E+02  0.23512006415E+02  0.15927075105E+03  0.16139635977E+03  0.00000000000E+00 0.  1.
          1    1    1    2  502    0  0.11348936627E+02 -0.23512006415E+02 -0.94234440617E+02  0.97784163373E+02  0.00000000000E+00 0.  1.
</event>
<event>
 4    1  0.3752836E+003  0.2641090E+02  0.7546771E-02  0.1453617E+00
          2   -1    0    0  502    0  0.00000000000E+00  0.00000000000E+00  0.26461109583E+02  0.26461109583E+02  0.00000000000E+00 0. -1.
          1   -1    0    0  501    0 -0.00000000000E+00 -0.00000000000E+00 -0.67923869337E+02  0.67923869337E+02  0.00000000000E+00 0. -1.
          2    1    1    2  501    0 -0.75204068896E+01 -0.25317568136E+02  0.16184696181E+02  0.30975476858E+02  0.00000000000E+00 0. -1.
          1    1    1    2  502    0  0.75204068896E+01  0.25317568136E+02 -0.57647455934E+02  0.63409502062E+02  0.00000000000E+00 0. -1.
</event>
<event>
 4    1  0.3752836E+003  0.3260793E+02  0.7546771E-02  0.1398208E+00
          2   -1    0    0  502    0  0.00000000000E+00  0.00000000000E+00  0.24728184445E+03  0.24728184445E+03  0.00000000000E+00 0. -1.
          1   -1    0    0  501    0 -0.00000000000E+00 -0.00000000000E+00 -0.65499451013E+01  0.65499451013E+01  0.00000000000E+00 0. -1.
          2    1    1    2  501    0  0.88825754100E+01  0.31374779433E+02  0.19475290902E+03  0.19746385113E+03  0.00000000000E+00 0. -1.
          1    1    1    2  502    0 -0.88825754100E+01 -0.31374779433E+02  0.45978990323E+02  0.56367938418E+02  0.00000000000E+00 0. -1.
</event>
<event>
 4    1  0.3752836E+003  0.2163028E+02  0.7546771E-02  0.1510453E+00
          2   -1    0    0  502    0  0.00000000000E+00  0.00000000000E+00  0.35844825582E+03  0.35844825582E+03  0.00000000000E+00 0.  1.
          1   -1    0    0  501    0 -0.00000000000E+00 -0.00000000000E+00 -0.14029360016E+02  0.14029360016E+02  0.00000000000E+00 0.  1.
          2    1    1    2  501    0  0.95470553404E+01 -0.19409344916E+02  0.34957315349E+03  0.35024171450E+03  0.00000000000E+00 0.  1.
          1    1    1    2  502    0 -0.95470553404E+01  0.19409344916E+02 -0.51542576879E+01  0.22235901332E+02  0.00000000000E+00 0.  1.
</event>
<event>
 4    1  0.3752836E+003  0.3163433E+02  0.7546771E-02  0.1405906E+00
          2   -1    0    0  502    0  0.00000000000E+00  0.00000000000E+00  0.60773487678E+00  0.60773487678E+00  0.00000000000E+00 0. -1.
          1   -1    0    0  501    0 -0.00000000000E+00 -0.00000000000E+00 -0.27310943202E+04  0.27310943202E+04  0.00000000000E+00 0.  1.
          2    1    1    2  501    0  0.15522280283E+02 -0.27564284654E+02 -0.50457226485E+03  0.50556295497E+03  0.00000000000E+00 0. -1.
          1    1    1    2  502    0 -0.15522280283E+02  0.27564284654E+02 -0.22259143205E+04  0.22261391001E+04  0.00000000000E+00 0.  1.
</event>
<event>
 4    1  0.3752836E+003  0.2246587E+02  0.7546771E-02  0.1499316E+00
          2   -1    0    0  502    0  0.00000000000E+00  0.00000000000E+00  0.13702363566E+01  0.13702363566E+01  0.00000000000E+00 0. -1.
          1   -1    0    0  501    0 -0.00000000000E+00 -0.00000000000E+00 -0.38359932646E+03  0.38359932646E+03  0.00000000000E+00 0. -1.
          2    1    1    2  501    0 -0.16007176948E+02 -0.15763421835E+02 -0.15272605378E+03  0.15436956528E+03  0.00000000000E+00 0. -1.
          1    1    1    2  502    0  0.16007176948E+02  0.15763421835E+02 -0.22950303633E+03  0.23059999754E+03  0.00000000000E+00 0. -1.
</event>
<event>
 4    1  0.3752836E+003  0.2325214E+02  0.7546771E-02  0.1489356E+00
          2   -1    0    0  502    0  0.00000000000E+00  0.00000000000E+00  0.16271222797E+01  0.16271222797E+01  0.00000000000E+00 0.  1.
          1   -1    0    0  501    0 -0.00000000000E+00 -0.00000000000E+00 -0.92059116401E+03  0.92059116401E+03  0.00000000000E+00 0. -1.
          2    1    1    2  501    0  0.96875249229E+01  0.21137976993E+02 -0.90866668154E+02  0.93794528582E+02  0.00000000000E+00 0.  1.
          1    1    1    2  502    0 -0.96875249229E+01 -0.21137976993E+02 -0.82809737357E+03  0.82842375770E+03  0.00000000000E+00 0. -1.
</event>
<event>
 4    1  0.3752836E+003  0.2028030E+02  0.7546771E-02  0.1529793E+00
          2   -1    0    0  502    0  0.00000000000E+00  0.00000000000E+00  0.78279220107E+03  0.78279220107E+03  0.00000000000E+00 0. -1.
          1   -1    0    0  501    0 -0.00000000000E+00 -0.00000000000E+00 -0.19110826284E+02  0.19110826284E+02  0.00000000000E+00 0. -1.
          2    1    1    2  501    0 -0.10507898709E+02  0.17345741229E+02  0.77724209807E+03  0.77750663643E+03  0.00000000000E+00 0. -1.
          1    1    1    2  502    0  0.10507898709E+02 -0.17345741229E+02 -0.13560723288E+02  0.24396390924E+02  0.00000000000E+00 0. -1.
</event>
<event>
 4    1  0.3752836E+003  0.2114095E+02  0.7546771E-02  0.1517262E+00
          2   -1    0    0  502    0  0.00000000000E+00  0.00000000000E+00  0.27815248485E+03  0.27815248485E+03  0.00000000000E+00 0. -1.
          1   -1    0    0  501    0 -0.00000000000E+00 -0.00000000000E+00 -0.13555229336E+02  0.13555229336E+02  0.00000000000E+00 0.  1.
          2    1    1    2  501    0 -0.45669718722E+01  0.20641771493E+02  0.26923524528E+03  0.27006398735E+03  0.00000000000E+00 0. -1.
          1    1    1    2  502    0  0.45669718722E+01 -0.20641771493E+02 -0.46379897622E+01  0.21643726839E+02  0.00000000000E+00 0.  1.
</event>
<event>
 4    1  0.3752836E+003  0.3831116E+02  0.7546771E-02  0.1358677E+00
          2   -1    0    0  502    0  0.00000000000E+00  0.00000000000E+00  0.85338520538E+01  0.85338520538E+01  0.00000000000E+00 0. -1.
          1   -1    0    0  501    0 -0.00000000000E+00 -0.00000000000E+00 -0.44448453815E+03  0.44448453815E+03  0.00000000000E+00 0.  1.
          2    1    1    2  501    0 -0.35404469916E+02 -0.14637900514E+02 -0.40623495541E+02  0.55839170941E+02  0.00000000000E+00 0. -1.
          1    1    1    2  502    0  0.35404469916E+02  0.14637900514E+02 -0.39532719056E+03  0.39717921927E+03  0.00000000000E+00 0.  1.
</event>
<event>
 4    1  0.3752836E+003  0.2426100E+02  0.7546771E-02  0.1477243E+00
          2   -1    0    0  502    0  0.00000000000E+00  0.00000000000E+00  0.15277944703E+04  0.15277944703E+04  0.00000000000E+00 0. -1.
          1   -1    0    0  501    0 -0.00000000000E+00 -0.00000000000E+00 -0.38621227151E+00  0.38621227151E+00  0.00000000000E+00 0.  1.
          2    1    1    2  501    0  0.17325946510E+02 -0.16982563516E+02  0.80167424375E+03  0.80204126389E+03  0.00000000000E+00 0. -1.
          1    1    1    2  502    0 -0.17325946510E+02  0.16982563516E+02  0.72573401424E+03  0.72613941865E+03  0.00000000000E+00 0.  1.
</event>
<event>
 4    1  0.3752836E+003  0.5829387E+02  0.7546771E-02  0.1265742E+00
          2   -1    0    0  502    0  0.00000000000E+00  0.00000000000E+00  0.90951898246E+02  0.90951898246E+02  0.00000000000E+00 0. -1.
          1   -1    0    0  501    0 -0.00000000000E+00 -0.00000000000E+00 -0.16531574607E+03  0.16531574607E+03  0.00000000000E+00 0.  1.
          2    1    1    2  501    0 -0.47314943490E+02 -0.34051014070E+02  0.75546283695E+02  0.95422305657E+02  0.00000000000E+00 0. -1.
          1    1    1    2  502    0  0.47314943490E+02  0.34051014070E+02 -0.14991013152E+03  0.16084533866E+03  0.00000000000E+00 0.  1.
</event>
<event>
 4    1  0.3752836E+003  0.2572090E+02  0.7546771E-02  0.1460898E+00
          2   -1    0    0  502    0  0.00000000000E+00  0.00000000000E+00  0.27816143311E+01  0.27816143311E+01  0.00000000000E+00 0. -1.
          1   -1    0    0  501    0 -0.00000000000E+00 -0.00000000000E+00 -0.51295380946E+03  0.51295380946E+03  0.00000000000E+00 0. -1.
          2    1    1    2  501    0 -0.85535907312E+01 -0.24256978279E+02 -0.66235625952E+02  0.71054366895E+02  0.00000000000E+00 0. -1.
          1    1    1    2  502    0  0.85535907312E+01  0.24256978279E+02 -0.44393656918E+03  0.44468105690E+03  0.00000000000E+00 0. -1.
</event>
<event>
 4    1  0.3752836E+003  0.3154763E+02  0.7546771E-02  0.1406608E+00
          2   -1    0    0  502    0  0.00000000000E+00  0.00000000000E+00  0.28194855138E+03  0.28194855138E+03  0.00000000000E+00 0.  1.
          1   -1    0    0  501    0 -0.00000000000E+00 -0.00000000000E+00 -0.15284730982E+02  0.15284730982E+02  0.00000000000E+00 0. -1.
          2    1    1    2  501    0 -0.28475164771E+02 -0.13580067724E+02  0.26366255273E+03  0.26554320733E+03  0.00000000000E+00 0.  1.
          1    1    1    2  502    0  0.28475164771E+02  0.13580067724E+02  0.30012676737E+01  0.31690075036E+02  0.00000000000E+00 0. -1.
</event>
<event>
 4    1  0.3752836E+003  0.2898812E+02  0.7546771E-02  0.1428598E+00
          2   -1    0    0  502    0  0.00000000000E+00  0.00000000000E+00  0.10173643902E+03  0.10173643902E+03  0.00000000000E+00 0. -1.
          1   -1    0    0  501    0 -0.00000000000E+00 -0.00000000000E+00 -0.82032802332E+03  0.82032802332E+03  0.00000000000E+00 0.  1.
          2    1    1    2  501    0 -0.16727620012E+02 -0.23674837885E+02  0.99409555045E+02  0.10354984720E+03  0.00000000000E+00 0. -1.
          1    1    1    2  502    0  0.16727620012E+02  0.23674837885E+02 -0.81800113935E+03  0.81851461514E+03  0.00000000000E+00 0.  1.
</event>
<event>
 4    1  0.3752836E+003  0.3663234E+02  0.7546771E-02  0.1369437E+00
          2   -1    0    0  502    0  0.00000000000E+00  0.00000000000E+00  0.24567871224E+02  0.24567871224E+02  0.00000000000E+00 0. -1.
          1   -1    0    0  501    0 -0.00000000000E+00 -0.00000000000E+00 -0.28071807058E+03  0.28071807058E+03  0.00000000000E+00 0. -1.
          2    1    1    2  501    0 -0.22369088855E+02  0.29009513177E+02  0.89148943060E+01  0.37701503040E+02  0.00000000000E+00 0. -1.
          1    1    1    2  502    0  0.22369088855E+02 -0.29009513177E+02 -0.26506509366E+03  0.26758443876E+03  0.00000000000E+00 0. -1.
</event>
<event>
 4    1  0.3752836E+003  0.2366751E+02  0.7546771E-02  0.1484282E+00
          2   -1    0    0  502    0  0.00000000000E+00  0.00000000000E+00  0.17545988591E+02  0.17545988591E+02  0.00000000000E+00 0.  1.
          1   -1    0    0  501    0 -0.00000000000E+00 -0.00000000000E+00 -0.66513536971E+02  0.66513536971E+02  0.00000000000E+00 0.  1.
          2    1    1    2  501    0  0.18813481872E+02 -0.14359785057E+02 -0.54792652185E+02  0.59685720742E+02  0.00000000000E+00 0.  1.
          1    1    1    2  502    0 -0.18813481872E+02  0.14359785057E+02  0.58251038056E+01  0.24373804820E+02  0.00000000000E+00 0.  1.
</event>
<event>
 4    1  0.3752836E+003  0.3020600E+02  0.7546771E-02  0.1417815E+00
          2   -1    0    0  502    0  0.00000000000E+00  0.00000000000E+00  0.19142616140E+03  0.19142616140E+03  0.00000000000E+00 0.  1.
          1   -1    0    0  501    0 -0.00000000000E+00 -0.00000000000E+00 -0.29958667610E+03  0.29958667610E+03  0.00000000000E+00 0. -1.
          2    1    1    2  501    0  0.29953896540E+02 -0.38943845620E+01  0.18946536210E+03  0.19185808710E+03  0.00000000000E+00 0.  1.
          1    1    1    2  502    0 -0.29953896540E+02  0.38943845620E+01 -0.29762587680E+03  0.29915475040E+03  0.00000000000E+00 0. -1.
</event>
<event>
 4    1  0.3752836E+003  0.2045265E+02  0.7546771E-02  0.1527225E+00
          2   -1    0    0  502    0  0.00000000000E+00  0.00000000000E+00  0.11170756042E+04  0.11170756042E+04  0.00000000000E+00 0.  1.
          1   -1    0    0  501    0 -0.00000000000E+00 -0.00000000000E+00 -0.12372950099E+01  0.12372950099E+01  0.00000000000E+00 0. -1.
          2    1    1    2  501    0 -0.63084036096E+01 -0.19455455092E+02  0.10248560684E+04  0.10250601307E+04  0.00000000000E+00 0.  1.
          1    1    1    2  502    0  0.63084036096E+01  0.19455455092E+02  0.90982240820E+02  0.93252768504E+02  0.00000000000E+00 0. -1.
</event>
<event>
 4    1  0.3752836E+003  0.6336412E+02  0.7546771E-02  0.1248812E+00
          2   -1    0    0  502    0  0.00000000000E+00  0.00000000000E+00  0.12434543784E+04  0.12434543784E+04  0.00000000000E+00 0.  1.
          1   -1    0    0  501    0 -0.00000000000E+00 -0.00000000000E+00 -0.37282357890E+02  0.37282357890E+02  0.00000000000E+00 0. -1.
          2    1    1    2  501    0  0.23222055555E+02  0.58955468667E+02  0.12150962456E+04  0.12167472610E+04  0.00000000000E+00 0.  1.
          1    1    1    2  502    0 -0.23222055555E+02 -0.58955468667E+02 -0.89242250955E+01  0.63989475256E+02  0.00000000000E+00 0. -1.
</event>
<event>
 4    1  0.3752836E+003  0.2680856E+02  0.7546771E-02  0.1449541E+00
          2   -1    0    0  502    0  0.00000000000E+00  0.00000000000E+00  0.28924996577E+02  0.28924996577E+02  0.00000000000E+00 0.  1.
          1   -1    0    0  501    0 -0.00000000000E+00 -0.00000000000E+00 -0.11706977808E+03  0.11706977808E+03  0.00000000000E+00 0. -1.
          2    1    1    2  501    0  0.26555995821E+02 -0.36712708941E+01  0.20717021353E+02  0.33880586149E+02  0.00000000000E+00 0.  1.
          1    1    1    2  502    0 -0.26555995821E+02  0.36712708941E+01 -0.10886180285E+03  0.11211418851E+03  0.00000000000E+00 0. -1.
</event>
<event>
 4    1  0.3752836E+003  0.2547499E+02  0.7546771E-02  0.1463559E+00
          2   -1    0    0  502    0  0.00000000000E+00  0.00000000000E+00  0.83281778291E+03  0.83281778291E+03  0.00000000000E+00 0. -1.
          1   -1    0    0  501    0 -0.00000000000E+00 -0.00000000000E+00 -0.11825388662E+01  0.11825388662E+01  0.00000000000E+00 0. -1.
          2    1    1    2  501    0  0.25460466222E+02 -0.86024060132E+00  0.65933797877E+03  0.65982993688E+03  0.00000000000E+00 0. -1.
          1    1    1    2  502    0 -0.25460466222E+02  0.86024060132E+00  0.17229726527E+03  0.17417038489E+03  0.00000000000E+00 0. -1.
</event>
<event>
 4    1  0.3752836E+003  0.2248492E+02  0.7546771E-02  0.1499069E+00
          2   -1    0    0  502    0  0.00000000000E+00  0.00000000000E+00  0.66286739757E+03  0.66286739757E+03  0.00000000000E+00 0.  1.
          1   -1    0    0  501    0 -0.00000000000E+00 -0.00000000000E+00 -0.45217723993E+03  0.45217723993E+03  0.00000000000E+00 0. -1.
          2    1    1    2  501    0  0.15186344206E+02 -0.16581511436E+02  0.66239700246E+03  0.66277851537E+03  0.00000000000E+00 0.  1.
          1    1    1    2  502    0 -0.15186344206E+02  0.16581511436E+02 -0.45170684481E+03  0.45226612213E+03  0.00000000000E+00 0. -1.
</event>
<event>
 4    1  0.3752836E+003  0.6658417E+02  0.7546771E-02  0.1238966E+00
          2   -1    0    0  502    0  0.00000000000E+00  0.00000000000E+00  0.14676867869E+04  0.14676867869E+04  0.00000000000E+00 0.  1.
          1   -1    0    0  501    0 -0.00000000000E+00 -0.00000000000E+00 -0.16691485811E+02  0.16691485811E+02  0.00000000000E+00 0. -1.
          2    1    1    2  501    0  0.35516900040E+01 -0.66489376410E+02  0.13971796713E+04  0.13987653433E+04  0.00000000000E+00 0.  1.
          1    1    1    2  502    0 -0.35516900040E+01  0.66489376410E+02  0.53815629817E+02  0.85612929455E+02  0.00000000000E+00 0. -1.
</event>
<event>
 4    1  0.3752836E+003  0.3906807E+02  0.7546771E-02  0.1354035E+00
          2   -1    0    0  502    0  0.00000000000E+00  0.00000000000E+00  0.28363027056E+02  0.28363027056E+02  0.00000000000E+00 0.  1.
          1   -1    0    0  501    0 -0.00000000000E+00 -0.00000000000E+00 -0.25770157378E+03  0.25770157378E+03  0.00000000000E+00 0.  1.
          2    1    1    2  501    0  0.37501588820E+01 -0.38887661275E+02  0.12555443948E+02  0.41035997170E+02  0.00000000000E+00 0.  1.
          1    1    1    2  502    0 -0.37501588820E+01  0.38887661275E+02 -0.24189399067E+03  0.24502860366E+03  0.00000000000E+00 0.  1.
</event>
<event>
 4    1  0.3752836E+003  0.2504964E+02  0.7546771E-02  0.1468249E+00
          2   -1    0    0  502    0  0.00000000000E+00  0.00000000000E+00  0.19304624376E+01  0.19304624376E+01  0.00000000000E+00 0.  1.
          1   -1    0    0  501    0 -0.00000000000E+00 -0.00000000000E+00 -0.34186989591E+03  0.34186989591E+03  0.00000000000E+00 0. -1.
          2    1    1    2  501    0  0.13111730815E+02  0.21344012616E+02 -0.13183321656E+03  0.13419195709E+03  0.00000000000E+00 0.  1.
          1    1    1    2  502    0 -0.13111730815E+02 -0.21344012616E+02 -0.20810621692E+03  0.20960840126E+03  0.00000000000E+00 0. -1.
</event>
<event>
 4    1  0.3752836E+003  0.2992958E+02  0.7546771E-02  0.1420210E+00
          2   -1    0    0  502    0  0.00000000000E+00  0.00000000000E+00  0.35560155046E+01  0.35560155046E+01  0.00000000000E+00 0. -1.
          1   -1    0    0  501    0 -0.00000000000E+00 -0.00000000000E+00 -0.34060822904E+03  0.34060822904E+03  0.00000000000E+00 0. -1.
          2    1    1    2  501    0 -0.29722685295E+02  0.35130672922E+01 -0.80709467156E+02  0.86080182107E+02  0.00000000000E+00 0. -1.
          1    1    1    2  502    0  0.29722685295E+02 -0.35130672922E+01 -0.25634274638E+03  0.25808406244E+03  0.00000000000E+00 0. -1.
</event>
<event>
 4    1  0.3752836E+003  0.2145704E+02  0.7546771E-02  0.1512838E+00
          2   -1    0    0  502    0  0.00000000000E+00  0.00000000000E+00  0.49817281569E+02  0.49817281569E+02  0.00000000000E+00 0.  1.
          1   -1    0    0  501    0 -0.00000000000E+00 -0.00000000000E+00 -0.88437707348E+02  0.88437707348E+02  0.00000000000E+00 0. -1.
          2    1    1    2  501    0  0.81369927705E+01 -0.19854319635E+02  0.46105678818E+02  0.50854088123E+02  0.00000000000E+00 0.  1.
          1    1    1    2  502    0 -0.81369927705E+01  0.19854319635E+02 -0.84726104597E+02  0.87400900794E+02  0.00000000000E+00 0. -1.
</event>
<event>
 4    1  0.3752836E+003  0.2184424E+02  0.7546771E-02  0.1507544E+00
          2   -1    0    0  502    0  0.00000000000E+00  0.00000000000E+00  0.74401755579E+00  0.74401755579E+00  0.00000000000E+00 0.  1.
          1   -1    0    0  501    0 -0.00000000000E+00 -0.00000000000E+00 -0.83139597337E+03  0.83139597337E+03  0.00000000000E+00 0.  1.
          2    1    1    2  501    0  0.20885747984E+02  0.63997098281E+01 -0.21639642434E+03  0.21749616829E+03  0.00000000000E+00 0.  1.
          1    1    1    2  502    0 -0.20885747984E+02 -0.63997098281E+01 -0.61425553148E+03  0.61464382264E+03  0.00000000000E+00 0.  1.
</event>
<event>
 4    1  0.3752836E+003  0.4503875E+02  0.7546771E-02  0.1321246E+00
          2   -1    0    0  502    0  0.00000000000E+00  0.00000000000E+00  0.27996400955E+03  0.27996400955E+03  0.00000000000E+00 0.  1.
          1   -1    0    0  501    0 -0.00000000000E+00 -0.00000000000E+00 -0.19294282258E+03  0.19294282258E+03  0.00000000000E+00 0. -1.
          2    1    1    2  501    0 -0.29797625638E+01 -0.44940073426E+02  0.27548178773E+03  0.27913922074E+03  0.00000000000E+00 0.  1.
          1    1    1    2  502    0  0.29797625638E+01  0.44940073426E+02 -0.18846060076E+03  0.19376761139E+03  0.00000000000E+00 0. -1.
</event>
<event>
 4    1  0.3752836E+003  0.3718255E+02  0.7546771E-02  0.1365837E+00
          2   -1    0    0  502    0  0.00000000000E+00  0.00000000000E+00  0.30899876339E+04  0.30899876339E+04  0.00000000000E+00 0.  1.
          1   -1    0    0  501    0 -0.00000000000E+00 -0.00000000000E+00 -0.78780404583E+00  0.78780404583E+00  0.00000000000E+00 0. -1.
          2    1    1    2  501    0 -0.28868184443E+02  0.23434381276E+02  0.25604013348E+04  0.25606713060E+04  0.00000000000E+00 0.  1.
          1    1    1    2  502    0  0.28868184443E+02 -0.23434381276E+02  0.52879849509E+03  0.53010413195E+03  0.00000000000E+00 0. -1.
</event>
<event>
 4    1  0.3752836E+003  0.2166064E+02  0.7546771E-02  0.1510038E+00
          2   -1    0    0  502    0  0.00000000000E+00  0.00000000000E+00  0.24199150536E+02  0.24199150536E+02  0.00000000000E+00 0.  1.
          1   -1    0    0  501    0 -0.00000000000E+00 -0.00000000000E+00 -0.61580606273E+02  0.61580606273E+02  0.00000000000E+00 0. -1.
          2    1    1    2  501    0  0.73397957181E+01  0.20379169872E+02  0.16810949839E+02  0.27418811067E+02  0.00000000000E+00 0.  1.
          1    1    1    2  502    0 -0.73397957181E+01 -0.20379169872E+02 -0.54192405576E+02  0.58360945742E+02  0.00000000000E+00 0. -1.
</event>
<event>
 4    1  0.3752836E+003  0.6100865E+02  0.7546771E-02  0.1256444E+00
          2   -1    0    0  502    0  0.00000000000E+00  0.00000000000E+00  0.87214518578E+03  0.87214518578E+03  0.00000000000E+00 0.  1.
          1   -1    0    0  501    0 -0.00000000000E+00 -0.00000000000E+00 -0.10319472591E+03  0.10319472591E+03  0.00000000000E+00 0. -1.
          2    1    1    2  501    0 -0.60932837160E+02  0.30404649690E+01  0.86195472224E+03  0.86411110297E+03  0.00000000000E+00 0.  1.
          1    1    1    2  502    0  0.60932837160E+02 -0.30404649690E+01 -0.93004262372E+02  0.11122880873E+03  0.00000000000E+00 0. -1.
</event>
<event>
 4    1  0.3752836E+003  0.3002203E+02  0.7546771E-02  0.1419405E+00
          2   -1    0    0  502    0  0.00000000000E+00  0.00000000000E+00  0.86101119257E+02  0.86101119257E+02  0.00000000000E+00 0. -1.
          1   -1    0    0  501    0 -0.00000000000E+00 -0.00000000000E+00 -0.62265265925E+02  0.62265265925E+02  0.00000000000E+00 0.  1.
          2    1    1    2  501    0  0.20562183239E+02 -0.21875079363E+02  0.79578432061E+02  0.85053214671E+02  0.00000000000E+00 0. -1.
          1    1    1    2  502    0 -0.20562183239E+02  0.21875079363E+02 -0.55742578729E+02  0.63313170510E+02  0.00000000000E+00 0.  1.
</event>
<event>
 4    1  0.3752836E+003  0.2925319E+02  0.7546771E-02  0.1426199E+00
          2   -1    0    0  502    0  0.00000000000E+00  0.00000000000E+00  0.24463824598E+04  0.24463824598E+04  0.00000000000E+00 0.  1.
          1   -1    0    0  501    0 -0.00000000000E+00 -0.00000000000E+00 -0.83023683890E+00  0.83023683890E+00  0.00000000000E+00 0. -1.
          2    1    1    2  501    0 -0.29138935565E+02 -0.25829068268E+01  0.21535797261E+04  0.21537783975E+04  0.00000000000E+00 0.  1.
          1    1    1    2  502    0  0.29138935565E+02  0.25829068268E+01  0.29197249685E+03  0.29343429911E+03  0.00000000000E+00 0. -1.
</event>
<event>
 4    1  0.3752836E+003  0.2025845E+02  0.7546771E-02  0.1530121E+00
          2   -1    0    0  502    0  0.00000000000E+00  0.00000000000E+00  0.36735028171E+03  0.36735028171E+03  0.00000000000E+00 0. -1.
          1   -1    0    0  501    0 -0.00000000000E+00 -0.00000000000E+00 -0.13055088459E+04  0.13055088459E+04  0.00000000000E+00 0.  1.
          2    1    1    2  501    0 -0.37860958230E+01 -0.19901513057E+02  0.36699231346E+03  0.36755103440E+03  0.00000000000E+00 0. -1.
          1    1    1    2  502    0  0.37860958230E+01  0.19901513057E+02 -0.13051508776E+04  0.13053080932E+04  0.00000000000E+00 0.  1.
</event>
<event>
 4    1  0.3752836E+003  0.2079824E+02  0.7546771E-02  0.1522165E+00
          2   -1    0    0  502    0  0.00000000000E+00  0.00000000000E+00  0.12208656549E+04  0.12208656549E+04  0.00000000000E+00 0.  1.
          1   -1    0    0  501    0 -0.00000000000E+00 -0.00000000000E+00 -0.57835470731E+02  0.57835470731E+02  0.00000000000E+00 0.  1.
          2    1    1    2  501    0  0.37014460758E+00 -0.20794942303E+02  0.12189042530E+04  0.12190816809E+04  0.00000000000E+00 0.  1.
          1    1    1    2  502    0 -0.37014460758E+00  0.20794942303E+02 -0.55874068806E+02  0.59619444793E+02  0.00000000000E+00 0.  1.
</event>
<event>
 4    1  0.3752836E+003  0.2761051E+02  0.7546771E-02  0.1441570E+00
          2   -1    0    0  502    0  0.00000000000E+00  0.00000000000E+00  0.63752699587E+02  0.63752699587E+02  0.00000000000E+00 0. -1.
          1   -1    0    0  501    0 -0.00000000000E+00 -0.00000000000E+00 -0.67979051446E+02  0.67979051446E+02  0.00000000000E+00 0. -1.
          2    1    1    2  501    0 -0.98547960362E+01 -0.25791922550E+02  0.57679698088E+02  0.63947539791E+02  0.00000000000E+00 0. -1.
          1    1    1    2  502    0  0.98547960362E+01  0.25791922550E+02 -0.61906049947E+02  0.67784211242E+02  0.00000000000E+00 0. -1.
</event>
<event>
 4    1  0.3752836E+003  0.4368038E+02  0.7546771E-02  0.1328171E+00
          2   -1    0    0  502    0  0.00000000000E+00  0.00000000000E+00  0.24628277777E+01  0.24628277777E+01  0.00000000000E+00 0. -1.
          1   -1    0    0  501    0 -0.00000000000E+00 -0.00000000000E+00 -0.11476737970E+04  0.11476737970E+04  0.00000000000E+00 0.  1.
          2    1    1    2  501    0  0.36468065887E+02 -0.24042783647E+02 -0.24477900969E+03  0.24864581006E+03  0.00000000000E+00 0. -1.
          1    1    1    2  502    0 -0.36468065887E+02  0.24042783647E+02 -0.90043195953E+03  0.90149081472E+03  0.00000000000E+00 0.  1.
</event>
<event>
 4    1  0.3752836E+003  0.3542512E+02  0.7546771E-02  0.1377599E+00
          2   -1    0    0  502    0  0.00000000000E+00  0.00000000000E+00  0.15458690468E+04  0.15458690468E+04  0.00000000000E+00 0.  1.
          1   -1    0    0  501    0 -0.00000000000E+00 -0.00000000000E+00 -0.41358277810E+03  0.41358277810E+03  0.00000000000E+00 0. -1.
          2    1    1    2  501    0 -0.50527383353E+01  0.35062930493E+02  0.15449070460E+04  0.15453131463E+04  0.00000000000E+00 0.  1.
          1    1    1    2  502    0  0.50527383353E+01 -0.35062930493E+02 -0.41262077731E+03  0.41413867862E+03  0.00000000000E+00 0. -1.
</event>
<event>
 4    1  0.3752836E+003  0.2279088E+02  0.7546771E-02  0.1495141E+00
          2   -1    0    0  502    0  0.00000000000E+00  0.00000000000E+00  0.29279460807E+03  0.29279460807E+03  0.00000000000E+00 0. -1.
          1   -1    0    0  501    0 -0.00000000000E+00 -0.00000000000E+00 -0.13878142577E+04  0.13878142577E+04  0.00000000000E+00 0. -1.
          2    1    1    2  501    0  0.22137154109E+02 -0.54194856632E+01  0.29225736174E+03  0.29314465697E+03  0.00000000000E+00 0. -1.
          1    1    1    2  502    0 -0.22137154109E+02  0.54194856632E+01 -0.13872770114E+04  0.13874642088E+04  0.00000000000E+00 0. -1.
</event>
<event>
 4    1  0.3752836E+003  0.2603201E+02  0.7546771E-02  0.1457582E+00
          2   -1    0    0  502    0  0.00000000000E+00  0.00000000000E+00  0.99397130343E+03  0.99397130343E+03  0.00000000000E+00 0. -1.
          1   -1    0    0  501    0 -0.00000000000E+00 -0.00000000000E+00 -0.14705537391E+01  0.14705537391E+01  0.00000000000E+00 0. -1.
          2    1    1    2  501    0 -0.20144996876E+02 -0.16487710074E+02  0.86077163061E+03  0.86116517901E+03  0.00000000000E+00 0. -1.
          1    1    1    2  502    0  0.20144996876E+02  0.16487710074E+02  0.13172911908E+03  0.13427667815E+03  0.00000000000E+00 0. -1.
</event>
<event>
 4    1  0.3752836E+003  0.2018644E+02  0.7546771E-02  0.1531205E+00
          2   -1    0    0  502    0  0.00000000000E+00  0.00000000000E+00  0.28396893463E+03  0.28396893463E+03  0.00000000000E+00 0. -1.
          1   -1    0    0  501    0 -0.00000000000E+00 -0.00000000000E+00 -0.93992906167E+01  0.93992906167E+01  0.00000000000E+00 0.  1.
          2    1    1    2  501    0 -0.27757274576E+01 -0.19994691525E+02  0.27230832881E+03  0.27305552236E+03  0.00000000000E+00 0. -1.
          1    1    1    2  502    0  0.27757274576E+01  0.19994691525E+02  0.22613152029E+01  0.20312702886E+02  0.00000000000E+00 0.  1.
</event>
<event>
 4    1  0.3752836E+003  0.3042807E+02  0.7546771E-02  0.1415912E+00
          2   -1    0    0  502    0  0.00000000000E+00  0.00000000000E+00  0.74342498301E+00  0.74342498301E+00  0.00000000000E+00 0.  1.
          1   -1    0    0  501    0 -0.00000000000E+00 -0.00000000000E+00 -0.12534240340E+04  0.12534240340E+04  0.00000000000E+00 0.  1.
          2    1    1    2  501    0  0.16095942647E+01 -0.30385472111E+02 -0.57619320609E+03  0.57699608184E+03  0.00000000000E+00 0.  1.
          1    1    1    2  502    0 -0.16095942647E+01  0.30385472111E+02 -0.67648740291E+03  0.67717137713E+03  0.00000000000E+00 0.  1.
</event>
<event>
 4    1  0.3752836E+003  0.2617089E+02  0.7546771E-02  0.1456119E+00
          2   -1    0    0  502    0  0.00000000000E+00  0.00000000000E+00  0.14225470491E+03  0.14225470491E+03  0.00000000000E+00 0. -1.
          1   -1    0    0  501    0 -0.00000000000E+00 -0.00000000000E+00 -0.34722284626E+02  0.34722284626E+02  0.00000000000E+00 0.  1.
          2    1    1    2  501    0  0.22640744177E+02 -0.13126781608E+02  0.13589080330E+03  0.13838795509E+03  0.00000000000E+00 0. -1.
          1    1    1    2  502    0 -0.22640744177E+02  0.13126781608E+02 -0.28358383016E+02  0.38589034447E+02  0.00000000000E+00 0.  1.
</event>
<event>
 4    1  0.3752836E+003  0.4322568E+02  0.7546771E-02  0.1330554E+00
          2   -1    0    0  502    0  0.00000000000E+00  0.00000000000E+00  0.80295601135E+01  0.80295601135E+01  0.00000000000E+00 0. -1.
          1   -1    0    0  501    0 -0.00000000000E+00 -0.00000000000E+00 -0.24943191614E+03  0.24943191614E+03  0.00000000000E+00 0. -1.
          2    1    1    2  501    0 -0.13118428576E+02  0.41186964620E+02 -0.87357733190E+02  0.97467085577E+02  0.00000000000E+00 0. -1.
          1    1    1    2  502    0  0.13118428576E+02 -0.41186964620E+02 -0.15404462284E+03  0.15999439068E+03  0.00000000000E+00 0. -1.
</event>
<event>
 4    1  0.3752836E+003  0.2444174E+02  0.7546771E-02  0.1475146E+00
          2   -1    0    0  502    0  0.00000000000E+00  0.00000000000E+00  0.44215430719E+02  0.44215430719E+02  0.00000000000E+00 0.  1.
          1   -1    0    0  501    0 -0.00000000000E+00 -0.00000000000E+00 -0.33255655802E+03  0.33255655802E+03  0.00000000000E+00 0. -1.
          2    1    1    2  501    0  0.13617285198E+02  0.20296998109E+02  0.40348883498E+02  0.47174473902E+02  0.00000000000E+00 0.  1.
          1    1    1    2  502    0 -0.13617285198E+02 -0.20296998109E+02 -0.32869001080E+03  0.32959751484E+03  0.00000000000E+00 0. -1.
</event>
<event>
 4    1  0.3752836E+003  0.2402555E+02  0.7546771E-02  0.1480007E+00
          2   -1    0    0  502    0  0.00000000000E+00  0.00000000000E+00  0.10495609000E+03  0.10495609000E+03  0.00000000000E+00 0. -1.
          1   -1    0    0  501    0 -0.00000000000E+00 -0.00000000000E+00 -0.60027029314E+01  0.60027029314E+01  0.00000000000E+00 0. -1.
          2    1    1    2  501    0 -0.16559952838E+02 -0.17406756340E+02  0.65536590461E+02  0.69801661108E+02  0.00000000000E+00 0. -1.
          1    1    1    2  502    0  0.16559952838E+02  0.17406756340E+02  0.33416796603E+02  0.41157131818E+02  0.00000000000E+00 0. -1.
</event>
<event>
 4    1  0.3752836E+003  0.2191323E+02  0.7546771E-02  0.1506615E+00
          2   -1    0    0  502    0  0.00000000000E+00  0.00000000000E+00  0.86074779112E+00  0.86074779112E+00  0.00000000000E+00 0.  1.
          1   -1    0    0  501    0 -0.00000000000E+00 -0.00000000000E+00 -0.57367369228E+03  0.57367369228E+03  0.00000000000E+00 0.  1.
          2    1    1    2  501    0 -0.19216738739E+01  0.21828806006E+02 -0.23873425824E+03  0.23973784778E+03  0.00000000000E+00 0.  1.
          1    1    1    2  502    0  0.19216738739E+01 -0.21828806006E+02 -0.33407868625E+03  0.33479659229E+03  0.00000000000E+00 0.  1.
</event>
<event>
 4    1  0.3752836E+003  0.2853558E+02  0.7546771E-02  0.1432764E+00
          2   -1    0    0  502    0  0.00000000000E+00  0.00000000000E+00  0.55971366709E+02  0.55971366709E+02  0.00000000000E+00 0. -1.
          1   -1    0    0  501    0 -0.00000000000E+00 -0.00000000000E+00 -0.29200861104E+03  0.29200861104E+03  0.00000000000E+00 0. -1.
          2    1    1    2  501    0 -0.22345463829E+02  0.17747101249E+02  0.51581823683E+02  0.58948824339E+02  0.00000000000E+00 0. -1.
          1    1    1    2  502    0  0.22345463829E+02 -0.17747101249E+02 -0.28761906802E+03  0.28903115341E+03  0.00000000000E+00 0. -1.
</event>
<event>
 4    1  0.3752836E+003  0.3311715E+02  0.7546771E-02  0.1394306E+00
          2   -1    0    0  502    0  0.00000000000E+00  0.00000000000E+00  0.51438866868E+03  0.51438866868E+03  0.00000000000E+00 0. -1.
          1   -1    0    0  501    0 -0.00000000000E+00 -0.00000000000E+00 -0.32983442708E+03  0.32983442708E+03  0.00000000000E+00 0.  1.
          2    1    1    2  501    0 -0.30043758016E+02  0.13932628990E+02  0.51302213829E+03  0.51408993369E+03  0.00000000000E+00 0. -1.
          1    1    1    2  502    0  0.30043758016E+02 -0.13932628990E+02 -0.32846789669E+03  0.33013316207E+03  0.00000000000E+00 0.  1.
</event>
<event>
 4    1  0.3752836E+003  0.2265387E+02  0.7546771E-02  0.1496891E+00
          2   -1    0    0  502    0  0.00000000000E+00  0.00000000000E+00  0.63827959284E+02  0.63827959284E+02  0.00000000000E+00 0. -1.
          1   -1    0    0  501    0 -0.00000000000E+00 -0.00000000000E+00 -0.92329574423E+01  0.92329574423E+01  0.00000000000E+00 0. -1.
          2    1    1    2  501    0  0.22549182283E+02 -0.21752897851E+01  0.14168305939E+02  0.26719625755E+02  0.00000000000E+00 0. -1.
          1    1    1    2  502    0 -0.22549182283E+02  0.21752897851E+01  0.40426695902E+02  0.46341290971E+02  0.00000000000E+00 0. -1.
</event>
<event>
 4    1  0.3752836E+003  0.2973046E+02  0.7546771E-02  0.1421953E+00
          2   -1    0    0  502    0  0.00000000000E+00  0.00000000000E+00  0.19901154740E+03  0.19901154740E+03  0.00000000000E+00 0.  1.
          1   -1    0    0  501    0 -0.00000000000E+00 -0.00000000000E+00 -0.53017507464E+01  0.53017507464E+01  0.00000000000E+00 0.  1.
          2    1    1    2  501    0 -0.17967271551E+02 -0.23687059627E+02  0.55703709639E+02  0.63141134836E+02  0.00000000000E+00 0.  1.
          1    1    1    2  502    0  0.17967271551E+02  0.23687059627E+02  0.13800608702E+03  0.14117216331E+03  0.00000000000E+00 0.  1.
</event>
<event>
 4    1  0.3752836E+003  0.3156714E+02  0.7546771E-02  0.1406450E+00
          2   -1    0    0  502    0  0.00000000000E+00  0.00000000000E+00  0.77173467377E+01  0.77173467377E+01  0.00000000000E+00 0. -1.
          1   -1    0    0  501    0 -0.00000000000E+00 -0.00000000000E+00 -0.49139558577E+03  0.49139558577E+03  0.00000000000E+00 0. -1.
          2    1    1    2  501    0  0.16453743489E+01 -0.31524234581E+02 -0.27564309290E+02  0.41907943988E+02  0.00000000000E+00 0. -1.
          1    1    1    2  502    0 -0.16453743489E+01  0.31524234581E+02 -0.45611392974E+03  0.45720498852E+03  0.00000000000E+00 0. -1.
</event>
<event>
 4    1  0.3752836E+003  0.1936453E+03  0.7546771E-02  0.1059735E+00
          2   -1    0    0  502    0  0.00000000000E+00  0.00000000000E+00  0.16599545260E+04  0.16599545260E+04  0.00000000000E+00 0. -1.
          1   -1    0    0  501    0 -0.00000000000E+00 -0.00000000000E+00 -0.21303437838E+03  0.21303437838E+03  0.00000000000E+00 0. -1.
          2    1    1    2  501    0  0.95471226159E+02  0.16847477986E+03  0.16089106996E+04  0.16205221830E+04  0.00000000000E+00 0. -1.
          1    1    1    2  502    0 -0.95471226159E+02 -0.16847477986E+03 -0.16199055195E+03  0.25246672136E+03  0.00000000000E+00 0. -1.
</event>
<event>
 4    1  0.3752836E+003  0.2310905E+02  0.7546771E-02  0.1491133E+00
          2   -1    0    0  502    0  0.00000000000E+00  0.00000000000E+00  0.20240071017E+03  0.20240071017E+03  0.00000000000E+00 0.  1.
          1   -1    0    0  501    0 -0.00000000000E+00 -0.00000000000E+00 -0.26902601204E+01  0.26902601204E+01  0.00000000000E+00 0.  1.
          2    1    1    2  501    0  0.21997634126E+02 -0.70803816771E+01  0.85626924924E+02  0.88690461628E+02  0.00000000000E+00 0.  1.
          1    1    1    2  502    0 -0.21997634126E+02  0.70803816771E+01  0.11408352513E+03  0.11640050867E+03  0.00000000000E+00 0.  1.
</event>
<event>
 4    1  0.3752836E+003  0.2365404E+02  0.7546771E-02  0.1484445E+00
          2   -1    0    0  502    0  0.00000000000E+00  0.00000000000E+00  0.13040449631E+01  0.13040449631E+01  0.00000000000E+00 0. -1.
          1   -1    0    0  501    0 -0.00000000000E+00 -0.00000000000E+00 -0.10147201127E+04  0.10147201127E+04  0.00000000000E+00 0. -1.
          2    1    1    2  501    0 -0.19395054963E+02 -0.13540506415E+02 -0.12076452156E+03  0.12305926677E+03  0.00000000000E+00 0. -1.
          1    1    1    2  502    0  0.19395054963E+02  0.13540506415E+02 -0.89265154616E+03  0.89296489087E+03  0.00000000000E+00 0. -1.
</event>
<event>
 4    1  0.3752836E+003  0.2157429E+02  0.7546771E-02  0.1511221E+00
          2   -1    0    0  502    0  0.00000000000E+00  0.00000000000E+00  0.55628944024E+01  0.55628944024E+01  0.00000000000E+00 0.  1.
          1   -1    0    0  501    0 -0.00000000000E+00 -0.00000000000E+00 -0.12787061155E+03  0.12787061155E+03  0.00000000000E+00 0. -1.
          2    1    1    2  501    0  0.16454038457E+02  0.13954023891E+02 -0.21929016300E+02  0.30762508353E+02  0.00000000000E+00 0.  1.
          1    1    1    2  502    0 -0.16454038457E+02 -0.13954023891E+02 -0.10037870085E+03  0.10267099760E+03  0.00000000000E+00 0. -1.
</event>
<event>
 4    1  0.3752836E+003  0.2738908E+02  0.7546771E-02  0.1443738E+00
          2   -1    0    0  502    0  0.00000000000E+00  0.00000000000E+00  0.17514216106E+04  0.17514216106E+04  0.00000000000E+00 0. -1.
          1   -1    0    0  501    0 -0.00000000000E+00 -0.00000000000E+00 -0.65298219560E+00  0.65298219560E+00  0.00000000000E+00 0. -1.
          2    1    1    2  501    0 -0.25129232615E+02 -0.10894183420E+02  0.13892397753E+04  0.13895097390E+04  0.00000000000E+00 0. -1.
          1    1    1    2  502    0  0.25129232615E+02  0.10894183420E+02  0.36152885314E+03  0.36256485380E+03  0.00000000000E+00 0. -1.
</event>
<event>
 4    1  0.3752836E+003  0.2517064E+02  0.7546771E-02  0.1466903E+00
          2   -1    0    0  502    0  0.00000000000E+00  0.00000000000E+00  0.32397063317E+03  0.32397063317E+03  0.00000000000E+00 0.  1.
          1   -1    0    0  501    0 -0.00000000000E+00 -0.00000000000E+00 -0.10109422549E+02  0.10109422549E+02  0.00000000000E+00 0.  1.
          2    1    1    2  501    0  0.19796049896E+02 -0.15545987267E+02  0.30694662905E+03  0.30797693809E+03  0.00000000000E+00 0.  1.
          1    1    1    2  502    0 -0.19796049896E+02  0.15545987267E+02  0.69145815734E+01  0.26103117628E+02  0.00000000000E+00 0.  1.
</event>
<event>
 4    1  0.3752836E+003  0.2420376E+02  0.7546771E-02  0.1477911E+00
          2   -1    0    0  502    0  0.00000000000E+00  0.00000000000E+00  0.81902870354E+02  0.81902870354E+02  0.00000000000E+00 0.  1.
          1   -1    0    0  501    0 -0.00000000000E+00 -0.00000000000E+00 -0.25248435194E+03  0.25248435194E+03  0.00000000000E+00 0.  1.
          2    1    1    2  501    0 -0.22751400999E+02  0.82580793773E+01  0.79517637136E+02  0.83119653140E+02  0.00000000000E+00 0.  1.
          1    1    1    2  502    0  0.22751400999E+02 -0.82580793773E+01 -0.25009911872E+03  0.25126756915E+03  0.00000000000E+00 0.  1.
</event>
<event>
 4    1  0.3752836E+003  0.2673227E+02  0.7546771E-02  0.1450316E+00
          2   -1    0    0  502    0  0.00000000000E+00  0.00000000000E+00  0.23148848581E+01  0.23148848581E+01  0.00000000000E+00 0. -1.
          1   -1    0    0  501    0 -0.00000000000E+00 -0.00000000000E+00 -0.35024196136E+03  0.35024196136E+03  0.00000000000E+00 0. -1.
          2    1    1    2  501    0 -0.80080130938E+01  0.25504623353E+02 -0.11325665318E+03  0.11636873968E+03  0.00000000000E+00 0. -1.
          1    1    1    2  502    0  0.80080130938E+01 -0.25504623353E+02 -0.23467042333E+03  0.23618810654E+03  0.00000000000E+00 0. -1.
</event>
<event>
 4    1  0.3752836E+003  0.3723877E+02  0.7546771E-02  0.1365473E+00
          2   -1    0    0  502    0  0.00000000000E+00  0.00000000000E+00  0.37539658612E+01  0.37539658612E+01  0.00000000000E+00 0.  1.
          1   -1    0    0  501    0 -0.00000000000E+00 -0.00000000000E+00 -0.41346557641E+03  0.41346557641E+03  0.00000000000E+00 0.  1.
          2    1    1    2  501    0  0.18608262644E+02 -0.32256141804E+02 -0.13675533986E+03  0.14173478438E+03  0.00000000000E+00 0.  1.
          1    1    1    2  502    0 -0.18608262644E+02  0.32256141804E+02 -0.27295627068E+03  0.27548475788E+03  0.00000000000E+00 0.  1.
</event>
<event>
 4    1  0.3752836E+003  0.2564865E+02  0.7546771E-02  0.1461676E+00
          2   -1    0    0  502    0  0.00000000000E+00  0.00000000000E+00  0.21551103524E+04  0.21551103524E+04  0.00000000000E+00 0.  1.
          1   -1    0    0  501    0 -0.00000000000E+00 -0.00000000000E+00 -0.31396293150E+00  0.31396293150E+00  0.00000000000E+00 0. -1.
          2    1    1    2  501    0  0.22955804164E+01  0.25545717037E+02  0.12569035254E+04  0.12571651942E+04  0.00000000000E+00 0.  1.
          1    1    1    2  502    0 -0.22955804164E+01 -0.25545717037E+02  0.89789286404E+03  0.89825912110E+03  0.00000000000E+00 0. -1.
</event>
<event>
 4    1  0.3752836E+003  0.3207284E+02  0.7546771E-02  0.1402399E+00
          2   -1    0    0  502    0  0.00000000000E+00  0.00000000000E+00  0.24609700320E+02  0.24609700320E+02  0.00000000000E+00 0. -1.
          1   -1    0    0  501    0 -0.00000000000E+00 -0.00000000000E+00 -0.73053007227E+03  0.73053007227E+03  0.00000000000E+00 0. -1.
          2    1    1    2  501    0  0.26769129237E+02  0.17665802578E+02  0.13648762613E+02  0.34856212957E+02  0.00000000000E+00 0. -1.
          1    1    1    2  502    0 -0.26769129237E+02 -0.17665802578E+02 -0.71956913456E+03  0.72028355963E+03  0.00000000000E+00 0. -1.
</event>
<event>
 4    1  0.3752836E+003  0.2054117E+02  0.7546771E-02  0.1525918E+00
          2   -1    0    0  502    0  0.00000000000E+00  0.00000000000E+00  0.25538618883E+01  0.25538618883E+01  0.00000000000E+00 0. -1.
          1   -1    0    0  501    0 -0.00000000000E+00 -0.00000000000E+00 -0.19444518338E+03  0.19444518338E+03  0.00000000000E+00 0. -1.
          2    1    1    2  501    0 -0.20474846317E+02  0.16493430865E+01 -0.57756378980E+02  0.61300399487E+02  0.00000000000E+00 0. -1.
          1    1    1    2  502    0  0.20474846317E+02 -0.16493430865E+01 -0.13413494251E+03  0.13569864578E+03  0.00000000000E+00 0. -1.
</event>
<event>
 4    1  0.3752836E+003  0.4925208E+02  0.7546771E-02  0.1301448E+00
          2   -1    0    0  502    0  0.00000000000E+00  0.00000000000E+00  0.24265135798E+03  0.24265135798E+03  0.00000000000E+00 0.  1.
          1   -1    0    0  501    0 -0.00000000000E+00 -0.00000000000E+00 -0.18715750910E+02  0.18715750910E+02  0.00000000000E+00 0.  1.
          2    1    1    2  501    0 -0.15397695559E+02  0.46783314897E+02  0.20116399216E+03  0.20710557531E+03  0.00000000000E+00 0.  1.
          1    1    1    2  502    0  0.15397695559E+02 -0.46783314897E+02  0.22771614910E+02  0.54261533584E+02  0.00000000000E+00 0.  1.
</event>
<event>
 4    1  0.3752836E+003  0.2579902E+02  0.7546771E-02  0.1460060E+00
          2   -1    0    0  502    0  0.00000000000E+00  0.00000000000E+00  0.57547032175E+02  0.57547032175E+02  0.00000000000E+00 0. -1.
          1   -1    0    0  501    0 -0.00000000000E+00 -0.00000000000E+00 -0.41907935883E+03  0.41907935883E+03  0.00000000000E+00 0.  1.
          2    1    1    2  501    0  0.25097244562E+02 -0.59764505294E+01  0.54235466076E+02  0.60058932941E+02  0.00000000000E+00 0. -1.
          1    1    1    2  502    0 -0.25097244562E+02  0.59764505294E+01 -0.41576779273E+03  0.41656745806E+03  0.00000000000E+00 0.  1.
</event>
<event>
 4    1  0.3752836E+003  0.2133372E+02  0.7546771E-02  0.1514553E+00
          2   -1    0    0  502    0  0.00000000000E+00  0.00000000000E+00  0.25711874063E+02  0.25711874063E+02  0.00000000000E+00 0. -1.
          1   -1    0    0  501    0 -0.00000000000E+00 -0.00000000000E+00 -0.92589143719E+02  0.92589143719E+02  0.00000000000E+00 0. -1.
          2    1    1    2  501    0  0.75652723837E+01 -0.19947288202E+02  0.19758076516E+02  0.29077641590E+02  0.00000000000E+00 0. -1.
          1    1    1    2  502    0 -0.75652723837E+01  0.19947288202E+02 -0.86635346171E+02  0.89223376192E+02  0.00000000000E+00 0. -1.
</event>
<event>
 4    1  0.3752836E+003  0.3186871E+02  0.7546771E-02  0.1404024E+00
          2   -1    0    0  502    0  0.00000000000E+00  0.00000000000E+00  0.74668853438E+01  0.74668853438E+01  0.00000000000E+00 0. -1.
          1   -1    0    0  501    0 -0.00000000000E+00 -0.00000000000E+00 -0.27834133343E+03  0.27834133343E+03  0.00000000000E+00 0.  1.
          2    1    1    2  501    0  0.19835885535E+02 -0.24942980019E+02 -0.33249852046E+02  0.46056131712E+02  0.00000000000E+00 0. -1.
          1    1    1    2  502    0 -0.19835885535E+02  0.24942980019E+02 -0.23762459604E+03  0.23975208706E+03  0.00000000000E+00 0.  1.
</event>
<event>
 4    1  0.3752836E+003  0.3416518E+02  0.7546771E-02  0.1386529E+00
          2   -1    0    0  502    0  0.00000000000E+00  0.00000000000E+00  0.22668659753E+04  0.22668659753E+04  0.00000000000E+00 0. -1.
          1   -1    0    0  501    0 -0.00000000000E+00 -0.00000000000E+00 -0.96696877600E+00  0.96696877600E+00  0.00000000000E+00 0. -1.
          2    1    1    2  501    0 -0.81010885806E+01 -0.33190843560E+02  0.19082434730E+04  0.19085492951E+04  0.00000000000E+00 0. -1.
          1    1    1    2  502    0  0.81010885806E+01  0.33190843560E+02  0.35765553352E+03  0.35928364893E+03  0.00000000000E+00 0. -1.
</event>
<event>
 4    1  0.3752836E+003  0.2787304E+02  0.7546771E-02  0.1439030E+00
          2   -1    0    0  502    0  0.00000000000E+00  0.00000000000E+00  0.93684842064E+01  0.93684842064E+01  0.00000000000E+00 0.  1.
          1   -1    0    0  501    0 -0.00000000000E+00 -0.00000000000E+00 -0.17065708650E+03  0.17065708650E+03  0.00000000000E+00 0. -1.
          2    1    1    2  501    0 -0.94749910770E+01 -0.26213177318E+02 -0.16106409232E+02  0.32191963894E+02  0.00000000000E+00 0.  1.
          1    1    1    2  502    0  0.94749910770E+01  0.26213177318E+02 -0.14518219306E+03  0.14783360681E+03  0.00000000000E+00 0. -1.
</event>
<event>
 4    1  0.3752836E+003  0.2300472E+02  0.7546771E-02  0.1492439E+00
          2   -1    0    0  502    0  0.00000000000E+00  0.00000000000E+00  0.13248136943E+04  0.13248136943E+04  0.00000000000E+00 0. -1.
          1   -1    0    0  501    0 -0.00000000000E+00 -0.00000000000E+00 -0.40802356730E+00  0.40802356730E+00  0.00000000000E+00 0. -1.
          2    1    1    2  501    0 -0.42268267999E+01 -0.22613069380E+02  0.75816748989E+03  0.75851642019E+03  0.00000000000E+00 0. -1.
          1    1    1    2  502    0  0.42268267999E+01  0.22613069380E+02  0.56623818082E+03  0.56670529765E+03  0.00000000000E+00 0. -1.
</event>
<event>
 4    1  0.3752836E+003  0.2463236E+02  0.7546771E-02  0.1472958E+00
          2   -1    0    0  502    0  0.00000000000E+00  0.00000000000E+00  0.21487800168E+03  0.21487800168E+03  0.00000000000E+00 0. -1.
          1   -1    0    0  501    0 -0.00000000000E+00 -0.00000000000E+00 -0.20901345158E+03  0.20901345158E+03  0.00000000000E+00 0. -1.
          2    1    1    2  501    0 -0.17528706905E+02 -0.17306004473E+02  0.21344147086E+03  0.21485812724E+03  0.00000000000E+00 0. -1.
          1    1    1    2  502    0  0.17528706905E+02  0.17306004473E+02 -0.20757692076E+03  0.20903332603E+03  0.00000000000E+00 0. -1.
</event>
<event>
 4    1  0.3752836E+003  0.2685385E+02  0.7546771E-02  0.1449082E+00
          2   -1    0    0  502    0  0.00000000000E+00  0.00000000000E+00  0.59417650693E+03  0.59417650693E+03  0.00000000000E+00 0. -1.
          1   -1    0    0  501    0 -0.00000000000E+00 -0.00000000000E+00 -0.36172957409E+01  0.36172957409E+01  0.00000000000E+00 0. -1.
          2    1    1    2  501    0 -0.26824929019E+02  0.12460583554E+01  0.53892799531E+03  0.53959662120E+03  0.00000000000E+00 0. -1.
          1    1    1    2  502    0  0.26824929019E+02 -0.12460583554E+01  0.51631215877E+02  0.58197181471E+02  0.00000000000E+00 0. -1.
</event>
<event>
 4    1  0.3752836E+003  0.2488223E+02  0.7546771E-02  0.1470125E+00
          2   -1    0    0  502    0  0.00000000000E+00  0.00000000000E+00  0.61254797456E+03  0.61254797456E+03  0.00000000000E+00 0.  1.
          1   -1    0    0  501    0 -0.00000000000E+00 -0.00000000000E+00 -0.12309274110E+01  0.12309274110E+01  0.00000000000E+00 0.  1.
          2    1    1    2  501    0  0.22942664139E+02 -0.96311467173E+01  0.17586140119E+03  0.17761294225E+03  0.00000000000E+00 0.  1.
          1    1    1    2  502    0 -0.22942664139E+02  0.96311467173E+01  0.43545564595E+03  0.43616595972E+03  0.00000000000E+00 0.  1.
</event>
<event>
 4    1  0.3752836E+003  0.2715095E+02  0.7546771E-02  0.1446098E+00
          2   -1    0    0  502    0  0.00000000000E+00  0.00000000000E+00  0.52148440724E+03  0.52148440724E+03  0.00000000000E+00 0. -1.
          1   -1    0    0  501    0 -0.00000000000E+00 -0.00000000000E+00 -0.15817264167E+03  0.15817264167E+03  0.00000000000E+00 0. -1.
          2    1    1    2  501    0 -0.19152573223E+02 -0.19244554706E+02  0.51996245607E+03  0.52067084580E+03  0.00000000000E+00 0. -1.
          1    1    1    2  502    0  0.19152573223E+02  0.19244554706E+02 -0.15665069049E+03  0.15898620311E+03  0.00000000000E+00 0. -1.
</event>
<event>
 4    1  0.3752836E+003  0.2338017E+02  0.7546771E-02  0.1487779E+00
          2   -1    0    0  502    0  0.00000000000E+00  0.00000000000E+00  0.25874785549E+03  0.25874785549E+03  0.00000000000E+00 0. -1.
          1   -1    0    0  501    0 -0.00000000000E+00 -0.00000000000E+00 -0.89448612154E+02  0.89448612154E+02  0.00000000000E+00 0.  1.
          2    1    1    2  501    0  0.20771325175E+02  0.10732402584E+02  0.25667963563E+03  0.25774225064E+03  0.00000000000E+00 0. -1.
          1    1    1    2  502    0 -0.20771325175E+02 -0.10732402584E+02 -0.87380392302E+02  0.90454217003E+02  0.00000000000E+00 0.  1.
</event>
<event>
 4    1  0.3752836E+003  0.4519392E+02  0.7546771E-02  0.1320473E+00
          2   -1    0    0  502    0  0.00000000000E+00  0.00000000000E+00  0.12763115987E+04  0.12763115987E+04  0.00000000000E+00 0.  1.
          1   -1    0    0  501    0 -0.00000000000E+00 -0.00000000000E+00 -0.87428436428E+02  0.87428436428E+02  0.00000000000E+00 0.  1.
          2    1    1    2  501    0  0.42471899716E+02  0.15447582721E+02  0.12700422380E+04  0.12708460868E+04  0.00000000000E+00 0.  1.
          1    1    1    2  502    0 -0.42471899716E+02 -0.15447582721E+02 -0.81159075677E+02  0.92893948361E+02  0.00000000000E+00 0.  1.
</event>
<event>
 4    1  0.3752836E+003  0.4623159E+02  0.7546771E-02  0.1315393E+00
          2   -1    0    0  502    0  0.00000000000E+00  0.00000000000E+00  0.54105483739E+03  0.54105483739E+03  0.00000000000E+00 0.  1.
          1   -1    0    0  501    0 -0.00000000000E+00 -0.00000000000E+00 -0.23065947356E+03  0.23065947356E+03  0.00000000000E+00 0. -1.
          2    1    1    2  501    0 -0.38922011195E+02 -0.24948686230E+02  0.53773640352E+03  0.53972011225E+03  0.00000000000E+00 0.  1.
          1    1    1    2  502    0  0.38922011195E+02  0.24948686230E+02 -0.22734103969E+03  0.23199419869E+03  0.00000000000E+00 0. -1.
</event>
<event>
 4    1  0.3752836E+003  0.2970485E+02  0.7546771E-02  0.1422179E+00
          2   -1    0    0  502    0  0.00000000000E+00  0.00000000000E+00  0.99813427126E+02  0.99813427126E+02  0.00000000000E+00 0. -1.
          1   -1    0    0  501    0 -0.00000000000E+00 -0.00000000000E+00 -0.59338789403E+02  0.59338789403E+02  0.00000000000E+00 0. -1.
          2    1    1    2  501    0  0.13976365101E+02  0.26211430644E+02  0.93646886692E+02  0.98245189526E+02  0.00000000000E+00 0. -1.
          1    1    1    2  502    0 -0.13976365101E+02 -0.26211430644E+02 -0.53172248970E+02  0.60907027003E+02  0.00000000000E+00 0. -1.
</event>
<event>
 4    1  0.3752836E+003  0.2260237E+02  0.7546771E-02  0.1497553E+00
          2   -1    0    0  502    0  0.00000000000E+00  0.00000000000E+00  0.13575441498E+01  0.13575441498E+01  0.00000000000E+00 0. -1.
          1   -1    0    0  501    0 -0.00000000000E+00 -0.00000000000E+00 -0.37725516792E+03  0.37725516792E+03  0.00000000000E+00 0. -1.
          2    1    1    2  501    0 -0.59070412893E+01 -0.21816826080E+02 -0.17850881929E+03  0.17993405903E+03  0.00000000000E+00 0. -1.
          1    1    1    2  502    0  0.59070412893E+01  0.21816826080E+02 -0.19738880448E+03  0.19867865303E+03  0.00000000000E+00 0. -1.
</event>
<event>
 4    1  0.3752836E+003  0.2377673E+02  0.7546771E-02  0.1482968E+00
          2   -1    0    0  502    0  0.00000000000E+00  0.00000000000E+00  0.58879354405E+03  0.58879354405E+03  0.00000000000E+00 0. -1.
          1   -1    0    0  501    0 -0.00000000000E+00 -0.00000000000E+00 -0.94160582459E+02  0.94160582459E+02  0.00000000000E+00 0. -1.
          2    1    1    2  501    0 -0.23520770114E+02  0.34794076352E+01  0.58704806351E+03  0.58752937099E+03  0.00000000000E+00 0. -1.
          1    1    1    2  502    0  0.23520770114E+02 -0.34794076352E+01 -0.92415101916E+02  0.95424755522E+02  0.00000000000E+00 0. -1.
</event>
<event>
 4    1  0.3752836E+003  0.2193498E+02  0.7546771E-02  0.1506323E+00
          2   -1    0    0  502    0  0.00000000000E+00  0.00000000000E+00  0.49414632531E+03  0.49414632531E+03  0.00000000000E+00 0.  1.
          1   -1    0    0  501    0 -0.00000000000E+00 -0.00000000000E+00 -0.18667496354E+01  0.18667496354E+01  0.00000000000E+00 0.  1.
          2    1    1    2  501    0  0.32456627087E+01  0.21693522999E+02  0.41767818183E+03  0.41825375891E+03  0.00000000000E+00 0.  1.
          1    1    1    2  502    0 -0.32456627087E+01 -0.21693522999E+02  0.74601393838E+02  0.77759316028E+02  0.00000000000E+00 0.  1.
</event>
<event>
 4    1  0.3752836E+003  0.2292197E+02  0.7546771E-02  0.1493480E+00
          2   -1    0    0  502    0  0.00000000000E+00  0.00000000000E+00  0.15431971113E+01  0.15431971113E+01  0.00000000000E+00 0.  1.
          1   -1    0    0  501    0 -0.00000000000E+00 -0.00000000000E+00 -0.41243590613E+03  0.41243590613E+03  0.00000000000E+00 0. -1.
          2    1    1    2  501    0 -0.22891085301E+02  0.11895105803E+01 -0.11898441299E+03  0.12117222147E+03  0.00000000000E+00 0.  1.
          1    1    1    2  502    0  0.22891085301E+02 -0.11895105803E+01 -0.29190829603E+03  0.29280688177E+03  0.00000000000E+00 0. -1.
</event>
<event>
 4    1  0.3752836E+003  0.3091873E+02  0.7546771E-02  0.1411777E+00
          2   -1    0    0  502    0  0.00000000000E+00  0.00000000000E+00  0.20476394707E+04  0.20476394707E+04  0.00000000000E+00 0.  1.
          1   -1    0    0  501    0 -0.00000000000E+00 -0.00000000000E+00 -0.13576955315E+01  0.13576955315E+01  0.00000000000E+00 0.  1.
          2    1    1    2  501    0 -0.27692201439E+02  0.13751714875E+02  0.18530071963E+04  0.18532651287E+04  0.00000000000E+00 0.  1.
          1    1    1    2  502    0  0.27692201439E+02 -0.13751714875E+02  0.19327457879E+03  0.19573203747E+03  0.00000000000E+00 0.  1.
</event>
<event>
 4    1  0.3752836E+003  0.2810717E+02  0.7546771E-02  0.1436793E+00
          2   -1    0    0  502    0  0.00000000000E+00  0.00000000000E+00  0.19430307617E+01  0.19430307617E+01  0.00000000000E+00 0. -1.
          1   -1    0    0  501    0 -0.00000000000E+00 -0.00000000000E+00 -0.40702202225E+03  0.40702202225E+03  0.00000000000E+00 0. -1.
          2    1    1    2  501    0 -0.20749158689E+02 -0.18960083627E+02 -0.20921934119E+03  0.21109889882E+03  0.00000000000E+00 0. -1.
          1    1    1    2  502    0  0.20749158689E+02  0.18960083627E+02 -0.19585965031E+03  0.19786615419E+03  0.00000000000E+00 0. -1.
</event>
<event>
 4    1  0.3752836E+003  0.2232160E+02  0.7546771E-02  0.1501197E+00
          2   -1    0    0  502    0  0.00000000000E+00  0.00000000000E+00  0.14965067050E+04  0.14965067050E+04  0.00000000000E+00 0. -1.
          1   -1    0    0  501    0 -0.00000000000E+00 -0.00000000000E+00 -0.29583681198E+03  0.29583681198E+03  0.00000000000E+00 0.  1.
          2    1    1    2  501    0  0.98685281975E+01  0.20021642192E+02  0.14960022721E+04  0.14961687913E+04  0.00000000000E+00 0. -1.
          1    1    1    2  502    0 -0.98685281975E+01 -0.20021642192E+02 -0.29533237907E+03  0.29617472568E+03  0.00000000000E+00 0.  1.
</event>
<event>
 4    1  0.3752836E+003  0.4349529E+02  0.7546771E-02  0.1329137E+00
          2   -1    0    0  502    0  0.00000000000E+00  0.00000000000E+00  0.22327928553E+04  0.22327928553E+04  0.00000000000E+00 0. -1.
          1   -1    0    0  501    0 -0.00000000000E+00 -0.00000000000E+00 -0.30776478471E+03  0.30776478471E+03  0.00000000000E+00 0. -1.
          2    1    1    2  501    0 -0.10813082059E+02  0.42129767092E+02  0.22310430677E+04  0.22314670085E+04  0.00000000000E+00 0. -1.
          1    1    1    2  502    0  0.10813082059E+02 -0.42129767092E+02 -0.30601499713E+03  0.30909063151E+03  0.00000000000E+00 0. -1.
</event>
<event>
 4    1  0.3752836E+003  0.5828121E+02  0.7546771E-02  0.1265787E+00
          2   -1    0    0  502    0  0.00000000000E+00  0.00000000000E+00  0.21725333075E+02  0.21725333075E+02  0.00000000000E+00 0. -1.
          1   -1    0    0  501    0 -0.00000000000E+00 -0.00000000000E+00 -0.15704371871E+03  0.15704371871E+03  0.00000000000E+00 0. -1.
          2    1    1    2  501    0  0.49004258489E+02  0.31548041014E+02 -0.73611708678E+02  0.93890254534E+02  0.00000000000E+00 0. -1.
          1    1    1    2  502    0 -0.49004258489E+02 -0.31548041014E+02 -0.61706676961E+02  0.84878797255E+02  0.00000000000E+00 0. -1.
</event>
<event>
 4    1  0.3752836E+003  0.2587460E+02  0.7546771E-02  0.1459253E+00
          2   -1    0    0  502    0  0.00000000000E+00  0.00000000000E+00  0.28738137083E+02  0.28738137083E+02  0.00000000000E+00 0.  1.
          1   -1    0    0  501    0 -0.00000000000E+00 -0.00000000000E+00 -0.30255551066E+02  0.30255551066E+02  0.00000000000E+00 0.  1.
          2    1    1    2  501    0  0.21045944452E+02  0.15052017320E+02  0.13387867658E+02  0.29132971076E+02  0.00000000000E+00 0.  1.
          1    1    1    2  502    0 -0.21045944452E+02 -0.15052017320E+02 -0.14905281642E+02  0.29860717073E+02  0.00000000000E+00 0.  1.
</event>
<event>
 4    1  0.3752836E+003  0.2616482E+02  0.7546771E-02  0.1456183E+00
          2   -1    0    0  502    0  0.00000000000E+00  0.00000000000E+00  0.14600526867E+04  0.14600526867E+04  0.00000000000E+00 0. -1.
          1   -1    0    0  501    0 -0.00000000000E+00 -0.00000000000E+00 -0.14437686961E+03  0.14437686961E+03  0.00000000000E+00 0. -1.
          2    1    1    2  501    0  0.17960398236E+02 -0.19026867320E+02  0.14587489710E+04  0.14589836044E+04  0.00000000000E+00 0. -1.
          1    1    1    2  502    0 -0.17960398236E+02  0.19026867320E+02 -0.14307315385E+03  0.14544595195E+03  0.00000000000E+00 0. -1.
</event>
<event>
 4    1  0.3752836E+003  0.2362686E+02  0.7546771E-02  0.1484773E+00
          2   -1    0    0  502    0  0.00000000000E+00  0.00000000000E+00  0.10856230329E+04  0.10856230329E+04  0.00000000000E+00 0. -1.
          1   -1    0    0  501    0 -0.00000000000E+00 -0.00000000000E+00 -0.86376043623E+01  0.86376043623E+01  0.00000000000E+00 0. -1.
          2    1    1    2  501    0 -0.15586196805E+02 -0.17756656652E+02  0.10690876961E+04  0.10693487413E+04  0.00000000000E+00 0. -1.
          1    1    1    2  502    0  0.15586196805E+02  0.17756656652E+02  0.78977324168E+01  0.24911896026E+02  0.00000000000E+00 0. -1.
</event>
<event>
 4    1  0.3752836E+003  0.5571259E+02  0.7546771E-02  0.1275139E+00
          2   -1    0    0  502    0  0.00000000000E+00  0.00000000000E+00  0.62536707724E+03  0.62536707724E+03  0.00000000000E+00 0. -1.
          1   -1    0    0  501    0 -0.00000000000E+00 -0.00000000000E+00 -0.57756391963E+01  0.57756391963E+01  0.00000000000E+00 0. -1.
          2    1    1    2  501    0 -0.15772269817E+02 -0.53433400087E+02  0.42814420249E+03  0.43175380817E+03  0.00000000000E+00 0. -1.
          1    1    1    2  502    0  0.15772269817E+02  0.53433400087E+02  0.19144723555E+03  0.19938890827E+03  0.00000000000E+00 0. -1.
</event>
<event>
 4    1  0.3752836E+003  0.2318342E+02  0.7546771E-02  0.1490208E+00
          2   -1    0    0  502    0  0.00000000000E+00  0.00000000000E+00  0.27015490068E+02  0.27015490068E+02  0.00000000000E+00 0.  1.
          1   -1    0    0  501    0 -0.00000000000E+00 -0.00000000000E+00 -0.14726902105E+04  0.14726902105E+04  0.00000000000E+00 0. -1.
          2    1    1    2  501    0  0.21950996925E+02  0.74581965686E+01  0.21933298401E+02  0.31914581946E+02  0.00000000000E+00 0.  1.
          1    1    1    2  502    0 -0.21950996925E+02 -0.74581965686E+01 -0.14676080189E+04  0.14677911186E+04  0.00000000000E+00 0. -1.
</event>
<event>
 4    1  0.3752836E+003  0.3876895E+02  0.7546771E-02  0.1355855E+00
          2   -1    0    0  502    0  0.00000000000E+00  0.00000000000E+00  0.69474398500E+02  0.69474398500E+02  0.00000000000E+00 0. -1.
          1   -1    0    0  501    0 -0.00000000000E+00 -0.00000000000E+00 -0.52894018907E+02  0.52894018907E+02  0.00000000000E+00 0.  1.
          2    1    1    2  501    0 -0.34644047102E+02 -0.17401768851E+02  0.55325979602E+02  0.67557350286E+02  0.00000000000E+00 0. -1.
          1    1    1    2  502    0  0.34644047102E+02  0.17401768851E+02 -0.38745600009E+02  0.54811067120E+02  0.00000000000E+00 0.  1.
</event>
<event>
 4    1  0.3752836E+003  0.2096135E+02  0.7546771E-02  0.1519817E+00
          2   -1    0    0  502    0  0.00000000000E+00  0.00000000000E+00  0.35313990501E+03  0.35313990501E+03  0.00000000000E+00 0.  1.
          1   -1    0    0  501    0 -0.00000000000E+00 -0.00000000000E+00 -0.75636334114E+01  0.75636334114E+01  0.00000000000E+00 0. -1.
          2    1    1    2  501    0 -0.19321727284E+02 -0.81270663999E+01  0.33764008188E+03  0.33829011698E+03  0.00000000000E+00 0.  1.
          1    1    1    2  502    0  0.19321727284E+02  0.81270663999E+01  0.79361897179E+01  0.22413421442E+02  0.00000000000E+00 0. -1.
</event>
<event>
 4    1  0.3752836E+003  0.2132194E+02  0.7546771E-02  0.1514718E+00
          2   -1    0    0  502    0  0.00000000000E+00  0.00000000000E+00  0.18669234332E+02  0.18669234332E+02  0.00000000000E+00 0. -1.
          1   -1    0    0  501    0 -0.00000000000E+00 -0.00000000000E+00 -0.34147756309E+03  0.34147756309E+03  0.00000000000E+00 0.  1.
          2    1    1    2  501    0 -0.60332577537E+00 -0.21313403345E+02  0.12129762707E+02  0.24530721707E+02  0.00000000000E+00 0. -1.
          1    1    1    2  502    0  0.60332577537E+00  0.21313403345E+02 -0.33493809147E+03  0.33561607572E+03  0.00000000000E+00 0.  1.
</event>
<event>
 4    1  0.3752836E+003  0.2108525E+02  0.7546771E-02  0.1518051E+00
          2   -1    0    0  502    0  0.00000000000E+00  0.00000000000E+00  0.28934311082E+03  0.28934311082E+03  0.00000000000E+00 0. -1.
          1   -1    0    0  501    0 -0.00000000000E+00 -0.00000000000E+00 -0.15146532165E+02  0.15146532165E+02  0.00000000000E+00 0.  1.
          2    1    1    2  501    0 -0.13165981416E+02  0.16469511370E+02  0.28141440385E+03  0.28220321501E+03  0.00000000000E+00 0. -1.
          1    1    1    2  502    0  0.13165981416E+02 -0.16469511370E+02 -0.72178251887E+01  0.22286427975E+02  0.00000000000E+00 0.  1.
</event>
<event>
 4    1  0.3752836E+003  0.2086966E+02  0.7546771E-02  0.1521134E+00
          2   -1    0    0  502    0  0.00000000000E+00  0.00000000000E+00  0.91333352530E+03  0.91333352530E+03  0.00000000000E+00 0. -1.
          1   -1    0    0  501    0 -0.00000000000E+00 -0.00000000000E+00 -0.11184913937E+01  0.11184913937E+01  0.00000000000E+00 0. -1.
          2    1    1    2  501    0  0.13342619385E+02 -0.16047348930E+02  0.80240828114E+03  0.80267963257E+03  0.00000000000E+00 0. -1.
          1    1    1    2  502    0 -0.13342619385E+02  0.16047348930E+02  0.10980675277E+03  0.11177238412E+03  0.00000000000E+00 0. -1.
</event>
<event>
 4    1  0.3752836E+003  0.7331679E+02  0.7546771E-02  0.1220275E+00
          2   -1    0    0  502    0  0.00000000000E+00  0.00000000000E+00  0.84449309261E+03  0.84449309261E+03  0.00000000000E+00 0.  1.
          1   -1    0    0  501    0 -0.00000000000E+00 -0.00000000000E+00 -0.20179545945E+02  0.20179545945E+02  0.00000000000E+00 0.  1.
          2    1    1    2  501    0 -0.73247649671E+02  0.31832676209E+01  0.76986710875E+03  0.77335031939E+03  0.00000000000E+00 0.  1.
          1    1    1    2  502    0  0.73247649671E+02 -0.31832676209E+01  0.54446437917E+02  0.91322319161E+02  0.00000000000E+00 0.  1.
</event>
<event>
 4    1  0.3752836E+003  0.9759763E+02  0.7546771E-02  0.1168037E+00
          2   -1    0    0  502    0  0.00000000000E+00  0.00000000000E+00  0.58114206713E+03  0.58114206713E+03  0.00000000000E+00 0.  1.
          1   -1    0    0  501    0 -0.00000000000E+00 -0.00000000000E+00 -0.29796132879E+02  0.29796132879E+02  0.00000000000E+00 0.  1.
          2    1    1    2  501    0  0.94128908400E+02 -0.25788475578E+02  0.48056663987E+03  0.49037698991E+03  0.00000000000E+00 0.  1.
          1    1    1    2  502    0 -0.94128908400E+02  0.25788475578E+02  0.70779294381E+02  0.12056121011E+03  0.00000000000E+00 0.  1.
</event>
<event>
 4    1  0.3752836E+003  0.2048648E+02  0.7546771E-02  0.1526724E+00
          2   -1    0    0  502    0  0.00000000000E+00  0.00000000000E+00  0.61580802226E+03  0.61580802226E+03  0.00000000000E+00 0.  1.
          1   -1    0    0  501    0 -0.00000000000E+00 -0.00000000000E+00 -0.78166286287E+00  0.78166286287E+00  0.00000000000E+00 0.  1.
          2    1    1    2  501    0  0.14895182943E+02  0.14065184852E+02  0.41785238203E+03  0.41835428654E+03  0.00000000000E+00 0.  1.
          1    1    1    2  502    0 -0.14895182943E+02 -0.14065184852E+02  0.19717397737E+03  0.19823539858E+03  0.00000000000E+00 0.  1.
</event>
<event>
 4    1  0.3752836E+003  0.2153789E+02  0.7546771E-02  0.1511722E+00
          2   -1    0    0  502    0  0.00000000000E+00  0.00000000000E+00  0.78154680737E+03  0.78154680737E+03  0.00000000000E+00 0.  1.
          1   -1    0    0  501    0 -0.00000000000E+00 -0.00000000000E+00 -0.16941317724E+01  0.16941317724E+01  0.00000000000E+00 0.  1.
          2    1    1    2  501    0 -0.11932152260E+02 -0.17930550287E+02  0.70557541015E+03  0.70590405885E+03  0.00000000000E+00 0.  1.
          1    1    1    2  502    0  0.11932152260E+02  0.17930550287E+02  0.74277265450E+02  0.77336880296E+02  0.00000000000E+00 0.  1.
</event>
<event>
 4    1  0.3752836E+003  0.2738374E+02  0.7546771E-02  0.1443791E+00
          2   -1    0    0  502    0  0.00000000000E+00  0.00000000000E+00  0.14069443052E+02  0.14069443052E+02  0.00000000000E+00 0.  1.
          1   -1    0    0  501    0 -0.00000000000E+00 -0.00000000000E+00 -0.61902093636E+02  0.61902093636E+02  0.00000000000E+00 0. -1.
          2    1    1    2  501    0  0.47422385209E+01 -0.26969991797E+02 -0.97542208831E+01  0.29069126384E+02  0.00000000000E+00 0.  1.
          1    1    1    2  502    0 -0.47422385209E+01  0.26969991797E+02 -0.38078429701E+02  0.46902410303E+02  0.00000000000E+00 0. -1.
</event>
<event>
 4    1  0.3752836E+003  0.2128639E+02  0.7546771E-02  0.1515215E+00
          2   -1    0    0  502    0  0.00000000000E+00  0.00000000000E+00  0.34017668506E+03  0.34017668506E+03  0.00000000000E+00 0.  1.
          1   -1    0    0  501    0 -0.00000000000E+00 -0.00000000000E+00 -0.48127303472E+01  0.48127303472E+01  0.00000000000E+00 0.  1.
          2    1    1    2  501    0  0.97015232411E+01 -0.18947057637E+02  0.31437723704E+03  0.31509706078E+03  0.00000000000E+00 0.  1.
          1    1    1    2  502    0 -0.97015232411E+01  0.18947057637E+02  0.20986717678E+02  0.29892354627E+02  0.00000000000E+00 0.  1.
</event>
<event>
 4    1  0.3752836E+003  0.8352286E+02  0.7546771E-02  0.1195897E+00
          2   -1    0    0  502    0  0.00000000000E+00  0.00000000000E+00  0.13135944302E+04  0.13135944302E+04  0.00000000000E+00 0. -1.
          1   -1    0    0  501    0 -0.00000000000E+00 -0.00000000000E+00 -0.15974002607E+04  0.15974002607E+04  0.00000000000E+00 0.  1.
          2    1    1    2  501    0  0.81547926759E+02 -0.18055568654E+02  0.13111729636E+04  0.13138305097E+04  0.00000000000E+00 0. -1.
          1    1    1    2  502    0 -0.81547926759E+02  0.18055568654E+02 -0.15949787941E+04  0.15971641811E+04  0.00000000000E+00 0.  1.
</event>
<event>
 4    1  0.3752836E+003  0.2283557E+02  0.7546771E-02  0.1494573E+00
          2   -1    0    0  502    0  0.00000000000E+00  0.00000000000E+00  0.33886758785E+03  0.33886758785E+03  0.00000000000E+00 0. -1.
          1   -1    0    0  501    0 -0.00000000000E+00 -0.00000000000E+00 -0.80775665133E+02  0.80775665133E+02  0.00000000000E+00 0.  1.
          2    1    1    2  501    0  0.13211217181E+02 -0.18625975598E+02  0.33685934275E+03  0.33763246293E+03  0.00000000000E+00 0. -1.
          1    1    1    2  502    0 -0.13211217181E+02  0.18625975598E+02 -0.78767420033E+02  0.82010790053E+02  0.00000000000E+00 0.  1.
</event>
<event>
 4    1  0.3752836E+003  0.2461778E+02  0.7546771E-02  0.1473125E+00
          2   -1    0    0  502    0  0.00000000000E+00  0.00000000000E+00  0.69215358428E+03  0.69215358428E+03  0.00000000000E+00 0.  1.
          1   -1    0    0  501    0 -0.00000000000E+00 -0.00000000000E+00 -0.79902790141E+01  0.79902790141E+01  0.00000000000E+00 0. -1.
          2    1    1    2  501    0  0.18291633403E+02  0.16475775675E+02  0.67241667458E+03  0.67286716318E+03  0.00000000000E+00 0.  1.
          1    1    1    2  502    0 -0.18291633403E+02 -0.16475775675E+02  0.11746630691E+02  0.27276700117E+02  0.00000000000E+00 0. -1.
</event>
<event>
 4    1  0.3752836E+003  0.2519931E+02  0.7546771E-02  0.1466586E+00
          2   -1    0    0  502    0  0.00000000000E+00  0.00000000000E+00  0.12227809358E+03  0.12227809358E+03  0.00000000000E+00 0.  1.
          1   -1    0    0  501    0 -0.00000000000E+00 -0.00000000000E+00 -0.20656903408E+02  0.20656903408E+02  0.00000000000E+00 0. -1.
          2    1    1    2  501    0  0.89605632056E+01  0.23552358113E+02  0.11264551448E+03  0.11542970674E+03  0.00000000000E+00 0.  1.
          1    1    1    2  502    0 -0.89605632056E+01 -0.23552358113E+02 -0.11024324302E+02  0.27505290254E+02  0.00000000000E+00 0. -1.
</event>
<event>
 4    1  0.3752836E+003  0.3820472E+02  0.7546771E-02  0.1359340E+00
          2   -1    0    0  502    0  0.00000000000E+00  0.00000000000E+00  0.15326265945E+04  0.15326265945E+04  0.00000000000E+00 0. -1.
          1   -1    0    0  501    0 -0.00000000000E+00 -0.00000000000E+00 -0.25824939363E+01  0.25824939363E+01  0.00000000000E+00 0. -1.
          2    1    1    2  501    0  0.15306196543E+02  0.35004590066E+02  0.13748825525E+04  0.13754132594E+04  0.00000000000E+00 0. -1.
          1    1    1    2  502    0 -0.15306196543E+02 -0.35004590066E+02  0.15516154807E+03  0.15979582903E+03  0.00000000000E+00 0. -1.
</event>
<event>
 4    1  0.3752836E+003  0.3340400E+02  0.7546771E-02  0.1392144E+00
          2   -1    0    0  502    0  0.00000000000E+00  0.00000000000E+00  0.43548041969E+02  0.43548041969E+02  0.00000000000E+00 0.  1.
          1   -1    0    0  501    0 -0.00000000000E+00 -0.00000000000E+00 -0.41066565926E+02  0.41066565926E+02  0.00000000000E+00 0. -1.
          2    1    1    2  501    0  0.11134600944E+02  0.31493620560E+02  0.27185294038E+02  0.43068174864E+02  0.00000000000E+00 0.  1.
          1    1    1    2  502    0 -0.11134600944E+02 -0.31493620560E+02 -0.24703817995E+02  0.41546433032E+02  0.00000000000E+00 0. -1.
</event>
<event>
 4    1  0.3752836E+003  0.2507091E+02  0.7546771E-02  0.1468012E+00
          2   -1    0    0  502    0  0.00000000000E+00  0.00000000000E+00  0.27326313993E+03  0.27326313993E+03  0.00000000000E+00 0.  1.
          1   -1    0    0  501    0 -0.00000000000E+00 -0.00000000000E+00 -0.46157026612E+01  0.46157026612E+01  0.00000000000E+00 0.  1.
          2    1    1    2  501    0 -0.20981849019E+02  0.13722695921E+02  0.23273218802E+03  0.23407866565E+03  0.00000000000E+00 0.  1.
          1    1    1    2  502    0  0.20981849019E+02 -0.13722695921E+02  0.35915249254E+02  0.43800176947E+02  0.00000000000E+00 0.  1.
</event>
<event>
 4    1  0.3752836E+003  0.2716801E+02  0.7546771E-02  0.1445928E+00
          2   -1    0    0  502    0  0.00000000000E+00  0.00000000000E+00  0.25508818053E+02  0.25508818053E+02  0.00000000000E+00 0.  1.
          1   -1    0    0  501    0 -0.00000000000E+00 -0.00000000000E+00 -0.97371059064E+03  0.97371059064E+03  0.00000000000E+00 0.  1.
          2    1    1    2  501    0 -0.18586720924E+02 -0.19815007605E+02  0.18029547559E+02  0.32606215761E+02  0.00000000000E+00 0.  1.
          1    1    1    2  502    0  0.18586720924E+02  0.19815007605E+02 -0.96623132014E+03  0.96661319293E+03  0.00000000000E+00 0.  1.
</event>
<event>
 4    1  0.3752836E+003  0.2786604E+02  0.7546771E-02  0.1439097E+00
          2   -1    0    0  502    0  0.00000000000E+00  0.00000000000E+00  0.12717102590E+02  0.12717102590E+02  0.00000000000E+00 0.  1.
          1   -1    0    0  501    0 -0.00000000000E+00 -0.00000000000E+00 -0.51274100690E+03  0.51274100690E+03  0.00000000000E+00 0. -1.
          2    1    1    2  501    0  0.74206491564E+01 -0.26859821571E+02 -0.34224279216E+01  0.28075417390E+02  0.00000000000E+00 0.  1.
          1    1    1    2  502    0 -0.74206491564E+01  0.26859821571E+02 -0.49660147639E+03  0.49738269210E+03  0.00000000000E+00 0. -1.
</event>
<event>
 4    1  0.3752836E+003  0.2198911E+02  0.7546771E-02  0.1505598E+00
          2   -1    0    0  502    0  0.00000000000E+00  0.00000000000E+00  0.36014493981E+02  0.36014493981E+02  0.00000000000E+00 0.  1.
          1   -1    0    0  501    0 -0.00000000000E+00 -0.00000000000E+00 -0.83287496596E+03  0.83287496596E+03  0.00000000000E+00 0.  1.
          2    1    1    2  501    0  0.16596956016E+02 -0.14424361376E+02  0.32498697372E+02  0.39238838935E+02  0.00000000000E+00 0.  1.
          1    1    1    2  502    0 -0.16596956016E+02  0.14424361376E+02 -0.82935916935E+03  0.82965062101E+03  0.00000000000E+00 0.  1.
</event>
<event>
 4    1  0.3752836E+003  0.2515521E+02  0.7546771E-02  0.1467075E+00
          2   -1    0    0  502    0  0.00000000000E+00  0.00000000000E+00  0.45655718859E+03  0.45655718859E+03  0.00000000000E+00 0. -1.
          1   -1    0    0  501    0 -0.00000000000E+00 -0.00000000000E+00 -0.13180814662E+02  0.13180814662E+02  0.00000000000E+00 0.  1.
          2    1    1    2  501    0  0.12830769336E+02  0.21636906403E+02  0.44386579809E+03  0.44457803710E+03  0.00000000000E+00 0. -1.
          1    1    1    2  502    0 -0.12830769336E+02 -0.21636906403E+02 -0.48942416519E+00  0.25159966146E+02  0.00000000000E+00 0.  1.
</event>
<event>
 4    1  0.3752836E+003  0.2317712E+02  0.7546771E-02  0.1490286E+00
          2   -1    0    0  502    0  0.00000000000E+00  0.00000000000E+00  0.15380895999E+01  0.15380895999E+01  0.00000000000E+00 0. -1.
          1   -1    0    0  501    0 -0.00000000000E+00 -0.00000000000E+00 -0.15387493122E+04  0.15387493122E+04  0.00000000000E+00 0. -1.
          2    1    1    2  501    0 -0.22317980647E+02 -0.62519477282E+01 -0.91479170134E+02  0.94369580263E+02  0.00000000000E+00 0. -1.
          1    1    1    2  502    0  0.22317980647E+02  0.62519477282E+01 -0.14457320525E+04  0.14459178215E+04  0.00000000000E+00 0. -1.
</event>
<event>
 4    1  0.3752836E+003  0.2403851E+02  0.7546771E-02  0.1479854E+00
          2   -1    0    0  502    0  0.00000000000E+00  0.00000000000E+00  0.83542648589E+03  0.83542648589E+03  0.00000000000E+00 0.  1.
          1   -1    0    0  501    0 -0.00000000000E+00 -0.00000000000E+00 -0.95926538849E+00  0.95926538849E+00  0.00000000000E+00 0.  1.
          2    1    1    2  501    0 -0.24038284837E+02 -0.10446614451E+00  0.63810336317E+03  0.63855598982E+03  0.00000000000E+00 0.  1.
          1    1    1    2  502    0  0.24038284837E+02  0.10446614451E+00  0.19636385734E+03  0.19782976146E+03  0.00000000000E+00 0.  1.
</event>
<event>
 4    1  0.3752836E+003  0.2088028E+02  0.7546771E-02  0.1520981E+00
          2   -1    0    0  502    0  0.00000000000E+00  0.00000000000E+00  0.79231737404E+01  0.79231737404E+01  0.00000000000E+00 0.  1.
          1   -1    0    0  501    0 -0.00000000000E+00 -0.00000000000E+00 -0.29774601173E+03  0.29774601173E+03  0.00000000000E+00 0.  1.
          2    1    1    2  501    0 -0.19525575766E+02 -0.73985071976E+01 -0.69203867731E+01  0.21997221889E+02  0.00000000000E+00 0.  1.
          1    1    1    2  502    0  0.19525575766E+02  0.73985071976E+01 -0.28290245122E+03  0.28367196358E+03  0.00000000000E+00 0.  1.
</event>
<event>
 4    1  0.3752836E+003  0.3646262E+02  0.7546771E-02  0.1370562E+00
          2   -1    0    0  502    0  0.00000000000E+00  0.00000000000E+00  0.13380193085E+04  0.13380193085E+04  0.00000000000E+00 0.  1.
          1   -1    0    0  501    0 -0.00000000000E+00 -0.00000000000E+00 -0.57922421331E+02  0.57922421331E+02  0.00000000000E+00 0. -1.
          2    1    1    2  501    0 -0.20365697717E+02  0.30245017679E+02  0.13320066209E+04  0.13325055950E+04  0.00000000000E+00 0.  1.
          1    1    1    2  502    0  0.20365697717E+02 -0.30245017679E+02 -0.51909733736E+02  0.63436134769E+02  0.00000000000E+00 0. -1.
</event>
<event>
 4    1  0.3752836E+003  0.3184903E+02  0.7546771E-02  0.1404181E+00
          2   -1    0    0  502    0  0.00000000000E+00  0.00000000000E+00  0.69972518173E+01  0.69972518173E+01  0.00000000000E+00 0. -1.
          1   -1    0    0  501    0 -0.00000000000E+00 -0.00000000000E+00 -0.26552952251E+03  0.26552952251E+03  0.00000000000E+00 0. -1.
          2    1    1    2  501    0 -0.31709119799E+02  0.29820484166E+01 -0.37447372648E+02  0.49159603430E+02  0.00000000000E+00 0. -1.
          1    1    1    2  502    0  0.31709119799E+02 -0.29820484166E+01 -0.22108489805E+03  0.22336717090E+03  0.00000000000E+00 0. -1.
</event>
<event>
 4    1  0.3752836E+003  0.2337018E+02  0.7546771E-02  0.1487901E+00
          2   -1    0    0  502    0  0.00000000000E+00  0.00000000000E+00  0.18048813478E+03  0.18048813478E+03  0.00000000000E+00 0. -1.
          1   -1    0    0  501    0 -0.00000000000E+00 -0.00000000000E+00 -0.49217834542E+02  0.49217834542E+02  0.00000000000E+00 0. -1.
          2    1    1    2  501    0 -0.22194030223E+02 -0.73205332806E+01  0.17690139451E+03  0.17843841673E+03  0.00000000000E+00 0. -1.
          1    1    1    2  502    0  0.22194030223E+02  0.73205332806E+01 -0.45631094269E+02  0.51267552597E+02  0.00000000000E+00 0. -1.
</event>
<event>
 4    1  0.3752836E+003  0.2122792E+02  0.7546771E-02  0.1516035E+00
          2   -1    0    0  502    0  0.00000000000E+00  0.00000000000E+00  0.12574413445E+04  0.12574413445E+04  0.00000000000E+00 0.  1.
          1   -1    0    0  501    0 -0.00000000000E+00 -0.00000000000E+00 -0.13538581058E+01  0.13538581058E+01  0.00000000000E+00 0.  1.
          2    1    1    2  501    0  0.20320216500E+02 -0.61411313241E+01  0.11677498569E+04  0.11679427867E+04  0.00000000000E+00 0.  1.
          1    1    1    2  502    0 -0.20320216500E+02  0.61411313241E+01  0.88337629408E+02  0.90852415829E+02  0.00000000000E+00 0.  1.
</event>
<event>
 4    1  0.3752836E+003  0.2488513E+02  0.7546771E-02  0.1470093E+00
          2   -1    0    0  502    0  0.00000000000E+00  0.00000000000E+00  0.32026361734E+02  0.32026361734E+02  0.00000000000E+00 0.  1.
          1   -1    0    0  501    0 -0.00000000000E+00 -0.00000000000E+00 -0.13404297814E+03  0.13404297814E+03  0.00000000000E+00 0. -1.
          2    1    1    2  501    0 -0.63540574236E+01  0.24060247765E+02  0.25804189213E+02  0.35848650591E+02  0.00000000000E+00 0.  1.
          1    1    1    2  502    0  0.63540574236E+01 -0.24060247765E+02 -0.12782080562E+03  0.13022068928E+03  0.00000000000E+00 0. -1.
</event>
<event>
 4    1  0.3752836E+003  0.2565870E+02  0.7546771E-02  0.1461568E+00
          2   -1    0    0  502    0  0.00000000000E+00  0.00000000000E+00  0.10567268271E+04  0.10567268271E+04  0.00000000000E+00 0.  1.
          1   -1    0    0  501    0 -0.00000000000E+00 -0.00000000000E+00 -0.10777547646E+03  0.10777547646E+03  0.00000000000E+00 0. -1.
          2    1    1    2  501    0 -0.58099513200E+01 -0.24992266194E+02  0.10550414543E+04  0.10553534191E+04  0.00000000000E+00 0.  1.
          1    1    1    2  502    0  0.58099513200E+01  0.24992266194E+02 -0.10609010361E+03  0.10914888450E+03  0.00000000000E+00 0. -1.
</event>
<event>
 4    1  0.3752836E+003  0.2904203E+02  0.7546771E-02  0.1428108E+00
          2   -1    0    0  502    0  0.00000000000E+00  0.00000000000E+00  0.12602087574E+03  0.12602087574E+03  0.00000000000E+00 0. -1.
          1   -1    0    0  501    0 -0.00000000000E+00 -0.00000000000E+00 -0.14255495316E+02  0.14255495316E+02  0.00000000000E+00 0. -1.
          2    1    1    2  501    0  0.18898752562E+02 -0.22051687889E+02  0.10696846873E+03  0.11084084577E+03  0.00000000000E+00 0. -1.
          1    1    1    2  502    0 -0.18898752562E+02  0.22051687889E+02  0.47969116880E+01  0.29435525287E+02  0.00000000000E+00 0. -1.
</event>
<event>
 4    1  0.3752836E+003  0.2204031E+02  0.7546771E-02  0.1504914E+00
          2   -1    0    0  502    0  0.00000000000E+00  0.00000000000E+00  0.39811009933E+03  0.39811009933E+03  0.00000000000E+00 0. -1.
          1   -1    0    0  501    0 -0.00000000000E+00 -0.00000000000E+00 -0.18758915815E+01  0.18758915815E+01  0.00000000000E+00 0. -1.
          2    1    1    2  501    0  0.14402174568E+02  0.16683898238E+02  0.31635583642E+03  0.31712267395E+03  0.00000000000E+00 0. -1.
          1    1    1    2  502    0 -0.14402174568E+02 -0.16683898238E+02  0.79878371326E+02  0.82863316964E+02  0.00000000000E+00 0. -1.
</event>
<event>
 4    1  0.3752836E+003  0.2196092E+02  0.7546771E-02  0.1505975E+00
          2   -1    0    0  502    0  0.00000000000E+00  0.00000000000E+00  0.16933275849E+02  0.16933275849E+02  0.00000000000E+00 0.  1.
          1   -1    0    0  501    0 -0.00000000000E+00 -0.00000000000E+00 -0.49965231385E+02  0.49965231385E+02  0.00000000000E+00 0.  1.
          2    1    1    2  501    0 -0.21948680213E+02  0.73324816367E+00  0.54175786411E+01  0.22619292082E+02  0.00000000000E+00 0.  1.
          1    1    1    2  502    0  0.21948680213E+02 -0.73324816367E+00 -0.38449534177E+02  0.44279215151E+02  0.00000000000E+00 0.  1.
</event>
<event>
 4    1  0.3752836E+003  0.2236723E+02  0.7546771E-02  0.1500600E+00
          2   -1    0    0  502    0  0.00000000000E+00  0.00000000000E+00  0.12698396402E+01  0.12698396402E+01  0.00000000000E+00 0.  1.
          1   -1    0    0  501    0 -0.00000000000E+00 -0.00000000000E+00 -0.10499623224E+04  0.10499623224E+04  0.00000000000E+00 0. -1.
          2    1    1    2  501    0  0.10290212133E+02  0.19859623034E+02 -0.10888796143E+03  0.11116150969E+03  0.00000000000E+00 0.  1.
          1    1    1    2  502    0 -0.10290212133E+02 -0.19859623034E+02 -0.93980452128E+03  0.94007065230E+03  0.00000000000E+00 0. -1.
</event>
<event>
 4    1  0.3752836E+003  0.2509707E+02  0.7546771E-02  0.1467720E+00
          2   -1    0    0  502    0  0.00000000000E+00  0.00000000000E+00  0.11834321233E+02  0.11834321233E+02  0.00000000000E+00 0.  1.
          1   -1    0    0  501    0 -0.00000000000E+00 -0.00000000000E+00 -0.72898833756E+02  0.72898833756E+02  0.00000000000E+00 0. -1.
          2    1    1    2  501    0 -0.24398103675E+02 -0.58817790487E+01 -0.85219912063E+01  0.26504473619E+02  0.00000000000E+00 0.  1.
          1    1    1    2  502    0  0.24398103675E+02  0.58817790487E+01 -0.52542521317E+02  0.58228681370E+02  0.00000000000E+00 0. -1.
</event>
<event>
 4    1  0.3752836E+003  0.2151515E+02  0.7546771E-02  0.1512035E+00
          2   -1    0    0  502    0  0.00000000000E+00  0.00000000000E+00  0.83785897206E+01  0.83785897206E+01  0.00000000000E+00 0. -1.
          1   -1    0    0  501    0 -0.00000000000E+00 -0.00000000000E+00 -0.15744693870E+03  0.15744693870E+03  0.00000000000E+00 0.  1.
          2    1    1    2  501    0 -0.20591851515E+02 -0.62351603354E+01 -0.77340671823E+01  0.22863013109E+02  0.00000000000E+00 0. -1.
          1    1    1    2  502    0  0.20591851515E+02  0.62351603354E+01 -0.14133428179E+03  0.14296251531E+03  0.00000000000E+00 0.  1.
</event>
<event>
 4    1  0.3752836E+003  0.2616655E+02  0.7546771E-02  0.1456165E+00
          2   -1    0    0  502    0  0.00000000000E+00  0.00000000000E+00  0.11544653078E+02  0.11544653078E+02  0.00000000000E+00 0.  1.
          1   -1    0    0  501    0 -0.00000000000E+00 -0.00000000000E+00 -0.12644837769E+03  0.12644837769E+03  0.00000000000E+00 0.  1.
          2    1    1    2  501    0 -0.21690072339E+02 -0.14636569056E+02 -0.71756042168E+01  0.27132594562E+02  0.00000000000E+00 0.  1.
          1    1    1    2  502    0  0.21690072339E+02  0.14636569056E+02 -0.10772812040E+03  0.11086043621E+03  0.00000000000E+00 0.  1.
</event>
<event>
 4    1  0.3752836E+003  0.2098620E+02  0.7546771E-02  0.1519462E+00
          2   -1    0    0  502    0  0.00000000000E+00  0.00000000000E+00  0.62690808340E+01  0.62690808340E+01  0.00000000000E+00 0. -1.
          1   -1    0    0  501    0 -0.00000000000E+00 -0.00000000000E+00 -0.75661866315E+02  0.75661866315E+02  0.00000000000E+00 0. -1.
          2    1    1    2  501    0 -0.43470627362E+01  0.20531035701E+02 -0.23743186821E+02  0.31688472696E+02  0.00000000000E+00 0. -1.
          1    1    1    2  502    0  0.43470627362E+01 -0.20531035701E+02 -0.45649598660E+02  0.50242474453E+02  0.00000000000E+00 0. -1.
</event>
<event>
 4    1  0.3752836E+003  0.3260390E+02  0.7546771E-02  0.1398239E+00
          2   -1    0    0  502    0  0.00000000000E+00  0.00000000000E+00  0.12356442703E+03  0.12356442703E+03  0.00000000000E+00 0. -1.
          1   -1    0    0  501    0 -0.00000000000E+00 -0.00000000000E+00 -0.87452607385E+01  0.87452607385E+01  0.00000000000E+00 0. -1.
          2    1    1    2  501    0 -0.18775260046E+02  0.26655279171E+02  0.65849673081E+02  0.73479206190E+02  0.00000000000E+00 0. -1.
          1    1    1    2  502    0  0.18775260046E+02 -0.26655279171E+02  0.48969493211E+02  0.58830481579E+02  0.00000000000E+00 0. -1.
</event>
<event>
 4    1  0.3752836E+003  0.5357181E+02  0.7546771E-02  0.1283387E+00
          2   -1    0    0  502    0  0.00000000000E+00  0.00000000000E+00  0.92347110227E+02  0.92347110227E+02  0.00000000000E+00 0. -1.
          1   -1    0    0  501    0 -0.00000000000E+00 -0.00000000000E+00 -0.12550753009E+04  0.12550753009E+04  0.00000000000E+00 0. -1.
          2    1    1    2  501    0  0.10456922000E+02  0.52541328068E+02  0.83953727479E+02  0.99589993124E+02  0.00000000000E+00 0. -1.
          1    1    1    2  502    0 -0.10456922000E+02 -0.52541328068E+02 -0.12466819181E+04  0.12478324180E+04  0.00000000000E+00 0. -1.
</event>
<event>
 4    1  0.3752836E+003  0.2167125E+02  0.7546771E-02  0.1509893E+00
          2   -1    0    0  502    0  0.00000000000E+00  0.00000000000E+00  0.59878123694E+02  0.59878123694E+02  0.00000000000E+00 0.  1.
          1   -1    0    0  501    0 -0.00000000000E+00 -0.00000000000E+00 -0.25009644576E+03  0.25009644576E+03  0.00000000000E+00 0. -1.
          2    1    1    2  501    0  0.41379408082E+01 -0.21272526252E+02  0.57428474423E+02  0.61381370153E+02  0.00000000000E+00 0.  1.
          1    1    1    2  502    0 -0.41379408082E+01  0.21272526252E+02 -0.24764679649E+03  0.24859319930E+03  0.00000000000E+00 0. -1.
</event>
<event>
 4    1  0.3752836E+003  0.2682860E+02  0.7546771E-02  0.1449337E+00
          2   -1    0    0  502    0  0.00000000000E+00  0.00000000000E+00  0.89674597530E+03  0.89674597530E+03  0.00000000000E+00 0. -1.
          1   -1    0    0  501    0 -0.00000000000E+00 -0.00000000000E+00 -0.11110140283E+01  0.11110140283E+01  0.00000000000E+00 0.  1.
          2    1    1    2  501    0  0.18694882182E+02  0.19242535710E+02  0.68432706824E+03  0.68485276529E+03  0.00000000000E+00 0. -1.
          1    1    1    2  502    0 -0.18694882182E+02 -0.19242535710E+02  0.21130789303E+03  0.21300422404E+03  0.00000000000E+00 0.  1.
</event>
<event>
 4    1  0.3752836E+003  0.3854551E+02  0.7546771E-02  0.1357226E+00
          2   -1    0    0  502    0  0.00000000000E+00  0.00000000000E+00  0.16129595495E+03  0.16129595495E+03  0.00000000000E+00 0.  1.
          1   -1    0    0  501    0 -0.00000000000E+00 -0.00000000000E+00 -0.12584477860E+02  0.12584477860E+02  0.00000000000E+00 0. -1.
          2    1    1    2  501    0  0.48292283411E+01 -0.38241799978E+02  0.11936669423E+03  0.12543589759E+03  0.00000000000E+00 0.  1.
          1    1    1    2  502    0 -0.48292283411E+01  0.38241799978E+02  0.29344782859E+02  0.48444535223E+02  0.00000000000E+00 0. -1.
</event>
<event>
 4    1  0.3752836E+003  0.2123908E+02  0.7546771E-02  0.1515879E+00
          2   -1    0    0  502    0  0.00000000000E+00  0.00000000000E+00  0.52170308155E+03  0.52170308155E+03  0.00000000000E+00 0.  1.
          1   -1    0    0  501    0 -0.00000000000E+00 -0.00000000000E+00 -0.11402631097E+01  0.11402631097E+01  0.00000000000E+00 0.  1.
          2    1    1    2  501    0 -0.10517331126E+02 -0.18452212908E+02  0.38880330948E+03  0.38938298868E+03  0.00000000000E+00 0.  1.
          1    1    1    2  502    0  0.10517331126E+02  0.18452212908E+02  0.13175950896E+03  0.13346035598E+03  0.00000000000E+00 0.  1.
</event>
<event>
 4    1  0.3752836E+003  0.2141250E+02  0.7546771E-02  0.1513456E+00
          2   -1    0    0  502    0  0.00000000000E+00  0.00000000000E+00  0.34944707307E+02  0.34944707307E+02  0.00000000000E+00 0. -1.
          1   -1    0    0  501    0 -0.00000000000E+00 -0.00000000000E+00 -0.99022609538E+02  0.99022609538E+02  0.00000000000E+00 0. -1.
          2    1    1    2  501    0 -0.21401205187E+02 -0.69548303031E+00  0.30349378736E+02  0.37142698741E+02  0.00000000000E+00 0. -1.
          1    1    1    2  502    0  0.21401205187E+02  0.69548303031E+00 -0.94427280967E+02  0.96824618104E+02  0.00000000000E+00 0. -1.
</event>
<event>
 4    1  0.3752836E+003  0.2224801E+02  0.7546771E-02  0.1502163E+00
          2   -1    0    0  502    0  0.00000000000E+00  0.00000000000E+00  0.22711589702E+02  0.22711589702E+02  0.00000000000E+00 0.  1.
          1   -1    0    0  501    0 -0.00000000000E+00 -0.00000000000E+00 -0.13564288289E+03  0.13564288289E+03  0.00000000000E+00 0. -1.
          2    1    1    2  501    0 -0.15750177223E+02  0.15713235216E+02  0.16072496366E+02  0.27446292699E+02  0.00000000000E+00 0.  1.
          1    1    1    2  502    0  0.15750177223E+02 -0.15713235216E+02 -0.12900378956E+03  0.13090817990E+03  0.00000000000E+00 0. -1.
</event>
<event>
 4    1  0.3752836E+003  0.2045506E+02  0.7546771E-02  0.1527189E+00
          2   -1    0    0  502    0  0.00000000000E+00  0.00000000000E+00  0.10669247721E+04  0.10669247721E+04  0.00000000000E+00 0. -1.
          1   -1    0    0  501    0 -0.00000000000E+00 -0.00000000000E+00 -0.52424902188E+00  0.52424902188E+00  0.00000000000E+00 0. -1.
          2    1    1    2  501    0 -0.13531584370E+02 -0.15339674638E+02  0.80110183380E+03  0.80136293745E+03  0.00000000000E+00 0. -1.
          1    1    1    2  502    0  0.13531584370E+02  0.15339674638E+02  0.26529868929E+03  0.26608608369E+03  0.00000000000E+00 0. -1.
</event>
<event>
 4    1  0.3752836E+003  0.2325047E+02  0.7546771E-02  0.1489377E+00
          2   -1    0    0  502    0  0.00000000000E+00  0.00000000000E+00  0.10355044944E+03  0.10355044944E+03  0.00000000000E+00 0. -1.
          1   -1    0    0  501    0 -0.00000000000E+00 -0.00000000000E+00 -0.74671182277E+01  0.74671182277E+01  0.00000000000E+00 0. -1.
          2    1    1    2  501    0  0.10821395002E+02 -0.20578667694E+02  0.78489102612E+02  0.81860389583E+02  0.00000000000E+00 0. -1.
          1    1    1    2  502    0 -0.10821395002E+02  0.20578667694E+02  0.17594228601E+02  0.29157178085E+02  0.00000000000E+00 0. -1.
</event>
<event>
 4    1  0.3752836E+003  0.2215069E+02  0.7546771E-02  0.1503448E+00
          2   -1    0    0  502    0  0.00000000000E+00  0.00000000000E+00  0.75076069368E+03  0.75076069368E+03  0.00000000000E+00 0. -1.
          1   -1    0    0  501    0 -0.00000000000E+00 -0.00000000000E+00 -0.15334231852E+03  0.15334231852E+03  0.00000000000E+00 0.  1.
          2    1    1    2  501    0 -0.83997296997E+01 -0.20496278258E+02  0.74979634918E+03  0.75012346859E+03  0.00000000000E+00 0. -1.
          1    1    1    2  502    0  0.83997296997E+01  0.20496278258E+02 -0.15237797403E+03  0.15397954361E+03  0.00000000000E+00 0.  1.
</event>
<event>
 4    1  0.3752836E+003  0.3109248E+02  0.7546771E-02  0.1410334E+00
          2   -1    0    0  502    0  0.00000000000E+00  0.00000000000E+00  0.48709644064E+03  0.48709644064E+03  0.00000000000E+00 0.  1.
          1   -1    0    0  501    0 -0.00000000000E+00 -0.00000000000E+00 -0.14577971966E+02  0.14577971966E+02  0.00000000000E+00 0. -1.
          2    1    1    2  501    0  0.20202560514E+02 -0.23634693298E+02  0.46939699722E+03  0.47042564043E+03  0.00000000000E+00 0.  1.
          1    1    1    2  502    0 -0.20202560514E+02  0.23634693298E+02  0.31214714598E+01  0.31248772178E+02  0.00000000000E+00 0. -1.
</event>
<event>
 4    1  0.3752836E+003  0.2274467E+02  0.7546771E-02  0.1495729E+00
          2   -1    0    0  502    0  0.00000000000E+00  0.00000000000E+00  0.51854158189E+02  0.51854158189E+02  0.00000000000E+00 0.  1.
          1   -1    0    0  501    0 -0.00000000000E+00 -0.00000000000E+00 -0.14458369054E+02  0.14458369054E+02  0.00000000000E+00 0. -1.
          2    1    1    2  501    0  0.60500778416E+01 -0.21925247414E+02  0.37158179622E+02  0.43566618286E+02  0.00000000000E+00 0.  1.
          1    1    1    2  502    0 -0.60500778416E+01  0.21925247414E+02  0.23760951304E+00  0.22745908958E+02  0.00000000000E+00 0. -1.
</event>
<event>
 4    1  0.3752836E+003  0.3364106E+02  0.7546771E-02  0.1390377E+00
          2   -1    0    0  502    0  0.00000000000E+00  0.00000000000E+00  0.13491500071E+04  0.13491500071E+04  0.00000000000E+00 0.  1.
          1   -1    0    0  501    0 -0.00000000000E+00 -0.00000000000E+00 -0.78852413061E+01  0.78852413061E+01  0.00000000000E+00 0.  1.
          2    1    1    2  501    0  0.25172063396E+02  0.22317884553E+02  0.13120447524E+04  0.13124759628E+04  0.00000000000E+00 0.  1.
          1    1    1    2  502    0 -0.25172063396E+02 -0.22317884553E+02  0.29220013380E+02  0.44559285547E+02  0.00000000000E+00 0.  1.
</event>
<event>
 4    1  0.3752836E+003  0.3837037E+02  0.7546771E-02  0.1358309E+00
          2   -1    0    0  502    0  0.00000000000E+00  0.00000000000E+00  0.18896102181E+04  0.18896102181E+04  0.00000000000E+00 0.  1.
          1   -1    0    0  501    0 -0.00000000000E+00 -0.00000000000E+00 -0.19641944335E+02  0.19641944335E+02  0.00000000000E+00 0. -1.
          2    1    1    2  501    0  0.32940901468E+02 -0.19676954399E+02  0.18704847972E+04  0.18708783130E+04  0.00000000000E+00 0.  1.
          1    1    1    2  502    0 -0.32940901468E+02  0.19676954399E+02 -0.51652342946E+00  0.38373849434E+02  0.00000000000E+00 0. -1.
</event>
<event>
 4    1  0.3752836E+003  0.3470098E+02  0.7546771E-02  0.1382678E+00
          2   -1    0    0  502    0  0.00000000000E+00  0.00000000000E+00  0.44603861028E+03  0.44603861028E+03  0.00000000000E+00 0.  1.
          1   -1    0    0  501    0 -0.00000000000E+00 -0.00000000000E+00 -0.38591109927E+01  0.38591109927E+01  0.00000000000E+00 0. -1.
          2    1    1    2  501    0  0.32613420718E+02 -0.11854241107E+02  0.34439000887E+03  0.34613384182E+03  0.00000000000E+00 0.  1.
          1    1    1    2  502    0 -0.32613420718E+02  0.11854241107E+02  0.97789490416E+02  0.10376387945E+03  0.00000000000E+00 0. -1.
</event>
<event>
 4    1  0.3752836E+003  0.2075608E+02  0.7546771E-02  0.1522776E+00
          2   -1    0    0  502    0  0.00000000000E+00  0.00000000000E+00  0.11229816855E+04  0.11229816855E+04  0.00000000000E+00 0. -1.
          1   -1    0    0  501    0 -0.00000000000E+00 -0.00000000000E+00 -0.35327626853E+01  0.35327626853E+01  0.00000000000E+00 0.  1.
          2    1    1    2  501    0  0.12845085870E+02 -0.16303940759E+02  0.10915200073E+04  0.10917173357E+04  0.00000000000E+00 0. -1.
          1    1    1    2  502    0 -0.12845085870E+02  0.16303940759E+02  0.27928915461E+02  0.34797112439E+02  0.00000000000E+00 0.  1.
</event>
<event>
 4    1  0.3752836E+003  0.2334452E+02  0.7546771E-02  0.1488217E+00
          2   -1    0    0  502    0  0.00000000000E+00  0.00000000000E+00  0.93813324506E+03  0.93813324506E+03  0.00000000000E+00 0.  1.
          1   -1    0    0  501    0 -0.00000000000E+00 -0.00000000000E+00 -0.56233777094E+01  0.56233777094E+01  0.00000000000E+00 0. -1.
          2    1    1    2  501    0 -0.14984005016E+02 -0.17901006930E+02  0.91309608264E+03  0.91339445071E+03  0.00000000000E+00 0.  1.
          1    1    1    2  502    0  0.14984005016E+02  0.17901006930E+02  0.19413784713E+02  0.30362172062E+02  0.00000000000E+00 0. -1.
</event>
<event>
 4    1  0.3752836E+003  0.4626291E+02  0.7546771E-02  0.1315242E+00
          2   -1    0    0  502    0  0.00000000000E+00  0.00000000000E+00  0.84706125392E+02  0.84706125392E+02  0.00000000000E+00 0.  1.
          1   -1    0    0  501    0 -0.00000000000E+00 -0.00000000000E+00 -0.18852058957E+03  0.18852058957E+03  0.00000000000E+00 0. -1.
          2    1    1    2  501    0 -0.29836094520E+02  0.35356247153E+02  0.75221976313E+02  0.88309696350E+02  0.00000000000E+00 0.  1.
          1    1    1    2  502    0  0.29836094520E+02 -0.35356247153E+02 -0.17903644049E+03  0.18491701862E+03  0.00000000000E+00 0. -1.
</event>
<event>
 4    1  0.3752836E+003  0.2068903E+02  0.7546771E-02  0.1523751E+00
          2   -1    0    0  502    0  0.00000000000E+00  0.00000000000E+00  0.38953201531E+01  0.38953201531E+01  0.00000000000E+00 0. -1.
          1   -1    0    0  501    0 -0.00000000000E+00 -0.00000000000E+00 -0.11087996668E+03  0.11087996668E+03  0.00000000000E+00 0. -1.
          2    1    1    2  501    0  0.20686943241E+02 -0.29328890626E+00 -0.58929665084E+02  0.62455912979E+02  0.00000000000E+00 0. -1.
          1    1    1    2  502    0 -0.20686943241E+02  0.29328890626E+00 -0.48054981438E+02  0.52319373850E+02  0.00000000000E+00 0. -1.
</event>
<event>
 4    1  0.3752836E+003  0.2691018E+02  0.7546771E-02  0.1448513E+00
          2   -1    0    0  502    0  0.00000000000E+00  0.00000000000E+00  0.26817315889E+03  0.26817315889E+03  0.00000000000E+00 0.  1.
          1   -1    0    0  501    0 -0.00000000000E+00 -0.00000000000E+00 -0.49926441546E+02  0.49926441546E+02  0.00000000000E+00 0.  1.
          2    1    1    2  501    0  0.25378326018E+02  0.89497567336E+01  0.26381216528E+03  0.26518110062E+03  0.00000000000E+00 0.  1.
          1    1    1    2  502    0 -0.25378326018E+02 -0.89497567336E+01 -0.45565447936E+02  0.52918499815E+02  0.00000000000E+00 0.  1.
</event>
<event>
 4    1  0.3752836E+003  0.2088553E+02  0.7546771E-02  0.1520905E+00
          2   -1    0    0  502    0  0.00000000000E+00  0.00000000000E+00  0.66665539163E+03  0.66665539163E+03  0.00000000000E+00 0.  1.
          1   -1    0    0  501    0 -0.00000000000E+00 -0.00000000000E+00 -0.14203046266E+01  0.14203046266E+01  0.00000000000E+00 0.  1.
          2    1    1    2  501    0 -0.17361788440E+02 -0.11609209808E+02  0.57792749586E+03  0.57830476042E+03  0.00000000000E+00 0.  1.
          1    1    1    2  502    0  0.17361788440E+02  0.11609209808E+02  0.87307591139E+02  0.89770935835E+02  0.00000000000E+00 0.  1.
</event>
<event>
 4    1  0.3752836E+003  0.3175305E+02  0.7546771E-02  0.1404950E+00
          2   -1    0    0  502    0  0.00000000000E+00  0.00000000000E+00  0.29382067066E+03  0.29382067066E+03  0.00000000000E+00 0. -1.
          1   -1    0    0  501    0 -0.00000000000E+00 -0.00000000000E+00 -0.34756158234E+01  0.34756158234E+01  0.00000000000E+00 0.  1.
          2    1    1    2  501    0  0.31753008152E+02  0.43775563864E-01  0.12843172119E+03  0.13229876209E+03  0.00000000000E+00 0. -1.
          1    1    1    2  502    0 -0.31753008152E+02 -0.43775563864E-01  0.16191333364E+03  0.16499752439E+03  0.00000000000E+00 0.  1.
</event>
<event>
 4    1  0.3752836E+003  0.3173299E+02  0.7546771E-02  0.1405112E+00
          2   -1    0    0  502    0  0.00000000000E+00  0.00000000000E+00  0.29831876254E+03  0.29831876254E+03  0.00000000000E+00 0.  1.
          1   -1    0    0  501    0 -0.00000000000E+00 -0.00000000000E+00 -0.80064025764E+02  0.80064025764E+02  0.00000000000E+00 0.  1.
          2    1    1    2  501    0  0.23922106293E+02 -0.20849829391E+02  0.29428763119E+03  0.29599356822E+03  0.00000000000E+00 0.  1.
          1    1    1    2  502    0 -0.23922106293E+02  0.20849829391E+02 -0.76032894408E+02  0.82389220091E+02  0.00000000000E+00 0.  1.
</event>
<event>
 4    1  0.3752836E+003  0.4179327E+02  0.7546771E-02  0.1338286E+00
          2   -1    0    0  502    0  0.00000000000E+00  0.00000000000E+00  0.10490232067E+04  0.10490232067E+04  0.00000000000E+00 0. -1.
          1   -1    0    0  501    0 -0.00000000000E+00 -0.00000000000E+00 -0.18338618569E+03  0.18338618569E+03  0.00000000000E+00 0.  1.
          2    1    1    2  501    0  0.12059662957E+01 -0.41775867929E+02  0.10462194187E+04  0.10470538427E+04  0.00000000000E+00 0. -1.
          1    1    1    2  502    0 -0.12059662957E+01  0.41775867929E+02 -0.18058239761E+03  0.18535554974E+03  0.00000000000E+00 0.  1.
</event>
<event>
 4    1  0.3752836E+003  0.2438887E+02  0.7546771E-02  0.1475758E+00
          2   -1    0    0  502    0  0.00000000000E+00  0.00000000000E+00  0.89626336032E+03  0.89626336032E+03  0.00000000000E+00 0. -1.
          1   -1    0    0  501    0 -0.00000000000E+00 -0.00000000000E+00 -0.37279134178E+01  0.37279134178E+01  0.00000000000E+00 0. -1.
          2    1    1    2  501    0 -0.16738965349E+02 -0.17737642296E+02  0.85424644680E+03  0.85459452888E+03  0.00000000000E+00 0. -1.
          1    1    1    2  502    0  0.16738965349E+02  0.17737642296E+02  0.38289000102E+02  0.45396744861E+02  0.00000000000E+00 0. -1.
</event>
<event>
 4    1  0.3752836E+003  0.2586984E+02  0.7546771E-02  0.1459303E+00
          2   -1    0    0  502    0  0.00000000000E+00  0.00000000000E+00  0.58391809228E+03  0.58391809228E+03  0.00000000000E+00 0.  1.
          1   -1    0    0  501    0 -0.00000000000E+00 -0.00000000000E+00 -0.42943007602E+01  0.42943007602E+01  0.00000000000E+00 0. -1.
          2    1    1    2  501    0 -0.29620754708E+01 -0.25699707496E+02  0.54162988626E+03  0.54224734444E+03  0.00000000000E+00 0.  1.
          1    1    1    2  502    0  0.29620754708E+01  0.25699707496E+02  0.37993905264E+02  0.45965048610E+02  0.00000000000E+00 0. -1.
</event>
<event>
 4    1  0.3752836E+003  0.3205134E+02  0.7546771E-02  0.1402570E+00
          2   -1    0    0  502    0  0.00000000000E+00  0.00000000000E+00  0.78664145384E+03  0.78664145384E+03  0.00000000000E+00 0. -1.
          1   -1    0    0  501    0 -0.00000000000E+00 -0.00000000000E+00 -0.59135997887E+01  0.59135997887E+01  0.00000000000E+00 0. -1.
          2    1    1    2  501    0  0.31001980589E+02  0.81342220434E+01  0.74015987168E+03  0.74085351049E+03  0.00000000000E+00 0. -1.
          1    1    1    2  502    0 -0.31001980589E+02 -0.81342220434E+01  0.40567982372E+02  0.51701543134E+02  0.00000000000E+00 0. -1.
</event>
<event>
 4    1  0.3752836E+003  0.3969639E+02  0.7546771E-02  0.1350274E+00
          2   -1    0    0  502    0  0.00000000000E+00  0.00000000000E+00  0.66926205276E+03  0.66926205276E+03  0.00000000000E+00 0. -1.
          1   -1    0    0  501    0 -0.00000000000E+00 -0.00000000000E+00 -0.34377980080E+01  0.34377980080E+01  0.00000000000E+00 0.  1.
          2    1    1    2  501    0 -0.37503221964E+02 -0.13011976137E+02  0.52171884379E+03  0.52322686776E+03  0.00000000000E+00 0. -1.
          1    1    1    2  502    0  0.37503221964E+02  0.13011976137E+02  0.14410541096E+03  0.14947298300E+03  0.00000000000E+00 0.  1.
</event>
<event>
 4    1  0.3752836E+003  0.2414283E+02  0.7546771E-02  0.1478625E+00
          2   -1    0    0  502    0  0.00000000000E+00  0.00000000000E+00  0.10001129205E+02  0.10001129205E+02  0.00000000000E+00 0.  1.
          1   -1    0    0  501    0 -0.00000000000E+00 -0.00000000000E+00 -0.56416811759E+03  0.56416811759E+03  0.00000000000E+00 0.  1.
          2    1    1    2  501    0 -0.13042695178E+02  0.20316608418E+02 -0.52315497790E+01  0.24703149358E+02  0.00000000000E+00 0.  1.
          1    1    1    2  502    0  0.13042695178E+02 -0.20316608418E+02 -0.54893543860E+03  0.54946609744E+03  0.00000000000E+00 0.  1.
</event>
<event>
 4    1  0.3752836E+003  0.2634962E+02  0.7546771E-02  0.1454253E+00
          2   -1    0    0  502    0  0.00000000000E+00  0.00000000000E+00  0.16302254104E+04  0.16302254104E+04  0.00000000000E+00 0. -1.
          1   -1    0    0  501    0 -0.00000000000E+00 -0.00000000000E+00 -0.25210162668E+03  0.25210162668E+03  0.00000000000E+00 0. -1.
          2    1    1    2  501    0  0.13131373823E+02 -0.22844465345E+02  0.16294300864E+04  0.16296431232E+04  0.00000000000E+00 0. -1.
          1    1    1    2  502    0 -0.13131373823E+02  0.22844465345E+02 -0.25130630266E+03  0.25268391388E+03  0.00000000000E+00 0. -1.
</event>
<event>
 4    1  0.3752836E+003  0.2086251E+02  0.7546771E-02  0.1521237E+00
          2   -1    0    0  502    0  0.00000000000E+00  0.00000000000E+00  0.26327285894E+01  0.26327285894E+01  0.00000000000E+00 0. -1.
          1   -1    0    0  501    0 -0.00000000000E+00 -0.00000000000E+00 -0.50873154421E+03  0.50873154421E+03  0.00000000000E+00 0. -1.
          2    1    1    2  501    0 -0.16572737319E+02 -0.12672357475E+02 -0.42979850791E+02  0.47775640658E+02  0.00000000000E+00 0. -1.
          1    1    1    2  502    0  0.16572737319E+02  0.12672357475E+02 -0.46311896483E+03  0.46358863214E+03  0.00000000000E+00 0. -1.
</event>
<event>
 4    1  0.3752836E+003  0.4967918E+02  0.7546771E-02  0.1299569E+00
          2   -1    0    0  502    0  0.00000000000E+00  0.00000000000E+00  0.16720693855E+02  0.16720693855E+02  0.00000000000E+00 0.  1.
          1   -1    0    0  501    0 -0.00000000000E+00 -0.00000000000E+00 -0.11803065553E+04  0.11803065553E+04  0.00000000000E+00 0.  1.
          2    1    1    2  501    0  0.49613073387E+02  0.25620130843E+01 -0.21952172807E+02  0.54313155431E+02  0.00000000000E+00 0.  1.
          1    1    1    2  502    0 -0.49613073387E+02 -0.25620130843E+01 -0.11416336886E+04  0.11427140937E+04  0.00000000000E+00 0.  1.
</event>
<event>
 4    1  0.3752836E+003  0.4233995E+02  0.7546771E-02  0.1335294E+00
          2   -1    0    0  502    0  0.00000000000E+00  0.00000000000E+00  0.18196753351E+04  0.18196753351E+04  0.00000000000E+00 0.  1.
          1   -1    0    0  501    0 -0.00000000000E+00 -0.00000000000E+00 -0.98756977621E+00  0.98756977621E+00  0.00000000000E+00 0.  1.
          2    1    1    2  501    0  0.37934407697E+02 -0.18805630846E+02  0.95431353961E+03  0.95525232421E+03  0.00000000000E+00 0.  1.
          1    1    1    2  502    0 -0.37934407697E+02  0.18805630846E+02  0.86437422576E+03  0.86541058071E+03  0.00000000000E+00 0.  1.
</event>
<event>
 4    1  0.3752836E+003  0.3189483E+02  0.7546771E-02  0.1403815E+00
          2   -1    0    0  502    0  0.00000000000E+00  0.00000000000E+00  0.10271003298E+02  0.10271003298E+02  0.00000000000E+00 0. -1.
          1   -1    0    0  501    0 -0.00000000000E+00 -0.00000000000E+00 -0.19974843960E+03  0.19974843960E+03  0.00000000000E+00 0.  1.
          2    1    1    2  501    0  0.31002783960E+02 -0.74904824209E+01 -0.20177603409E+02  0.37741431074E+02  0.00000000000E+00 0. -1.
          1    1    1    2  502    0 -0.31002783960E+02  0.74904824209E+01 -0.16929983289E+03  0.17227801182E+03  0.00000000000E+00 0.  1.
</event>
<event>
 4    1  0.3752836E+003  0.2206779E+02  0.7546771E-02  0.1504548E+00
          2   -1    0    0  502    0  0.00000000000E+00  0.00000000000E+00  0.10295477838E+03  0.10295477838E+03  0.00000000000E+00 0. -1.
          1   -1    0    0  501    0 -0.00000000000E+00 -0.00000000000E+00 -0.28449465753E+02  0.28449465753E+02  0.00000000000E+00 0.  1.
          2    1    1    2  501    0  0.21498034866E+02  0.49821496966E+01  0.97244718832E+02  0.99717213456E+02  0.00000000000E+00 0. -1.
          1    1    1    2  502    0 -0.21498034866E+02 -0.49821496966E+01 -0.22739406204E+02  0.31687030678E+02  0.00000000000E+00 0.  1.
</event>
<event>
 4    1  0.3752836E+003  0.2248414E+02  0.7546771E-02  0.1499079E+00
          2   -1    0    0  502    0  0.00000000000E+00  0.00000000000E+00  0.50295420864E+03  0.50295420864E+03  0.00000000000E+00 0.  1.
          1   -1    0    0  501    0 -0.00000000000E+00 -0.00000000000E+00 -0.52108377876E+03  0.52108377876E+03  0.00000000000E+00 0.  1.
          2    1    1    2  501    0 -0.16950812775E+02 -0.14771813465E+02  0.50246014579E+03  0.50296295553E+03  0.00000000000E+00 0.  1.
          1    1    1    2  502    0  0.16950812775E+02  0.14771813465E+02 -0.52058971591E+03  0.52107503187E+03  0.00000000000E+00 0.  1.
</event>
<event>
 4    1  0.3752836E+003  0.2212510E+02  0.7546771E-02  0.1503787E+00
          2   -1    0    0  502    0  0.00000000000E+00  0.00000000000E+00  0.28946672529E+01  0.28946672529E+01  0.00000000000E+00 0. -1.
          1   -1    0    0  501    0 -0.00000000000E+00 -0.00000000000E+00 -0.27785946792E+03  0.27785946792E+03  0.00000000000E+00 0.  1.
          2    1    1    2  501    0  0.21239103717E+02 -0.61984179656E+01 -0.49662032602E+02  0.54367613468E+02  0.00000000000E+00 0. -1.
          1    1    1    2  502    0 -0.21239103717E+02  0.61984179656E+01 -0.22530276806E+03  0.22638652170E+03  0.00000000000E+00 0.  1.
</event>
<event>
 4    1  0.3752836E+003  0.4705547E+02  0.7546771E-02  0.1311470E+00
          2   -1    0    0  502    0  0.00000000000E+00  0.00000000000E+00  0.29500719525E+02  0.29500719525E+02  0.00000000000E+00 0. -1.
          1   -1    0    0  501    0 -0.00000000000E+00 -0.00000000000E+00 -0.57232969969E+03  0.57232969969E+03  0.00000000000E+00 0.  1.
          2    1    1    2  501    0 -0.18484764241E+02  0.43272750934E+02  0.90762789855E+01  0.47922816305E+02  0.00000000000E+00 0. -1.
          1    1    1    2  502    0  0.18484764241E+02 -0.43272750934E+02 -0.55190525915E+03  0.55390760291E+03  0.00000000000E+00 0.  1.
</event>
<event>
 4    1  0.3752836E+003  0.2693350E+02  0.7546771E-02  0.1448277E+00
          2   -1    0    0  502    0  0.00000000000E+00  0.00000000000E+00  0.47855415193E+01  0.47855415193E+01  0.00000000000E+00 0. -1.
          1   -1    0    0  501    0 -0.00000000000E+00 -0.00000000000E+00 -0.17762131521E+03  0.17762131521E+03  0.00000000000E+00 0.  1.
          2    1    1    2  501    0  0.38658443801E+01  0.26654623089E+02 -0.51499195379E+02  0.58116958020E+02  0.00000000000E+00 0. -1.
          1    1    1    2  502    0 -0.38658443801E+01 -0.26654623089E+02 -0.12133657831E+03  0.12428989871E+03  0.00000000000E+00 0.  1.
</event>
<event>
 4    1  0.3752836E+003  0.5491651E+02  0.7546771E-02  0.1278156E+00
          2   -1    0    0  502    0  0.00000000000E+00  0.00000000000E+00  0.84810098110E+03  0.84810098110E+03  0.00000000000E+00 0.  1.
          1   -1    0    0  501    0 -0.00000000000E+00 -0.00000000000E+00 -0.54174453411E+03  0.54174453411E+03  0.00000000000E+00 0.  1.
          2    1    1    2  501    0 -0.53913962397E+02 -0.10445484286E+02  0.84581651466E+03  0.84759742800E+03  0.00000000000E+00 0.  1.
          1    1    1    2  502    0  0.53913962397E+02  0.10445484286E+02 -0.53946006767E+03  0.54224808722E+03  0.00000000000E+00 0.  1.
</event>
<event>
 4    1  0.3752836E+003  0.1228187E+03  0.7546771E-02  0.1129264E+00
          2   -1    0    0  502    0  0.00000000000E+00  0.00000000000E+00  0.58318540246E+03  0.58318540246E+03  0.00000000000E+00 0.  1.
          1   -1    0    0  501    0 -0.00000000000E+00 -0.00000000000E+00 -0.99068699454E+02  0.99068699454E+02  0.00000000000E+00 0.  1.
          2    1    1    2  501    0  0.73043014395E+02  0.98737832918E+02  0.53529122580E+03  0.54920045340E+03  0.00000000000E+00 0.  1.
          1    1    1    2  502    0 -0.73043014395E+02 -0.98737832918E+02 -0.51174522787E+02  0.13305364852E+03  0.00000000000E+00 0.  1.
</event>
<event>
 4    1  0.3752836E+003  0.2154972E+02  0.7546771E-02  0.1511559E+00
          2   -1    0    0  502    0  0.00000000000E+00  0.00000000000E+00  0.10165748791E+03  0.10165748791E+03  0.00000000000E+00 0.  1.
          1   -1    0    0  501    0 -0.00000000000E+00 -0.00000000000E+00 -0.43670467848E+02  0.43670467848E+02  0.00000000000E+00 0.  1.
          2    1    1    2  501    0  0.93493772627E+01  0.19415965999E+02  0.97751992390E+02  0.10009916387E+03  0.00000000000E+00 0.  1.
          1    1    1    2  502    0 -0.93493772627E+01 -0.19415965999E+02 -0.39764972332E+02  0.45228791886E+02  0.00000000000E+00 0.  1.
</event>
<event>
 4    1  0.3752836E+003  0.2548508E+02  0.7546771E-02  0.1463449E+00
          2   -1    0    0  502    0  0.00000000000E+00  0.00000000000E+00  0.17788202907E+04  0.17788202907E+04  0.00000000000E+00 0. -1.
          1   -1    0    0  501    0 -0.00000000000E+00 -0.00000000000E+00 -0.47607059179E+00  0.47607059179E+00  0.00000000000E+00 0.  1.
          2    1    1    2  501    0  0.10184167099E+02 -0.23361760992E+02  0.13186497210E+04  0.13188959685E+04  0.00000000000E+00 0. -1.
          1    1    1    2  502    0 -0.10184167099E+02  0.23361760992E+02  0.45969449909E+03  0.46040039274E+03  0.00000000000E+00 0.  1.
</event>
<event>
 4    1  0.3752836E+003  0.2116274E+02  0.7546771E-02  0.1516954E+00
          2   -1    0    0  502    0  0.00000000000E+00  0.00000000000E+00  0.64738833482E+02  0.64738833482E+02  0.00000000000E+00 0. -1.
          1   -1    0    0  501    0 -0.00000000000E+00 -0.00000000000E+00 -0.14057828018E+02  0.14057828018E+02  0.00000000000E+00 0. -1.
          2    1    1    2  501    0 -0.12720638327E-01  0.21162735480E+02  0.53418323019E+02  0.57457625856E+02  0.00000000000E+00 0. -1.
          1    1    1    2  502    0  0.12720638327E-01 -0.21162735480E+02 -0.27373175547E+01  0.21339035644E+02  0.00000000000E+00 0. -1.
</event>
<event>
 4    1  0.3752836E+003  0.2649743E+02  0.7546771E-02  0.1452723E+00
          2   -1    0    0  502    0  0.00000000000E+00  0.00000000000E+00  0.11081951110E+03  0.11081951110E+03  0.00000000000E+00 0. -1.
          1   -1    0    0  501    0 -0.00000000000E+00 -0.00000000000E+00 -0.70656770567E+01  0.70656770567E+01  0.00000000000E+00 0. -1.
          2    1    1    2  501    0 -0.24666198886E+02  0.96794897279E+01  0.70823074891E+02  0.75617602619E+02  0.00000000000E+00 0. -1.
          1    1    1    2  502    0  0.24666198886E+02 -0.96794897279E+01  0.32930759154E+02  0.42267585539E+02  0.00000000000E+00 0. -1.
</event>
<event>
 4    1  0.3752836E+003  0.2319340E+02  0.7546771E-02  0.1490084E+00
          2   -1    0    0  502    0  0.00000000000E+00  0.00000000000E+00  0.14671914807E+01  0.14671914807E+01  0.00000000000E+00 0. -1.
          1   -1    0    0  501    0 -0.00000000000E+00 -0.00000000000E+00 -0.13793242917E+04  0.13793242917E+04  0.00000000000E+00 0. -1.
          2    1    1    2  501    0 -0.17327654336E+02 -0.15417080312E+02 -0.97364836562E+02  0.10008918707E+03  0.00000000000E+00 0. -1.
          1    1    1    2  502    0  0.17327654336E+02  0.15417080312E+02 -0.12804922637E+04  0.12807022962E+04  0.00000000000E+00 0. -1.
</event>
<event>
 4    1  0.3752836E+003  0.4971187E+02  0.7546771E-02  0.1299427E+00
          2   -1    0    0  502    0  0.00000000000E+00  0.00000000000E+00  0.53369260382E+01  0.53369260382E+01  0.00000000000E+00 0. -1.
          1   -1    0    0  501    0 -0.00000000000E+00 -0.00000000000E+00 -0.49989169667E+03  0.49989169667E+03  0.00000000000E+00 0.  1.
          2    1    1    2  501    0 -0.47645000888E+02 -0.14185263104E+02 -0.31585544063E+03  0.31974353344E+03  0.00000000000E+00 0. -1.
          1    1    1    2  502    0  0.47645000888E+02  0.14185263104E+02 -0.17869933000E+03  0.18548508927E+03  0.00000000000E+00 0.  1.
</event>
<event>
 4    1  0.3752836E+003  0.2414725E+02  0.7546771E-02  0.1478574E+00
          2   -1    0    0  502    0  0.00000000000E+00  0.00000000000E+00  0.10160594236E+01  0.10160594236E+01  0.00000000000E+00 0. -1.
          1   -1    0    0  501    0 -0.00000000000E+00 -0.00000000000E+00 -0.77104862002E+03  0.77104862002E+03  0.00000000000E+00 0.  1.
          2    1    1    2  501    0 -0.17637738733E+02  0.16492411013E+02 -0.18980315983E+03  0.19133303147E+03  0.00000000000E+00 0. -1.
          1    1    1    2  502    0  0.17637738733E+02 -0.16492411013E+02 -0.58022940077E+03  0.58073164798E+03  0.00000000000E+00 0.  1.
</event>
<event>
 4    1  0.3752836E+003  0.2501065E+02  0.7546771E-02  0.1468684E+00
          2   -1    0    0  502    0  0.00000000000E+00  0.00000000000E+00  0.15357873303E+03  0.15357873303E+03  0.00000000000E+00 0.  1.
          1   -1    0    0  501    0 -0.00000000000E+00 -0.00000000000E+00 -0.30403847036E+02  0.30403847036E+02  0.00000000000E+00 0.  1.
          2    1    1    2  501    0  0.19306902970E+02  0.15898940418E+02  0.14719547213E+03  0.14930519021E+03  0.00000000000E+00 0.  1.
          1    1    1    2  502    0 -0.19306902970E+02 -0.15898940418E+02 -0.24020586136E+02  0.34677389853E+02  0.00000000000E+00 0.  1.
</event>
<event>
 4    1  0.3752836E+003  0.2859838E+02  0.7546771E-02  0.1432181E+00
          2   -1    0    0  502    0  0.00000000000E+00  0.00000000000E+00  0.20527049934E+01  0.20527049934E+01  0.00000000000E+00 0.  1.
          1   -1    0    0  501    0 -0.00000000000E+00 -0.00000000000E+00 -0.68235983073E+03  0.68235983073E+03  0.00000000000E+00 0.  1.
          2    1    1    2  501    0 -0.28490190541E+02  0.24852598104E+01 -0.11941221935E+03  0.12278902884E+03  0.00000000000E+00 0.  1.
          1    1    1    2  502    0  0.28490190541E+02 -0.24852598104E+01 -0.56089490638E+03  0.56162350688E+03  0.00000000000E+00 0.  1.
</event>
<event>
 4    1  0.3752836E+003  0.2209623E+02  0.7546771E-02  0.1504170E+00
          2   -1    0    0  502    0  0.00000000000E+00  0.00000000000E+00  0.81322279027E+02  0.81322279027E+02  0.00000000000E+00 0. -1.
          1   -1    0    0  501    0 -0.00000000000E+00 -0.00000000000E+00 -0.36717422040E+03  0.36717422040E+03  0.00000000000E+00 0.  1.
          2    1    1    2  501    0  0.13846236884E+02 -0.17219906009E+02  0.79481337157E+02  0.82495614399E+02  0.00000000000E+00 0. -1.
          1    1    1    2  502    0 -0.13846236884E+02  0.17219906009E+02 -0.36533327854E+03  0.36600088503E+03  0.00000000000E+00 0.  1.
</event>
<event>
 4    1  0.3752836E+003  0.3621515E+02  0.7546771E-02  0.1372216E+00
          2   -1    0    0  502    0  0.00000000000E+00  0.00000000000E+00  0.15013682871E+03  0.15013682871E+03  0.00000000000E+00 0.  1.
          1   -1    0    0  501    0 -0.00000000000E+00 -0.00000000000E+00 -0.61192912521E+03  0.61192912521E+03  0.00000000000E+00 0.  1.
          2    1    1    2  501    0  0.33314639376E+02  0.14201118640E+02  0.14740732901E+03  0.15179083507E+03  0.00000000000E+00 0.  1.
          1    1    1    2  502    0 -0.33314639376E+02 -0.14201118640E+02 -0.60919962551E+03  0.61027511885E+03  0.00000000000E+00 0.  1.
</event>
<event>
 4    1  0.3752836E+003  0.2679598E+02  0.7546771E-02  0.1449668E+00
          2   -1    0    0  502    0  0.00000000000E+00  0.00000000000E+00  0.40984859372E+03  0.40984859372E+03  0.00000000000E+00 0. -1.
          1   -1    0    0  501    0 -0.00000000000E+00 -0.00000000000E+00 -0.13252269714E+02  0.13252269714E+02  0.00000000000E+00 0.  1.
          2    1    1    2  501    0 -0.62285638900E+01  0.26062033767E+02  0.39536982601E+03  0.39627682739E+03  0.00000000000E+00 0. -1.
          1    1    1    2  502    0  0.62285638900E+01 -0.26062033767E+02  0.12264979999E+01  0.26824036042E+02  0.00000000000E+00 0.  1.
</event>
<event>
 4    1  0.5287655E+003  0.2694554E+02  0.7546771E-02  0.1448156E+00
          2   -1    0    0  502    0  0.00000000000E+00  0.00000000000E+00  0.13131096225E+04  0.13131096225E+04  0.00000000000E+00 0. -1.
          1   -1    0    0  501    0 -0.00000000000E+00 -0.00000000000E+00 -0.11921353754E+04  0.11921353754E+04  0.00000000000E+00 0.  1.
          2    1    1    2  501    0 -0.19962315691E+01 -0.26871489881E+02  0.13128190947E+04  0.13130955934E+04  0.00000000000E+00 0. -1.
          1    1    1    2  502    0  0.19962315691E+01  0.26871489881E+02 -0.11918448477E+04  0.11921494046E+04  0.00000000000E+00 0.  1.
</event>
<event>
 4    1  0.3752836E+003  0.2183926E+02  0.7546771E-02  0.1507612E+00
          2   -1    0    0  502    0  0.00000000000E+00  0.00000000000E+00  0.79724827588E+01  0.79724827588E+01  0.00000000000E+00 0. -1.
          1   -1    0    0  501    0 -0.00000000000E+00 -0.00000000000E+00 -0.71873226019E+02  0.71873226019E+02  0.00000000000E+00 0. -1.
          2    1    1    2  501    0 -0.10260047509E+02  0.19279126645E+02 -0.15604779491E+02  0.26841431446E+02  0.00000000000E+00 0. -1.
          1    1    1    2  502    0  0.10260047509E+02 -0.19279126645E+02 -0.48295963769E+02  0.53004277332E+02  0.00000000000E+00 0. -1.
</event>
<event>
 4    1  0.3752836E+003  0.7215026E+02  0.7546771E-02  0.1223346E+00
          2   -1    0    0  502    0  0.00000000000E+00  0.00000000000E+00  0.91040270997E+03  0.91040270997E+03  0.00000000000E+00 0. -1.
          1   -1    0    0  501    0 -0.00000000000E+00 -0.00000000000E+00 -0.30124643451E+03  0.30124643451E+03  0.00000000000E+00 0.  1.
          2    1    1    2  501    0  0.46600857019E+02  0.55081938235E+02  0.90462557012E+03  0.90749825449E+03  0.00000000000E+00 0. -1.
          1    1    1    2  502    0 -0.46600857019E+02 -0.55081938235E+02 -0.29546929466E+03  0.30415088999E+03  0.00000000000E+00 0.  1.
</event>
<event>
 4    1  0.3752836E+003  0.3489517E+02  0.7546771E-02  0.1381302E+00
          2   -1    0    0  502    0  0.00000000000E+00  0.00000000000E+00  0.50780542355E+03  0.50780542355E+03  0.00000000000E+00 0. -1.
          1   -1    0    0  501    0 -0.00000000000E+00 -0.00000000000E+00 -0.38801308660E+01  0.38801308660E+01  0.00000000000E+00 0.  1.
          2    1    1    2  501    0 -0.75504688112E+01 -0.34068512184E+02  0.41008964650E+03  0.41157161135E+03  0.00000000000E+00 0. -1.
          1    1    1    2  502    0  0.75504688112E+01  0.34068512184E+02  0.93835646183E+02  0.10011394307E+03  0.00000000000E+00 0.  1.
</event>
<event>
 4    1  0.3752836E+003  0.2298279E+02  0.7546771E-02  0.1492714E+00
          2   -1    0    0  502    0  0.00000000000E+00  0.00000000000E+00  0.48140951341E+03  0.48140951341E+03  0.00000000000E+00 0. -1.
          1   -1    0    0  501    0 -0.00000000000E+00 -0.00000000000E+00 -0.31930417898E+03  0.31930417898E+03  0.00000000000E+00 0. -1.
          2    1    1    2  501    0 -0.37471994194E+01 -0.22675251852E+02  0.48072105615E+03  0.48127013451E+03  0.00000000000E+00 0. -1.
          1    1    1    2  502    0  0.37471994194E+01  0.22675251852E+02 -0.31861572171E+03  0.31944355788E+03  0.00000000000E+00 0. -1.
</event>
<event>
 4    1  0.3752836E+003  0.2497646E+02  0.7546771E-02  0.1469067E+00
          2   -1    0    0  502    0  0.00000000000E+00  0.00000000000E+00  0.39467667068E+03  0.39467667068E+03  0.00000000000E+00 0. -1.
          1   -1    0    0  501    0 -0.00000000000E+00 -0.00000000000E+00 -0.36536091277E+02  0.36536091277E+02  0.00000000000E+00 0. -1.
          2    1    1    2  501    0 -0.24055993322E+02 -0.67180947508E+01  0.38996141779E+03  0.39076045216E+03  0.00000000000E+00 0. -1.
          1    1    1    2  502    0  0.24055993322E+02  0.67180947508E+01 -0.31820838387E+02  0.40452309792E+02  0.00000000000E+00 0. -1.
</event>
<event>
 4    1  0.3752836E+003  0.2065815E+02  0.7546771E-02  0.1524202E+00
          2   -1    0    0  502    0  0.00000000000E+00  0.00000000000E+00  0.12490619937E+04  0.12490619937E+04  0.00000000000E+00 0.  1.
          1   -1    0    0  501    0 -0.00000000000E+00 -0.00000000000E+00 -0.45211266725E+02  0.45211266725E+02  0.00000000000E+00 0. -1.
          2    1    1    2  501    0 -0.13089035429E+02  0.15982375370E+02  0.12466121352E+04  0.12467832910E+04  0.00000000000E+00 0.  1.
          1    1    1    2  502    0  0.13089035429E+02 -0.15982375370E+02 -0.42761408162E+02  0.47489969456E+02  0.00000000000E+00 0. -1.
</event>
<event>
 4    1  0.3752836E+003  0.5613149E+02  0.7546771E-02  0.1273575E+00
          2   -1    0    0  502    0  0.00000000000E+00  0.00000000000E+00  0.78225400576E+02  0.78225400576E+02  0.00000000000E+00 0.  1.
          1   -1    0    0  501    0 -0.00000000000E+00 -0.00000000000E+00 -0.30651284557E+03  0.30651284557E+03  0.00000000000E+00 0. -1.
          2    1    1    2  501    0  0.55423457480E+02 -0.88873060384E+01  0.65141159594E+02  0.85989037214E+02  0.00000000000E+00 0.  1.
          1    1    1    2  502    0 -0.55423457480E+02  0.88873060384E+01 -0.29342860458E+03  0.29874920893E+03  0.00000000000E+00 0. -1.
</event>
<event>
 4    1  0.3752836E+003  0.3274847E+02  0.7546771E-02  0.1397123E+00
          2   -1    0    0  502    0  0.00000000000E+00  0.00000000000E+00  0.25923297938E+03  0.25923297938E+03  0.00000000000E+00 0. -1.
          1   -1    0    0  501    0 -0.00000000000E+00 -0.00000000000E+00 -0.26898668090E+03  0.26898668090E+03  0.00000000000E+00 0. -1.
          2    1    1    2  501    0  0.10824785576E+02  0.30907706862E+02  0.25719408287E+03  0.25927062809E+03  0.00000000000E+00 0. -1.
          1    1    1    2  502    0 -0.10824785576E+02 -0.30907706862E+02 -0.26694778439E+03  0.26894903219E+03  0.00000000000E+00 0. -1.
</event>
<event>
 4    1  0.3752836E+003  0.2460578E+02  0.7546771E-02  0.1473262E+00
          2   -1    0    0  502    0  0.00000000000E+00  0.00000000000E+00  0.13323853030E+03  0.13323853030E+03  0.00000000000E+00 0. -1.
          1   -1    0    0  501    0 -0.00000000000E+00 -0.00000000000E+00 -0.10951466261E+03  0.10951466261E+03  0.00000000000E+00 0.  1.
          2    1    1    2  501    0  0.21947775634E+02 -0.11123830718E+02  0.13069372860E+03  0.13298983104E+03  0.00000000000E+00 0. -1.
          1    1    1    2  502    0 -0.21947775634E+02  0.11123830718E+02 -0.10696986091E+03  0.10976336187E+03  0.00000000000E+00 0.  1.
</event>
<event>
 4    1  0.3752836E+003  0.2152445E+02  0.7546771E-02  0.1511907E+00
          2   -1    0    0  502    0  0.00000000000E+00  0.00000000000E+00  0.16441184162E+02  0.16441184162E+02  0.00000000000E+00 0.  1.
          1   -1    0    0  501    0 -0.00000000000E+00 -0.00000000000E+00 -0.27754264818E+03  0.27754264818E+03  0.00000000000E+00 0. -1.
          2    1    1    2  501    0 -0.20070485437E+02 -0.77767260534E+01  0.87793381266E+01  0.23246045507E+02  0.00000000000E+00 0.  1.
          1    1    1    2  502    0  0.20070485437E+02  0.77767260534E+01 -0.26988080215E+03  0.27073778684E+03  0.00000000000E+00 0. -1.
</event>
<event>
 4    1  0.3752836E+003  0.2201168E+02  0.7546771E-02  0.1505296E+00
          2   -1    0    0  502    0  0.00000000000E+00  0.00000000000E+00  0.18615180830E+03  0.18615180830E+03  0.00000000000E+00 0.  1.
          1   -1    0    0  501    0 -0.00000000000E+00 -0.00000000000E+00 -0.16313823784E+02  0.16313823784E+02  0.00000000000E+00 0.  1.
          2    1    1    2  501    0  0.17760642513E+02  0.13002830294E+02  0.17772552314E+03  0.17908343194E+03  0.00000000000E+00 0.  1.
          1    1    1    2  502    0 -0.17760642513E+02 -0.13002830294E+02 -0.78875386263E+01  0.23382200147E+02  0.00000000000E+00 0.  1.
</event>
<event>
 4    1  0.3752836E+003  0.2459064E+02  0.7546771E-02  0.1473435E+00
          2   -1    0    0  502    0  0.00000000000E+00  0.00000000000E+00  0.82918018069E+03  0.82918018069E+03  0.00000000000E+00 0.  1.
          1   -1    0    0  501    0 -0.00000000000E+00 -0.00000000000E+00 -0.93019074599E+02  0.93019074599E+02  0.00000000000E+00 0. -1.
          2    1    1    2  501    0 -0.88734355816E+01 -0.22933857341E+02  0.82736910202E+03  0.82773445660E+03  0.00000000000E+00 0.  1.
          1    1    1    2  502    0  0.88734355816E+01  0.22933857341E+02 -0.91207995923E+02  0.94464798692E+02  0.00000000000E+00 0. -1.
</event>
<event>
 4    1  0.3752836E+003  0.6725533E+02  0.7546771E-02  0.1236992E+00
          2   -1    0    0  502    0  0.00000000000E+00  0.00000000000E+00  0.20434863955E+04  0.20434863955E+04  0.00000000000E+00 0.  1.
          1   -1    0    0  501    0 -0.00000000000E+00 -0.00000000000E+00 -0.25746192951E+01  0.25746192951E+01  0.00000000000E+00 0.  1.
          2    1    1    2  501    0  0.23238468105E+01  0.67215135871E+02  0.63732052601E+03  0.64085936649E+03  0.00000000000E+00 0.  1.
          1    1    1    2  502    0 -0.23238468105E+01 -0.67215135871E+02  0.14035912502E+04  0.14052016483E+04  0.00000000000E+00 0.  1.
</event>
<event>
 4    1  0.3752836E+003  0.2470570E+02  0.7546771E-02  0.1472123E+00
          2   -1    0    0  502    0  0.00000000000E+00  0.00000000000E+00  0.83660520247E+02  0.83660520247E+02  0.00000000000E+00 0.  1.
          1   -1    0    0  501    0 -0.00000000000E+00 -0.00000000000E+00 -0.12347695869E+02  0.12347695869E+02  0.00000000000E+00 0.  1.
          2    1    1    2  501    0 -0.24432423872E+02 -0.36643852340E+01  0.49511851348E+01  0.25196930163E+02  0.00000000000E+00 0.  1.
          1    1    1    2  502    0  0.24432423872E+02  0.36643852340E+01  0.66361639243E+02  0.70811285953E+02  0.00000000000E+00 0.  1.
</event>
<event>
 4    1  0.3752836E+003  0.2706365E+02  0.7546771E-02  0.1446970E+00
          2   -1    0    0  502    0  0.00000000000E+00  0.00000000000E+00  0.43089725907E+03  0.43089725907E+03  0.00000000000E+00 0. -1.
          1   -1    0    0  501    0 -0.00000000000E+00 -0.00000000000E+00 -0.18794917343E+01  0.18794917343E+01  0.00000000000E+00 0. -1.
          2    1    1    2  501    0  0.26523377581E+02  0.53806193710E+01  0.14760155883E+03  0.15006218975E+03  0.00000000000E+00 0. -1.
          1    1    1    2  502    0 -0.26523377581E+02 -0.53806193710E+01  0.28141620851E+03  0.28271456106E+03  0.00000000000E+00 0. -1.
</event>
<event>
 4    1  0.3752836E+003  0.2161621E+02  0.7546771E-02  0.1510646E+00
          2   -1    0    0  502    0  0.00000000000E+00  0.00000000000E+00  0.46323621739E+03  0.46323621739E+03  0.00000000000E+00 0. -1.
          1   -1    0    0  501    0 -0.00000000000E+00 -0.00000000000E+00 -0.91103756137E+02  0.91103756137E+02  0.00000000000E+00 0. -1.
          2    1    1    2  501    0  0.21242988837E+02  0.39995075825E+01  0.46169755356E+03  0.46220330116E+03  0.00000000000E+00 0. -1.
          1    1    1    2  502    0 -0.21242988837E+02 -0.39995075825E+01 -0.89565092308E+02  0.92136672372E+02  0.00000000000E+00 0. -1.
</event>
<event>
 4    1  0.3752836E+003  0.2025727E+02  0.7546771E-02  0.1530139E+00
          2   -1    0    0  502    0  0.00000000000E+00  0.00000000000E+00  0.14771451315E+03  0.14771451315E+03  0.00000000000E+00 0.  1.
          1   -1    0    0  501    0 -0.00000000000E+00 -0.00000000000E+00 -0.20238105661E+02  0.20238105661E+02  0.00000000000E+00 0. -1.
          2    1    1    2  501    0 -0.19316988942E+02  0.61000822476E+01  0.14173823397E+03  0.14317850409E+03  0.00000000000E+00 0.  1.
          1    1    1    2  502    0  0.19316988942E+02 -0.61000822476E+01 -0.14261826485E+02  0.24774114714E+02  0.00000000000E+00 0. -1.
</event>
<event>
 4    1  0.3752836E+003  0.3473615E+02  0.7546771E-02  0.1382428E+00
          2   -1    0    0  502    0  0.00000000000E+00  0.00000000000E+00  0.18875476482E+03  0.18875476482E+03  0.00000000000E+00 0.  1.
          1   -1    0    0  501    0 -0.00000000000E+00 -0.00000000000E+00 -0.19212357044E+02  0.19212357044E+02  0.00000000000E+00 0.  1.
          2    1    1    2  501    0  0.28881199592E+02  0.19299654361E+02  0.16971218097E+03  0.17323055365E+03  0.00000000000E+00 0.  1.
          1    1    1    2  502    0 -0.28881199592E+02 -0.19299654361E+02 -0.16977319310E+00  0.34736568214E+02  0.00000000000E+00 0.  1.
</event>
<event>
 4    1  0.3752836E+003  0.2274700E+02  0.7546771E-02  0.1495700E+00
          2   -1    0    0  502    0  0.00000000000E+00  0.00000000000E+00  0.30022078904E+01  0.30022078904E+01  0.00000000000E+00 0.  1.
          1   -1    0    0  501    0 -0.00000000000E+00 -0.00000000000E+00 -0.49418046742E+03  0.49418046742E+03  0.00000000000E+00 0. -1.
          2    1    1    2  501    0 -0.20432131486E+02 -0.99977070095E+01 -0.44976732625E+02  0.50401712472E+02  0.00000000000E+00 0.  1.
          1    1    1    2  502    0  0.20432131486E+02  0.99977070095E+01 -0.44620152690E+03  0.44678096284E+03  0.00000000000E+00 0. -1.
</event>
<event>
 4    1  0.3752836E+003  0.3838360E+02  0.7546771E-02  0.1358227E+00
          2   -1    0    0  502    0  0.00000000000E+00  0.00000000000E+00  0.18713382520E+03  0.18713382520E+03  0.00000000000E+00 0. -1.
          1   -1    0    0  501    0 -0.00000000000E+00 -0.00000000000E+00 -0.11528213390E+02  0.11528213390E+02  0.00000000000E+00 0.  1.
          2    1    1    2  501    0 -0.29446623487E+00  0.38382466595E+02  0.14373496383E+03  0.14877177245E+03  0.00000000000E+00 0. -1.
          1    1    1    2  502    0  0.29446623487E+00 -0.38382466595E+02  0.31870647976E+02  0.49890266131E+02  0.00000000000E+00 0.  1.
</event>
<event>
 4    1  0.3752836E+003  0.2047178E+02  0.7546771E-02  0.1526942E+00
          2   -1    0    0  502    0  0.00000000000E+00  0.00000000000E+00  0.50111384423E+01  0.50111384423E+01  0.00000000000E+00 0. -1.
          1   -1    0    0  501    0 -0.00000000000E+00 -0.00000000000E+00 -0.70716723349E+03  0.70716723349E+03  0.00000000000E+00 0.  1.
          2    1    1    2  501    0  0.19570486866E+02 -0.60074956879E+01 -0.16707473650E+02  0.26424110891E+02  0.00000000000E+00 0. -1.
          1    1    1    2  502    0 -0.19570486866E+02  0.60074956879E+01 -0.68544862140E+03  0.68575426104E+03  0.00000000000E+00 0.  1.
</event>
<event>
 4    1  0.3752836E+003  0.2758236E+02  0.7546771E-02  0.1441844E+00
          2   -1    0    0  502    0  0.00000000000E+00  0.00000000000E+00  0.18248897943E+02  0.18248897943E+02  0.00000000000E+00 0.  1.
          1   -1    0    0  501    0 -0.00000000000E+00 -0.00000000000E+00 -0.90509630460E+02  0.90509630460E+02  0.00000000000E+00 0.  1.
          2    1    1    2  501    0  0.16026446251E+02  0.22448603012E+02  0.38075648211E+01  0.27843927641E+02  0.00000000000E+00 0.  1.
          1    1    1    2  502    0 -0.16026446251E+02 -0.22448603012E+02 -0.76068297338E+02  0.80914600762E+02  0.00000000000E+00 0.  1.
</event>
<event>
 4    1  0.3752836E+003  0.2286494E+02  0.7546771E-02  0.1494201E+00
          2   -1    0    0  502    0  0.00000000000E+00  0.00000000000E+00  0.10016492463E+04  0.10016492463E+04  0.00000000000E+00 0.  1.
          1   -1    0    0  501    0 -0.00000000000E+00 -0.00000000000E+00 -0.54764339181E+01  0.54764339181E+01  0.00000000000E+00 0. -1.
          2    1    1    2  501    0  0.26240733072E+01  0.22713863619E+02  0.97705186963E+03  0.97731937529E+03  0.00000000000E+00 0.  1.
          1    1    1    2  502    0 -0.26240733072E+01 -0.22713863619E+02  0.19120942716E+02  0.29806304897E+02  0.00000000000E+00 0. -1.
</event>
<event>
 4    1  0.3752836E+003  0.2849162E+02  0.7546771E-02  0.1433174E+00
          2   -1    0    0  502    0  0.00000000000E+00  0.00000000000E+00  0.44035697811E+01  0.44035697811E+01  0.00000000000E+00 0. -1.
          1   -1    0    0  501    0 -0.00000000000E+00 -0.00000000000E+00 -0.28531051658E+03  0.28531051658E+03  0.00000000000E+00 0. -1.
          2    1    1    2  501    0  0.12394066702E+02  0.25654619277E+02 -0.54280899545E+02  0.61304065404E+02  0.00000000000E+00 0. -1.
          1    1    1    2  502    0 -0.12394066702E+02 -0.25654619277E+02 -0.22662604725E+03  0.22841002095E+03  0.00000000000E+00 0. -1.
</event>
<event>
 4    1  0.3752836E+003  0.2298394E+02  0.7546771E-02  0.1492700E+00
          2   -1    0    0  502    0  0.00000000000E+00  0.00000000000E+00  0.14333512326E+02  0.14333512326E+02  0.00000000000E+00 0. -1.
          1   -1    0    0  501    0 -0.00000000000E+00 -0.00000000000E+00 -0.99773333228E+02  0.99773333228E+02  0.00000000000E+00 0. -1.
          2    1    1    2  501    0  0.12904544718E+02 -0.19019313376E+02  0.25868570550E+01  0.23129059321E+02  0.00000000000E+00 0. -1.
          1    1    1    2  502    0 -0.12904544718E+02  0.19019313376E+02 -0.88026677957E+02  0.90977786233E+02  0.00000000000E+00 0. -1.
</event>
<event>
 4    1  0.3752836E+003  0.2598403E+02  0.7546771E-02  0.1458089E+00
          2   -1    0    0  502    0  0.00000000000E+00  0.00000000000E+00  0.44599489408E+03  0.44599489408E+03  0.00000000000E+00 0. -1.
          1   -1    0    0  501    0 -0.00000000000E+00 -0.00000000000E+00 -0.15415499410E+03  0.15415499410E+03  0.00000000000E+00 0. -1.
          2    1    1    2  501    0  0.25969434758E+02 -0.87087976516E+00  0.44451784288E+03  0.44527663605E+03  0.00000000000E+00 0. -1.
          1    1    1    2  502    0 -0.25969434758E+02  0.87087976516E+00 -0.15267794291E+03  0.15487325213E+03  0.00000000000E+00 0. -1.
</event>
<event>
 4    1  0.3752836E+003  0.2103686E+02  0.7546771E-02  0.1518739E+00
          2   -1    0    0  502    0  0.00000000000E+00  0.00000000000E+00  0.95635441041E+01  0.95635441041E+01  0.00000000000E+00 0.  1.
          1   -1    0    0  501    0 -0.00000000000E+00 -0.00000000000E+00 -0.32171515156E+03  0.32171515156E+03  0.00000000000E+00 0.  1.
          2    1    1    2  501    0 -0.34634996593E+01 -0.20749781912E+02 -0.28112638516E+01  0.21223865899E+02  0.00000000000E+00 0.  1.
          1    1    1    2  502    0  0.34634996593E+01  0.20749781912E+02 -0.30934034360E+03  0.31005482977E+03  0.00000000000E+00 0.  1.
</event>
<event>
 4    1  0.3752836E+003  0.2025935E+02  0.7546771E-02  0.1530107E+00
          2   -1    0    0  502    0  0.00000000000E+00  0.00000000000E+00  0.69488937262E+01  0.69488937262E+01  0.00000000000E+00 0. -1.
          1   -1    0    0  501    0 -0.00000000000E+00 -0.00000000000E+00 -0.69063806385E+02  0.69063806385E+02  0.00000000000E+00 0. -1.
          2    1    1    2  501    0 -0.72157061010E+01  0.18930793008E+02 -0.16596747603E+02  0.26189566042E+02  0.00000000000E+00 0. -1.
          1    1    1    2  502    0  0.72157061010E+01 -0.18930793008E+02 -0.45518165055E+02  0.49823134069E+02  0.00000000000E+00 0. -1.
</event>
<event>
 4    1  0.3752836E+003  0.4839799E+02  0.7546771E-02  0.1305272E+00
          2   -1    0    0  502    0  0.00000000000E+00  0.00000000000E+00  0.18588901912E+03  0.18588901912E+03  0.00000000000E+00 0. -1.
          1   -1    0    0  501    0 -0.00000000000E+00 -0.00000000000E+00 -0.86745546446E+02  0.86745546446E+02  0.00000000000E+00 0.  1.
          2    1    1    2  501    0  0.46320190655E+02  0.14028749979E+02  0.17559980315E+03  0.18214734902E+03  0.00000000000E+00 0. -1.
          1    1    1    2  502    0 -0.46320190655E+02 -0.14028749979E+02 -0.76456330477E+02  0.90487216546E+02  0.00000000000E+00 0.  1.
</event>
<event>
 4    1  0.3752836E+003  0.5065578E+02  0.7546771E-02  0.1295354E+00
          2   -1    0    0  502    0  0.00000000000E+00  0.00000000000E+00  0.16371175901E+02  0.16371175901E+02  0.00000000000E+00 0.  1.
          1   -1    0    0  501    0 -0.00000000000E+00 -0.00000000000E+00 -0.46376789433E+03  0.46376789433E+03  0.00000000000E+00 0.  1.
          2    1    1    2  501    0  0.24592714536E+02 -0.44285506226E+02 -0.28365152596E+02  0.58056778688E+02  0.00000000000E+00 0.  1.
          1    1    1    2  502    0 -0.24592714536E+02  0.44285506226E+02 -0.41903156583E+03  0.42208229154E+03  0.00000000000E+00 0.  1.
</event>
<event>
 4    1  0.5046870E+003  0.2305455E+02  0.7546771E-02  0.1491814E+00
          2   -1    0    0  502    0  0.00000000000E+00  0.00000000000E+00  0.10003427447E+04  0.10003427447E+04  0.00000000000E+00 0. -1.
          1   -1    0    0  501    0 -0.00000000000E+00 -0.00000000000E+00 -0.11354475150E+04  0.11354475150E+04  0.00000000000E+00 0.  1.
          2    1    1    2  501    0  0.13557174512E+02  0.18647122149E+02  0.10000928559E+04  0.10003585520E+04  0.00000000000E+00 0. -1.
          1    1    1    2  502    0 -0.13557174512E+02 -0.18647122149E+02 -0.11351976263E+04  0.11354317077E+04  0.00000000000E+00 0.  1.
</event>
<event>
 4    1  0.3752836E+003  0.2317340E+02  0.7546771E-02  0.1490332E+00
          2   -1    0    0  502    0  0.00000000000E+00  0.00000000000E+00  0.11353537063E+04  0.11353537063E+04  0.00000000000E+00 0. -1.
          1   -1    0    0  501    0 -0.00000000000E+00 -0.00000000000E+00 -0.18580418322E+01  0.18580418322E+01  0.00000000000E+00 0. -1.
          2    1    1    2  501    0  0.10771242575E+02  0.20517966577E+02  0.10576751613E+04  0.10579289927E+04  0.00000000000E+00 0. -1.
          1    1    1    2  502    0 -0.10771242575E+02 -0.20517966577E+02  0.75820503151E+02  0.79282755484E+02  0.00000000000E+00 0. -1.
</event>
<event>
 4    1  0.3752836E+003  0.2229276E+02  0.7546771E-02  0.1501575E+00
          2   -1    0    0  502    0  0.00000000000E+00  0.00000000000E+00  0.78842580944E+02  0.78842580944E+02  0.00000000000E+00 0. -1.
          1   -1    0    0  501    0 -0.00000000000E+00 -0.00000000000E+00 -0.73905313415E+02  0.73905313415E+02  0.00000000000E+00 0. -1.
          2    1    1    2  501    0 -0.21347583348E+02 -0.64224435181E+01  0.75513092489E+02  0.78734961947E+02  0.00000000000E+00 0. -1.
          1    1    1    2  502    0  0.21347583348E+02  0.64224435181E+01 -0.70575824960E+02  0.74012932412E+02  0.00000000000E+00 0. -1.
</event>
<event>
 4    1  0.3752836E+003  0.4850324E+02  0.7546771E-02  0.1304796E+00
          2   -1    0    0  502    0  0.00000000000E+00  0.00000000000E+00  0.23076279279E+01  0.23076279279E+01  0.00000000000E+00 0. -1.
          1   -1    0    0  501    0 -0.00000000000E+00 -0.00000000000E+00 -0.18854020113E+04  0.18854020113E+04  0.00000000000E+00 0.  1.
          2    1    1    2  501    0 -0.22550817398E+02  0.42942106870E+02 -0.30189423794E+03  0.30576575153E+03  0.00000000000E+00 0. -1.
          1    1    1    2  502    0  0.22550817398E+02 -0.42942106870E+02 -0.15812001454E+04  0.15819438877E+04  0.00000000000E+00 0.  1.
</event>
<event>
 4    1  0.3752836E+003  0.3452733E+02  0.7546771E-02  0.1383917E+00
          2   -1    0    0  502    0  0.00000000000E+00  0.00000000000E+00  0.53577497998E+03  0.53577497998E+03  0.00000000000E+00 0. -1.
          1   -1    0    0  501    0 -0.00000000000E+00 -0.00000000000E+00 -0.76992384728E+02  0.76992384728E+02  0.00000000000E+00 0.  1.
          2    1    1    2  501    0 -0.33160273947E+02  0.96193993498E+01  0.53131529907E+03  0.53243599018E+03  0.00000000000E+00 0. -1.
          1    1    1    2  502    0  0.33160273947E+02 -0.96193993498E+01 -0.72532703813E+02  0.80331374534E+02  0.00000000000E+00 0.  1.
</event>
<event>
 4    1  0.3752836E+003  0.2358802E+02  0.7546771E-02  0.1485243E+00
          2   -1    0    0  502    0  0.00000000000E+00  0.00000000000E+00  0.10395607810E+03  0.10395607810E+03  0.00000000000E+00 0. -1.
          1   -1    0    0  501    0 -0.00000000000E+00 -0.00000000000E+00 -0.28847456131E+02  0.28847456131E+02  0.00000000000E+00 0. -1.
          2    1    1    2  501    0  0.21453699345E+02  0.98047623863E+01  0.97480394033E+02  0.10029367778E+03  0.00000000000E+00 0. -1.
          1    1    1    2  502    0 -0.21453699345E+02 -0.98047623863E+01 -0.22371772068E+02  0.32509856451E+02  0.00000000000E+00 0. -1.
</event>
<event>
 4    1  0.3752836E+003  0.4022364E+02  0.7546771E-02  0.1347180E+00
          2   -1    0    0  502    0  0.00000000000E+00  0.00000000000E+00  0.23269520770E+02  0.23269520770E+02  0.00000000000E+00 0.  1.
          1   -1    0    0  501    0 -0.00000000000E+00 -0.00000000000E+00 -0.14815599103E+03  0.14815599103E+03  0.00000000000E+00 0.  1.
          2    1    1    2  501    0 -0.31289444739E+02 -0.25276699681E+02 -0.25590692419E-02  0.40223636154E+02  0.00000000000E+00 0.  1.
          1    1    1    2  502    0  0.31289444739E+02  0.25276699681E+02 -0.12488391119E+03  0.13120187564E+03  0.00000000000E+00 0.  1.
</event>
<event>
 4    1  0.3752836E+003  0.3068199E+02  0.7546771E-02  0.1413761E+00
          2   -1    0    0  502    0  0.00000000000E+00  0.00000000000E+00  0.22687891460E+03  0.22687891460E+03  0.00000000000E+00 0.  1.
          1   -1    0    0  501    0 -0.00000000000E+00 -0.00000000000E+00 -0.31750138836E+03  0.31750138836E+03  0.00000000000E+00 0. -1.
          2    1    1    2  501    0 -0.30631701102E+02  0.17559763831E+01  0.22509450059E+03  0.22717596431E+03  0.00000000000E+00 0.  1.
          1    1    1    2  502    0  0.30631701102E+02 -0.17559763831E+01 -0.31571697435E+03  0.31720433864E+03  0.00000000000E+00 0. -1.
</event>
<event>
 4    1  0.3752836E+003  0.2118293E+02  0.7546771E-02  0.1516669E+00
          2   -1    0    0  502    0  0.00000000000E+00  0.00000000000E+00  0.14997151702E+04  0.14997151702E+04  0.00000000000E+00 0.  1.
          1   -1    0    0  501    0 -0.00000000000E+00 -0.00000000000E+00 -0.13456216378E+01  0.13456216378E+01  0.00000000000E+00 0.  1.
          2    1    1    2  501    0 -0.11936007737E+01  0.21149279126E+02  0.14110352658E+04  0.14111942595E+04  0.00000000000E+00 0.  1.
          1    1    1    2  502    0  0.11936007737E+01 -0.21149279126E+02  0.87334282766E+02  0.89866532350E+02  0.00000000000E+00 0.  1.
</event>
<event>
 4    1  0.3752836E+003  0.2218096E+02  0.7546771E-02  0.1503047E+00
          2   -1    0    0  502    0  0.00000000000E+00  0.00000000000E+00  0.41412819830E+02  0.41412819830E+02  0.00000000000E+00 0. -1.
          1   -1    0    0  501    0 -0.00000000000E+00 -0.00000000000E+00 -0.39947131052E+02  0.39947131052E+02  0.00000000000E+00 0.  1.
          2    1    1    2  501    0  0.20126440791E+02 -0.93231543849E+01  0.34831317283E+02  0.41294254930E+02  0.00000000000E+00 0. -1.
          1    1    1    2  502    0 -0.20126440791E+02  0.93231543849E+01 -0.33365628505E+02  0.40065695952E+02  0.00000000000E+00 0.  1.
</event>
<event>
 4    1  0.3752836E+003  0.2595273E+02  0.7546771E-02  0.1458421E+00
          2   -1    0    0  502    0  0.00000000000E+00  0.00000000000E+00  0.77631254661E+01  0.77631254661E+01  0.00000000000E+00 0. -1.
          1   -1    0    0  501    0 -0.00000000000E+00 -0.00000000000E+00 -0.48112056482E+03  0.48112056482E+03  0.00000000000E+00 0.  1.
          2    1    1    2  501    0  0.25361890274E+02 -0.55062554813E+01 -0.15372189432E+02  0.30163695656E+02  0.00000000000E+00 0. -1.
          1    1    1    2  502    0 -0.25361890274E+02  0.55062554813E+01 -0.45798524992E+03  0.45871999463E+03  0.00000000000E+00 0.  1.
</event>
<event>
 4    1  0.3752836E+003  0.2194106E+02  0.7546771E-02  0.1506241E+00
          2   -1    0    0  502    0  0.00000000000E+00  0.00000000000E+00  0.15410485685E+04  0.15410485685E+04  0.00000000000E+00 0.  1.
          1   -1    0    0  501    0 -0.00000000000E+00 -0.00000000000E+00 -0.94921468068E+02  0.94921468068E+02  0.00000000000E+00 0.  1.
          2    1    1    2  501    0  0.13624548212E+02  0.17198303596E+02  0.15397014450E+04  0.15398577693E+04  0.00000000000E+00 0.  1.
          1    1    1    2  502    0 -0.13624548212E+02 -0.17198303596E+02 -0.93574344558E+02  0.96112267271E+02  0.00000000000E+00 0.  1.
</event>
<event>
 4    1  0.3752836E+003  0.5511994E+02  0.7546771E-02  0.1277380E+00
          2   -1    0    0  502    0  0.00000000000E+00  0.00000000000E+00  0.33208557019E+01  0.33208557019E+01  0.00000000000E+00 0.  1.
          1   -1    0    0  501    0 -0.00000000000E+00 -0.00000000000E+00 -0.13732458542E+04  0.13732458542E+04  0.00000000000E+00 0.  1.
          2    1    1    2  501    0  0.12360885743E+01 -0.55106077507E+02 -0.28731712595E+03  0.29255655617E+03  0.00000000000E+00 0.  1.
          1    1    1    2  502    0 -0.12360885743E+01  0.55106077507E+02 -0.10826078725E+04  0.10840101537E+04  0.00000000000E+00 0.  1.
</event>
<event>
 4    1  0.3752836E+003  0.5206840E+02  0.7546771E-02  0.1289445E+00
          2   -1    0    0  502    0  0.00000000000E+00  0.00000000000E+00  0.18472786296E+04  0.18472786296E+04  0.00000000000E+00 0.  1.
          1   -1    0    0  501    0 -0.00000000000E+00 -0.00000000000E+00 -0.19853713811E+02  0.19853713811E+02  0.00000000000E+00 0.  1.
          2    1    1    2  501    0 -0.51388464770E+02  0.83871569263E+01  0.18121106381E+04  0.18128585393E+04  0.00000000000E+00 0.  1.
          1    1    1    2  502    0  0.51388464770E+02 -0.83871569263E+01  0.15314277671E+02  0.54273804117E+02  0.00000000000E+00 0.  1.
</event>
<event>
 4    1  0.3752836E+003  0.3293697E+02  0.7546771E-02  0.1395677E+00
          2   -1    0    0  502    0  0.00000000000E+00  0.00000000000E+00  0.69222922361E+03  0.69222922361E+03  0.00000000000E+00 0.  1.
          1   -1    0    0  501    0 -0.00000000000E+00 -0.00000000000E+00 -0.15849921990E+02  0.15849921990E+02  0.00000000000E+00 0.  1.
          2    1    1    2  501    0 -0.13189659578E+02 -0.30180736910E+02  0.67427077584E+03  0.67507475376E+03  0.00000000000E+00 0.  1.
          1    1    1    2  502    0  0.13189659578E+02  0.30180736910E+02  0.21085257783E+01  0.33004391847E+02  0.00000000000E+00 0.  1.
</event>
<event>
 4    1  0.3752836E+003  0.2204610E+02  0.7546771E-02  0.1504837E+00
          2   -1    0    0  502    0  0.00000000000E+00  0.00000000000E+00  0.83213782651E+03  0.83213782651E+03  0.00000000000E+00 0.  1.
          1   -1    0    0  501    0 -0.00000000000E+00 -0.00000000000E+00 -0.96806656000E+00  0.96806656000E+00  0.00000000000E+00 0.  1.
          2    1    1    2  501    0 -0.17677533282E+02 -0.13173278457E+02  0.67793347861E+03  0.67829184860E+03  0.00000000000E+00 0.  1.
          1    1    1    2  502    0  0.17677533282E+02  0.13173278457E+02  0.15323628133E+03  0.15481404447E+03  0.00000000000E+00 0.  1.
</event>
<event>
 4    1  0.3752836E+003  0.2760671E+02  0.7546771E-02  0.1441607E+00
          2   -1    0    0  502    0  0.00000000000E+00  0.00000000000E+00  0.99542241819E+03  0.99542241819E+03  0.00000000000E+00 0.  1.
          1   -1    0    0  501    0 -0.00000000000E+00 -0.00000000000E+00 -0.11968537274E+01  0.11968537274E+01  0.00000000000E+00 0. -1.
          2    1    1    2  501    0  0.26268317084E+02 -0.84915271239E+01  0.79622036018E+03  0.79669880914E+03  0.00000000000E+00 0.  1.
          1    1    1    2  502    0 -0.26268317084E+02  0.84915271239E+01  0.19800520428E+03  0.19992046278E+03  0.00000000000E+00 0. -1.
</event>
<event>
 4    1  0.3752836E+003  0.2355281E+02  0.7546771E-02  0.1485671E+00
          2   -1    0    0  502    0  0.00000000000E+00  0.00000000000E+00  0.17031304033E+02  0.17031304033E+02  0.00000000000E+00 0. -1.
          1   -1    0    0  501    0 -0.00000000000E+00 -0.00000000000E+00 -0.37519743051E+03  0.37519743051E+03  0.00000000000E+00 0. -1.
          2    1    1    2  501    0  0.20467988842E+02  0.11653160902E+02  0.83255780219E+01  0.24980992287E+02  0.00000000000E+00 0. -1.
          1    1    1    2  502    0 -0.20467988842E+02 -0.11653160902E+02 -0.36649170450E+03  0.36724774226E+03  0.00000000000E+00 0. -1.
</event>
<event>
 4    1  0.3752836E+003  0.2024762E+02  0.7546771E-02  0.1530284E+00
          2   -1    0    0  502    0  0.00000000000E+00  0.00000000000E+00  0.12863484875E+04  0.12863484875E+04  0.00000000000E+00 0. -1.
          1   -1    0    0  501    0 -0.00000000000E+00 -0.00000000000E+00 -0.10680693035E+01  0.10680693035E+01  0.00000000000E+00 0. -1.
          2    1    1    2  501    0  0.19872968558E+02  0.38769929161E+01  0.11818227488E+04  0.11819961825E+04  0.00000000000E+00 0. -1.
          1    1    1    2  502    0 -0.19872968558E+02 -0.38769929161E+01  0.10345766941E+03  0.10542037428E+03  0.00000000000E+00 0. -1.
</event>
<event>
 4    1  0.3752836E+003  0.2412979E+02  0.7546771E-02  0.1478779E+00
          2   -1    0    0  502    0  0.00000000000E+00  0.00000000000E+00  0.13778848903E+03  0.13778848903E+03  0.00000000000E+00 0.  1.
          1   -1    0    0  501    0 -0.00000000000E+00 -0.00000000000E+00 -0.23873427713E+02  0.23873427713E+02  0.00000000000E+00 0.  1.
          2    1    1    2  501    0 -0.42580712704E+01 -0.23751115078E+02  0.13028673956E+03  0.13250238165E+03  0.00000000000E+00 0.  1.
          1    1    1    2  502    0  0.42580712704E+01  0.23751115078E+02 -0.16371678241E+02  0.29159535092E+02  0.00000000000E+00 0.  1.
</event>
<event>
 4    1  0.3752836E+003  0.2739630E+02  0.7546771E-02  0.1443667E+00
          2   -1    0    0  502    0  0.00000000000E+00  0.00000000000E+00  0.10119493021E+04  0.10119493021E+04  0.00000000000E+00 0.  1.
          1   -1    0    0  501    0 -0.00000000000E+00 -0.00000000000E+00 -0.25021175344E+01  0.25021175344E+01  0.00000000000E+00 0.  1.
          2    1    1    2  501    0 -0.21447197858E+02 -0.17046263851E+02  0.93018081930E+03  0.93058417889E+03  0.00000000000E+00 0.  1.
          1    1    1    2  502    0  0.21447197858E+02  0.17046263851E+02  0.79266365228E+02  0.83867240706E+02  0.00000000000E+00 0.  1.
</event>
<event>
 4    1  0.3752836E+003  0.2030114E+02  0.7546771E-02  0.1529481E+00
          2   -1    0    0  502    0  0.00000000000E+00  0.00000000000E+00  0.48188954781E+03  0.48188954781E+03  0.00000000000E+00 0.  1.
          1   -1    0    0  501    0 -0.00000000000E+00 -0.00000000000E+00 -0.49523428568E+01  0.49523428568E+01  0.00000000000E+00 0.  1.
          2    1    1    2  501    0  0.19067715288E+02  0.69683812385E+01  0.45987516476E+03  0.46032304230E+03  0.00000000000E+00 0.  1.
          1    1    1    2  502    0 -0.19067715288E+02 -0.69683812385E+01  0.17062040189E+02  0.26518848369E+02  0.00000000000E+00 0.  1.
</event>
<event>
 4    1  0.3752836E+003  0.2039811E+02  0.7546771E-02  0.1528034E+00
          2   -1    0    0  502    0  0.00000000000E+00  0.00000000000E+00  0.18615340052E+04  0.18615340052E+04  0.00000000000E+00 0.  1.
          1   -1    0    0  501    0 -0.00000000000E+00 -0.00000000000E+00 -0.22677325218E+00  0.22677325218E+00  0.00000000000E+00 0.  1.
          2    1    1    2  501    0  0.20396390820E+02  0.26477310452E+00  0.10422154057E+04  0.10424150012E+04  0.00000000000E+00 0.  1.
          1    1    1    2  502    0 -0.20396390820E+02 -0.26477310452E+00  0.81909182623E+03  0.81934577723E+03  0.00000000000E+00 0.  1.
</event>
<event>
 4    1  0.3752836E+003  0.2534906E+02  0.7546771E-02  0.1464936E+00
          2   -1    0    0  502    0  0.00000000000E+00  0.00000000000E+00  0.48941061932E+03  0.48941061932E+03  0.00000000000E+00 0. -1.
          1   -1    0    0  501    0 -0.00000000000E+00 -0.00000000000E+00 -0.14027761678E+01  0.14027761678E+01  0.00000000000E+00 0. -1.
          2    1    1    2  501    0  0.20227056465E+02 -0.15278755827E+02  0.18190540734E+03  0.18366314658E+03  0.00000000000E+00 0. -1.
          1    1    1    2  502    0 -0.20227056465E+02  0.15278755827E+02  0.30610243581E+03  0.30715024891E+03  0.00000000000E+00 0. -1.
</event>
<event>
 4    1  0.3752836E+003  0.2595305E+02  0.7546771E-02  0.1458418E+00
          2   -1    0    0  502    0  0.00000000000E+00  0.00000000000E+00  0.53512758312E+03  0.53512758312E+03  0.00000000000E+00 0. -1.
          1   -1    0    0  501    0 -0.00000000000E+00 -0.00000000000E+00 -0.13942537832E+01  0.13942537832E+01  0.00000000000E+00 0. -1.
          2    1    1    2  501    0  0.60517301010E+01  0.25237602164E+02  0.18321828256E+03  0.18504728873E+03  0.00000000000E+00 0. -1.
          1    1    1    2  502    0 -0.60517301010E+01 -0.25237602164E+02  0.35051504678E+03  0.35147454818E+03  0.00000000000E+00 0. -1.
</event>
<event>
 4    1  0.3752836E+003  0.2047394E+02  0.7546771E-02  0.1526910E+00
          2   -1    0    0  502    0  0.00000000000E+00  0.00000000000E+00  0.37624100453E+02  0.37624100453E+02  0.00000000000E+00 0.  1.
          1   -1    0    0  501    0 -0.00000000000E+00 -0.00000000000E+00 -0.24170529158E+03  0.24170529158E+03  0.00000000000E+00 0. -1.
          2    1    1    2  501    0 -0.17701403607E+02  0.10287982473E+02  0.34367228184E+02  0.40003607913E+02  0.00000000000E+00 0.  1.
          1    1    1    2  502    0  0.17701403607E+02 -0.10287982473E+02 -0.23844841931E+03  0.23932578412E+03  0.00000000000E+00 0. -1.
</event>
<event>
 4    1  0.3752836E+003  0.2005465E+02  0.7546771E-02  0.1533202E+00
          2   -1    0    0  502    0  0.00000000000E+00  0.00000000000E+00  0.24219684759E+03  0.24219684759E+03  0.00000000000E+00 0. -1.
          1   -1    0    0  501    0 -0.00000000000E+00 -0.00000000000E+00 -0.11052476746E+02  0.11052476746E+02  0.00000000000E+00 0. -1.
          2    1    1    2  501    0 -0.13392890291E+02  0.14927134882E+02  0.23229748421E+03  0.23316155352E+03  0.00000000000E+00 0. -1.
          1    1    1    2  502    0  0.13392890291E+02 -0.14927134882E+02 -0.11531133678E+01  0.20087770822E+02  0.00000000000E+00 0. -1.
</event>
<event>
 4    1  0.3752836E+003  0.2704215E+02  0.7546771E-02  0.1447185E+00
          2   -1    0    0  502    0  0.00000000000E+00  0.00000000000E+00  0.17315116849E+02  0.17315116849E+02  0.00000000000E+00 0. -1.
          1   -1    0    0  501    0 -0.00000000000E+00 -0.00000000000E+00 -0.75268424743E+03  0.75268424743E+03  0.00000000000E+00 0. -1.
          2    1    1    2  501    0 -0.36448293817E+00  0.27039698186E+02  0.63579275761E+01  0.27779513474E+02  0.00000000000E+00 0. -1.
          1    1    1    2  502    0  0.36448293817E+00 -0.27039698186E+02 -0.74172705816E+03  0.74221985080E+03  0.00000000000E+00 0. -1.
</event>
<event>
 4    1  0.3752836E+003  0.2117932E+02  0.7546771E-02  0.1516720E+00
          2   -1    0    0  502    0  0.00000000000E+00  0.00000000000E+00  0.33572362161E+03  0.33572362161E+03  0.00000000000E+00 0. -1.
          1   -1    0    0  501    0 -0.00000000000E+00 -0.00000000000E+00 -0.22833248835E+02  0.22833248835E+02  0.00000000000E+00 0. -1.
          2    1    1    2  501    0  0.17572817077E+02 -0.11822003422E+02  0.33039923038E+03  0.33107735517E+03  0.00000000000E+00 0. -1.
          1    1    1    2  502    0 -0.17572817077E+02  0.11822003422E+02 -0.17508857612E+02  0.27479515276E+02  0.00000000000E+00 0. -1.
</event>
<event>
 4    1  0.3752836E+003  0.2000122E+02  0.7546771E-02  0.1534017E+00
          2   -1    0    0  502    0  0.00000000000E+00  0.00000000000E+00  0.26502541405E+02  0.26502541405E+02  0.00000000000E+00 0.  1.
          1   -1    0    0  501    0 -0.00000000000E+00 -0.00000000000E+00 -0.21206742376E+03  0.21206742376E+03  0.00000000000E+00 0.  1.
          2    1    1    2  501    0  0.19530167295E+02 -0.43152524503E+01  0.22178893677E+02  0.29865568185E+02  0.00000000000E+00 0.  1.
          1    1    1    2  502    0 -0.19530167295E+02  0.43152524503E+01 -0.20774377604E+03  0.20870439698E+03  0.00000000000E+00 0.  1.
</event>
<event>
 4    1  0.3752836E+003  0.3278518E+02  0.7546771E-02  0.1396840E+00
          2   -1    0    0  502    0  0.00000000000E+00  0.00000000000E+00  0.11647317736E+03  0.11647317736E+03  0.00000000000E+00 0. -1.
          1   -1    0    0  501    0 -0.00000000000E+00 -0.00000000000E+00 -0.12103020082E+04  0.12103020082E+04  0.00000000000E+00 0. -1.
          2    1    1    2  501    0  0.32250463813E+02  0.58970853002E+01  0.11393919807E+03  0.11856225743E+03  0.00000000000E+00 0. -1.
          1    1    1    2  502    0 -0.32250463813E+02 -0.58970853002E+01 -0.12077680289E+04  0.12082129281E+04  0.00000000000E+00 0. -1.
</event>
<event>
 4    1  0.3752836E+003  0.2082838E+02  0.7546771E-02  0.1521729E+00
          2   -1    0    0  502    0  0.00000000000E+00  0.00000000000E+00  0.30201199860E+03  0.30201199860E+03  0.00000000000E+00 0. -1.
          1   -1    0    0  501    0 -0.00000000000E+00 -0.00000000000E+00 -0.32231776992E+03  0.32231776992E+03  0.00000000000E+00 0. -1.
          2    1    1    2  501    0 -0.19671468633E+02 -0.68450455801E+01  0.30131562679E+03  0.30203464747E+03  0.00000000000E+00 0. -1.
          1    1    1    2  502    0  0.19671468633E+02  0.68450455801E+01 -0.32162139811E+03  0.32229512104E+03  0.00000000000E+00 0. -1.
</event>
<event>
 4    1  0.3752836E+003  0.2425397E+02  0.7546771E-02  0.1477325E+00
          2   -1    0    0  502    0  0.00000000000E+00  0.00000000000E+00  0.19415864718E+03  0.19415864718E+03  0.00000000000E+00 0. -1.
          1   -1    0    0  501    0 -0.00000000000E+00 -0.00000000000E+00 -0.75111834248E+03  0.75111834248E+03  0.00000000000E+00 0. -1.
          2    1    1    2  501    0  0.14469755951E+01 -0.24210766071E+02  0.19320444989E+03  0.19472086275E+03  0.00000000000E+00 0. -1.
          1    1    1    2  502    0 -0.14469755951E+01  0.24210766071E+02 -0.75016414518E+03  0.75055612691E+03  0.00000000000E+00 0. -1.
</event>
<event>
 4    1  0.3752836E+003  0.2601291E+02  0.7546771E-02  0.1457784E+00
          2   -1    0    0  502    0  0.00000000000E+00  0.00000000000E+00  0.37143229797E+03  0.37143229797E+03  0.00000000000E+00 0.  1.
          1   -1    0    0  501    0 -0.00000000000E+00 -0.00000000000E+00 -0.21820713132E+01  0.21820713132E+01  0.00000000000E+00 0.  1.
          2    1    1    2  501    0 -0.25685165684E+02 -0.41162671501E+01  0.26053186156E+03  0.26182727566E+03  0.00000000000E+00 0.  1.
          1    1    1    2  502    0  0.25685165684E+02  0.41162671501E+01  0.10871836510E+03  0.11178709363E+03  0.00000000000E+00 0.  1.
</event>
<event>
 4    1  0.3752836E+003  0.3039555E+02  0.7546771E-02  0.1416190E+00
          2   -1    0    0  502    0  0.00000000000E+00  0.00000000000E+00  0.22713440800E+01  0.22713440800E+01  0.00000000000E+00 0.  1.
          1   -1    0    0  501    0 -0.00000000000E+00 -0.00000000000E+00 -0.12231239967E+04  0.12231239967E+04  0.00000000000E+00 0.  1.
          2    1    1    2  501    0 -0.17482694750E+02  0.24864526762E+02 -0.10986970210E+03  0.11399666989E+03  0.00000000000E+00 0.  1.
          1    1    1    2  502    0  0.17482694750E+02 -0.24864526762E+02 -0.11109829505E+04  0.11113986709E+04  0.00000000000E+00 0.  1.
</event>
<event>
 4    1  0.3752836E+003  0.2300879E+02  0.7546771E-02  0.1492388E+00
          2   -1    0    0  502    0  0.00000000000E+00  0.00000000000E+00  0.74078362927E+02  0.74078362927E+02  0.00000000000E+00 0. -1.
          1   -1    0    0  501    0 -0.00000000000E+00 -0.00000000000E+00 -0.19356500527E+03  0.19356500527E+03  0.00000000000E+00 0.  1.
          2    1    1    2  501    0 -0.10429835468E+02  0.20509098773E+02  0.71584737238E+02  0.75191616592E+02  0.00000000000E+00 0. -1.
          1    1    1    2  502    0  0.10429835468E+02 -0.20509098773E+02 -0.19107137959E+03  0.19245175161E+03  0.00000000000E+00 0.  1.
</event>
<event>
 4    1  0.3752836E+003  0.4947105E+02  0.7546771E-02  0.1300482E+00
          2   -1    0    0  502    0  0.00000000000E+00  0.00000000000E+00  0.13831937808E+02  0.13831937808E+02  0.00000000000E+00 0. -1.
          1   -1    0    0  501    0 -0.00000000000E+00 -0.00000000000E+00 -0.29509080828E+03  0.29509080828E+03  0.00000000000E+00 0. -1.
          2    1    1    2  501    0  0.39208124592E+02  0.30167986467E+02 -0.42890966207E+02  0.65475334467E+02  0.00000000000E+00 0. -1.
          1    1    1    2  502    0 -0.39208124592E+02 -0.30167986467E+02 -0.23836790426E+03  0.24344741162E+03  0.00000000000E+00 0. -1.
</event>
<event>
 4    1  0.3752836E+003  0.2080006E+02  0.7546771E-02  0.1522139E+00
          2   -1    0    0  502    0  0.00000000000E+00  0.00000000000E+00  0.33958982376E+03  0.33958982376E+03  0.00000000000E+00 0. -1.
          1   -1    0    0  501    0 -0.00000000000E+00 -0.00000000000E+00 -0.43014809684E+01  0.43014809684E+01  0.00000000000E+00 0.  1.
          2    1    1    2  501    0  0.92154925727E+01  0.18647172277E+02  0.31189618091E+03  0.31258897934E+03  0.00000000000E+00 0. -1.
          1    1    1    2  502    0 -0.92154925727E+01 -0.18647172277E+02  0.23392161877E+02  0.31302325386E+02  0.00000000000E+00 0.  1.
</event>
<event>
 4    1  0.3752836E+003  0.2299693E+02  0.7546771E-02  0.1492537E+00
          2   -1    0    0  502    0  0.00000000000E+00  0.00000000000E+00  0.10709004710E+04  0.10709004710E+04  0.00000000000E+00 0. -1.
          1   -1    0    0  501    0 -0.00000000000E+00 -0.00000000000E+00 -0.68163460447E+01  0.68163460447E+01  0.00000000000E+00 0. -1.
          2    1    1    2  501    0  0.80809780467E+01 -0.21530359581E+02  0.10510133276E+04  0.10512648921E+04  0.00000000000E+00 0. -1.
          1    1    1    2  502    0 -0.80809780467E+01  0.21530359581E+02  0.13070797379E+02  0.26451924959E+02  0.00000000000E+00 0. -1.
</event>
<event>
 4    1  0.3946741E+003  0.2938917E+02  0.7546771E-02  0.1424980E+00
          2   -1    0    0  502    0  0.00000000000E+00  0.00000000000E+00  0.89295156137E+03  0.89295156137E+03  0.00000000000E+00 0.  1.
          1   -1    0    0  501    0 -0.00000000000E+00 -0.00000000000E+00 -0.45882284779E+03  0.45882284779E+03  0.00000000000E+00 0. -1.
          2    1    1    2  501    0 -0.21636059142E+02 -0.19889802451E+02  0.89223874938E+03  0.89272263844E+03  0.00000000000E+00 0.  1.
          1    1    1    2  502    0  0.21636059142E+02  0.19889802451E+02 -0.45811003580E+03  0.45905177072E+03  0.00000000000E+00 0. -1.
</event>
<event>
 4    1  0.3752836E+003  0.2584645E+02  0.7546771E-02  0.1459553E+00
          2   -1    0    0  502    0  0.00000000000E+00  0.00000000000E+00  0.55983782947E+01  0.55983782947E+01  0.00000000000E+00 0.  1.
          1   -1    0    0  501    0 -0.00000000000E+00 -0.00000000000E+00 -0.14056096021E+03  0.14056096021E+03  0.00000000000E+00 0.  1.
          2    1    1    2  501    0  0.97940223913E+01 -0.23918947713E+02 -0.39077426190E+02  0.46851725389E+02  0.00000000000E+00 0.  1.
          1    1    1    2  502    0 -0.97940223913E+01  0.23918947713E+02 -0.95885155729E+02  0.99307613120E+02  0.00000000000E+00 0.  1.
</event>
<event>
 4    1  0.3752836E+003  0.2147849E+02  0.7546771E-02  0.1512542E+00
          2   -1    0    0  502    0  0.00000000000E+00  0.00000000000E+00  0.69105468187E+01  0.69105468187E+01  0.00000000000E+00 0. -1.
          1   -1    0    0  501    0 -0.00000000000E+00 -0.00000000000E+00 -0.41142903146E+03  0.41142903146E+03  0.00000000000E+00 0. -1.
          2    1    1    2  501    0  0.14517330867E+02 -0.15829487364E+02 -0.10809547364E+02  0.24045204926E+02  0.00000000000E+00 0. -1.
          1    1    1    2  502    0 -0.14517330867E+02  0.15829487364E+02 -0.39370893728E+03  0.39429437336E+03  0.00000000000E+00 0. -1.
</event>
<event>
 4    1  0.3752836E+003  0.2175663E+02  0.7546771E-02  0.1508731E+00
          2   -1    0    0  502    0  0.00000000000E+00  0.00000000000E+00  0.81002226933E+02  0.81002226933E+02  0.00000000000E+00 0.  1.
          1   -1    0    0  501    0 -0.00000000000E+00 -0.00000000000E+00 -0.74203461740E+03  0.74203461740E+03  0.00000000000E+00 0.  1.
          2    1    1    2  501    0  0.21218831788E+02  0.48075126593E+01  0.79378626956E+02  0.82306241670E+02  0.00000000000E+00 0.  1.
          1    1    1    2  502    0 -0.21218831788E+02 -0.48075126593E+01 -0.74041101742E+03  0.74073060266E+03  0.00000000000E+00 0.  1.
</event>
<event>
 4    1  0.3752836E+003  0.3042881E+02  0.7546771E-02  0.1415906E+00
          2   -1    0    0  502    0  0.00000000000E+00  0.00000000000E+00  0.56100863516E+03  0.56100863516E+03  0.00000000000E+00 0. -1.
          1   -1    0    0  501    0 -0.00000000000E+00 -0.00000000000E+00 -0.38678688196E+01  0.38678688196E+01  0.00000000000E+00 0.  1.
          2    1    1    2  501    0 -0.71395279720E+01 -0.29579376923E+02  0.49242186429E+03  0.49336113024E+03  0.00000000000E+00 0. -1.
          1    1    1    2  502    0  0.71395279720E+01  0.29579376923E+02  0.64718902053E+02  0.71515373744E+02  0.00000000000E+00 0.  1.
</event>
<event>
 4    1  0.3752836E+003  0.2409261E+02  0.7546771E-02  0.1479216E+00
          2   -1    0    0  502    0  0.00000000000E+00  0.00000000000E+00  0.23739494498E+02  0.23739494498E+02  0.00000000000E+00 0. -1.
          1   -1    0    0  501    0 -0.00000000000E+00 -0.00000000000E+00 -0.10608852208E+03  0.10608852208E+03  0.00000000000E+00 0.  1.
          2    1    1    2  501    0  0.23763838923E+02  0.39665973256E+01  0.15769645300E+02  0.28794715619E+02  0.00000000000E+00 0. -1.
          1    1    1    2  502    0 -0.23763838923E+02 -0.39665973256E+01 -0.98118672879E+02  0.10103330096E+03  0.00000000000E+00 0.  1.
</event>
<event>
 4    1  0.3752836E+003  0.2857366E+02  0.7546771E-02  0.1432410E+00
          2   -1    0    0  502    0  0.00000000000E+00  0.00000000000E+00  0.52776042171E+03  0.52776042171E+03  0.00000000000E+00 0.  1.
          1   -1    0    0  501    0 -0.00000000000E+00 -0.00000000000E+00 -0.11713113550E+03  0.11713113550E+03  0.00000000000E+00 0. -1.
          2    1    1    2  501    0  0.87099556104E+01  0.27213801510E+02  0.52562398236E+03  0.52640006189E+03  0.00000000000E+00 0.  1.
          1    1    1    2  502    0 -0.87099556104E+01 -0.27213801510E+02 -0.11499469616E+03  0.11849149532E+03  0.00000000000E+00 0. -1.
</event>
<event>
 4    1  0.3752836E+003  0.2791553E+02  0.7546771E-02  0.1438622E+00
          2   -1    0    0  502    0  0.00000000000E+00  0.00000000000E+00  0.14025210007E+04  0.14025210007E+04  0.00000000000E+00 0. -1.
          1   -1    0    0  501    0 -0.00000000000E+00 -0.00000000000E+00 -0.62710991760E+02  0.62710991760E+02  0.00000000000E+00 0.  1.
          2    1    1    2  501    0 -0.15981688372E+02  0.22888036270E+02  0.13992682546E+04  0.13995466855E+04  0.00000000000E+00 0. -1.
          1    1    1    2  502    0  0.15981688372E+02 -0.22888036270E+02 -0.59458245683E+02  0.65685306936E+02  0.00000000000E+00 0.  1.
</event>
<event>
 4    1  0.3752836E+003  0.3706484E+02  0.7546771E-02  0.1366601E+00
          2   -1    0    0  502    0  0.00000000000E+00  0.00000000000E+00  0.28806014741E+01  0.28806014741E+01  0.00000000000E+00 0.  1.
          1   -1    0    0  501    0 -0.00000000000E+00 -0.00000000000E+00 -0.24027630579E+04  0.24027630579E+04  0.00000000000E+00 0. -1.
          2    1    1    2  501    0 -0.36027882760E+02  0.87059870332E+01 -0.12308724465E+03  0.12854677103E+03  0.00000000000E+00 0.  1.
          1    1    1    2  502    0  0.36027882760E+02 -0.87059870332E+01 -0.22767952117E+04  0.22770968883E+04  0.00000000000E+00 0. -1.
</event>
<event>
 4    1  0.3752836E+003  0.2031853E+02  0.7546771E-02  0.1529221E+00
          2   -1    0    0  502    0  0.00000000000E+00  0.00000000000E+00  0.99285950956E+00  0.99285950956E+00  0.00000000000E+00 0. -1.
          1   -1    0    0  501    0 -0.00000000000E+00 -0.00000000000E+00 -0.44110297462E+03  0.44110297462E+03  0.00000000000E+00 0. -1.
          2    1    1    2  501    0 -0.16757537190E+01  0.20249311091E+02 -0.16712522767E+03  0.16835582697E+03  0.00000000000E+00 0. -1.
          1    1    1    2  502    0  0.16757537190E+01 -0.20249311091E+02 -0.27298488744E+03  0.27374000716E+03  0.00000000000E+00 0. -1.
</event>
<event>
 4    1  0.3752836E+003  0.2148001E+02  0.7546771E-02  0.1512521E+00
          2   -1    0    0  502    0  0.00000000000E+00  0.00000000000E+00  0.10144000255E+03  0.10144000255E+03  0.00000000000E+00 0.  1.
          1   -1    0    0  501    0 -0.00000000000E+00 -0.00000000000E+00 -0.23862361476E+02  0.23862361476E+02  0.00000000000E+00 0.  1.
          2    1    1    2  501    0 -0.43478552448E+01  0.21035372048E+02  0.95153640855E+02  0.97547968151E+02  0.00000000000E+00 0.  1.
          1    1    1    2  502    0  0.43478552448E+01 -0.21035372048E+02 -0.17575999778E+02  0.27754395879E+02  0.00000000000E+00 0.  1.
</event>
<event>
 4    1  0.3752836E+003  0.2554067E+02  0.7546771E-02  0.1462845E+00
          2   -1    0    0  502    0  0.00000000000E+00  0.00000000000E+00  0.31206153280E+03  0.31206153280E+03  0.00000000000E+00 0.  1.
          1   -1    0    0  501    0 -0.00000000000E+00 -0.00000000000E+00 -0.47408537537E+01  0.47408537537E+01  0.00000000000E+00 0. -1.
          2    1    1    2  501    0 -0.54678023589E+01  0.24948527374E+02  0.27209866721E+03  0.27329473207E+03  0.00000000000E+00 0.  1.
          1    1    1    2  502    0  0.54678023589E+01 -0.24948527374E+02  0.35222011838E+02  0.43507654484E+02  0.00000000000E+00 0. -1.
</event>
<event>
 4    1  0.3841849E+003  0.3609790E+02  0.7546771E-02  0.1373005E+00
          2   -1    0    0  502    0  0.00000000000E+00  0.00000000000E+00  0.14396590874E+04  0.14396590874E+04  0.00000000000E+00 0.  1.
          1   -1    0    0  501    0 -0.00000000000E+00 -0.00000000000E+00 -0.21019121506E+04  0.21019121506E+04  0.00000000000E+00 0. -1.
          2    1    1    2  501    0 -0.32579469630E+02  0.15544656337E+02  0.14392777825E+04  0.14397303891E+04  0.00000000000E+00 0.  1.
          1    1    1    2  502    0  0.32579469630E+02 -0.15544656337E+02 -0.21015308458E+04  0.21018408488E+04  0.00000000000E+00 0. -1.
</event>
<event>
 4    1  0.3752836E+003  0.4092881E+02  0.7546771E-02  0.1343127E+00
          2   -1    0    0  502    0  0.00000000000E+00  0.00000000000E+00  0.62915447410E+03  0.62915447410E+03  0.00000000000E+00 0.  1.
          1   -1    0    0  501    0 -0.00000000000E+00 -0.00000000000E+00 -0.40039325281E+02  0.40039325281E+02  0.00000000000E+00 0. -1.
          2    1    1    2  501    0  0.16535347601E+02 -0.37439949168E+02  0.61783794761E+03  0.61919213256E+03  0.00000000000E+00 0.  1.
          1    1    1    2  502    0 -0.16535347601E+02  0.37439949168E+02 -0.28722798795E+02  0.50001666819E+02  0.00000000000E+00 0. -1.
</event>
<event>
 4    1  0.3752836E+003  0.2513239E+02  0.7546771E-02  0.1467328E+00
          2   -1    0    0  502    0  0.00000000000E+00  0.00000000000E+00  0.55252135519E+01  0.55252135519E+01  0.00000000000E+00 0.  1.
          1   -1    0    0  501    0 -0.00000000000E+00 -0.00000000000E+00 -0.12525138391E+03  0.12525138391E+03  0.00000000000E+00 0. -1.
          2    1    1    2  501    0 -0.60529125327E+01  0.24392610799E+02 -0.40544956928E+02  0.47702523455E+02  0.00000000000E+00 0.  1.
          1    1    1    2  502    0  0.60529125327E+01 -0.24392610799E+02 -0.79181213429E+02  0.83074074005E+02  0.00000000000E+00 0. -1.
</event>
<event>
 4    1  0.3752836E+003  0.3353395E+02  0.7546771E-02  0.1391173E+00
          2   -1    0    0  502    0  0.00000000000E+00  0.00000000000E+00  0.29809446092E+02  0.29809446092E+02  0.00000000000E+00 0.  1.
          1   -1    0    0  501    0 -0.00000000000E+00 -0.00000000000E+00 -0.90691103665E+03  0.90691103665E+03  0.00000000000E+00 0. -1.
          2    1    1    2  501    0  0.32711914343E+02  0.73794825615E+01  0.19965044662E+02  0.39027286752E+02  0.00000000000E+00 0.  1.
          1    1    1    2  502    0 -0.32711914343E+02 -0.73794825615E+01 -0.89706663522E+03  0.89769319599E+03  0.00000000000E+00 0. -1.
</event>
<event>
 4    1  0.3752836E+003  0.2138090E+02  0.7546771E-02  0.1513896E+00
          2   -1    0    0  502    0  0.00000000000E+00  0.00000000000E+00  0.12287666066E+04  0.12287666066E+04  0.00000000000E+00 0.  1.
          1   -1    0    0  501    0 -0.00000000000E+00 -0.00000000000E+00 -0.73996335419E+01  0.73996335419E+01  0.00000000000E+00 0.  1.
          2    1    1    2  501    0 -0.80919555987E+01 -0.19790476466E+02  0.12130284540E+04  0.12132168697E+04  0.00000000000E+00 0.  1.
          1    1    1    2  502    0  0.80919555987E+01  0.19790476466E+02  0.83385190737E+01  0.22949370460E+02  0.00000000000E+00 0.  1.
</event>
<event>
 4    1  0.3752836E+003  0.2183911E+02  0.7546771E-02  0.1507614E+00
          2   -1    0    0  502    0  0.00000000000E+00  0.00000000000E+00  0.84719404645E+03  0.84719404645E+03  0.00000000000E+00 0.  1.
          1   -1    0    0  501    0 -0.00000000000E+00 -0.00000000000E+00 -0.58253220419E+00  0.58253220419E+00  0.00000000000E+00 0. -1.
          2    1    1    2  501    0  0.12185357429E+02 -0.18123552895E+02  0.34563032744E+03  0.34631960579E+03  0.00000000000E+00 0.  1.
          1    1    1    2  502    0 -0.12185357429E+02  0.18123552895E+02  0.50098118680E+03  0.50145697287E+03  0.00000000000E+00 0. -1.
</event>
<event>
 4    1  0.3752836E+003  0.2306341E+02  0.7546771E-02  0.1491703E+00
          2   -1    0    0  502    0  0.00000000000E+00  0.00000000000E+00  0.14196631171E+03  0.14196631171E+03  0.00000000000E+00 0. -1.
          1   -1    0    0  501    0 -0.00000000000E+00 -0.00000000000E+00 -0.18038197781E+02  0.18038197781E+02  0.00000000000E+00 0. -1.
          2    1    1    2  501    0  0.21193407997E+02 -0.90972670147E+01  0.13317436349E+03  0.13515669388E+03  0.00000000000E+00 0. -1.
          1    1    1    2  502    0 -0.21193407997E+02  0.90972670147E+01 -0.92462495610E+01  0.24847815610E+02  0.00000000000E+00 0. -1.
</event>
<event>
 4    1  0.3752836E+003  0.2093764E+02  0.7546771E-02  0.1520157E+00
          2   -1    0    0  502    0  0.00000000000E+00  0.00000000000E+00  0.44097945152E+03  0.44097945152E+03  0.00000000000E+00 0.  1.
          1   -1    0    0  501    0 -0.00000000000E+00 -0.00000000000E+00 -0.12637477727E+01  0.12637477727E+01  0.00000000000E+00 0. -1.
          2    1    1    2  501    0  0.29829874473E+01 -0.20724054742E+02  0.32199568173E+03  0.32267569433E+03  0.00000000000E+00 0.  1.
          1    1    1    2  502    0 -0.29829874473E+01  0.20724054742E+02  0.11772002202E+03  0.11956750496E+03  0.00000000000E+00 0. -1.
</event>
<event>
 4    1  0.3752836E+003  0.2099553E+02  0.7546771E-02  0.1519329E+00
          2   -1    0    0  502    0  0.00000000000E+00  0.00000000000E+00  0.47683933009E+02  0.47683933009E+02  0.00000000000E+00 0.  1.
          1   -1    0    0  501    0 -0.00000000000E+00 -0.00000000000E+00 -0.54510303852E+02  0.54510303852E+02  0.00000000000E+00 0.  1.
          2    1    1    2  501    0 -0.10988000625E+02  0.17890671626E+02  0.43149970773E+02  0.47986792628E+02  0.00000000000E+00 0.  1.
          1    1    1    2  502    0  0.10988000625E+02 -0.17890671626E+02 -0.49976341617E+02  0.54207444234E+02  0.00000000000E+00 0.  1.
</event>
<event>
 4    1  0.3752836E+003  0.3009071E+02  0.7546771E-02  0.1418810E+00
          2   -1    0    0  502    0  0.00000000000E+00  0.00000000000E+00  0.44567150358E+03  0.44567150358E+03  0.00000000000E+00 0. -1.
          1   -1    0    0  501    0 -0.00000000000E+00 -0.00000000000E+00 -0.50266714671E+02  0.50266714671E+02  0.00000000000E+00 0.  1.
          2    1    1    2  501    0  0.28815832363E+02  0.86659566915E+01  0.44060867186E+03  0.44163497678E+03  0.00000000000E+00 0. -1.
          1    1    1    2  502    0 -0.28815832363E+02 -0.86659566915E+01 -0.45203882951E+02  0.54303241469E+02  0.00000000000E+00 0.  1.
</event>
<event>
 4    1  0.3752836E+003  0.2609403E+02  0.7546771E-02  0.1456927E+00
          2   -1    0    0  502    0  0.00000000000E+00  0.00000000000E+00  0.10098363904E+04  0.10098363904E+04  0.00000000000E+00 0. -1.
          1   -1    0    0  501    0 -0.00000000000E+00 -0.00000000000E+00 -0.15558579627E+01  0.15558579627E+01  0.00000000000E+00 0. -1.
          2    1    1    2  501    0 -0.82302904721E+01 -0.24762081822E+02  0.88480132785E+03  0.88518601895E+03  0.00000000000E+00 0. -1.
          1    1    1    2  502    0  0.82302904721E+01  0.24762081822E+02  0.12347920461E+03  0.12620622943E+03  0.00000000000E+00 0. -1.
</event>
<event>
 4    1  0.3752836E+003  0.3521208E+02  0.7546771E-02  0.1379078E+00
          2   -1    0    0  502    0  0.00000000000E+00  0.00000000000E+00  0.13341518949E+03  0.13341518949E+03  0.00000000000E+00 0. -1.
          1   -1    0    0  501    0 -0.00000000000E+00 -0.00000000000E+00 -0.23887883430E+02  0.23887883430E+02  0.00000000000E+00 0.  1.
          2    1    1    2  501    0  0.73579873933E+01  0.34434733924E+02  0.11624050303E+03  0.12145676360E+03  0.00000000000E+00 0. -1.
          1    1    1    2  502    0 -0.73579873933E+01 -0.34434733924E+02 -0.67131969649E+01  0.35846309327E+02  0.00000000000E+00 0.  1.
</event>
<event>
 4    1  0.3752836E+003  0.4332350E+02  0.7546771E-02  0.1330039E+00
          2   -1    0    0  502    0  0.00000000000E+00  0.00000000000E+00  0.40477906485E+02  0.40477906485E+02  0.00000000000E+00 0.  1.
          1   -1    0    0  501    0 -0.00000000000E+00 -0.00000000000E+00 -0.16921918724E+03  0.16921918724E+03  0.00000000000E+00 0.  1.
          2    1    1    2  501    0  0.44309064879E+01 -0.43096318410E+02  0.24965108541E+02  0.50001822339E+02  0.00000000000E+00 0.  1.
          1    1    1    2  502    0 -0.44309064879E+01  0.43096318410E+02 -0.15370638929E+03  0.15969527138E+03  0.00000000000E+00 0.  1.
</event>
<event>
 4    1  0.3752836E+003  0.2113031E+02  0.7546771E-02  0.1517412E+00
          2   -1    0    0  502    0  0.00000000000E+00  0.00000000000E+00  0.75962264369E+03  0.75962264369E+03  0.00000000000E+00 0. -1.
          1   -1    0    0  501    0 -0.00000000000E+00 -0.00000000000E+00 -0.28750900834E+02  0.28750900834E+02  0.00000000000E+00 0.  1.
          2    1    1    2  501    0  0.80624186430E+01  0.19531699987E+02  0.75557249280E+03  0.75586789969E+03  0.00000000000E+00 0. -1.
          1    1    1    2  502    0 -0.80624186430E+01 -0.19531699987E+02 -0.24700749942E+02  0.32505644840E+02  0.00000000000E+00 0.  1.
</event>
<event>
 4    1  0.3752836E+003  0.2335929E+02  0.7546771E-02  0.1488035E+00
          2   -1    0    0  502    0  0.00000000000E+00  0.00000000000E+00  0.24910107586E+02  0.24910107586E+02  0.00000000000E+00 0. -1.
          1   -1    0    0  501    0 -0.00000000000E+00 -0.00000000000E+00 -0.23323830645E+03  0.23323830645E+03  0.00000000000E+00 0.  1.
          2    1    1    2  501    0  0.23046457741E+02  0.38101490886E+01  0.18699568779E+02  0.29922070834E+02  0.00000000000E+00 0. -1.
          1    1    1    2  502    0 -0.23046457741E+02 -0.38101490886E+01 -0.22702776765E+03  0.22822634321E+03  0.00000000000E+00 0.  1.
</event>
<event>
 4    1  0.3752836E+003  0.2448692E+02  0.7546771E-02  0.1474626E+00
          2   -1    0    0  502    0  0.00000000000E+00  0.00000000000E+00  0.80162068403E+00  0.80162068403E+00  0.00000000000E+00 0.  1.
          1   -1    0    0  501    0 -0.00000000000E+00 -0.00000000000E+00 -0.12053660959E+04  0.12053660959E+04  0.00000000000E+00 0.  1.
          2    1    1    2  501    0  0.67354514097E+01  0.23542360939E+02 -0.23078798236E+03  0.23208339421E+03  0.00000000000E+00 0.  1.
          1    1    1    2  502    0 -0.67354514097E+01 -0.23542360939E+02 -0.97377649284E+03  0.97408432236E+03  0.00000000000E+00 0.  1.
</event>
<event>
 4    1  0.3752836E+003  0.2120916E+02  0.7546771E-02  0.1516299E+00
          2   -1    0    0  502    0  0.00000000000E+00  0.00000000000E+00  0.43103397314E+03  0.43103397314E+03  0.00000000000E+00 0. -1.
          1   -1    0    0  501    0 -0.00000000000E+00 -0.00000000000E+00 -0.15755046164E+01  0.15755046164E+01  0.00000000000E+00 0.  1.
          2    1    1    2  501    0 -0.18621798853E+02  0.10151707186E+02  0.34041082132E+03  0.34107089559E+03  0.00000000000E+00 0. -1.
          1    1    1    2  502    0  0.18621798853E+02 -0.10151707186E+02  0.89047647201E+02  0.91538582158E+02  0.00000000000E+00 0.  1.
</event>
<event>
 4    1  0.3752836E+003  0.1655652E+03  0.7546771E-02  0.1082653E+00
          2   -1    0    0  502    0  0.00000000000E+00  0.00000000000E+00  0.31043920217E+03  0.31043920217E+03  0.00000000000E+00 0.  1.
          1   -1    0    0  501    0 -0.00000000000E+00 -0.00000000000E+00 -0.28800106446E+03  0.28800106446E+03  0.00000000000E+00 0. -1.
          2    1    1    2  501    0  0.31603132244E+02  0.16252097330E+03  0.26038221401E+03  0.30856234719E+03  0.00000000000E+00 0.  1.
          1    1    1    2  502    0 -0.31603132244E+02 -0.16252097330E+03 -0.23794407630E+03  0.28987791944E+03  0.00000000000E+00 0. -1.
</event>
<event>
 4    1  0.3752836E+003  0.2067212E+02  0.7546771E-02  0.1523998E+00
          2   -1    0    0  502    0  0.00000000000E+00  0.00000000000E+00  0.68758942636E+03  0.68758942636E+03  0.00000000000E+00 0.  1.
          1   -1    0    0  501    0 -0.00000000000E+00 -0.00000000000E+00 -0.62162055589E+00  0.62162055589E+00  0.00000000000E+00 0.  1.
          2    1    1    2  501    0  0.20670040747E+02  0.29216504148E+00  0.33866635962E+03  0.33929668299E+03  0.00000000000E+00 0.  1.
          1    1    1    2  502    0 -0.20670040747E+02 -0.29216504148E+00  0.34830144618E+03  0.34891436393E+03  0.00000000000E+00 0.  1.
</event>
<event>
 4    1  0.3752836E+003  0.3749390E+02  0.7546771E-02  0.1363832E+00
          2   -1    0    0  502    0  0.00000000000E+00  0.00000000000E+00  0.21049988016E+04  0.21049988016E+04  0.00000000000E+00 0. -1.
          1   -1    0    0  501    0 -0.00000000000E+00 -0.00000000000E+00 -0.12274436872E+01  0.12274436872E+01  0.00000000000E+00 0.  1.
          2    1    1    2  501    0  0.36113366093E+02 -0.10080525432E+02  0.17629622989E+04  0.17633609555E+04  0.00000000000E+00 0. -1.
          1    1    1    2  502    0 -0.36113366093E+02  0.10080525432E+02  0.34080905897E+03  0.34286528970E+03  0.00000000000E+00 0.  1.
</event>
<event>
 4    1  0.3752836E+003  0.2163597E+02  0.7546771E-02  0.1510375E+00
          2   -1    0    0  502    0  0.00000000000E+00  0.00000000000E+00  0.86850712873E+01  0.86850712873E+01  0.00000000000E+00 0.  1.
          1   -1    0    0  501    0 -0.00000000000E+00 -0.00000000000E+00 -0.67725811942E+02  0.67725811942E+02  0.00000000000E+00 0.  1.
          2    1    1    2  501    0  0.13914406488E+02 -0.16568177085E+02 -0.12257548927E+02  0.24866899797E+02  0.00000000000E+00 0.  1.
          1    1    1    2  502    0 -0.13914406488E+02  0.16568177085E+02 -0.46783191727E+02  0.51543983432E+02  0.00000000000E+00 0.  1.
</event>
<event>
 4    1  0.3752836E+003  0.2171292E+02  0.7546771E-02  0.1509325E+00
          2   -1    0    0  502    0  0.00000000000E+00  0.00000000000E+00  0.10219211434E+04  0.10219211434E+04  0.00000000000E+00 0. -1.
          1   -1    0    0  501    0 -0.00000000000E+00 -0.00000000000E+00 -0.64380109674E+02  0.64380109674E+02  0.00000000000E+00 0.  1.
          2    1    1    2  501    0  0.19058503003E+02 -0.10403093684E+02  0.10199715781E+04  0.10202026618E+04  0.00000000000E+00 0. -1.
          1    1    1    2  502    0 -0.19058503003E+02  0.10403093684E+02 -0.62430544414E+02  0.66098591292E+02  0.00000000000E+00 0.  1.
</event>
<event>
 4    1  0.3752836E+003  0.2280513E+02  0.7546771E-02  0.1494960E+00
          2   -1    0    0  502    0  0.00000000000E+00  0.00000000000E+00  0.11398812232E+01  0.11398812232E+01  0.00000000000E+00 0. -1.
          1   -1    0    0  501    0 -0.00000000000E+00 -0.00000000000E+00 -0.53370858729E+03  0.53370858729E+03  0.00000000000E+00 0. -1.
          2    1    1    2  501    0  0.14928890553E+02 -0.17239546413E+02 -0.16440732755E+03  0.16598145404E+03  0.00000000000E+00 0. -1.
          1    1    1    2  502    0 -0.14928890553E+02  0.17239546413E+02 -0.36816137852E+03  0.36886701447E+03  0.00000000000E+00 0. -1.
</event>
<event>
 4    1  0.3752836E+003  0.8451555E+02  0.7546771E-02  0.1193735E+00
          2   -1    0    0  502    0  0.00000000000E+00  0.00000000000E+00  0.57221296978E+03  0.57221296978E+03  0.00000000000E+00 0. -1.
          1   -1    0    0  501    0 -0.00000000000E+00 -0.00000000000E+00 -0.66297809847E+03  0.66297809847E+03  0.00000000000E+00 0. -1.
          2    1    1    2  501    0 -0.18787666021E+02  0.82400862209E+02  0.56637113321E+03  0.57264224348E+03  0.00000000000E+00 0. -1.
          1    1    1    2  502    0  0.18787666021E+02 -0.82400862209E+02 -0.65713626190E+03  0.66254882476E+03  0.00000000000E+00 0. -1.
</event>
<event>
 4    1  0.3752836E+003  0.2284930E+02  0.7546771E-02  0.1494399E+00
          2   -1    0    0  502    0  0.00000000000E+00  0.00000000000E+00  0.40613781505E+02  0.40613781505E+02  0.00000000000E+00 0. -1.
          1   -1    0    0  501    0 -0.00000000000E+00 -0.00000000000E+00 -0.31202176059E+02  0.31202176059E+02  0.00000000000E+00 0. -1.
          2    1    1    2  501    0  0.33603503075E+01 -0.22600848559E+02  0.32240676458E+02  0.39516471607E+02  0.00000000000E+00 0. -1.
          1    1    1    2  502    0 -0.33603503075E+01  0.22600848559E+02 -0.22829071012E+02  0.32299485956E+02  0.00000000000E+00 0. -1.
</event>
<event>
 4    1  0.3752836E+003  0.2339428E+02  0.7546771E-02  0.1487606E+00
          2   -1    0    0  502    0  0.00000000000E+00  0.00000000000E+00  0.29158678119E+01  0.29158678119E+01  0.00000000000E+00 0. -1.
          1   -1    0    0  501    0 -0.00000000000E+00 -0.00000000000E+00 -0.40451340870E+03  0.40451340870E+03  0.00000000000E+00 0. -1.
          2    1    1    2  501    0 -0.15608773876E+02 -0.17425802182E+02 -0.51655268907E+02  0.56705901010E+02  0.00000000000E+00 0. -1.
          1    1    1    2  502    0  0.15608773876E+02  0.17425802182E+02 -0.34994227199E+03  0.35072337551E+03  0.00000000000E+00 0. -1.
</event>
<event>
 4    1  0.3752836E+003  0.2166196E+02  0.7546771E-02  0.1510020E+00
          2   -1    0    0  502    0  0.00000000000E+00  0.00000000000E+00  0.10156390352E+03  0.10156390352E+03  0.00000000000E+00 0. -1.
          1   -1    0    0  501    0 -0.00000000000E+00 -0.00000000000E+00 -0.86723208426E+01  0.86723208426E+01  0.00000000000E+00 0. -1.
          2    1    1    2  501    0  0.19228248778E+02  0.99757207432E+01  0.84122286330E+02  0.86866562110E+02  0.00000000000E+00 0. -1.
          1    1    1    2  502    0 -0.19228248778E+02 -0.99757207432E+01  0.87692963480E+01  0.23369662253E+02  0.00000000000E+00 0. -1.
</event>
<event>
 4    1  0.3752836E+003  0.3071872E+02  0.7546771E-02  0.1413452E+00
          2   -1    0    0  502    0  0.00000000000E+00  0.00000000000E+00  0.32756870534E+03  0.32756870534E+03  0.00000000000E+00 0.  1.
          1   -1    0    0  501    0 -0.00000000000E+00 -0.00000000000E+00 -0.29011325505E+01  0.29011325505E+01  0.00000000000E+00 0.  1.
          2    1    1    2  501    0 -0.41385607082E+00 -0.30715929410E+02  0.17618780569E+03  0.17884569459E+03  0.00000000000E+00 0.  1.
          1    1    1    2  502    0  0.41385607082E+00  0.30715929410E+02  0.14847976710E+03  0.15162414331E+03  0.00000000000E+00 0.  1.
</event>
<event>
 4    1  0.3752836E+003  0.2175805E+02  0.7546771E-02  0.1508711E+00
          2   -1    0    0  502    0  0.00000000000E+00  0.00000000000E+00  0.43655524417E+03  0.43655524417E+03  0.00000000000E+00 0.  1.
          1   -1    0    0  501    0 -0.00000000000E+00 -0.00000000000E+00 -0.43078598025E+03  0.43078598025E+03  0.00000000000E+00 0. -1.
          2    1    1    2  501    0  0.33689279556E+01 -0.21495650149E+02  0.43600905553E+03  0.43655161110E+03  0.00000000000E+00 0.  1.
          1    1    1    2  502    0 -0.33689279556E+01  0.21495650149E+02 -0.43023979161E+03  0.43078961331E+03  0.00000000000E+00 0. -1.
</event>
<event>
 4    1  0.3752836E+003  0.2287491E+02  0.7546771E-02  0.1494075E+00
          2   -1    0    0  502    0  0.00000000000E+00  0.00000000000E+00  0.33273354397E+02  0.33273354397E+02  0.00000000000E+00 0. -1.
          1   -1    0    0  501    0 -0.00000000000E+00 -0.00000000000E+00 -0.42069098614E+02  0.42069098614E+02  0.00000000000E+00 0. -1.
          2    1    1    2  501    0  0.19851631633E+02 -0.11365477748E+02  0.25412023018E+02  0.34191114003E+02  0.00000000000E+00 0. -1.
          1    1    1    2  502    0 -0.19851631633E+02  0.11365477748E+02 -0.34207767235E+02  0.41151339008E+02  0.00000000000E+00 0. -1.
</event>
<event>
 4    1  0.3752836E+003  0.3277534E+02  0.7546771E-02  0.1396916E+00
          2   -1    0    0  502    0  0.00000000000E+00  0.00000000000E+00  0.32241637292E+02  0.32241637292E+02  0.00000000000E+00 0.  1.
          1   -1    0    0  501    0 -0.00000000000E+00 -0.00000000000E+00 -0.30161416955E+03  0.30161416955E+03  0.00000000000E+00 0.  1.
          2    1    1    2  501    0 -0.28771295458E+02 -0.15698259162E+02  0.22752039559E+02  0.39898346922E+02  0.00000000000E+00 0.  1.
          1    1    1    2  502    0  0.28771295458E+02  0.15698259162E+02 -0.29212457182E+03  0.29395745992E+03  0.00000000000E+00 0.  1.
</event>
<event>
 4    1  0.3752836E+003  0.2092604E+02  0.7546771E-02  0.1520323E+00
          2   -1    0    0  502    0  0.00000000000E+00  0.00000000000E+00  0.75427544249E+00  0.75427544249E+00  0.00000000000E+00 0. -1.
          1   -1    0    0  501    0 -0.00000000000E+00 -0.00000000000E+00 -0.73253082126E+03  0.73253082126E+03  0.00000000000E+00 0.  1.
          2    1    1    2  501    0 -0.13915910113E+02 -0.15628393881E+02 -0.19888864137E+03  0.19998647683E+03  0.00000000000E+00 0. -1.
          1    1    1    2  502    0  0.13915910113E+02  0.15628393881E+02 -0.53288790445E+03  0.53329861987E+03  0.00000000000E+00 0.  1.
</event>
<event>
 4    1  0.3752836E+003  0.2350786E+02  0.7546771E-02  0.1486218E+00
          2   -1    0    0  502    0  0.00000000000E+00  0.00000000000E+00  0.20579992641E+01  0.20579992641E+01  0.00000000000E+00 0. -1.
          1   -1    0    0  501    0 -0.00000000000E+00 -0.00000000000E+00 -0.47429724979E+03  0.47429724979E+03  0.00000000000E+00 0. -1.
          2    1    1    2  501    0 -0.19280416146E+02  0.13449348329E+02 -0.79238195550E+02  0.82651745603E+02  0.00000000000E+00 0. -1.
          1    1    1    2  502    0  0.19280416146E+02 -0.13449348329E+02 -0.39300105497E+03  0.39370350345E+03  0.00000000000E+00 0. -1.
</event>
<event>
 4    1  0.3752836E+003  0.2121550E+02  0.7546771E-02  0.1516210E+00
          2   -1    0    0  502    0  0.00000000000E+00  0.00000000000E+00  0.17938996402E+02  0.17938996402E+02  0.00000000000E+00 0.  1.
          1   -1    0    0  501    0 -0.00000000000E+00 -0.00000000000E+00 -0.43014685340E+03  0.43014685340E+03  0.00000000000E+00 0. -1.
          2    1    1    2  501    0  0.10346339765E+02  0.18521623939E+02  0.11306621885E+02  0.24040320262E+02  0.00000000000E+00 0.  1.
          1    1    1    2  502    0 -0.10346339765E+02 -0.18521623939E+02 -0.42351447888E+03  0.42404552954E+03  0.00000000000E+00 0. -1.
</event>
<event>
 4    1  0.3752836E+003  0.4055896E+02  0.7546771E-02  0.1345241E+00
          2   -1    0    0  502    0  0.00000000000E+00  0.00000000000E+00  0.20915576163E+04  0.20915576163E+04  0.00000000000E+00 0. -1.
          1   -1    0    0  501    0 -0.00000000000E+00 -0.00000000000E+00 -0.84761308108E+00  0.84761308108E+00  0.00000000000E+00 0. -1.
          2    1    1    2  501    0  0.77870423453E+01  0.39804410490E+02  0.13262549681E+04  0.13268750015E+04  0.00000000000E+00 0. -1.
          1    1    1    2  502    0 -0.77870423453E+01 -0.39804410490E+02  0.76445503512E+03  0.76553022791E+03  0.00000000000E+00 0. -1.
</event>
<event>
 4    1  0.3752836E+003  0.3761371E+02  0.7546771E-02  0.1363067E+00
          2   -1    0    0  502    0  0.00000000000E+00  0.00000000000E+00  0.18480526759E+02  0.18480526759E+02  0.00000000000E+00 0. -1.
          1   -1    0    0  501    0 -0.00000000000E+00 -0.00000000000E+00 -0.76714967698E+02  0.76714967698E+02  0.00000000000E+00 0. -1.
          2    1    1    2  501    0  0.22353015938E+01  0.37547213908E+02 -0.31285906542E+02  0.48924408975E+02  0.00000000000E+00 0. -1.
          1    1    1    2  502    0 -0.22353015938E+01 -0.37547213908E+02 -0.26948534397E+02  0.46271085481E+02  0.00000000000E+00 0. -1.
</event>
<event>
 4    1  0.3752836E+003  0.2405010E+02  0.7546771E-02  0.1479717E+00
          2   -1    0    0  502    0  0.00000000000E+00  0.00000000000E+00  0.45305539120E+03  0.45305539120E+03  0.00000000000E+00 0.  1.
          1   -1    0    0  501    0 -0.00000000000E+00 -0.00000000000E+00 -0.74262905586E+01  0.74262905586E+01  0.00000000000E+00 0. -1.
          2    1    1    2  501    0 -0.23983821523E+02 -0.17842300156E+01  0.43233198531E+03  0.43300040727E+03  0.00000000000E+00 0.  1.
          1    1    1    2  502    0  0.23983821523E+02  0.17842300156E+01  0.13297115334E+02  0.27481274494E+02  0.00000000000E+00 0. -1.
</event>
<event>
 4    1  0.3752836E+003  0.7894637E+02  0.7546771E-02  0.1206315E+00
          2   -1    0    0  502    0  0.00000000000E+00  0.00000000000E+00  0.48168891933E+03  0.48168891933E+03  0.00000000000E+00 0. -1.
          1   -1    0    0  501    0 -0.00000000000E+00 -0.00000000000E+00 -0.50514809424E+03  0.50514809424E+03  0.00000000000E+00 0.  1.
          2    1    1    2  501    0  0.78869948388E+02 -0.34728846284E+01  0.47532869353E+03  0.48184011517E+03  0.00000000000E+00 0. -1.
          1    1    1    2  502    0 -0.78869948388E+02  0.34728846284E+01 -0.49878786845E+03  0.50499689841E+03  0.00000000000E+00 0.  1.
</event>
<event>
 4    1  0.3752836E+003  0.2644614E+02  0.7546771E-02  0.1453253E+00
          2   -1    0    0  502    0  0.00000000000E+00  0.00000000000E+00  0.11166155228E+02  0.11166155228E+02  0.00000000000E+00 0.  1.
          1   -1    0    0  501    0 -0.00000000000E+00 -0.00000000000E+00 -0.14308773932E+04  0.14308773932E+04  0.00000000000E+00 0. -1.
          2    1    1    2  501    0 -0.20271251161E+02  0.16984535735E+02 -0.47915130062E+01  0.26876693893E+02  0.00000000000E+00 0.  1.
          1    1    1    2  502    0  0.20271251161E+02 -0.16984535735E+02 -0.14149197250E+04  0.14151668546E+04  0.00000000000E+00 0. -1.
</event>
<event>
 4    1  0.3752836E+003  0.2052576E+02  0.7546771E-02  0.1526145E+00
          2   -1    0    0  502    0  0.00000000000E+00  0.00000000000E+00  0.22674943452E+02  0.22674943452E+02  0.00000000000E+00 0. -1.
          1   -1    0    0  501    0 -0.00000000000E+00 -0.00000000000E+00 -0.24580449896E+03  0.24580449896E+03  0.00000000000E+00 0.  1.
          2    1    1    2  501    0  0.12029845809E+02 -0.16630982754E+02  0.17501694069E+02  0.26974359545E+02  0.00000000000E+00 0. -1.
          1    1    1    2  502    0 -0.12029845809E+02  0.16630982754E+02 -0.24063124958E+03  0.24150508287E+03  0.00000000000E+00 0.  1.
</event>
<event>
 4    1  0.3752836E+003  0.2050627E+02  0.7546771E-02  0.1526432E+00
          2   -1    0    0  502    0  0.00000000000E+00  0.00000000000E+00  0.14051515094E+04  0.14051515094E+04  0.00000000000E+00 0. -1.
          1   -1    0    0  501    0 -0.00000000000E+00 -0.00000000000E+00 -0.39405781327E+03  0.39405781327E+03  0.00000000000E+00 0. -1.
          2    1    1    2  501    0  0.18902735056E+02  0.79494560441E+01  0.14048098490E+04  0.14049595080E+04  0.00000000000E+00 0. -1.
          1    1    1    2  502    0 -0.18902735056E+02 -0.79494560441E+01 -0.39371615293E+03  0.39424981461E+03  0.00000000000E+00 0. -1.
</event>
<event>
 4    1  0.3752836E+003  0.6625188E+02  0.7546771E-02  0.1239953E+00
          2   -1    0    0  502    0  0.00000000000E+00  0.00000000000E+00  0.73072719885E+03  0.73072719885E+03  0.00000000000E+00 0. -1.
          1   -1    0    0  501    0 -0.00000000000E+00 -0.00000000000E+00 -0.12749535830E+02  0.12749535830E+02  0.00000000000E+00 0. -1.
          2    1    1    2  501    0 -0.57839369675E+02 -0.32309657485E+02  0.88649400075E+02  0.11067078560E+03  0.00000000000E+00 0. -1.
          1    1    1    2  502    0  0.57839369675E+02  0.32309657485E+02  0.62932826295E+03  0.63280594908E+03  0.00000000000E+00 0. -1.
</event>
<event>
 4    1  0.3752836E+003  0.2130010E+02  0.7546771E-02  0.1515023E+00
          2   -1    0    0  502    0  0.00000000000E+00  0.00000000000E+00  0.97165305960E+03  0.97165305960E+03  0.00000000000E+00 0.  1.
          1   -1    0    0  501    0 -0.00000000000E+00 -0.00000000000E+00 -0.22079613259E+01  0.22079613259E+01  0.00000000000E+00 0. -1.
          2    1    1    2  501    0  0.19199526473E+02 -0.92234788834E+01  0.91711140871E+03  0.91735872502E+03  0.00000000000E+00 0.  1.
          1    1    1    2  502    0 -0.19199526473E+02  0.92234788834E+01  0.52333689559E+02  0.56502295903E+02  0.00000000000E+00 0. -1.
</event>
<event>
 4    1  0.3752836E+003  0.4515276E+02  0.7546771E-02  0.1320677E+00
          2   -1    0    0  502    0  0.00000000000E+00  0.00000000000E+00  0.20967057732E+04  0.20967057732E+04  0.00000000000E+00 0. -1.
          1   -1    0    0  501    0 -0.00000000000E+00 -0.00000000000E+00 -0.31459729135E+02  0.31459729135E+02  0.00000000000E+00 0. -1.
          2    1    1    2  501    0 -0.39940631952E+02 -0.21059849584E+02  0.20801321726E+04  0.20806221730E+04  0.00000000000E+00 0. -1.
          1    1    1    2  502    0  0.39940631952E+02  0.21059849584E+02 -0.14886128496E+02  0.47543329361E+02  0.00000000000E+00 0. -1.
</event>
<event>
 4    1  0.3752836E+003  0.2170276E+02  0.7546771E-02  0.1509463E+00
          2   -1    0    0  502    0  0.00000000000E+00  0.00000000000E+00  0.51176505229E+03  0.51176505229E+03  0.00000000000E+00 0. -1.
          1   -1    0    0  501    0 -0.00000000000E+00 -0.00000000000E+00 -0.89653962349E+01  0.89653962349E+01  0.00000000000E+00 0.  1.
          2    1    1    2  501    0  0.20688553650E+02 -0.65569588083E+01  0.49803904684E+03  0.49851168706E+03  0.00000000000E+00 0. -1.
          1    1    1    2  502    0 -0.20688553650E+02  0.65569588083E+01  0.47606092195E+01  0.22218761466E+02  0.00000000000E+00 0.  1.
</event>
<event>
 4    1  0.3752836E+003  0.3090272E+02  0.7546771E-02  0.1411910E+00
          2   -1    0    0  502    0  0.00000000000E+00  0.00000000000E+00  0.48409317656E+01  0.48409317656E+01  0.00000000000E+00 0.  1.
          1   -1    0    0  501    0 -0.00000000000E+00 -0.00000000000E+00 -0.45204497887E+03  0.45204497887E+03  0.00000000000E+00 0.  1.
          2    1    1    2  501    0 -0.72510102672E+01 -0.30039987668E+02 -0.52102061055E+02  0.60577246348E+02  0.00000000000E+00 0.  1.
          1    1    1    2  502    0  0.72510102672E+01  0.30039987668E+02 -0.39510198605E+03  0.39630866429E+03  0.00000000000E+00 0.  1.
</event>
<event>
 4    1  0.3752836E+003  0.3779018E+02  0.7546771E-02  0.1361946E+00
          2   -1    0    0  502    0  0.00000000000E+00  0.00000000000E+00  0.14798387345E+04  0.14798387345E+04  0.00000000000E+00 0.  1.
          1   -1    0    0  501    0 -0.00000000000E+00 -0.00000000000E+00 -0.15002690668E+01  0.15002690668E+01  0.00000000000E+00 0. -1.
          2    1    1    2  501    0 -0.11373904444E+02  0.36037921890E+02  0.11815654354E+04  0.11821696053E+04  0.00000000000E+00 0.  1.
          1    1    1    2  502    0  0.11373904444E+02 -0.36037921890E+02  0.29677303010E+03  0.29916939836E+03  0.00000000000E+00 0. -1.
</event>
<event>
 4    1  0.3752836E+003  0.2577745E+02  0.7546771E-02  0.1460291E+00
          2   -1    0    0  502    0  0.00000000000E+00  0.00000000000E+00  0.18275148960E+01  0.18275148960E+01  0.00000000000E+00 0.  1.
          1   -1    0    0  501    0 -0.00000000000E+00 -0.00000000000E+00 -0.36639656142E+03  0.36639656142E+03  0.00000000000E+00 0.  1.
          2    1    1    2  501    0  0.97011537991E+01  0.23882305643E+02 -0.16618780092E+03  0.16817509352E+03  0.00000000000E+00 0.  1.
          1    1    1    2  502    0 -0.97011537991E+01 -0.23882305643E+02 -0.19838124561E+03  0.20004898280E+03  0.00000000000E+00 0.  1.
</event>
<event>
 4    1  0.3752836E+003  0.2533135E+02  0.7546771E-02  0.1465131E+00
          2   -1    0    0  502    0  0.00000000000E+00  0.00000000000E+00  0.11246160446E+04  0.11246160446E+04  0.00000000000E+00 0.  1.
          1   -1    0    0  501    0 -0.00000000000E+00 -0.00000000000E+00 -0.61288463088E+01  0.61288463088E+01  0.00000000000E+00 0. -1.
          2    1    1    2  501    0 -0.16649201382E+02 -0.19091392837E+02  0.10976561376E+04  0.10979483930E+04  0.00000000000E+00 0.  1.
          1    1    1    2  502    0  0.16649201382E+02  0.19091392837E+02  0.20831060640E+02  0.32796497900E+02  0.00000000000E+00 0. -1.
</event>
<event>
 4    1  0.3752836E+003  0.2581133E+02  0.7546771E-02  0.1459928E+00
          2   -1    0    0  502    0  0.00000000000E+00  0.00000000000E+00  0.10551583297E+01  0.10551583297E+01  0.00000000000E+00 0.  1.
          1   -1    0    0  501    0 -0.00000000000E+00 -0.00000000000E+00 -0.16336577605E+04  0.16336577605E+04  0.00000000000E+00 0.  1.
          2    1    1    2  501    0  0.24798806457E+02  0.71584788713E+01 -0.17609321525E+03  0.17797484395E+03  0.00000000000E+00 0.  1.
          1    1    1    2  502    0 -0.24798806457E+02 -0.71584788713E+01 -0.14565093870E+04  0.14567380749E+04  0.00000000000E+00 0.  1.
</event>
<event>
 4    1  0.3752836E+003  0.2118491E+02  0.7546771E-02  0.1516641E+00
          2   -1    0    0  502    0  0.00000000000E+00  0.00000000000E+00  0.52571853484E+02  0.52571853484E+02  0.00000000000E+00 0.  1.
          1   -1    0    0  501    0 -0.00000000000E+00 -0.00000000000E+00 -0.34905704436E+02  0.34905704436E+02  0.00000000000E+00 0. -1.
          2    1    1    2  501    0 -0.15818875440E+02 -0.14091265834E+02  0.46848834843E+02  0.51416086191E+02  0.00000000000E+00 0.  1.
          1    1    1    2  502    0  0.15818875440E+02  0.14091265834E+02 -0.29182685795E+02  0.36061471729E+02  0.00000000000E+00 0. -1.
</event>
<event>
 4    1  0.3752836E+003  0.2582813E+02  0.7546771E-02  0.1459749E+00
          2   -1    0    0  502    0  0.00000000000E+00  0.00000000000E+00  0.15851708530E+04  0.15851708530E+04  0.00000000000E+00 0.  1.
          1   -1    0    0  501    0 -0.00000000000E+00 -0.00000000000E+00 -0.27759618137E+02  0.27759618137E+02  0.00000000000E+00 0. -1.
          2    1    1    2  501    0 -0.23040260030E+02  0.11672143862E+02  0.15790345391E+04  0.15792457593E+04  0.00000000000E+00 0.  1.
          1    1    1    2  502    0  0.23040260030E+02 -0.11672143862E+02 -0.21623304258E+02  0.33684711839E+02  0.00000000000E+00 0. -1.
</event>
<event>
 4    1  0.3752836E+003  0.4734345E+02  0.7546771E-02  0.1310120E+00
          2   -1    0    0  502    0  0.00000000000E+00  0.00000000000E+00  0.27205737521E+01  0.27205737521E+01  0.00000000000E+00 0.  1.
          1   -1    0    0  501    0 -0.00000000000E+00 -0.00000000000E+00 -0.84986084478E+03  0.84986084478E+03  0.00000000000E+00 0.  1.
          2    1    1    2  501    0  0.41677347999E+02  0.22458812270E+02 -0.49811893559E+03  0.50036374127E+03  0.00000000000E+00 0.  1.
          1    1    1    2  502    0 -0.41677347999E+02 -0.22458812270E+02 -0.34902133544E+03  0.35221767726E+03  0.00000000000E+00 0.  1.
</event>
<event>
 4    1  0.3752836E+003  0.3181693E+02  0.7546771E-02  0.1404438E+00
          2   -1    0    0  502    0  0.00000000000E+00  0.00000000000E+00  0.42430293686E+01  0.42430293686E+01  0.00000000000E+00 0. -1.
          1   -1    0    0  501    0 -0.00000000000E+00 -0.00000000000E+00 -0.19776903785E+04  0.19776903785E+04  0.00000000000E+00 0. -1.
          2    1    1    2  501    0 -0.42282218535E+01 -0.31534725899E+02 -0.57451252823E+02  0.65673154702E+02  0.00000000000E+00 0. -1.
          1    1    1    2  502    0  0.42282218535E+01  0.31534725899E+02 -0.19159960963E+04  0.19162602531E+04  0.00000000000E+00 0. -1.
</event>
<event>
 4    1  0.3752836E+003  0.2339922E+02  0.7546771E-02  0.1487545E+00
          2   -1    0    0  502    0  0.00000000000E+00  0.00000000000E+00  0.49902093058E+02  0.49902093058E+02  0.00000000000E+00 0.  1.
          1   -1    0    0  501    0 -0.00000000000E+00 -0.00000000000E+00 -0.13582443345E+02  0.13582443345E+02  0.00000000000E+00 0.  1.
          2    1    1    2  501    0 -0.23217151227E+02  0.29133487963E+01  0.32075669241E+02  0.39703554873E+02  0.00000000000E+00 0.  1.
          1    1    1    2  502    0  0.23217151227E+02 -0.29133487963E+01  0.42439804724E+01  0.23780981531E+02  0.00000000000E+00 0.  1.
</event>
<event>
 4    1  0.3752836E+003  0.2006907E+02  0.7546771E-02  0.1532982E+00
          2   -1    0    0  502    0  0.00000000000E+00  0.00000000000E+00  0.50604579411E+02  0.50604579411E+02  0.00000000000E+00 0. -1.
          1   -1    0    0  501    0 -0.00000000000E+00 -0.00000000000E+00 -0.30609569882E+02  0.30609569882E+02  0.00000000000E+00 0.  1.
          2    1    1    2  501    0 -0.12785667044E+02 -0.15469136350E+02  0.44928550988E+02  0.49207135205E+02  0.00000000000E+00 0. -1.
          1    1    1    2  502    0  0.12785667044E+02  0.15469136350E+02 -0.24933541459E+02  0.32007014088E+02  0.00000000000E+00 0.  1.
</event>
<event>
 4    1  0.3752836E+003  0.2190156E+02  0.7546771E-02  0.1506772E+00
          2   -1    0    0  502    0  0.00000000000E+00  0.00000000000E+00  0.49362172797E+01  0.49362172797E+01  0.00000000000E+00 0.  1.
          1   -1    0    0  501    0 -0.00000000000E+00 -0.00000000000E+00 -0.10430724367E+03  0.10430724367E+03  0.00000000000E+00 0.  1.
          2    1    1    2  501    0  0.21886427579E+02  0.81364844416E+00 -0.63968407992E+02  0.67613866603E+02  0.00000000000E+00 0.  1.
          1    1    1    2  502    0 -0.21886427579E+02 -0.81364844416E+00 -0.35402618395E+02  0.41629594344E+02  0.00000000000E+00 0.  1.
</event>
<event>
 4    1  0.3752836E+003  0.2576743E+02  0.7546771E-02  0.1460398E+00
          2   -1    0    0  502    0  0.00000000000E+00  0.00000000000E+00  0.14514407179E+04  0.14514407179E+04  0.00000000000E+00 0. -1.
          1   -1    0    0  501    0 -0.00000000000E+00 -0.00000000000E+00 -0.97290969209E+02  0.97290969209E+02  0.00000000000E+00 0. -1.
          2    1    1    2  501    0 -0.19896615894E+02  0.16373304286E+02  0.14496180902E+04  0.14498470843E+04  0.00000000000E+00 0. -1.
          1    1    1    2  502    0  0.19896615894E+02 -0.16373304286E+02 -0.95468341573E+02  0.98884602745E+02  0.00000000000E+00 0. -1.
</event>
<event>
 4    1  0.3752836E+003  0.3716369E+02  0.7546771E-02  0.1365959E+00
          2   -1    0    0  502    0  0.00000000000E+00  0.00000000000E+00  0.93588919755E+02  0.93588919755E+02  0.00000000000E+00 0. -1.
          1   -1    0    0  501    0 -0.00000000000E+00 -0.00000000000E+00 -0.16365338076E+02  0.16365338076E+02  0.00000000000E+00 0.  1.
          2    1    1    2  501    0 -0.23809766416E+02  0.28534803878E+02  0.55843903204E+02  0.67079665579E+02  0.00000000000E+00 0. -1.
          1    1    1    2  502    0  0.23809766416E+02 -0.28534803878E+02  0.21379678475E+02  0.42874592253E+02  0.00000000000E+00 0.  1.
</event>
<event>
 4    1  0.3752836E+003  0.2260985E+02  0.7546771E-02  0.1497456E+00
          2   -1    0    0  502    0  0.00000000000E+00  0.00000000000E+00  0.97483553433E+02  0.97483553433E+02  0.00000000000E+00 0. -1.
          1   -1    0    0  501    0 -0.00000000000E+00 -0.00000000000E+00 -0.48340431337E+02  0.48340431337E+02  0.00000000000E+00 0. -1.
          2    1    1    2  501    0 -0.22393851824E+02 -0.31178173519E+01  0.93415272494E+02  0.96112530503E+02  0.00000000000E+00 0. -1.
          1    1    1    2  502    0  0.22393851824E+02  0.31178173519E+01 -0.44272150398E+02  0.49711454268E+02  0.00000000000E+00 0. -1.
</event>
<event>
 4    1  0.3752836E+003  0.2111612E+02  0.7546771E-02  0.1517613E+00
          2   -1    0    0  502    0  0.00000000000E+00  0.00000000000E+00  0.78947440420E+02  0.78947440420E+02  0.00000000000E+00 0. -1.
          1   -1    0    0  501    0 -0.00000000000E+00 -0.00000000000E+00 -0.13896772074E+02  0.13896772074E+02  0.00000000000E+00 0.  1.
          2    1    1    2  501    0  0.20605699766E+02  0.46147363559E+01  0.68290811255E+02  0.71480945408E+02  0.00000000000E+00 0. -1.
          1    1    1    2  502    0 -0.20605699766E+02 -0.46147363559E+01 -0.32401429090E+01  0.21363267086E+02  0.00000000000E+00 0.  1.
</event>
<event>
 4    1  0.3752836E+003  0.2176869E+02  0.7546771E-02  0.1508567E+00
          2   -1    0    0  502    0  0.00000000000E+00  0.00000000000E+00  0.21344503926E+01  0.21344503926E+01  0.00000000000E+00 0.  1.
          1   -1    0    0  501    0 -0.00000000000E+00 -0.00000000000E+00 -0.22286626960E+03  0.22286626960E+03  0.00000000000E+00 0.  1.
          2    1    1    2  501    0  0.17385747851E+02  0.13100037451E+02 -0.11732796570E+03  0.11933032618E+03  0.00000000000E+00 0.  1.
          1    1    1    2  502    0 -0.17385747851E+02 -0.13100037451E+02 -0.10340385351E+03  0.10567039382E+03  0.00000000000E+00 0.  1.
</event>
<event>
 4    1  0.3752836E+003  0.2364374E+02  0.7546771E-02  0.1484569E+00
          2   -1    0    0  502    0  0.00000000000E+00  0.00000000000E+00  0.13103874774E+02  0.13103874774E+02  0.00000000000E+00 0. -1.
          1   -1    0    0  501    0 -0.00000000000E+00 -0.00000000000E+00 -0.45213594155E+03  0.45213594155E+03  0.00000000000E+00 0.  1.
          2    1    1    2  501    0 -0.13179052158E+02 -0.19630050558E+02  0.18576300066E+01  0.23716599459E+02  0.00000000000E+00 0. -1.
          1    1    1    2  502    0  0.13179052158E+02  0.19630050558E+02 -0.44088969678E+03  0.44152321686E+03  0.00000000000E+00 0.  1.
</event>
<event>
 4    1  0.3752836E+003  0.2698201E+02  0.7546771E-02  0.1447789E+00
          2   -1    0    0  502    0  0.00000000000E+00  0.00000000000E+00  0.11438925065E+04  0.11438925065E+04  0.00000000000E+00 0.  1.
          1   -1    0    0  501    0 -0.00000000000E+00 -0.00000000000E+00 -0.93588607262E+00  0.93588607262E+00  0.00000000000E+00 0.  1.
          2    1    1    2  501    0  0.65520999326E+01 -0.26174388369E+02  0.89525984862E+03  0.89566635818E+03  0.00000000000E+00 0.  1.
          1    1    1    2  502    0 -0.65520999326E+01  0.26174388369E+02  0.24769677179E+03  0.24916203438E+03  0.00000000000E+00 0.  1.
</event>
<event>
 4    1  0.3752836E+003  0.2194013E+02  0.7546771E-02  0.1506254E+00
          2   -1    0    0  502    0  0.00000000000E+00  0.00000000000E+00  0.13950874309E+04  0.13950874309E+04  0.00000000000E+00 0. -1.
          1   -1    0    0  501    0 -0.00000000000E+00 -0.00000000000E+00 -0.14898973690E+01  0.14898973690E+01  0.00000000000E+00 0.  1.
          2    1    1    2  501    0 -0.60126166371E+01 -0.21100178849E+02  0.13089114814E+04  0.13090953499E+04  0.00000000000E+00 0. -1.
          1    1    1    2  502    0  0.60126166371E+01  0.21100178849E+02  0.84686052184E+02  0.87481978377E+02  0.00000000000E+00 0.  1.
</event>
<event>
 4    1  0.3752836E+003  0.2150904E+02  0.7546771E-02  0.1512120E+00
          2   -1    0    0  502    0  0.00000000000E+00  0.00000000000E+00  0.37107637231E+03  0.37107637231E+03  0.00000000000E+00 0. -1.
          1   -1    0    0  501    0 -0.00000000000E+00 -0.00000000000E+00 -0.19494953573E+03  0.19494953573E+03  0.00000000000E+00 0.  1.
          2    1    1    2  501    0 -0.15311962294E+02  0.15105715877E+02  0.37016995346E+03  0.37079432748E+03  0.00000000000E+00 0. -1.
          1    1    1    2  502    0  0.15311962294E+02 -0.15105715877E+02 -0.19404311688E+03  0.19523158057E+03  0.00000000000E+00 0.  1.
</event>
<event>
 4    1  0.3752836E+003  0.2309006E+02  0.7546771E-02  0.1491370E+00
          2   -1    0    0  502    0  0.00000000000E+00  0.00000000000E+00  0.44093804596E+02  0.44093804596E+02  0.00000000000E+00 0.  1.
          1   -1    0    0  501    0 -0.00000000000E+00 -0.00000000000E+00 -0.26666978130E+03  0.26666978130E+03  0.00000000000E+00 0.  1.
          2    1    1    2  501    0 -0.22910599658E+02 -0.28732341691E+01  0.40530295855E+02  0.46646070932E+02  0.00000000000E+00 0.  1.
          1    1    1    2  502    0  0.22910599658E+02  0.28732341691E+01 -0.26310627256E+03  0.26411751496E+03  0.00000000000E+00 0.  1.
</event>
<event>
 4    1  0.3752836E+003  0.2069220E+02  0.7546771E-02  0.1523705E+00
          2   -1    0    0  502    0  0.00000000000E+00  0.00000000000E+00  0.18062864141E+03  0.18062864141E+03  0.00000000000E+00 0. -1.
          1   -1    0    0  501    0 -0.00000000000E+00 -0.00000000000E+00 -0.42913393294E+01  0.42913393294E+01  0.00000000000E+00 0.  1.
          2    1    1    2  501    0 -0.16389542626E+02 -0.12631319340E+02  0.15002880303E+03  0.15144903127E+03  0.00000000000E+00 0. -1.
          1    1    1    2  502    0  0.16389542626E+02  0.12631319340E+02  0.26308499056E+02  0.33470949469E+02  0.00000000000E+00 0.  1.
</event>
<event>
 4    1  0.3752836E+003  0.2875894E+02  0.7546771E-02  0.1430697E+00
          2   -1    0    0  502    0  0.00000000000E+00  0.00000000000E+00  0.11603247478E+02  0.11603247478E+02  0.00000000000E+00 0. -1.
          1   -1    0    0  501    0 -0.00000000000E+00 -0.00000000000E+00 -0.92331145815E+02  0.92331145815E+02  0.00000000000E+00 0. -1.
          2    1    1    2  501    0  0.29265946819E+01 -0.28609638199E+02 -0.15550003575E+02  0.32693714465E+02  0.00000000000E+00 0. -1.
          1    1    1    2  502    0 -0.29265946819E+01  0.28609638199E+02 -0.65177894762E+02  0.71240678828E+02  0.00000000000E+00 0. -1.
</event>
<event>
 4    1  0.3752836E+003  0.2008147E+02  0.7546771E-02  0.1532794E+00
          2   -1    0    0  502    0  0.00000000000E+00  0.00000000000E+00  0.48552321405E+02  0.48552321405E+02  0.00000000000E+00 0. -1.
          1   -1    0    0  501    0 -0.00000000000E+00 -0.00000000000E+00 -0.99672671588E+01  0.99672671588E+01  0.00000000000E+00 0. -1.
          2    1    1    2  501    0  0.18850263331E+02 -0.69233638868E+01  0.31238743610E+02  0.37136565505E+02  0.00000000000E+00 0. -1.
          1    1    1    2  502    0 -0.18850263331E+02  0.69233638868E+01  0.73463106365E+01  0.21383023059E+02  0.00000000000E+00 0. -1.
</event>
<event>
 4    1  0.3752836E+003  0.2262677E+02  0.7546771E-02  0.1497239E+00
          2   -1    0    0  502    0  0.00000000000E+00  0.00000000000E+00  0.58453586090E+03  0.58453586090E+03  0.00000000000E+00 0.  1.
          1   -1    0    0  501    0 -0.00000000000E+00 -0.00000000000E+00 -0.16338623047E+02  0.16338623047E+02  0.00000000000E+00 0. -1.
          2    1    1    2  501    0 -0.18298491117E+02  0.13309240045E+02  0.57637223491E+03  0.57681619588E+03  0.00000000000E+00 0.  1.
          1    1    1    2  502    0  0.18298491117E+02 -0.13309240045E+02 -0.81749970625E+01  0.24058288067E+02  0.00000000000E+00 0. -1.
</event>
<event>
 4    1  0.3752836E+003  0.2122984E+02  0.7546771E-02  0.1516008E+00
          2   -1    0    0  502    0  0.00000000000E+00  0.00000000000E+00  0.27301154687E+03  0.27301154687E+03  0.00000000000E+00 0. -1.
          1   -1    0    0  501    0 -0.00000000000E+00 -0.00000000000E+00 -0.57543080675E+01  0.57543080675E+01  0.00000000000E+00 0. -1.
          2    1    1    2  501    0 -0.15848215349E+02 -0.14125875656E+02  0.25133148140E+03  0.25222652485E+03  0.00000000000E+00 0. -1.
          1    1    1    2  502    0  0.15848215349E+02  0.14125875656E+02  0.15925757397E+02  0.26539330087E+02  0.00000000000E+00 0. -1.
</event>
<event>
 4    1  0.3752836E+003  0.3141062E+02  0.7546771E-02  0.1407722E+00
          2   -1    0    0  502    0  0.00000000000E+00  0.00000000000E+00  0.36682210351E+03  0.36682210351E+03  0.00000000000E+00 0. -1.
          1   -1    0    0  501    0 -0.00000000000E+00 -0.00000000000E+00 -0.58241783594E+01  0.58241783594E+01  0.00000000000E+00 0.  1.
          2    1    1    2  501    0  0.11778439794E+02  0.29118647707E+02  0.31718834103E+03  0.31873981705E+03  0.00000000000E+00 0. -1.
          1    1    1    2  502    0 -0.11778439794E+02 -0.29118647707E+02  0.43809584115E+02  0.53906464813E+02  0.00000000000E+00 0.  1.
</event>
<event>
 4    1  0.3752836E+003  0.3472374E+02  0.7546771E-02  0.1382516E+00
          2   -1    0    0  502    0  0.00000000000E+00  0.00000000000E+00  0.34840132484E+02  0.34840132484E+02  0.00000000000E+00 0. -1.
          1   -1    0    0  501    0 -0.00000000000E+00 -0.00000000000E+00 -0.42949594276E+02  0.42949594276E+02  0.00000000000E+00 0.  1.
          2    1    1    2  501    0  0.34406312430E+02  0.46844115340E+01  0.13086585314E+02  0.37107906996E+02  0.00000000000E+00 0. -1.
          1    1    1    2  502    0 -0.34406312430E+02 -0.46844115340E+01 -0.21196047107E+02  0.40681819765E+02  0.00000000000E+00 0.  1.
</event>
<event>
 4    1  0.3752836E+003  0.3899611E+02  0.7546771E-02  0.1354471E+00
          2   -1    0    0  502    0  0.00000000000E+00  0.00000000000E+00  0.13557557711E+04  0.13557557711E+04  0.00000000000E+00 0. -1.
          1   -1    0    0  501    0 -0.00000000000E+00 -0.00000000000E+00 -0.56677473957E+01  0.56677473957E+01  0.00000000000E+00 0.  1.
          2    1    1    2  501    0 -0.69342645153E+01  0.38374638279E+02  0.12846888555E+04  0.12852805734E+04  0.00000000000E+00 0. -1.
          1    1    1    2  502    0  0.69342645153E+01 -0.38374638279E+02  0.65399168198E+02  0.76142945100E+02  0.00000000000E+00 0.  1.
</event>
<event>
 4    1  0.3752836E+003  0.2606117E+02  0.7546771E-02  0.1457274E+00
          2   -1    0    0  502    0  0.00000000000E+00  0.00000000000E+00  0.58184503075E+02  0.58184503075E+02  0.00000000000E+00 0.  1.
          1   -1    0    0  501    0 -0.00000000000E+00 -0.00000000000E+00 -0.75337391649E+02  0.75337391649E+02  0.00000000000E+00 0. -1.
          2    1    1    2  501    0 -0.10520451358E+02  0.23843340653E+02  0.52794904557E+02  0.58876877783E+02  0.00000000000E+00 0.  1.
          1    1    1    2  502    0  0.10520451358E+02 -0.23843340653E+02 -0.69947793131E+02  0.74645016941E+02  0.00000000000E+00 0. -1.
</event>
<event>
 4    1  0.3752836E+003  0.3467255E+02  0.7546771E-02  0.1382880E+00
          2   -1    0    0  502    0  0.00000000000E+00  0.00000000000E+00  0.59705463005E+03  0.59705463005E+03  0.00000000000E+00 0.  1.
          1   -1    0    0  501    0 -0.00000000000E+00 -0.00000000000E+00 -0.20323431261E+01  0.20323431261E+01  0.00000000000E+00 0.  1.
          2    1    1    2  501    0  0.27077920179E+02  0.21655726216E+02  0.26868721818E+03  0.27091512592E+03  0.00000000000E+00 0.  1.
          1    1    1    2  502    0 -0.27077920179E+02 -0.21655726216E+02  0.32633506874E+03  0.32817184725E+03  0.00000000000E+00 0.  1.
</event>
<event>
 4    1  0.3752836E+003  0.4219301E+02  0.7546771E-02  0.1336093E+00
          2   -1    0    0  502    0  0.00000000000E+00  0.00000000000E+00  0.52246266095E+03  0.52246266095E+03  0.00000000000E+00 0. -1.
          1   -1    0    0  501    0 -0.00000000000E+00 -0.00000000000E+00 -0.17310906176E+04  0.17310906176E+04  0.00000000000E+00 0.  1.
          2    1    1    2  501    0 -0.18193684533E+02  0.38068879579E+02  0.52135316024E+03  0.52305770948E+03  0.00000000000E+00 0. -1.
          1    1    1    2  502    0  0.18193684533E+02 -0.38068879579E+02 -0.17299811169E+04  0.17304955691E+04  0.00000000000E+00 0.  1.
</event>
<event>
 4    1  0.3752836E+003  0.2658322E+02  0.7546771E-02  0.1451840E+00
          2   -1    0    0  502    0  0.00000000000E+00  0.00000000000E+00  0.83070259454E+03  0.83070259454E+03  0.00000000000E+00 0. -1.
          1   -1    0    0  501    0 -0.00000000000E+00 -0.00000000000E+00 -0.27758016511E+03  0.27758016511E+03  0.00000000000E+00 0.  1.
          2    1    1    2  501    0 -0.25485111663E+02 -0.75615219777E+01  0.82985281777E+03  0.83027848744E+03  0.00000000000E+00 0. -1.
          1    1    1    2  502    0  0.25485111663E+02  0.75615219777E+01 -0.27673038835E+03  0.27800427221E+03  0.00000000000E+00 0.  1.
</event>
<event>
 4    1  0.3752836E+003  0.3119734E+02  0.7546771E-02  0.1409469E+00
          2   -1    0    0  502    0  0.00000000000E+00  0.00000000000E+00  0.24035095400E+03  0.24035095400E+03  0.00000000000E+00 0.  1.
          1   -1    0    0  501    0 -0.00000000000E+00 -0.00000000000E+00 -0.65985746865E+01  0.65985746865E+01  0.00000000000E+00 0.  1.
          2    1    1    2  501    0  0.26904766743E+02  0.15792645710E+02  0.19362188176E+03  0.19611911490E+03  0.00000000000E+00 0.  1.
          1    1    1    2  502    0 -0.26904766743E+02 -0.15792645710E+02  0.40130497554E+02  0.50830413789E+02  0.00000000000E+00 0.  1.
</event>
<event>
 4    1  0.3752836E+003  0.2717898E+02  0.7546771E-02  0.1445819E+00
          2   -1    0    0  502    0  0.00000000000E+00  0.00000000000E+00  0.10790435426E+03  0.10790435426E+03  0.00000000000E+00 0. -1.
          1   -1    0    0  501    0 -0.00000000000E+00 -0.00000000000E+00 -0.14683042666E+02  0.14683042666E+02  0.00000000000E+00 0. -1.
          2    1    1    2  501    0 -0.16087344047E+02  0.21906484382E+02  0.91391073757E+02  0.95346867064E+02  0.00000000000E+00 0. -1.
          1    1    1    2  502    0  0.16087344047E+02 -0.21906484382E+02  0.18302378342E+01  0.27240529859E+02  0.00000000000E+00 0. -1.
</event>
<event>
 4    1  0.3752836E+003  0.4788820E+02  0.7546771E-02  0.1307598E+00
          2   -1    0    0  502    0  0.00000000000E+00  0.00000000000E+00  0.99441768640E+03  0.99441768640E+03  0.00000000000E+00 0. -1.
          1   -1    0    0  501    0 -0.00000000000E+00 -0.00000000000E+00 -0.40432606425E+01  0.40432606425E+01  0.00000000000E+00 0.  1.
          2    1    1    2  501    0  0.45116163755E+02  0.16056503139E+02  0.82241378217E+03  0.82380683939E+03  0.00000000000E+00 0. -1.
          1    1    1    2  502    0 -0.45116163755E+02 -0.16056503139E+02  0.16796064359E+03  0.17465410765E+03  0.00000000000E+00 0.  1.
</event>
<event>
 4    1  0.3752836E+003  0.2960921E+02  0.7546771E-02  0.1423023E+00
          2   -1    0    0  502    0  0.00000000000E+00  0.00000000000E+00  0.13002897889E+04  0.13002897889E+04  0.00000000000E+00 0.  1.
          1   -1    0    0  501    0 -0.00000000000E+00 -0.00000000000E+00 -0.23395429624E+01  0.23395429624E+01  0.00000000000E+00 0.  1.
          2    1    1    2  501    0 -0.17982439106E+02 -0.23523124797E+02  0.11984807702E+04  0.11988464714E+04  0.00000000000E+00 0.  1.
          1    1    1    2  502    0  0.17982439106E+02  0.23523124797E+02  0.99469475737E+02  0.10378286043E+03  0.00000000000E+00 0.  1.
</event>
<event>
 4    1  0.3752836E+003  0.2105071E+02  0.7546771E-02  0.1518542E+00
          2   -1    0    0  502    0  0.00000000000E+00  0.00000000000E+00  0.16670774572E+04  0.16670774572E+04  0.00000000000E+00 0.  1.
          1   -1    0    0  501    0 -0.00000000000E+00 -0.00000000000E+00 -0.28259956188E+00  0.28259956188E+00  0.00000000000E+00 0.  1.
          2    1    1    2  501    0 -0.28982205632E+01 -0.20850232791E+02  0.63021481491E+03  0.63056628900E+03  0.00000000000E+00 0.  1.
          1    1    1    2  502    0  0.28982205632E+01  0.20850232791E+02  0.10365800428E+04  0.10367937678E+04  0.00000000000E+00 0.  1.
</event>
<event>
 4    1  0.3752836E+003  0.2439884E+02  0.7546771E-02  0.1475642E+00
          2   -1    0    0  502    0  0.00000000000E+00  0.00000000000E+00  0.57716383074E+03  0.57716383074E+03  0.00000000000E+00 0.  1.
          1   -1    0    0  501    0 -0.00000000000E+00 -0.00000000000E+00 -0.23160857843E+01  0.23160857843E+01  0.00000000000E+00 0.  1.
          2    1    1    2  501    0 -0.41344826085E+01  0.24045990403E+02  0.50321053811E+03  0.50380169638E+03  0.00000000000E+00 0.  1.
          1    1    1    2  502    0  0.41344826085E+01 -0.24045990403E+02  0.71637206838E+02  0.75678220146E+02  0.00000000000E+00 0.  1.
</event>
<event>
 4    1  0.3752836E+003  0.5382364E+02  0.7546771E-02  0.1282394E+00
          2   -1    0    0  502    0  0.00000000000E+00  0.00000000000E+00  0.24118039673E+04  0.24118039673E+04  0.00000000000E+00 0. -1.
          1   -1    0    0  501    0 -0.00000000000E+00 -0.00000000000E+00 -0.15223762738E+01  0.15223762738E+01  0.00000000000E+00 0.  1.
          2    1    1    2  501    0 -0.41168130175E+02  0.34672311724E+02  0.17594061655E+04  0.17602292576E+04  0.00000000000E+00 0. -1.
          1    1    1    2  502    0  0.41168130175E+02 -0.34672311724E+02  0.65087542556E+03  0.65309708600E+03  0.00000000000E+00 0.  1.
</event>
<event>
 4    1  0.3752836E+003  0.7480030E+02  0.7546771E-02  0.1216462E+00
          2   -1    0    0  502    0  0.00000000000E+00  0.00000000000E+00  0.50106044347E+03  0.50106044347E+03  0.00000000000E+00 0.  1.
          1   -1    0    0  501    0 -0.00000000000E+00 -0.00000000000E+00 -0.12344822364E+02  0.12344822364E+02  0.00000000000E+00 0.  1.
          2    1    1    2  501    0 -0.65180302360E+02  0.36696217066E+02  0.32366684054E+03  0.33219769389E+03  0.00000000000E+00 0.  1.
          1    1    1    2  502    0  0.65180302360E+02 -0.36696217066E+02  0.16504878057E+03  0.18120757195E+03  0.00000000000E+00 0.  1.
</event>
<event>
 4    1  0.3752836E+003  0.2029138E+02  0.7546771E-02  0.1529627E+00
          2   -1    0    0  502    0  0.00000000000E+00  0.00000000000E+00  0.80460443633E+02  0.80460443633E+02  0.00000000000E+00 0. -1.
          1   -1    0    0  501    0 -0.00000000000E+00 -0.00000000000E+00 -0.33355973036E+02  0.33355973036E+02  0.00000000000E+00 0.  1.
          2    1    1    2  501    0  0.20278425822E+02 -0.72489895536E+00  0.75913516781E+02  0.78578636171E+02  0.00000000000E+00 0. -1.
          1    1    1    2  502    0 -0.20278425822E+02  0.72489895536E+00 -0.28809046184E+02  0.35237780497E+02  0.00000000000E+00 0.  1.
</event>
<event>
 4    1  0.3752836E+003  0.2266716E+02  0.7546771E-02  0.1496721E+00
          2   -1    0    0  502    0  0.00000000000E+00  0.00000000000E+00  0.16558645702E+02  0.16558645702E+02  0.00000000000E+00 0.  1.
          1   -1    0    0  501    0 -0.00000000000E+00 -0.00000000000E+00 -0.69242796876E+02  0.69242796876E+02  0.00000000000E+00 0.  1.
          2    1    1    2  501    0 -0.22242607959E+02  0.43664988293E+01  0.55282722936E+01  0.23331560501E+02  0.00000000000E+00 0.  1.
          1    1    1    2  502    0  0.22242607959E+02 -0.43664988293E+01 -0.58212423467E+02  0.62469882078E+02  0.00000000000E+00 0.  1.
</event>
<event>
 4    1  0.3752836E+003  0.2773152E+02  0.7546771E-02  0.1440395E+00
          2   -1    0    0  502    0  0.00000000000E+00  0.00000000000E+00  0.32021100985E+03  0.32021100985E+03  0.00000000000E+00 0. -1.
          1   -1    0    0  501    0 -0.00000000000E+00 -0.00000000000E+00 -0.26304406115E+01  0.26304406115E+01  0.00000000000E+00 0. -1.
          2    1    1    2  501    0  0.18290189580E+01 -0.27671123715E+02  0.11118454433E+03  0.11459074699E+03  0.00000000000E+00 0. -1.
          1    1    1    2  502    0 -0.18290189580E+01  0.27671123715E+02  0.20639602491E+03  0.20825070347E+03  0.00000000000E+00 0. -1.
</event>
<event>
 4    1  0.3752836E+003  0.2476831E+02  0.7546771E-02  0.1471412E+00
          2   -1    0    0  502    0  0.00000000000E+00  0.00000000000E+00  0.17964681583E+04  0.17964681583E+04  0.00000000000E+00 0. -1.
          1   -1    0    0  501    0 -0.00000000000E+00 -0.00000000000E+00 -0.58323297342E+00  0.58323297342E+00  0.00000000000E+00 0. -1.
          2    1    1    2  501    0 -0.16882406053E+02  0.18123291559E+02  0.14764242453E+04  0.14766319858E+04  0.00000000000E+00 0. -1.
          1    1    1    2  502    0  0.16882406053E+02 -0.18123291559E+02  0.31946068003E+03  0.32041940549E+03  0.00000000000E+00 0. -1.
</event>
<event>
 4    1  0.3752836E+003  0.2471758E+02  0.7546771E-02  0.1471988E+00
          2   -1    0    0  502    0  0.00000000000E+00  0.00000000000E+00  0.28542803389E+02  0.28542803389E+02  0.00000000000E+00 0.  1.
          1   -1    0    0  501    0 -0.00000000000E+00 -0.00000000000E+00 -0.24360124922E+02  0.24360124922E+02  0.00000000000E+00 0. -1.
          2    1    1    2  501    0 -0.11833611540E+02 -0.21700796063E+02  0.11304260388E+02  0.27179867821E+02  0.00000000000E+00 0.  1.
          1    1    1    2  502    0  0.11833611540E+02  0.21700796063E+02 -0.71215819210E+01  0.25723060489E+02  0.00000000000E+00 0. -1.
</event>
<event>
 4    1  0.3752836E+003  0.2006131E+02  0.7546771E-02  0.1533100E+00
          2   -1    0    0  502    0  0.00000000000E+00  0.00000000000E+00  0.43209950619E+03  0.43209950619E+03  0.00000000000E+00 0.  1.
          1   -1    0    0  501    0 -0.00000000000E+00 -0.00000000000E+00 -0.13663769915E+01  0.13663769915E+01  0.00000000000E+00 0.  1.
          2    1    1    2  501    0 -0.20011696809E+02  0.14100387253E+01  0.33765186522E+03  0.33824730347E+03  0.00000000000E+00 0.  1.
          1    1    1    2  502    0  0.20011696809E+02 -0.14100387253E+01  0.93081263987E+02  0.95218579719E+02  0.00000000000E+00 0.  1.
</event>
<event>
 4    1  0.3752836E+003  0.5957865E+02  0.7546771E-02  0.1261271E+00
          2   -1    0    0  502    0  0.00000000000E+00  0.00000000000E+00  0.70645079546E+02  0.70645079546E+02  0.00000000000E+00 0.  1.
          1   -1    0    0  501    0 -0.00000000000E+00 -0.00000000000E+00 -0.85378196428E+02  0.85378196428E+02  0.00000000000E+00 0.  1.
          2    1    1    2  501    0  0.17508729013E+02  0.56947872064E+02  0.42676061881E+02  0.73286165011E+02  0.00000000000E+00 0.  1.
          1    1    1    2  502    0 -0.17508729013E+02 -0.56947872064E+02 -0.57409178763E+02  0.82737110963E+02  0.00000000000E+00 0.  1.
</event>
<event>
 4    1  0.3752836E+003  0.2481592E+02  0.7546771E-02  0.1470873E+00
          2   -1    0    0  502    0  0.00000000000E+00  0.00000000000E+00  0.47116601003E+02  0.47116601003E+02  0.00000000000E+00 0.  1.
          1   -1    0    0  501    0 -0.00000000000E+00 -0.00000000000E+00 -0.24893450127E+02  0.24893450127E+02  0.00000000000E+00 0.  1.
          2    1    1    2  501    0  0.23848224356E+01 -0.24701057872E+02  0.35924993004E+02  0.43662738810E+02  0.00000000000E+00 0.  1.
          1    1    1    2  502    0 -0.23848224356E+01  0.24701057872E+02 -0.13701842129E+02  0.28347312320E+02  0.00000000000E+00 0.  1.
</event>
<event>
 4    1  0.3752836E+003  0.2043697E+02  0.7546771E-02  0.1527457E+00
          2   -1    0    0  502    0  0.00000000000E+00  0.00000000000E+00  0.85312404933E+02  0.85312404933E+02  0.00000000000E+00 0. -1.
          1   -1    0    0  501    0 -0.00000000000E+00 -0.00000000000E+00 -0.21350158257E+02  0.21350158257E+02  0.00000000000E+00 0. -1.
          2    1    1    2  501    0 -0.19993182714E+02  0.42358615979E+01  0.78800146321E+02  0.81407204464E+02  0.00000000000E+00 0. -1.
          1    1    1    2  502    0  0.19993182714E+02 -0.42358615979E+01 -0.14837899644E+02  0.25255358726E+02  0.00000000000E+00 0. -1.
</event>
<event>
 4    1  0.3752836E+003  0.2483243E+02  0.7546771E-02  0.1470687E+00
          2   -1    0    0  502    0  0.00000000000E+00  0.00000000000E+00  0.12525194618E+02  0.12525194618E+02  0.00000000000E+00 0. -1.
          1   -1    0    0  501    0 -0.00000000000E+00 -0.00000000000E+00 -0.17386981536E+03  0.17386981536E+03  0.00000000000E+00 0. -1.
          2    1    1    2  501    0 -0.23194850566E+02  0.88684000308E+01 -0.17652581326E+01  0.24895094862E+02  0.00000000000E+00 0. -1.
          1    1    1    2  502    0  0.23194850566E+02 -0.88684000308E+01 -0.15957936261E+03  0.16149991512E+03  0.00000000000E+00 0. -1.
</event>
<event>
 4    1  0.3752836E+003  0.2382216E+02  0.7546771E-02  0.1482424E+00
          2   -1    0    0  502    0  0.00000000000E+00  0.00000000000E+00  0.55248863641E+03  0.55248863641E+03  0.00000000000E+00 0.  1.
          1   -1    0    0  501    0 -0.00000000000E+00 -0.00000000000E+00 -0.80699540940E+03  0.80699540940E+03  0.00000000000E+00 0. -1.
          2    1    1    2  501    0  0.13422947117E+02  0.19680439322E+02  0.55205590326E+03  0.55256964767E+03  0.00000000000E+00 0.  1.
          1    1    1    2  502    0 -0.13422947117E+02 -0.19680439322E+02 -0.80656267625E+03  0.80691439813E+03  0.00000000000E+00 0. -1.
</event>
<event>
 4    1  0.3752836E+003  0.2594573E+02  0.7546771E-02  0.1458496E+00
          2   -1    0    0  502    0  0.00000000000E+00  0.00000000000E+00  0.41883457573E+03  0.41883457573E+03  0.00000000000E+00 0. -1.
          1   -1    0    0  501    0 -0.00000000000E+00 -0.00000000000E+00 -0.16072764060E+01  0.16072764060E+01  0.00000000000E+00 0. -1.
          2    1    1    2  501    0  0.42275339633E+01 -0.25598999707E+02  0.20898513631E+03  0.21058957245E+03  0.00000000000E+00 0. -1.
          1    1    1    2  502    0 -0.42275339633E+01  0.25598999707E+02  0.20824216302E+03  0.20985227968E+03  0.00000000000E+00 0. -1.
</event>
<event>
 4    1  0.3752836E+003  0.2180582E+02  0.7546771E-02  0.1508064E+00
          2   -1    0    0  502    0  0.00000000000E+00  0.00000000000E+00  0.77521643291E+03  0.77521643291E+03  0.00000000000E+00 0. -1.
          1   -1    0    0  501    0 -0.00000000000E+00 -0.00000000000E+00 -0.86627079424E+01  0.86627079424E+01  0.00000000000E+00 0.  1.
          2    1    1    2  501    0 -0.17007672738E+02  0.13646710010E+02  0.76108593883E+03  0.76139825316E+03  0.00000000000E+00 0. -1.
          1    1    1    2  502    0  0.17007672738E+02 -0.13646710010E+02  0.54677861302E+01  0.22480887688E+02  0.00000000000E+00 0.  1.
</event>
<event>
 4    1  0.3752836E+003  0.3005530E+02  0.7546771E-02  0.1419116E+00
          2   -1    0    0  502    0  0.00000000000E+00  0.00000000000E+00  0.46805892732E+03  0.46805892732E+03  0.00000000000E+00 0.  1.
          1   -1    0    0  501    0 -0.00000000000E+00 -0.00000000000E+00 -0.21854840982E+02  0.21854840982E+02  0.00000000000E+00 0.  1.
          2    1    1    2  501    0  0.29696802096E+02  0.46283055229E+01  0.45699331293E+03  0.45798057746E+03  0.00000000000E+00 0.  1.
          1    1    1    2  502    0 -0.29696802096E+02 -0.46283055229E+01 -0.10789226594E+02  0.31933190840E+02  0.00000000000E+00 0.  1.
</event>
<event>
 4    1  0.3752836E+003  0.3427864E+02  0.7546771E-02  0.1385707E+00
          2   -1    0    0  502    0  0.00000000000E+00  0.00000000000E+00  0.19105485385E+04  0.19105485385E+04  0.00000000000E+00 0. -1.
          1   -1    0    0  501    0 -0.00000000000E+00 -0.00000000000E+00 -0.20274306235E+01  0.20274306235E+01  0.00000000000E+00 0. -1.
          2    1    1    2  501    0  0.34189383024E+02 -0.24721083866E+01  0.17524320463E+04  0.17527672698E+04  0.00000000000E+00 0. -1.
          1    1    1    2  502    0 -0.34189383024E+02  0.24721083866E+01  0.15608906160E+03  0.15980869934E+03  0.00000000000E+00 0. -1.
</event>
<event>
 4    1  0.3752836E+003  0.4014633E+02  0.7546771E-02  0.1347630E+00
          2   -1    0    0  502    0  0.00000000000E+00  0.00000000000E+00  0.10321099709E+04  0.10321099709E+04  0.00000000000E+00 0. -1.
          1   -1    0    0  501    0 -0.00000000000E+00 -0.00000000000E+00 -0.20802648655E+03  0.20802648655E+03  0.00000000000E+00 0.  1.
          2    1    1    2  501    0 -0.10588491681E+02  0.38724821624E+02  0.10297782640E+04  0.10305605276E+04  0.00000000000E+00 0. -1.
          1    1    1    2  502    0  0.10588491681E+02 -0.38724821624E+02 -0.20569477971E+03  0.20957592983E+03  0.00000000000E+00 0.  1.
</event>
<event>
 4    1  0.3752836E+003  0.3436579E+02  0.7546771E-02  0.1385077E+00
          2   -1    0    0  502    0  0.00000000000E+00  0.00000000000E+00  0.70522855601E+01  0.70522855601E+01  0.00000000000E+00 0. -1.
          1   -1    0    0  501    0 -0.00000000000E+00 -0.00000000000E+00 -0.10674282396E+04  0.10674282396E+04  0.00000000000E+00 0.  1.
          2    1    1    2  501    0 -0.10751830116E+02 -0.32640552911E+02 -0.36887299403E+02  0.50415081102E+02  0.00000000000E+00 0. -1.
          1    1    1    2  502    0  0.10751830116E+02  0.32640552911E+02 -0.10234886546E+04  0.10240654440E+04  0.00000000000E+00 0.  1.
</event>
<event>
 4    1  0.3752836E+003  0.2067564E+02  0.7546771E-02  0.1523947E+00
          2   -1    0    0  502    0  0.00000000000E+00  0.00000000000E+00  0.15153637718E+04  0.15153637718E+04  0.00000000000E+00 0. -1.
          1   -1    0    0  501    0 -0.00000000000E+00 -0.00000000000E+00 -0.21848410515E+02  0.21848410515E+02  0.00000000000E+00 0.  1.
          2    1    1    2  501    0 -0.10452536814E+02 -0.17838900505E+02  0.15103856730E+04  0.15105271806E+04  0.00000000000E+00 0. -1.
          1    1    1    2  502    0  0.10452536814E+02  0.17838900505E+02 -0.16870311785E+02  0.26685001720E+02  0.00000000000E+00 0.  1.
</event>
<event>
 4    1  0.3752836E+003  0.2431945E+02  0.7546771E-02  0.1476563E+00
          2   -1    0    0  502    0  0.00000000000E+00  0.00000000000E+00  0.19100130604E+03  0.19100130604E+03  0.00000000000E+00 0.  1.
          1   -1    0    0  501    0 -0.00000000000E+00 -0.00000000000E+00 -0.67514931597E+02  0.67514931597E+02  0.00000000000E+00 0.  1.
          2    1    1    2  501    0  0.24244828017E+02  0.19036926199E+01  0.18800237324E+03  0.18956879510E+03  0.00000000000E+00 0.  1.
          1    1    1    2  502    0 -0.24244828017E+02 -0.19036926199E+01 -0.64515998800E+02  0.68947442536E+02  0.00000000000E+00 0.  1.
</event>
<event>
 4    1  0.3752836E+003  0.3588720E+02  0.7546771E-02  0.1374431E+00
          2   -1    0    0  502    0  0.00000000000E+00  0.00000000000E+00  0.72820840054E+03  0.72820840054E+03  0.00000000000E+00 0.  1.
          1   -1    0    0  501    0 -0.00000000000E+00 -0.00000000000E+00 -0.33128488626E+02  0.33128488626E+02  0.00000000000E+00 0. -1.
          2    1    1    2  501    0 -0.23995659482E+01  0.35806891344E+02  0.71790798713E+03  0.71880440272E+03  0.00000000000E+00 0.  1.
          1    1    1    2  502    0  0.23995659482E+01 -0.35806891344E+02 -0.22828075222E+02  0.42532486441E+02  0.00000000000E+00 0. -1.
</event>
<event>
 4    1  0.3752836E+003  0.3268758E+02  0.7546771E-02  0.1397592E+00
          2   -1    0    0  502    0  0.00000000000E+00  0.00000000000E+00  0.79873517339E+03  0.79873517339E+03  0.00000000000E+00 0.  1.
          1   -1    0    0  501    0 -0.00000000000E+00 -0.00000000000E+00 -0.73838582338E+01  0.73838582338E+01  0.00000000000E+00 0.  1.
          2    1    1    2  501    0  0.28986424598E+02  0.15108451309E+02  0.76040172631E+03  0.76110397679E+03  0.00000000000E+00 0.  1.
          1    1    1    2  502    0 -0.28986424598E+02 -0.15108451309E+02  0.30949588850E+02  0.45015054836E+02  0.00000000000E+00 0.  1.
</event>
<event>
 4    1  0.3752836E+003  0.2021463E+02  0.7546771E-02  0.1530780E+00
          2   -1    0    0  502    0  0.00000000000E+00  0.00000000000E+00  0.60348650400E+03  0.60348650400E+03  0.00000000000E+00 0.  1.
          1   -1    0    0  501    0 -0.00000000000E+00 -0.00000000000E+00 -0.22404330127E+02  0.22404330127E+02  0.00000000000E+00 0. -1.
          2    1    1    2  501    0  0.20186126134E+02  0.10730436967E+01  0.59872120992E+03  0.59906236597E+03  0.00000000000E+00 0.  1.
          1    1    1    2  502    0 -0.20186126134E+02 -0.10730436967E+01 -0.17639036047E+02  0.26828468159E+02  0.00000000000E+00 0. -1.
</event>
<event>
 4    1  0.3752836E+003  0.2283525E+02  0.7546771E-02  0.1494577E+00
          2   -1    0    0  502    0  0.00000000000E+00  0.00000000000E+00  0.18144583836E+02  0.18144583836E+02  0.00000000000E+00 0.  1.
          1   -1    0    0  501    0 -0.00000000000E+00 -0.00000000000E+00 -0.79537272082E+02  0.79537272082E+02  0.00000000000E+00 0. -1.
          2    1    1    2  501    0  0.10190538776E+02 -0.20435303146E+02  0.83360358843E+01  0.24309220256E+02  0.00000000000E+00 0.  1.
          1    1    1    2  502    0 -0.10190538776E+02  0.20435303146E+02 -0.69728724130E+02  0.73372635662E+02  0.00000000000E+00 0. -1.
</event>
<event>
 4    1  0.3752836E+003  0.2843661E+02  0.7546771E-02  0.1433687E+00
          2   -1    0    0  502    0  0.00000000000E+00  0.00000000000E+00  0.61375939307E+03  0.61375939307E+03  0.00000000000E+00 0. -1.
          1   -1    0    0  501    0 -0.00000000000E+00 -0.00000000000E+00 -0.30952462380E+02  0.30952462380E+02  0.00000000000E+00 0.  1.
          2    1    1    2  501    0  0.80246522876E+01  0.27280865220E+02  0.60682409738E+03  0.60749002116E+03  0.00000000000E+00 0. -1.
          1    1    1    2  502    0 -0.80246522876E+01 -0.27280865220E+02 -0.24017166693E+02  0.37221834284E+02  0.00000000000E+00 0.  1.
</event>
<event>
 4    1  0.3752836E+003  0.4397304E+02  0.7546771E-02  0.1326655E+00
          2   -1    0    0  502    0  0.00000000000E+00  0.00000000000E+00  0.14512540545E+04  0.14512540545E+04  0.00000000000E+00 0. -1.
          1   -1    0    0  501    0 -0.00000000000E+00 -0.00000000000E+00 -0.21763291918E+01  0.21763291918E+01  0.00000000000E+00 0. -1.
          2    1    1    2  501    0 -0.38783741615E+02 -0.20723167799E+02  0.11770809315E+04  0.11779020111E+04  0.00000000000E+00 0. -1.
          1    1    1    2  502    0  0.38783741615E+02  0.20723167799E+02  0.27199679377E+03  0.27552837262E+03  0.00000000000E+00 0. -1.
</event>
<event>
 4    1  0.3752836E+003  0.5575917E+02  0.7546771E-02  0.1274965E+00
          2   -1    0    0  502    0  0.00000000000E+00  0.00000000000E+00  0.79687666748E+02  0.79687666748E+02  0.00000000000E+00 0.  1.
          1   -1    0    0  501    0 -0.00000000000E+00 -0.00000000000E+00 -0.15350639145E+03  0.15350639145E+03  0.00000000000E+00 0.  1.
          2    1    1    2  501    0 -0.55752971842E+02 -0.83109544139E+00  0.63785890701E+02  0.84721452073E+02  0.00000000000E+00 0.  1.
          1    1    1    2  502    0  0.55752971842E+02  0.83109544139E+00 -0.13760461540E+03  0.14847260612E+03  0.00000000000E+00 0.  1.
</event>
<event>
 4    1  0.3752836E+003  0.2254279E+02  0.7546771E-02  0.1498321E+00
          2   -1    0    0  502    0  0.00000000000E+00  0.00000000000E+00  0.54756975759E+01  0.54756975759E+01  0.00000000000E+00 0. -1.
          1   -1    0    0  501    0 -0.00000000000E+00 -0.00000000000E+00 -0.20279397963E+03  0.20279397963E+03  0.00000000000E+00 0.  1.
          2    1    1    2  501    0 -0.81974226927E+01 -0.20999514313E+02 -0.21968702454E+02  0.31476995214E+02  0.00000000000E+00 0. -1.
          1    1    1    2  502    0  0.81974226927E+01  0.20999514313E+02 -0.17534957960E+03  0.17679268200E+03  0.00000000000E+00 0.  1.
</event>
<event>
 4    1  0.3752836E+003  0.7394512E+02  0.7546771E-02  0.1218648E+00
          2   -1    0    0  502    0  0.00000000000E+00  0.00000000000E+00  0.11749186940E+04  0.11749186940E+04  0.00000000000E+00 0. -1.
          1   -1    0    0  501    0 -0.00000000000E+00 -0.00000000000E+00 -0.21260842614E+02  0.21260842614E+02  0.00000000000E+00 0.  1.
          2    1    1    2  501    0 -0.73868325123E+02  0.33691901820E+01  0.11054223957E+04  0.11078928440E+04  0.00000000000E+00 0. -1.
          1    1    1    2  502    0  0.73868325123E+02 -0.33691901820E+01  0.48235455609E+02  0.88286692524E+02  0.00000000000E+00 0.  1.
</event>
<event>
 4    1  0.3752836E+003  0.3728560E+02  0.7546771E-02  0.1365171E+00
          2   -1    0    0  502    0  0.00000000000E+00  0.00000000000E+00  0.39466992589E+03  0.39466992589E+03  0.00000000000E+00 0. -1.
          1   -1    0    0  501    0 -0.00000000000E+00 -0.00000000000E+00 -0.36416370319E+01  0.36416370319E+01  0.00000000000E+00 0.  1.
          2    1    1    2  501    0  0.21557487339E+02 -0.30421873068E+02  0.23153967846E+03  0.23452257529E+03  0.00000000000E+00 0. -1.
          1    1    1    2  502    0 -0.21557487339E+02  0.30421873068E+02  0.15948861040E+03  0.16378898762E+03  0.00000000000E+00 0.  1.
</event>
<event>
 4    1  0.3752836E+003  0.2187425E+02  0.7546771E-02  0.1507140E+00
          2   -1    0    0  502    0  0.00000000000E+00  0.00000000000E+00  0.23699842568E+03  0.23699842568E+03  0.00000000000E+00 0.  1.
          1   -1    0    0  501    0 -0.00000000000E+00 -0.00000000000E+00 -0.34647956001E+01  0.34647956001E+01  0.00000000000E+00 0. -1.
          2    1    1    2  501    0  0.21652866804E+01 -0.21766813235E+02  0.19443518712E+03  0.19566176074E+03  0.00000000000E+00 0.  1.
          1    1    1    2  502    0 -0.21652866804E+01  0.21766813235E+02  0.39098442962E+02  0.44801460544E+02  0.00000000000E+00 0. -1.
</event>
<event>
 4    1  0.3752836E+003  0.2859494E+02  0.7546771E-02  0.1432213E+00
          2   -1    0    0  502    0  0.00000000000E+00  0.00000000000E+00  0.48342878973E+03  0.48342878973E+03  0.00000000000E+00 0.  1.
          1   -1    0    0  501    0 -0.00000000000E+00 -0.00000000000E+00 -0.33020329471E+02  0.33020329471E+02  0.00000000000E+00 0. -1.
          2    1    1    2  501    0  0.25932985173E+02  0.12047854880E+02  0.47672834832E+03  0.47758516374E+03  0.00000000000E+00 0.  1.
          1    1    1    2  502    0 -0.25932985173E+02 -0.12047854880E+02 -0.26319888060E+02  0.38863955469E+02  0.00000000000E+00 0. -1.
</event>
<event>
 4    1  0.3752836E+003  0.5488503E+02  0.7546771E-02  0.1278277E+00
          2   -1    0    0  502    0  0.00000000000E+00  0.00000000000E+00  0.56198514687E+01  0.56198514687E+01  0.00000000000E+00 0. -1.
          1   -1    0    0  501    0 -0.00000000000E+00 -0.00000000000E+00 -0.79312387211E+03  0.79312387211E+03  0.00000000000E+00 0. -1.
          2    1    1    2  501    0 -0.15418263420E+02 -0.52674888643E+02 -0.16636839715E+03  0.17518792856E+03  0.00000000000E+00 0. -1.
          1    1    1    2  502    0  0.15418263420E+02  0.52674888643E+02 -0.62113562349E+03  0.62355579502E+03  0.00000000000E+00 0. -1.
</event>
<event>
 4    1  0.3752836E+003  0.3628778E+02  0.7546771E-02  0.1371729E+00
          2   -1    0    0  502    0  0.00000000000E+00  0.00000000000E+00  0.12482653305E+04  0.12482653305E+04  0.00000000000E+00 0. -1.
          1   -1    0    0  501    0 -0.00000000000E+00 -0.00000000000E+00 -0.23023951690E+01  0.23023951690E+01  0.00000000000E+00 0. -1.
          2    1    1    2  501    0  0.31836791401E+02 -0.17413265797E+02  0.10832439829E+04  0.10838516179E+04  0.00000000000E+00 0. -1.
          1    1    1    2  502    0 -0.31836791401E+02  0.17413265797E+02  0.16271895236E+03  0.16671610771E+03  0.00000000000E+00 0. -1.
</event>
<event>
 4    1  0.3752836E+003  0.2580324E+02  0.7546771E-02  0.1460015E+00
          2   -1    0    0  502    0  0.00000000000E+00  0.00000000000E+00  0.11022784507E+02  0.11022784507E+02  0.00000000000E+00 0.  1.
          1   -1    0    0  501    0 -0.00000000000E+00 -0.00000000000E+00 -0.14650087783E+03  0.14650087783E+03  0.00000000000E+00 0. -1.
          2    1    1    2  501    0  0.21631509013E+02  0.14067169545E+02 -0.73591550423E+01  0.26832156159E+02  0.00000000000E+00 0.  1.
          1    1    1    2  502    0 -0.21631509013E+02 -0.14067169545E+02 -0.12811893828E+03  0.13069150618E+03  0.00000000000E+00 0. -1.
</event>
<event>
 4    1  0.3752836E+003  0.2245297E+02  0.7546771E-02  0.1499484E+00
          2   -1    0    0  502    0  0.00000000000E+00  0.00000000000E+00  0.31523147396E+03  0.31523147396E+03  0.00000000000E+00 0. -1.
          1   -1    0    0  501    0 -0.00000000000E+00 -0.00000000000E+00 -0.16648444563E+01  0.16648444563E+01  0.00000000000E+00 0. -1.
          2    1    1    2  501    0 -0.54714858873E+01 -0.21776107102E+02  0.18823270735E+03  0.18956710716E+03  0.00000000000E+00 0. -1.
          1    1    1    2  502    0  0.54714858873E+01  0.21776107102E+02  0.12533392215E+03  0.12732921126E+03  0.00000000000E+00 0. -1.
</event>
<event>
 4    1  0.3752836E+003  0.2028122E+02  0.7546771E-02  0.1529779E+00
          2   -1    0    0  502    0  0.00000000000E+00  0.00000000000E+00  0.10413946777E+04  0.10413946777E+04  0.00000000000E+00 0.  1.
          1   -1    0    0  501    0 -0.00000000000E+00 -0.00000000000E+00 -0.28595295795E+01  0.28595295795E+01  0.00000000000E+00 0.  1.
          2    1    1    2  501    0  0.86211015927E+01 -0.18357686512E+02  0.10039953341E+04  0.10042001588E+04  0.00000000000E+00 0.  1.
          1    1    1    2  502    0 -0.86211015927E+01  0.18357686512E+02  0.34539814021E+02  0.40054048476E+02  0.00000000000E+00 0.  1.
</event>
<event>
 4    1  0.3752836E+003  0.3251388E+02  0.7546771E-02  0.1398938E+00
          2   -1    0    0  502    0  0.00000000000E+00  0.00000000000E+00  0.13247902958E+03  0.13247902958E+03  0.00000000000E+00 0.  1.
          1   -1    0    0  501    0 -0.00000000000E+00 -0.00000000000E+00 -0.18926541739E+02  0.18926541739E+02  0.00000000000E+00 0.  1.
          2    1    1    2  501    0  0.31626466837E+02 -0.75444624018E+01  0.11434929410E+03  0.11888193041E+03  0.00000000000E+00 0.  1.
          1    1    1    2  502    0 -0.31626466837E+02  0.75444624018E+01 -0.79680626007E+00  0.32523640905E+02  0.00000000000E+00 0.  1.
</event>
<event>
 4    1  0.3752836E+003  0.2293403E+02  0.7546771E-02  0.1493328E+00
          2   -1    0    0  502    0  0.00000000000E+00  0.00000000000E+00  0.21410366916E+01  0.21410366916E+01  0.00000000000E+00 0.  1.
          1   -1    0    0  501    0 -0.00000000000E+00 -0.00000000000E+00 -0.24566470033E+03  0.24566470033E+03  0.00000000000E+00 0.  1.
          2    1    1    2  501    0  0.12785241842E+02  0.19039606705E+02 -0.12224820362E+03  0.12438083582E+03  0.00000000000E+00 0.  1.
          1    1    1    2  502    0 -0.12785241842E+02 -0.19039606705E+02 -0.12127546002E+03  0.12342490120E+03  0.00000000000E+00 0.  1.
</event>
<event>
 4    1  0.3752836E+003  0.2184054E+02  0.7546771E-02  0.1507594E+00
          2   -1    0    0  502    0  0.00000000000E+00  0.00000000000E+00  0.31376079262E+02  0.31376079262E+02  0.00000000000E+00 0.  1.
          1   -1    0    0  501    0 -0.00000000000E+00 -0.00000000000E+00 -0.13690076678E+03  0.13690076678E+03  0.00000000000E+00 0. -1.
          2    1    1    2  501    0 -0.10469319133E+02 -0.19167747740E+02  0.26566807535E+02  0.34391924330E+02  0.00000000000E+00 0.  1.
          1    1    1    2  502    0  0.10469319133E+02  0.19167747740E+02 -0.13209149506E+03  0.13388492172E+03  0.00000000000E+00 0. -1.
</event>
<event>
 4    1  0.3752836E+003  0.4064825E+02  0.7546771E-02  0.1344728E+00
          2   -1    0    0  502    0  0.00000000000E+00  0.00000000000E+00  0.61055829673E+02  0.61055829673E+02  0.00000000000E+00 0.  1.
          1   -1    0    0  501    0 -0.00000000000E+00 -0.00000000000E+00 -0.18928794769E+03  0.18928794769E+03  0.00000000000E+00 0.  1.
          2    1    1    2  501    0  0.76137854244E+01  0.39928814078E+02  0.51763215521E+02  0.65815730667E+02  0.00000000000E+00 0.  1.
          1    1    1    2  502    0 -0.76137854244E+01 -0.39928814078E+02 -0.17999533354E+03  0.18452804670E+03  0.00000000000E+00 0.  1.
</event>
<event>
 4    1  0.3752836E+003  0.3012196E+02  0.7546771E-02  0.1418540E+00
          2   -1    0    0  502    0  0.00000000000E+00  0.00000000000E+00  0.17324271384E+01  0.17324271384E+01  0.00000000000E+00 0. -1.
          1   -1    0    0  501    0 -0.00000000000E+00 -0.00000000000E+00 -0.61298649246E+03  0.61298649246E+03  0.00000000000E+00 0. -1.
          2    1    1    2  501    0 -0.98324962936E+01 -0.28471992695E+02 -0.18834556195E+03  0.19073904440E+03  0.00000000000E+00 0. -1.
          1    1    1    2  502    0  0.98324962936E+01  0.28471992695E+02 -0.42290850337E+03  0.42397987520E+03  0.00000000000E+00 0. -1.
</event>
<event>
 4    1  0.3752836E+003  0.2151132E+02  0.7546771E-02  0.1512088E+00
          2   -1    0    0  502    0  0.00000000000E+00  0.00000000000E+00  0.25566189343E+01  0.25566189343E+01  0.00000000000E+00 0.  1.
          1   -1    0    0  501    0 -0.00000000000E+00 -0.00000000000E+00 -0.22451726565E+03  0.22451726565E+03  0.00000000000E+00 0.  1.
          2    1    1    2  501    0 -0.16898365177E+02 -0.13310980329E+02 -0.60992439304E+02  0.64674682799E+02  0.00000000000E+00 0.  1.
          1    1    1    2  502    0  0.16898365177E+02  0.13310980329E+02 -0.16096820741E+03  0.16239920179E+03  0.00000000000E+00 0.  1.
</event>
<event>
 4    1  0.3752836E+003  0.2590654E+02  0.7546771E-02  0.1458912E+00
          2   -1    0    0  502    0  0.00000000000E+00  0.00000000000E+00  0.66644606444E+03  0.66644606444E+03  0.00000000000E+00 0. -1.
          1   -1    0    0  501    0 -0.00000000000E+00 -0.00000000000E+00 -0.26277328405E+03  0.26277328405E+03  0.00000000000E+00 0. -1.
          2    1    1    2  501    0 -0.17533235832E+02 -0.19071821879E+02  0.66555492120E+03  0.66605893274E+03  0.00000000000E+00 0. -1.
          1    1    1    2  502    0  0.17533235832E+02  0.19071821879E+02 -0.26188214080E+03  0.26316041576E+03  0.00000000000E+00 0. -1.
</event>
<event>
 4    1  0.3752836E+003  0.2710146E+02  0.7546771E-02  0.1446592E+00
          2   -1    0    0  502    0  0.00000000000E+00  0.00000000000E+00  0.11916569653E+03  0.11916569653E+03  0.00000000000E+00 0.  1.
          1   -1    0    0  501    0 -0.00000000000E+00 -0.00000000000E+00 -0.17935090100E+02  0.17935090100E+02  0.00000000000E+00 0. -1.
          2    1    1    2  501    0 -0.17039168585E+02  0.21075003517E+02  0.10615122577E+03  0.10955624935E+03  0.00000000000E+00 0.  1.
          1    1    1    2  502    0  0.17039168585E+02 -0.21075003517E+02 -0.49206193385E+01  0.27544537280E+02  0.00000000000E+00 0. -1.
</event>
<event>
 4    1  0.3752836E+003  0.2169439E+02  0.7546771E-02  0.1509577E+00
          2   -1    0    0  502    0  0.00000000000E+00  0.00000000000E+00  0.32124483211E+01  0.32124483211E+01  0.00000000000E+00 0.  1.
          1   -1    0    0  501    0 -0.00000000000E+00 -0.00000000000E+00 -0.13743457060E+04  0.13743457060E+04  0.00000000000E+00 0. -1.
          2    1    1    2  501    0  0.18121759223E+02 -0.11926794247E+02 -0.34534250112E+02  0.40783097101E+02  0.00000000000E+00 0.  1.
          1    1    1    2  502    0 -0.18121759223E+02  0.11926794247E+02 -0.13365990076E+04  0.13367750573E+04  0.00000000000E+00 0. -1.
</event>
<event>
 4    1  0.3752836E+003  0.2292664E+02  0.7546771E-02  0.1493421E+00
          2   -1    0    0  502    0  0.00000000000E+00  0.00000000000E+00  0.18000220669E+03  0.18000220669E+03  0.00000000000E+00 0. -1.
          1   -1    0    0  501    0 -0.00000000000E+00 -0.00000000000E+00 -0.12799444003E+02  0.12799444003E+02  0.00000000000E+00 0. -1.
          2    1    1    2  501    0 -0.10428807903E+02 -0.20417415030E+02  0.16829456705E+03  0.16984902758E+03  0.00000000000E+00 0. -1.
          1    1    1    2  502    0  0.10428807903E+02  0.20417415030E+02 -0.10918043680E+01  0.22952623109E+02  0.00000000000E+00 0. -1.
</event>
<event>
 4    1  0.3752836E+003  0.2213450E+02  0.7546771E-02  0.1503662E+00
          2   -1    0    0  502    0  0.00000000000E+00  0.00000000000E+00  0.24581400154E+01  0.24581400154E+01  0.00000000000E+00 0.  1.
          1   -1    0    0  501    0 -0.00000000000E+00 -0.00000000000E+00 -0.26072454733E+03  0.26072454733E+03  0.00000000000E+00 0. -1.
          2    1    1    2  501    0  0.22134193598E+02 -0.11723304271E+00 -0.65267796838E+02  0.68918949310E+02  0.00000000000E+00 0.  1.
          1    1    1    2  502    0 -0.22134193598E+02  0.11723304271E+00 -0.19299861048E+03  0.19426373804E+03  0.00000000000E+00 0. -1.
</event>
<event>
 4    1  0.3752836E+003  0.2176006E+02  0.7546771E-02  0.1508684E+00
          2   -1    0    0  502    0  0.00000000000E+00  0.00000000000E+00  0.11268327016E+03  0.11268327016E+03  0.00000000000E+00 0. -1.
          1   -1    0    0  501    0 -0.00000000000E+00 -0.00000000000E+00 -0.41811212241E+02  0.41811212241E+02  0.00000000000E+00 0. -1.
          2    1    1    2  501    0 -0.10457757476E+02 -0.19082333163E+02  0.10869881990E+03  0.11085546256E+03  0.00000000000E+00 0. -1.
          1    1    1    2  502    0  0.10457757476E+02  0.19082333163E+02 -0.37826761987E+02  0.43639019842E+02  0.00000000000E+00 0. -1.
</event>
<event>
 4    1  0.3752836E+003  0.3150718E+02  0.7546771E-02  0.1406936E+00
          2   -1    0    0  502    0  0.00000000000E+00  0.00000000000E+00  0.35455702623E+03  0.35455702623E+03  0.00000000000E+00 0. -1.
          1   -1    0    0  501    0 -0.00000000000E+00 -0.00000000000E+00 -0.17182598724E+02  0.17182598724E+02  0.00000000000E+00 0. -1.
          2    1    1    2  501    0 -0.27330116815E+02 -0.15676956510E+02  0.33874070945E+03  0.34020283728E+03  0.00000000000E+00 0. -1.
          1    1    1    2  502    0  0.27330116815E+02  0.15676956510E+02 -0.13662819477E+01  0.31536787675E+02  0.00000000000E+00 0. -1.
</event>
<event>
 4    1  0.3752836E+003  0.2264199E+02  0.7546771E-02  0.1497043E+00
          2   -1    0    0  502    0  0.00000000000E+00  0.00000000000E+00  0.89665721328E+03  0.89665721328E+03  0.00000000000E+00 0.  1.
          1   -1    0    0  501    0 -0.00000000000E+00 -0.00000000000E+00 -0.45361295283E+01  0.45361295283E+01  0.00000000000E+00 0. -1.
          2    1    1    2  501    0  0.84559830725E+01 -0.21003719163E+02  0.86730393838E+03  0.86759943602E+03  0.00000000000E+00 0.  1.
          1    1    1    2  502    0 -0.84559830725E+01  0.21003719163E+02  0.24817145379E+02  0.33593906787E+02  0.00000000000E+00 0. -1.
</event>
<event>
 4    1  0.3752836E+003  0.3958455E+02  0.7546771E-02  0.1350938E+00
          2   -1    0    0  502    0  0.00000000000E+00  0.00000000000E+00  0.40682555738E+03  0.40682555738E+03  0.00000000000E+00 0.  1.
          1   -1    0    0  501    0 -0.00000000000E+00 -0.00000000000E+00 -0.10745474229E+02  0.10745474229E+02  0.00000000000E+00 0.  1.
          2    1    1    2  501    0  0.24907207946E+02 -0.30766344433E+02  0.36527176280E+03  0.36741039405E+03  0.00000000000E+00 0.  1.
          1    1    1    2  502    0 -0.24907207946E+02  0.30766344433E+02  0.30808320353E+02  0.50160637560E+02  0.00000000000E+00 0.  1.
</event>
<event>
 4    1  0.3752836E+003  0.2067296E+02  0.7546771E-02  0.1523986E+00
          2   -1    0    0  502    0  0.00000000000E+00  0.00000000000E+00  0.50008419323E+03  0.50008419323E+03  0.00000000000E+00 0. -1.
          1   -1    0    0  501    0 -0.00000000000E+00 -0.00000000000E+00 -0.11169208967E+01  0.11169208967E+01  0.00000000000E+00 0. -1.
          2    1    1    2  501    0 -0.10856640422E+02 -0.17592742635E+02  0.37093110130E+03  0.37150673365E+03  0.00000000000E+00 0. -1.
          1    1    1    2  502    0  0.10856640422E+02  0.17592742635E+02  0.12803617103E+03  0.12969438048E+03  0.00000000000E+00 0. -1.
</event>
<event>
 4    1  0.3752836E+003  0.2139534E+02  0.7546771E-02  0.1513695E+00
          2   -1    0    0  502    0  0.00000000000E+00  0.00000000000E+00  0.39209443548E+02  0.39209443548E+02  0.00000000000E+00 0.  1.
          1   -1    0    0  501    0 -0.00000000000E+00 -0.00000000000E+00 -0.10308992555E+03  0.10308992555E+03  0.00000000000E+00 0. -1.
          2    1    1    2  501    0 -0.15049175332E+02 -0.15207983881E+02  0.35059637429E+02  0.41072358449E+02  0.00000000000E+00 0.  1.
          1    1    1    2  502    0  0.15049175332E+02  0.15207983881E+02 -0.98940119429E+02  0.10122701065E+03  0.00000000000E+00 0. -1.
</event>
<event>
 4    1  0.3752836E+003  0.2566871E+02  0.7546771E-02  0.1461460E+00
          2   -1    0    0  502    0  0.00000000000E+00  0.00000000000E+00  0.60864700340E+03  0.60864700340E+03  0.00000000000E+00 0. -1.
          1   -1    0    0  501    0 -0.00000000000E+00 -0.00000000000E+00 -0.51915316860E+01  0.51915316860E+01  0.00000000000E+00 0. -1.
          2    1    1    2  501    0 -0.11404045241E+01  0.25643368489E+02  0.57477899973E+03  0.57535187616E+03  0.00000000000E+00 0. -1.
          1    1    1    2  502    0  0.11404045241E+01 -0.25643368489E+02  0.28676471989E+02  0.38486658931E+02  0.00000000000E+00 0. -1.
</event>
<event>
 4    1  0.3752836E+003  0.3042361E+02  0.7546771E-02  0.1415950E+00
          2   -1    0    0  502    0  0.00000000000E+00  0.00000000000E+00  0.15334277332E+03  0.15334277332E+03  0.00000000000E+00 0.  1.
          1   -1    0    0  501    0 -0.00000000000E+00 -0.00000000000E+00 -0.16554209225E+02  0.16554209225E+02  0.00000000000E+00 0. -1.
          2    1    1    2  501    0 -0.11993447200E+02  0.27959854245E+02  0.13610692441E+03  0.13946573449E+03  0.00000000000E+00 0.  1.
          1    1    1    2  502    0  0.11993447200E+02 -0.27959854245E+02  0.68163967963E+00  0.30431248048E+02  0.00000000000E+00 0. -1.
</event>
<event>
 4    1  0.3752836E+003  0.5552001E+02  0.7546771E-02  0.1275864E+00
          2   -1    0    0  502    0  0.00000000000E+00  0.00000000000E+00  0.41653335501E+03  0.41653335501E+03  0.00000000000E+00 0.  1.
          1   -1    0    0  501    0 -0.00000000000E+00 -0.00000000000E+00 -0.79040668343E+01  0.79040668343E+01  0.00000000000E+00 0.  1.
          2    1    1    2  501    0  0.53103239476E+02 -0.16202287806E+02  0.15073782860E+03  0.16063735912E+03  0.00000000000E+00 0.  1.
          1    1    1    2  502    0 -0.53103239476E+02  0.16202287806E+02  0.25789145958E+03  0.26380006273E+03  0.00000000000E+00 0.  1.
</event>
<event>
 4    1  0.3752836E+003  0.2108243E+02  0.7546771E-02  0.1518091E+00
          2   -1    0    0  502    0  0.00000000000E+00  0.00000000000E+00  0.59330632533E+03  0.59330632533E+03  0.00000000000E+00 0.  1.
          1   -1    0    0  501    0 -0.00000000000E+00 -0.00000000000E+00 -0.39043153229E+01  0.39043153229E+01  0.00000000000E+00 0. -1.
          2    1    1    2  501    0 -0.21015443977E+02  0.16793155410E+01  0.56313462413E+03  0.56352912426E+03  0.00000000000E+00 0.  1.
          1    1    1    2  502    0  0.21015443977E+02 -0.16793155410E+01  0.26267385877E+02  0.33681516401E+02  0.00000000000E+00 0. -1.
</event>
<event>
 4    1  0.3752836E+003  0.2353946E+02  0.7546771E-02  0.1485833E+00
          2   -1    0    0  502    0  0.00000000000E+00  0.00000000000E+00  0.86870442092E+03  0.86870442092E+03  0.00000000000E+00 0.  1.
          1   -1    0    0  501    0 -0.00000000000E+00 -0.00000000000E+00 -0.39463792492E+01  0.39463792492E+01  0.00000000000E+00 0.  1.
          2    1    1    2  501    0 -0.22409203336E+02  0.72064952928E+01  0.83188966963E+03  0.83222264353E+03  0.00000000000E+00 0.  1.
          1    1    1    2  502    0  0.22409203336E+02 -0.72064952928E+01  0.32868372040E+02  0.40428156638E+02  0.00000000000E+00 0.  1.
</event>
<event>
 4    1  0.3752836E+003  0.2226832E+02  0.7546771E-02  0.1501896E+00
          2   -1    0    0  502    0  0.00000000000E+00  0.00000000000E+00  0.27596513231E+04  0.27596513231E+04  0.00000000000E+00 0.  1.
          1   -1    0    0  501    0 -0.00000000000E+00 -0.00000000000E+00 -0.18066655738E+00  0.18066655738E+00  0.00000000000E+00 0. -1.
          2    1    1    2  501    0 -0.65012788214E+01 -0.21298153291E+02  0.14812590471E+04  0.14814264216E+04  0.00000000000E+00 0.  1.
          1    1    1    2  502    0  0.65012788214E+01  0.21298153291E+02  0.12782116094E+04  0.12784055681E+04  0.00000000000E+00 0. -1.
</event>
<event>
 4    1  0.3752836E+003  0.2838823E+02  0.7546771E-02  0.1434140E+00
          2   -1    0    0  502    0  0.00000000000E+00  0.00000000000E+00  0.66225085029E+03  0.66225085029E+03  0.00000000000E+00 0.  1.
          1   -1    0    0  501    0 -0.00000000000E+00 -0.00000000000E+00 -0.29283574030E+03  0.29283574030E+03  0.00000000000E+00 0.  1.
          2    1    1    2  501    0  0.22740127911E+02  0.16993469837E+02  0.66125758655E+03  0.66186666876E+03  0.00000000000E+00 0.  1.
          1    1    1    2  502    0 -0.22740127911E+02 -0.16993469837E+02 -0.29184247656E+03  0.29321992184E+03  0.00000000000E+00 0.  1.
</event>
<event>
 4    1  0.3752836E+003  0.4292670E+02  0.7546771E-02  0.1332139E+00
          2   -1    0    0  502    0  0.00000000000E+00  0.00000000000E+00  0.26297972081E+03  0.26297972081E+03  0.00000000000E+00 0.  1.
          1   -1    0    0  501    0 -0.00000000000E+00 -0.00000000000E+00 -0.35860199391E+02  0.35860199391E+02  0.00000000000E+00 0.  1.
          2    1    1    2  501    0  0.34588211347E+02 -0.25423550710E+02  0.24758888688E+03  0.25128262615E+03  0.00000000000E+00 0.  1.
          1    1    1    2  502    0 -0.34588211347E+02  0.25423550710E+02 -0.20469365467E+02  0.47557294052E+02  0.00000000000E+00 0.  1.
</event>
<event>
 4    1  0.3752836E+003  0.3031142E+02  0.7546771E-02  0.1416909E+00
          2   -1    0    0  502    0  0.00000000000E+00  0.00000000000E+00  0.11527501974E+03  0.11527501974E+03  0.00000000000E+00 0.  1.
          1   -1    0    0  501    0 -0.00000000000E+00 -0.00000000000E+00 -0.13149938417E+02  0.13149938417E+02  0.00000000000E+00 0.  1.
          2    1    1    2  501    0  0.29981072927E+02 -0.44628830942E+01  0.91362561790E+02  0.96259543715E+02  0.00000000000E+00 0.  1.
          1    1    1    2  502    0 -0.29981072927E+02  0.44628830942E+01  0.10762519529E+02  0.32165414438E+02  0.00000000000E+00 0.  1.
</event>
<event>
 4    1  0.3752836E+003  0.2144391E+02  0.7546771E-02  0.1513020E+00
          2   -1    0    0  502    0  0.00000000000E+00  0.00000000000E+00  0.52778440492E+03  0.52778440492E+03  0.00000000000E+00 0.  1.
          1   -1    0    0  501    0 -0.00000000000E+00 -0.00000000000E+00 -0.33945629169E+02  0.33945629169E+02  0.00000000000E+00 0. -1.
          2    1    1    2  501    0  0.20785140060E+02 -0.52744091339E+01  0.52415655539E+03  0.52459502095E+03  0.00000000000E+00 0.  1.
          1    1    1    2  502    0 -0.20785140060E+02  0.52744091339E+01 -0.30317779640E+02  0.37135013145E+02  0.00000000000E+00 0. -1.
</event>
<event>
 4    1  0.3752836E+003  0.3749763E+02  0.7546771E-02  0.1363808E+00
          2   -1    0    0  502    0  0.00000000000E+00  0.00000000000E+00  0.71816943418E+02  0.71816943418E+02  0.00000000000E+00 0.  1.
          1   -1    0    0  501    0 -0.00000000000E+00 -0.00000000000E+00 -0.13615756911E+04  0.13615756911E+04  0.00000000000E+00 0. -1.
          2    1    1    2  501    0 -0.14130960058E+02  0.34733096264E+02  0.66645476673E+02  0.76470200531E+02  0.00000000000E+00 0.  1.
          1    1    1    2  502    0  0.14130960058E+02 -0.34733096264E+02 -0.13564042244E+04  0.13569224340E+04  0.00000000000E+00 0. -1.
</event>
<event>
 4    1  0.3752836E+003  0.2706418E+02  0.7546771E-02  0.1446965E+00
          2   -1    0    0  502    0  0.00000000000E+00  0.00000000000E+00  0.28473154273E+01  0.28473154273E+01  0.00000000000E+00 0.  1.
          1   -1    0    0  501    0 -0.00000000000E+00 -0.00000000000E+00 -0.58573872533E+03  0.58573872533E+03  0.00000000000E+00 0. -1.
          2    1    1    2  501    0  0.13011962884E+02  0.23730960950E+02 -0.71057300911E+02  0.76036896955E+02  0.00000000000E+00 0.  1.
          1    1    1    2  502    0 -0.13011962884E+02 -0.23730960950E+02 -0.51183410899E+03  0.51254914381E+03  0.00000000000E+00 0. -1.
</event>
<event>
 4    1  0.3752836E+003  0.2298376E+02  0.7546771E-02  0.1492702E+00
          2   -1    0    0  502    0  0.00000000000E+00  0.00000000000E+00  0.70898842583E+01  0.70898842583E+01  0.00000000000E+00 0.  1.
          1   -1    0    0  501    0 -0.00000000000E+00 -0.00000000000E+00 -0.11811434908E+03  0.11811434908E+03  0.00000000000E+00 0.  1.
          2    1    1    2  501    0 -0.14039774832E+02 -0.18197202317E+02 -0.17474702873E+02  0.28872455558E+02  0.00000000000E+00 0.  1.
          1    1    1    2  502    0  0.14039774832E+02  0.18197202317E+02 -0.93549761945E+02  0.96331777776E+02  0.00000000000E+00 0.  1.
</event>
<event>
 4    1  0.3752836E+003  0.3813729E+02  0.7546771E-02  0.1359761E+00
          2   -1    0    0  502    0  0.00000000000E+00  0.00000000000E+00  0.32330011773E+03  0.32330011773E+03  0.00000000000E+00 0. -1.
          1   -1    0    0  501    0 -0.00000000000E+00 -0.00000000000E+00 -0.24910496020E+02  0.24910496020E+02  0.00000000000E+00 0.  1.
          2    1    1    2  501    0  0.26799616178E+02 -0.27133621259E+02  0.30679643466E+03  0.30915773506E+03  0.00000000000E+00 0. -1.
          1    1    1    2  502    0 -0.26799616178E+02  0.27133621259E+02 -0.84068129475E+01  0.39052878688E+02  0.00000000000E+00 0.  1.
</event>
<event>
 4    1  0.3752836E+003  0.2132058E+02  0.7546771E-02  0.1514737E+00
          2   -1    0    0  502    0  0.00000000000E+00  0.00000000000E+00  0.34068287220E+03  0.34068287220E+03  0.00000000000E+00 0.  1.
          1   -1    0    0  501    0 -0.00000000000E+00 -0.00000000000E+00 -0.59580057249E+01  0.59580057249E+01  0.00000000000E+00 0.  1.
          2    1    1    2  501    0  0.10015167983E+02 -0.18821894097E+02  0.32004702918E+03  0.32075640005E+03  0.00000000000E+00 0.  1.
          1    1    1    2  502    0 -0.10015167983E+02  0.18821894097E+02  0.14677837295E+02  0.25884477874E+02  0.00000000000E+00 0.  1.
</event>
<event>
 4    1  0.3752836E+003  0.2030900E+02  0.7546771E-02  0.1529363E+00
          2   -1    0    0  502    0  0.00000000000E+00  0.00000000000E+00  0.85730700099E+02  0.85730700099E+02  0.00000000000E+00 0.  1.
          1   -1    0    0  501    0 -0.00000000000E+00 -0.00000000000E+00 -0.96650040599E+02  0.96650040599E+02  0.00000000000E+00 0. -1.
          2    1    1    2  501    0  0.16495058628E+02 -0.11847725978E+02  0.83432085764E+02  0.85868320730E+02  0.00000000000E+00 0.  1.
          1    1    1    2  502    0 -0.16495058628E+02  0.11847725978E+02 -0.94351426265E+02  0.96512419968E+02  0.00000000000E+00 0. -1.
</event>
<event>
 4    1  0.3752836E+003  0.2159003E+02  0.7546771E-02  0.1511005E+00
          2   -1    0    0  502    0  0.00000000000E+00  0.00000000000E+00  0.54581294239E+02  0.54581294239E+02  0.00000000000E+00 0. -1.
          1   -1    0    0  501    0 -0.00000000000E+00 -0.00000000000E+00 -0.10761871603E+02  0.10761871603E+02  0.00000000000E+00 0. -1.
          2    1    1    2  501    0  0.24496474021E+01 -0.21450600586E+02  0.70648144693E+01  0.22716527934E+02  0.00000000000E+00 0. -1.
          1    1    1    2  502    0 -0.24496474021E+01  0.21450600586E+02  0.36754608167E+02  0.42626637909E+02  0.00000000000E+00 0. -1.
</event>
<event>
 4    1  0.3752836E+003  0.2135589E+02  0.7546771E-02  0.1514244E+00
          2   -1    0    0  502    0  0.00000000000E+00  0.00000000000E+00  0.38959037343E+01  0.38959037343E+01  0.00000000000E+00 0. -1.
          1   -1    0    0  501    0 -0.00000000000E+00 -0.00000000000E+00 -0.17886679223E+03  0.17886679223E+03  0.00000000000E+00 0. -1.
          2    1    1    2  501    0 -0.72122173085E+01  0.20101188302E+02 -0.33770720710E+02  0.39956669368E+02  0.00000000000E+00 0. -1.
          1    1    1    2  502    0  0.72122173085E+01 -0.20101188302E+02 -0.14120016779E+03  0.14280602660E+03  0.00000000000E+00 0. -1.
</event>
<event>
 4    1  0.3752836E+003  0.4481525E+02  0.7546771E-02  0.1322366E+00
          2   -1    0    0  502    0  0.00000000000E+00  0.00000000000E+00  0.59011811914E+02  0.59011811914E+02  0.00000000000E+00 0.  1.
          1   -1    0    0  501    0 -0.00000000000E+00 -0.00000000000E+00 -0.69004009371E+02  0.69004009371E+02  0.00000000000E+00 0.  1.
          2    1    1    2  501    0  0.36983321350E+02  0.25310883224E+02  0.40570276543E+02  0.60451254796E+02  0.00000000000E+00 0.  1.
          1    1    1    2  502    0 -0.36983321350E+02 -0.25310883224E+02 -0.50562474001E+02  0.67564566489E+02  0.00000000000E+00 0.  1.
</event>
<event>
 4    1  0.3752836E+003  0.5581927E+02  0.7546771E-02  0.1274739E+00
          2   -1    0    0  502    0  0.00000000000E+00  0.00000000000E+00  0.76576370920E+03  0.76576370920E+03  0.00000000000E+00 0. -1.
          1   -1    0    0  501    0 -0.00000000000E+00 -0.00000000000E+00 -0.48808484850E+02  0.48808484850E+02  0.00000000000E+00 0.  1.
          2    1    1    2  501    0 -0.37948863682E+02 -0.40935002111E+02  0.74841785485E+03  0.75049655303E+03  0.00000000000E+00 0. -1.
          1    1    1    2  502    0  0.37948863682E+02  0.40935002111E+02 -0.31462630508E+02  0.64075641012E+02  0.00000000000E+00 0.  1.
</event>
<event>
 4    1  0.3752836E+003  0.2227289E+02  0.7546771E-02  0.1501836E+00
          2   -1    0    0  502    0  0.00000000000E+00  0.00000000000E+00  0.45402865552E+03  0.45402865552E+03  0.00000000000E+00 0. -1.
          1   -1    0    0  501    0 -0.00000000000E+00 -0.00000000000E+00 -0.82343731216E+01  0.82343731216E+01  0.00000000000E+00 0. -1.
          2    1    1    2  501    0  0.24850741132E+01 -0.22133825756E+02  0.43814866778E+03  0.43871441384E+03  0.00000000000E+00 0. -1.
          1    1    1    2  502    0 -0.24850741132E+01  0.22133825756E+02  0.76456146151E+01  0.23548614796E+02  0.00000000000E+00 0. -1.
</event>
<event>
 4    1  0.3752836E+003  0.2717232E+02  0.7546771E-02  0.1445885E+00
          2   -1    0    0  502    0  0.00000000000E+00  0.00000000000E+00  0.21550042258E+02  0.21550042258E+02  0.00000000000E+00 0.  1.
          1   -1    0    0  501    0 -0.00000000000E+00 -0.00000000000E+00 -0.72172450914E+03  0.72172450914E+03  0.00000000000E+00 0.  1.
          2    1    1    2  501    0 -0.23790233873E+02  0.13128589832E+02  0.12621683715E+02  0.29960674200E+02  0.00000000000E+00 0.  1.
          1    1    1    2  502    0  0.23790233873E+02 -0.13128589832E+02 -0.71279615059E+03  0.71331387719E+03  0.00000000000E+00 0.  1.
</event>
<event>
 4    1  0.3752836E+003  0.3574479E+02  0.7546771E-02  0.1375401E+00
          2   -1    0    0  502    0  0.00000000000E+00  0.00000000000E+00  0.90609208534E+03  0.90609208534E+03  0.00000000000E+00 0. -1.
          1   -1    0    0  501    0 -0.00000000000E+00 -0.00000000000E+00 -0.18385110527E+02  0.18385110527E+02  0.00000000000E+00 0. -1.
          2    1    1    2  501    0 -0.34527580354E+02  0.92485816359E+01  0.88801198460E+03  0.88873110380E+03  0.00000000000E+00 0. -1.
          1    1    1    2  502    0  0.34527580354E+02 -0.92485816359E+01 -0.30500978276E+00  0.35746092071E+02  0.00000000000E+00 0. -1.
</event>
<event>
 4    1  0.3752836E+003  0.4622052E+02  0.7546771E-02  0.1315447E+00
          2   -1    0    0  502    0  0.00000000000E+00  0.00000000000E+00  0.37418180240E+02  0.37418180240E+02  0.00000000000E+00 0.  1.
          1   -1    0    0  501    0 -0.00000000000E+00 -0.00000000000E+00 -0.94945342604E+02  0.94945342604E+02  0.00000000000E+00 0.  1.
          2    1    1    2  501    0 -0.20701909083E+02  0.41325147726E+02  0.13023755740E+02  0.48020361180E+02  0.00000000000E+00 0.  1.
          1    1    1    2  502    0  0.20701909083E+02 -0.41325147726E+02 -0.70550918104E+02  0.84343161664E+02  0.00000000000E+00 0.  1.
</event>
<event>
 4    1  0.3752836E+003  0.2022767E+02  0.7546771E-02  0.1530583E+00
          2   -1    0    0  502    0  0.00000000000E+00  0.00000000000E+00  0.62086808088E+01  0.62086808088E+01  0.00000000000E+00 0.  1.
          1   -1    0    0  501    0 -0.00000000000E+00 -0.00000000000E+00 -0.10876245728E+03  0.10876245728E+03  0.00000000000E+00 0.  1.
          2    1    1    2  501    0 -0.18684439712E+02  0.77492206297E+01 -0.15189750125E+02  0.25295992105E+02  0.00000000000E+00 0.  1.
          1    1    1    2  502    0  0.18684439712E+02 -0.77492206297E+01 -0.87364026342E+02  0.89675145979E+02  0.00000000000E+00 0.  1.
</event>
<event>
 4    1  0.3752836E+003  0.2199421E+02  0.7546771E-02  0.1505529E+00
          2   -1    0    0  502    0  0.00000000000E+00  0.00000000000E+00  0.13357449887E+03  0.13357449887E+03  0.00000000000E+00 0. -1.
          1   -1    0    0  501    0 -0.00000000000E+00 -0.00000000000E+00 -0.50638518580E+01  0.50638518580E+01  0.00000000000E+00 0. -1.
          2    1    1    2  501    0 -0.19888530371E+02  0.93910391438E+01  0.10125028927E+03  0.10361161293E+03  0.00000000000E+00 0. -1.
          1    1    1    2  502    0  0.19888530371E+02 -0.93910391438E+01  0.27260357737E+02  0.35026737794E+02  0.00000000000E+00 0. -1.
</event>
<event>
 4    1  0.3752836E+003  0.2849383E+02  0.7546771E-02  0.1433153E+00
          2   -1    0    0  502    0  0.00000000000E+00  0.00000000000E+00  0.20604859302E+02  0.20604859302E+02  0.00000000000E+00 0. -1.
          1   -1    0    0  501    0 -0.00000000000E+00 -0.00000000000E+00 -0.43873686080E+02  0.43873686080E+02  0.00000000000E+00 0. -1.
          2    1    1    2  501    0  0.23126514185E+02  0.16645183400E+02 -0.21925461587E+02  0.35953075731E+02  0.00000000000E+00 0. -1.
          1    1    1    2  502    0 -0.23126514185E+02 -0.16645183400E+02 -0.13433651910E+01  0.28525469650E+02  0.00000000000E+00 0. -1.
</event>
<event>
 4    1  0.3752836E+003  0.2051191E+02  0.7546771E-02  0.1526349E+00
          2   -1    0    0  502    0  0.00000000000E+00  0.00000000000E+00  0.57636042617E+02  0.57636042617E+02  0.00000000000E+00 0.  1.
          1   -1    0    0  501    0 -0.00000000000E+00 -0.00000000000E+00 -0.11458244114E+03  0.11458244114E+03  0.00000000000E+00 0.  1.
          2    1    1    2  501    0  0.13431154932E+02  0.15502990262E+02  0.54847942263E+02  0.58557966156E+02  0.00000000000E+00 0.  1.
          1    1    1    2  502    0 -0.13431154932E+02 -0.15502990262E+02 -0.11179434079E+03  0.11366051760E+03  0.00000000000E+00 0.  1.
</event>
<event>
 4    1  0.3752836E+003  0.2360995E+02  0.7546771E-02  0.1484978E+00
          2   -1    0    0  502    0  0.00000000000E+00  0.00000000000E+00  0.52755797609E+02  0.52755797609E+02  0.00000000000E+00 0.  1.
          1   -1    0    0  501    0 -0.00000000000E+00 -0.00000000000E+00 -0.19607584408E+02  0.19607584408E+02  0.00000000000E+00 0. -1.
          2    1    1    2  501    0  0.82698247958E+01  0.22114240971E+02  0.41143456635E+02  0.47436417231E+02  0.00000000000E+00 0.  1.
          1    1    1    2  502    0 -0.82698247958E+01 -0.22114240971E+02 -0.79952434334E+01  0.24926964786E+02  0.00000000000E+00 0. -1.
</event>
<event>
 4    1  0.3752836E+003  0.2900834E+02  0.7546771E-02  0.1428414E+00
          2   -1    0    0  502    0  0.00000000000E+00  0.00000000000E+00  0.46381854493E+02  0.46381854493E+02  0.00000000000E+00 0.  1.
          1   -1    0    0  501    0 -0.00000000000E+00 -0.00000000000E+00 -0.11756753323E+04  0.11756753323E+04  0.00000000000E+00 0. -1.
          2    1    1    2  501    0 -0.28042552231E+02 -0.74228798038E+01  0.41648957359E+02  0.50755487676E+02  0.00000000000E+00 0.  1.
          1    1    1    2  502    0  0.28042552231E+02  0.74228798038E+01 -0.11709424352E+04  0.11713016991E+04  0.00000000000E+00 0. -1.
</event>
<event>
 4    1  0.3752836E+003  0.2406504E+02  0.7546771E-02  0.1479541E+00
          2   -1    0    0  502    0  0.00000000000E+00  0.00000000000E+00  0.15162820926E+02  0.15162820926E+02  0.00000000000E+00 0. -1.
          1   -1    0    0  501    0 -0.00000000000E+00 -0.00000000000E+00 -0.16820881598E+03  0.16820881598E+03  0.00000000000E+00 0.  1.
          2    1    1    2  501    0 -0.20655182693E+02  0.12348665671E+02  0.40843268578E+01  0.24409175362E+02  0.00000000000E+00 0. -1.
          1    1    1    2  502    0  0.20655182693E+02 -0.12348665671E+02 -0.15713032191E+03  0.15896246155E+03  0.00000000000E+00 0.  1.
</event>
<event>
 4    1  0.3752836E+003  0.3100079E+02  0.7546771E-02  0.1411094E+00
          2   -1    0    0  502    0  0.00000000000E+00  0.00000000000E+00  0.69531941799E+03  0.69531941799E+03  0.00000000000E+00 0.  1.
          1   -1    0    0  501    0 -0.00000000000E+00 -0.00000000000E+00 -0.62997137497E+01  0.62997137497E+01  0.00000000000E+00 0. -1.
          2    1    1    2  501    0 -0.18545900528E+02  0.24841463671E+02  0.65445524997E+03  0.65518907420E+03  0.00000000000E+00 0.  1.
          1    1    1    2  502    0  0.18545900528E+02 -0.24841463671E+02  0.34564454270E+02  0.46430057534E+02  0.00000000000E+00 0. -1.
</event>
<event>
 4    1  0.3752836E+003  0.2396849E+02  0.7546771E-02  0.1480682E+00
          2   -1    0    0  502    0  0.00000000000E+00  0.00000000000E+00  0.24338444975E+04  0.24338444975E+04  0.00000000000E+00 0.  1.
          1   -1    0    0  501    0 -0.00000000000E+00 -0.00000000000E+00 -0.23773115046E+00  0.23773115046E+00  0.00000000000E+00 0. -1.
          2    1    1    2  501    0  0.89153025892E+01 -0.22248729575E+02  0.13194030020E+04  0.13196206918E+04  0.00000000000E+00 0.  1.
          1    1    1    2  502    0 -0.89153025892E+01  0.22248729575E+02  0.11142037643E+04  0.11144615368E+04  0.00000000000E+00 0. -1.
</event>
<event>
 4    1  0.3752836E+003  0.2503317E+02  0.7546771E-02  0.1468433E+00
          2   -1    0    0  502    0  0.00000000000E+00  0.00000000000E+00  0.72246044531E+03  0.72246044531E+03  0.00000000000E+00 0. -1.
          1   -1    0    0  501    0 -0.00000000000E+00 -0.00000000000E+00 -0.15311806857E+02  0.15311806857E+02  0.00000000000E+00 0.  1.
          2    1    1    2  501    0 -0.40065922424E+01  0.24710458522E+02  0.71185963735E+03  0.71229965803E+03  0.00000000000E+00 0. -1.
          1    1    1    2  502    0  0.40065922424E+01 -0.24710458522E+02 -0.47109988918E+01  0.25472594142E+02  0.00000000000E+00 0.  1.
</event>
<event>
 4    1  0.3752836E+003  0.2084989E+02  0.7546771E-02  0.1521419E+00
          2   -1    0    0  502    0  0.00000000000E+00  0.00000000000E+00  0.29820776720E+01  0.29820776720E+01  0.00000000000E+00 0. -1.
          1   -1    0    0  501    0 -0.00000000000E+00 -0.00000000000E+00 -0.28485068538E+03  0.28485068538E+03  0.00000000000E+00 0.  1.
          2    1    1    2  501    0  0.11423420229E+02 -0.17442000154E+02 -0.40374525478E+02  0.45440292766E+02  0.00000000000E+00 0. -1.
          1    1    1    2  502    0 -0.11423420229E+02  0.17442000154E+02 -0.24149408223E+03  0.24239247029E+03  0.00000000000E+00 0.  1.
</event>
<event>
 4    1  0.3752836E+003  0.2158330E+02  0.7546771E-02  0.1511097E+00
          2   -1    0    0  502    0  0.00000000000E+00  0.00000000000E+00  0.58859200336E+02  0.58859200336E+02  0.00000000000E+00 0.  1.
          1   -1    0    0  501    0 -0.00000000000E+00 -0.00000000000E+00 -0.12615624441E+02  0.12615624441E+02  0.00000000000E+00 0.  1.
          2    1    1    2  501    0 -0.17566882170E+02  0.12539676080E+02  0.44937601773E+02  0.49852049892E+02  0.00000000000E+00 0.  1.
          1    1    1    2  502    0  0.17566882170E+02 -0.12539676080E+02  0.13059741223E+01  0.21622774886E+02  0.00000000000E+00 0.  1.
</event>
<event>
 4    1  0.3752836E+003  0.2183013E+02  0.7546771E-02  0.1507735E+00
          2   -1    0    0  502    0  0.00000000000E+00  0.00000000000E+00  0.16205012318E+01  0.16205012318E+01  0.00000000000E+00 0. -1.
          1   -1    0    0  501    0 -0.00000000000E+00 -0.00000000000E+00 -0.36074236070E+03  0.36074236070E+03  0.00000000000E+00 0. -1.
          2    1    1    2  501    0  0.10337092022E+02  0.19227562519E+02 -0.10167478217E+03  0.10399190334E+03  0.00000000000E+00 0. -1.
          1    1    1    2  502    0 -0.10337092022E+02 -0.19227562519E+02 -0.25744707730E+03  0.25837095859E+03  0.00000000000E+00 0. -1.
</event>
<event>
 4    1  0.3752836E+003  0.2716956E+02  0.7546771E-02  0.1445912E+00
          2   -1    0    0  502    0  0.00000000000E+00  0.00000000000E+00  0.21353011035E+03  0.21353011035E+03  0.00000000000E+00 0. -1.
          1   -1    0    0  501    0 -0.00000000000E+00 -0.00000000000E+00 -0.23823168908E+02  0.23823168908E+02  0.00000000000E+00 0.  1.
          2    1    1    2  501    0 -0.16104084316E+02  0.21882487986E+02  0.20458200701E+03  0.20637825080E+03  0.00000000000E+00 0. -1.
          1    1    1    2  502    0  0.16104084316E+02 -0.21882487986E+02 -0.14875065568E+02  0.30975028455E+02  0.00000000000E+00 0.  1.
</event>
<event>
 4    1  0.3752836E+003  0.2476005E+02  0.7546771E-02  0.1471506E+00
          2   -1    0    0  502    0  0.00000000000E+00  0.00000000000E+00  0.15605018360E+03  0.15605018360E+03  0.00000000000E+00 0. -1.
          1   -1    0    0  501    0 -0.00000000000E+00 -0.00000000000E+00 -0.82439205612E+03  0.82439205612E+03  0.00000000000E+00 0. -1.
          2    1    1    2  501    0  0.15754092651E+02 -0.19101528867E+02  0.15488072423E+03  0.15684737352E+03  0.00000000000E+00 0. -1.
          1    1    1    2  502    0 -0.15754092651E+02  0.19101528867E+02 -0.82322259675E+03  0.82359486620E+03  0.00000000000E+00 0. -1.
</event>
<event>
 4    1  0.3752836E+003  0.3212584E+02  0.7546771E-02  0.1401980E+00
          2   -1    0    0  502    0  0.00000000000E+00  0.00000000000E+00  0.59540764579E+02  0.59540764579E+02  0.00000000000E+00 0. -1.
          1   -1    0    0  501    0 -0.00000000000E+00 -0.00000000000E+00 -0.71345214308E+03  0.71345214308E+03  0.00000000000E+00 0.  1.
          2    1    1    2  501    0 -0.23297488009E+02 -0.22120044616E+02  0.54816791991E+02  0.63536997139E+02  0.00000000000E+00 0. -1.
          1    1    1    2  502    0  0.23297488009E+02  0.22120044616E+02 -0.70872817049E+03  0.70945591051E+03  0.00000000000E+00 0.  1.
</event>
<event>
 4    1  0.3752836E+003  0.2299282E+02  0.7546771E-02  0.1492588E+00
          2   -1    0    0  502    0  0.00000000000E+00  0.00000000000E+00  0.89747894320E+00  0.89747894320E+00  0.00000000000E+00 0. -1.
          1   -1    0    0  501    0 -0.00000000000E+00 -0.00000000000E+00 -0.11211192431E+04  0.11211192431E+04  0.00000000000E+00 0. -1.
          2    1    1    2  501    0  0.22679137607E+02 -0.37850252706E+01 -0.17363438848E+03  0.17515013720E+03  0.00000000000E+00 0. -1.
          1    1    1    2  502    0 -0.22679137607E+02  0.37850252706E+01 -0.94658737570E+03  0.94686658487E+03  0.00000000000E+00 0. -1.
</event>
<event>
 4    1  0.3752836E+003  0.2578589E+02  0.7546771E-02  0.1460201E+00
          2   -1    0    0  502    0  0.00000000000E+00  0.00000000000E+00  0.15880629212E+04  0.15880629212E+04  0.00000000000E+00 0. -1.
          1   -1    0    0  501    0 -0.00000000000E+00 -0.00000000000E+00 -0.49940728517E+00  0.49940728517E+00  0.00000000000E+00 0. -1.
          2    1    1    2  501    0  0.19956950950E+02 -0.16328873794E+02  0.11130972767E+04  0.11133959132E+04  0.00000000000E+00 0. -1.
          1    1    1    2  502    0 -0.19956950950E+02  0.16328873794E+02  0.47446623721E+03  0.47516641534E+03  0.00000000000E+00 0. -1.
</event>
<event>
 4    1  0.3752836E+003  0.3778551E+02  0.7546771E-02  0.1361975E+00
          2   -1    0    0  502    0  0.00000000000E+00  0.00000000000E+00  0.33820353262E+03  0.33820353262E+03  0.00000000000E+00 0.  1.
          1   -1    0    0  501    0 -0.00000000000E+00 -0.00000000000E+00 -0.32124624971E+03  0.32124624971E+03  0.00000000000E+00 0.  1.
          2    1    1    2  501    0 -0.35282201125E+02 -0.13524462218E+02  0.33602988077E+03  0.33814763870E+03  0.00000000000E+00 0.  1.
          1    1    1    2  502    0  0.35282201125E+02  0.13524462218E+02 -0.31907259786E+03  0.32130214362E+03  0.00000000000E+00 0.  1.
</event>
<event>
 4    1  0.3752836E+003  0.2092042E+02  0.7546771E-02  0.1520404E+00
          2   -1    0    0  502    0  0.00000000000E+00  0.00000000000E+00  0.81039213350E+03  0.81039213350E+03  0.00000000000E+00 0. -1.
          1   -1    0    0  501    0 -0.00000000000E+00 -0.00000000000E+00 -0.32372507236E+01  0.32372507236E+01  0.00000000000E+00 0.  1.
          2    1    1    2  501    0 -0.20706277012E+02  0.29856354563E+01  0.77491077517E+03  0.77519312007E+03  0.00000000000E+00 0. -1.
          1    1    1    2  502    0  0.20706277012E+02 -0.29856354563E+01  0.32244107599E+02  0.38436264148E+02  0.00000000000E+00 0.  1.
</event>
<event>
 4    1  0.3752836E+003  0.4100631E+02  0.7546771E-02  0.1342688E+00
          2   -1    0    0  502    0  0.00000000000E+00  0.00000000000E+00  0.24769316679E+03  0.24769316679E+03  0.00000000000E+00 0.  1.
          1   -1    0    0  501    0 -0.00000000000E+00 -0.00000000000E+00 -0.49144827213E+03  0.49144827213E+03  0.00000000000E+00 0.  1.
          2    1    1    2  501    0 -0.36725718715E+02 -0.18241141843E+02  0.24513172324E+03  0.24853788325E+03  0.00000000000E+00 0.  1.
          1    1    1    2  502    0  0.36725718715E+02  0.18241141843E+02 -0.48888682859E+03  0.49060355567E+03  0.00000000000E+00 0.  1.
</event>
<event>
 4    1  0.3752836E+003  0.2314380E+02  0.7546771E-02  0.1490700E+00
          2   -1    0    0  502    0  0.00000000000E+00  0.00000000000E+00  0.52822282654E+03  0.52822282654E+03  0.00000000000E+00 0. -1.
          1   -1    0    0  501    0 -0.00000000000E+00 -0.00000000000E+00 -0.21894480133E+01  0.21894480133E+01  0.00000000000E+00 0. -1.
          2    1    1    2  501    0  0.21507332724E+02 -0.85481151324E+01  0.45733412849E+03  0.45791936049E+03  0.00000000000E+00 0. -1.
          1    1    1    2  502    0 -0.21507332724E+02  0.85481151324E+01  0.68699250033E+02  0.72492914056E+02  0.00000000000E+00 0. -1.
</event>
<event>
 4    1  0.3752836E+003  0.2808777E+02  0.7546771E-02  0.1436977E+00
          2   -1    0    0  502    0  0.00000000000E+00  0.00000000000E+00  0.62842062451E+02  0.62842062451E+02  0.00000000000E+00 0. -1.
          1   -1    0    0  501    0 -0.00000000000E+00 -0.00000000000E+00 -0.10314385779E+03  0.10314385779E+03  0.00000000000E+00 0. -1.
          2    1    1    2  501    0  0.25184915706E+02  0.12435546874E+02  0.57627541366E+02  0.64108161174E+02  0.00000000000E+00 0. -1.
          1    1    1    2  502    0 -0.25184915706E+02 -0.12435546874E+02 -0.97929336701E+02  0.10187775906E+03  0.00000000000E+00 0. -1.
</event>
<event>
 4    1  0.3752836E+003  0.2333565E+02  0.7546771E-02  0.1488326E+00
          2   -1    0    0  502    0  0.00000000000E+00  0.00000000000E+00  0.25388678508E+01  0.25388678508E+01  0.00000000000E+00 0.  1.
          1   -1    0    0  501    0 -0.00000000000E+00 -0.00000000000E+00 -0.52907535462E+03  0.52907535462E+03  0.00000000000E+00 0.  1.
          2    1    1    2  501    0 -0.78097457221E+01 -0.21990009509E+02 -0.58303313109E+02  0.62799912149E+02  0.00000000000E+00 0.  1.
          1    1    1    2  502    0  0.78097457221E+01  0.21990009509E+02 -0.46823317366E+03  0.46881431032E+03  0.00000000000E+00 0.  1.
</event>
<event>
 4    1  0.3752836E+003  0.4022374E+02  0.7546771E-02  0.1347180E+00
          2   -1    0    0  502    0  0.00000000000E+00  0.00000000000E+00  0.23008786665E+04  0.23008786665E+04  0.00000000000E+00 0.  1.
          1   -1    0    0  501    0 -0.00000000000E+00 -0.00000000000E+00 -0.10575228595E+03  0.10575228595E+03  0.00000000000E+00 0.  1.
          2    1    1    2  501    0 -0.40223478273E+02 -0.14600039620E+00  0.22968713398E+04  0.22972235200E+04  0.00000000000E+00 0.  1.
          1    1    1    2  502    0  0.40223478273E+02  0.14600039620E+00 -0.10174495927E+03  0.10940743236E+03  0.00000000000E+00 0.  1.
</event>
<event>
 4    1  0.3752836E+003  0.3126788E+02  0.7546771E-02  0.1408889E+00
          2   -1    0    0  502    0  0.00000000000E+00  0.00000000000E+00  0.10236385374E+02  0.10236385374E+02  0.00000000000E+00 0. -1.
          1   -1    0    0  501    0 -0.00000000000E+00 -0.00000000000E+00 -0.17424857773E+03  0.17424857773E+03  0.00000000000E+00 0.  1.
          2    1    1    2  501    0  0.11363345880E+02  0.29129961209E+02 -0.19999298334E+02  0.37116737511E+02  0.00000000000E+00 0. -1.
          1    1    1    2  502    0 -0.11363345880E+02 -0.29129961209E+02 -0.14401289402E+03  0.14736822559E+03  0.00000000000E+00 0.  1.
</event>
<event>
 4    1  0.3752836E+003  0.2666721E+02  0.7546771E-02  0.1450980E+00
          2   -1    0    0  502    0  0.00000000000E+00  0.00000000000E+00  0.24385147167E+02  0.24385147167E+02  0.00000000000E+00 0. -1.
          1   -1    0    0  501    0 -0.00000000000E+00 -0.00000000000E+00 -0.39249298611E+03  0.39249298611E+03  0.00000000000E+00 0.  1.
          2    1    1    2  501    0 -0.99829999879E+01 -0.24728113073E+02  0.16492029324E+02  0.31354854427E+02  0.00000000000E+00 0. -1.
          1    1    1    2  502    0  0.99829999879E+01  0.24728113073E+02 -0.38459986827E+03  0.38552327885E+03  0.00000000000E+00 0.  1.
</event>
<event>
 4    1  0.3752836E+003  0.2305634E+02  0.7546771E-02  0.1491792E+00
          2   -1    0    0  502    0  0.00000000000E+00  0.00000000000E+00  0.11527400582E+01  0.11527400582E+01  0.00000000000E+00 0.  1.
          1   -1    0    0  501    0 -0.00000000000E+00 -0.00000000000E+00 -0.80367649237E+03  0.80367649237E+03  0.00000000000E+00 0. -1.
          2    1    1    2  501    0  0.23033976282E+02 -0.10152997656E+01 -0.13855263666E+03  0.14045792260E+03  0.00000000000E+00 0.  1.
          1    1    1    2  502    0 -0.23033976282E+02  0.10152997656E+01 -0.66397111566E+03  0.66437130983E+03  0.00000000000E+00 0. -1.
</event>
<event>
 4    1  0.3752836E+003  0.2609330E+02  0.7546771E-02  0.1456935E+00
          2   -1    0    0  502    0  0.00000000000E+00  0.00000000000E+00  0.13743341823E+03  0.13743341823E+03  0.00000000000E+00 0. -1.
          1   -1    0    0  501    0 -0.00000000000E+00 -0.00000000000E+00 -0.22070955368E+03  0.22070955368E+03  0.00000000000E+00 0. -1.
          2    1    1    2  501    0 -0.13289675686E+02 -0.22455393179E+02  0.13541226736E+03  0.13790338036E+03  0.00000000000E+00 0. -1.
          1    1    1    2  502    0  0.13289675686E+02  0.22455393179E+02 -0.21868840281E+03  0.22023959155E+03  0.00000000000E+00 0. -1.
</event>
<event>
 4    1  0.3752836E+003  0.3412141E+02  0.7546771E-02  0.1386847E+00
          2   -1    0    0  502    0  0.00000000000E+00  0.00000000000E+00  0.15152204460E+04  0.15152204460E+04  0.00000000000E+00 0.  1.
          1   -1    0    0  501    0 -0.00000000000E+00 -0.00000000000E+00 -0.16925120395E+01  0.16925120395E+01  0.00000000000E+00 0.  1.
          2    1    1    2  501    0 -0.31165506321E+02  0.13891797586E+02  0.13172062663E+04  0.13176481392E+04  0.00000000000E+00 0.  1.
          1    1    1    2  502    0  0.31165506321E+02 -0.13891797586E+02  0.19632166774E+03  0.19926481890E+03  0.00000000000E+00 0.  1.
</event>
<event>
 4    1  0.3752836E+003  0.2037408E+02  0.7546771E-02  0.1528392E+00
          2   -1    0    0  502    0  0.00000000000E+00  0.00000000000E+00  0.58672183597E+03  0.58672183597E+03  0.00000000000E+00 0.  1.
          1   -1    0    0  501    0 -0.00000000000E+00 -0.00000000000E+00 -0.84128006985E+02  0.84128006985E+02  0.00000000000E+00 0.  1.
          2    1    1    2  501    0 -0.17733458325E+02 -0.10031336524E+02  0.58530843759E+03  0.58566293238E+03  0.00000000000E+00 0.  1.
          1    1    1    2  502    0  0.17733458325E+02  0.10031336524E+02 -0.82714608602E+02  0.85186910572E+02  0.00000000000E+00 0.  1.
</event>
<event>
 4    1  0.3752836E+003  0.2166749E+02  0.7546771E-02  0.1509944E+00
          2   -1    0    0  502    0  0.00000000000E+00  0.00000000000E+00  0.12504393159E+04  0.12504393159E+04  0.00000000000E+00 0.  1.
          1   -1    0    0  501    0 -0.00000000000E+00 -0.00000000000E+00 -0.41219402008E+03  0.41219402008E+03  0.00000000000E+00 0. -1.
          2    1    1    2  501    0  0.11518030584E+02 -0.18352518179E+02  0.12500606221E+04  0.12502483909E+04  0.00000000000E+00 0.  1.
          1    1    1    2  502    0 -0.11518030584E+02  0.18352518179E+02 -0.41181532631E+03  0.41238494509E+03  0.00000000000E+00 0. -1.
</event>
<event>
 4    1  0.3752836E+003  0.2292998E+02  0.7546771E-02  0.1493379E+00
          2   -1    0    0  502    0  0.00000000000E+00  0.00000000000E+00  0.32024472516E+03  0.32024472516E+03  0.00000000000E+00 0.  1.
          1   -1    0    0  501    0 -0.00000000000E+00 -0.00000000000E+00 -0.22058628277E+02  0.22058628277E+02  0.00000000000E+00 0. -1.
          2    1    1    2  501    0 -0.18307489938E+01 -0.22856780589E+02  0.31375218616E+03  0.31458896735E+03  0.00000000000E+00 0.  1.
          1    1    1    2  502    0  0.18307489938E+01  0.22856780589E+02 -0.15566089275E+02  0.27714386085E+02  0.00000000000E+00 0. -1.
</event>
<event>
 4    1  0.3752836E+003  0.2022361E+02  0.7546771E-02  0.1530645E+00
          2   -1    0    0  502    0  0.00000000000E+00  0.00000000000E+00  0.18491395760E+03  0.18491395760E+03  0.00000000000E+00 0. -1.
          1   -1    0    0  501    0 -0.00000000000E+00 -0.00000000000E+00 -0.62006988608E+02  0.62006988608E+02  0.00000000000E+00 0.  1.
          2    1    1    2  501    0 -0.19136709546E+02 -0.65406864206E+01  0.18269202695E+03  0.18380797301E+03  0.00000000000E+00 0. -1.
          1    1    1    2  502    0  0.19136709546E+02  0.65406864206E+01 -0.59785057956E+02  0.63112973198E+02  0.00000000000E+00 0.  1.
</event>
<event>
 4    1  0.3752836E+003  0.2356836E+02  0.7546771E-02  0.1485482E+00
          2   -1    0    0  502    0  0.00000000000E+00  0.00000000000E+00  0.57786637850E+03  0.57786637850E+03  0.00000000000E+00 0.  1.
          1   -1    0    0  501    0 -0.00000000000E+00 -0.00000000000E+00 -0.10795655963E+03  0.10795655963E+03  0.00000000000E+00 0. -1.
          2    1    1    2  501    0  0.18981788111E+02 -0.13969947604E+02  0.57633633298E+03  0.57681802714E+03  0.00000000000E+00 0.  1.
          1    1    1    2  502    0 -0.18981788111E+02  0.13969947604E+02 -0.10642651411E+03  0.10900491100E+03  0.00000000000E+00 0. -1.
</event>
<event>
 4    1  0.3752836E+003  0.3610648E+02  0.7546771E-02  0.1372947E+00
          2   -1    0    0  502    0  0.00000000000E+00  0.00000000000E+00  0.20889701689E+03  0.20889701689E+03  0.00000000000E+00 0. -1.
          1   -1    0    0  501    0 -0.00000000000E+00 -0.00000000000E+00 -0.32543067790E+02  0.32543067790E+02  0.00000000000E+00 0. -1.
          2    1    1    2  501    0 -0.28225868477E+02 -0.22516173353E+02  0.19670627397E+03  0.19999258969E+03  0.00000000000E+00 0. -1.
          1    1    1    2  502    0  0.28225868477E+02  0.22516173353E+02 -0.20352324863E+02  0.41447494992E+02  0.00000000000E+00 0. -1.
</event>
<event>
 4    1  0.3752836E+003  0.2112940E+02  0.7546771E-02  0.1517425E+00
          2   -1    0    0  502    0  0.00000000000E+00  0.00000000000E+00  0.41050264500E+03  0.41050264500E+03  0.00000000000E+00 0. -1.
          1   -1    0    0  501    0 -0.00000000000E+00 -0.00000000000E+00 -0.33237330702E+02  0.33237330702E+02  0.00000000000E+00 0.  1.
          2    1    1    2  501    0 -0.30309232888E+01 -0.20910882628E+02  0.40684250373E+03  0.40739081280E+03  0.00000000000E+00 0. -1.
          1    1    1    2  502    0  0.30309232888E+01  0.20910882628E+02 -0.29577189440E+02  0.36349162899E+02  0.00000000000E+00 0.  1.
</event>
<event>
 4    1  0.3752836E+003  0.6186764E+02  0.7546771E-02  0.1253616E+00
          2   -1    0    0  502    0  0.00000000000E+00  0.00000000000E+00  0.36488621820E+03  0.36488621820E+03  0.00000000000E+00 0.  1.
          1   -1    0    0  501    0 -0.00000000000E+00 -0.00000000000E+00 -0.85493765044E+03  0.85493765044E+03  0.00000000000E+00 0.  1.
          2    1    1    2  501    0  0.28091400530E+02 -0.55122389534E+02  0.36113294098E+03  0.36639405791E+03  0.00000000000E+00 0.  1.
          1    1    1    2  502    0 -0.28091400530E+02  0.55122389534E+02 -0.85118437323E+03  0.85342981073E+03  0.00000000000E+00 0.  1.
</event>
<event>
 4    1  0.3752836E+003  0.2890064E+02  0.7546771E-02  0.1429396E+00
          2   -1    0    0  502    0  0.00000000000E+00  0.00000000000E+00  0.10205572515E+02  0.10205572515E+02  0.00000000000E+00 0.  1.
          1   -1    0    0  501    0 -0.00000000000E+00 -0.00000000000E+00 -0.81851226083E+02  0.81851226083E+02  0.00000000000E+00 0.  1.
          2    1    1    2  501    0  0.14512028615E+02 -0.24992945674E+02 -0.36306699659E+02  0.46404986242E+02  0.00000000000E+00 0.  1.
          1    1    1    2  502    0 -0.14512028615E+02  0.24992945674E+02 -0.35338953909E+02  0.45651812356E+02  0.00000000000E+00 0.  1.
</event>
<event>
 4    1  0.3752836E+003  0.2214149E+02  0.7546771E-02  0.1503569E+00
          2   -1    0    0  502    0  0.00000000000E+00  0.00000000000E+00  0.29004734232E+01  0.29004734232E+01  0.00000000000E+00 0.  1.
          1   -1    0    0  501    0 -0.00000000000E+00 -0.00000000000E+00 -0.82529267716E+03  0.82529267716E+03  0.00000000000E+00 0.  1.
          2    1    1    2  501    0 -0.21226042033E+02  0.63008479532E+01 -0.41930421592E+02  0.47417357584E+02  0.00000000000E+00 0.  1.
          1    1    1    2  502    0  0.21226042033E+02 -0.63008479532E+01 -0.78046178215E+03  0.78077579300E+03  0.00000000000E+00 0.  1.
</event>
<event>
 4    1  0.3752836E+003  0.2185680E+02  0.7546771E-02  0.1507375E+00
          2   -1    0    0  502    0  0.00000000000E+00  0.00000000000E+00  0.17044261938E+03  0.17044261938E+03  0.00000000000E+00 0. -1.
          1   -1    0    0  501    0 -0.00000000000E+00 -0.00000000000E+00 -0.13422120329E+02  0.13422120329E+02  0.00000000000E+00 0.  1.
          2    1    1    2  501    0  0.60638282039E+01  0.20998804569E+02  0.16028248387E+03  0.16176586302E+03  0.00000000000E+00 0. -1.
          1    1    1    2  502    0 -0.60638282039E+01 -0.20998804569E+02 -0.32619848139E+01  0.22098876685E+02  0.00000000000E+00 0.  1.
</event>
<event>
 4    1  0.3752836E+003  0.2005256E+02  0.7546771E-02  0.1533234E+00
          2   -1    0    0  502    0  0.00000000000E+00  0.00000000000E+00  0.64255168499E+03  0.64255168499E+03  0.00000000000E+00 0. -1.
          1   -1    0    0  501    0 -0.00000000000E+00 -0.00000000000E+00 -0.11004278331E+02  0.11004278331E+02  0.00000000000E+00 0.  1.
          2    1    1    2  501    0 -0.10939778696E+02  0.16805552033E+02  0.63312403641E+03  0.63344151333E+03  0.00000000000E+00 0. -1.
          1    1    1    2  502    0  0.10939778696E+02 -0.16805552033E+02 -0.15766297452E+01  0.20114449990E+02  0.00000000000E+00 0.  1.
</event>
<event>
 4    1  0.3752836E+003  0.3495865E+02  0.7546771E-02  0.1380854E+00
          2   -1    0    0  502    0  0.00000000000E+00  0.00000000000E+00  0.10681322004E+03  0.10681322004E+03  0.00000000000E+00 0.  1.
          1   -1    0    0  501    0 -0.00000000000E+00 -0.00000000000E+00 -0.70114632764E+02  0.70114632764E+02  0.00000000000E+00 0. -1.
          2    1    1    2  501    0  0.17800450296E+02  0.30087394733E+02  0.99274046756E+02  0.10524943568E+03  0.00000000000E+00 0.  1.
          1    1    1    2  502    0 -0.17800450296E+02 -0.30087394733E+02 -0.62575459477E+02  0.71678417123E+02  0.00000000000E+00 0. -1.
</event>
<event>
 4    1  0.3752836E+003  0.2889578E+02  0.7546771E-02  0.1429441E+00
          2   -1    0    0  502    0  0.00000000000E+00  0.00000000000E+00  0.65000003433E+03  0.65000003433E+03  0.00000000000E+00 0.  1.
          1   -1    0    0  501    0 -0.00000000000E+00 -0.00000000000E+00 -0.13625956791E+03  0.13625956791E+03  0.00000000000E+00 0. -1.
          2    1    1    2  501    0  0.28169640510E+01  0.28758142436E+02  0.64814256524E+03  0.64878636771E+03  0.00000000000E+00 0.  1.
          1    1    1    2  502    0 -0.28169640510E+01 -0.28758142436E+02 -0.13440209883E+03  0.13747323453E+03  0.00000000000E+00 0. -1.
</event>
<event>
 4    1  0.3752836E+003  0.2874983E+02  0.7546771E-02  0.1430781E+00
          2   -1    0    0  502    0  0.00000000000E+00  0.00000000000E+00  0.70945419383E+02  0.70945419383E+02  0.00000000000E+00 0.  1.
          1   -1    0    0  501    0 -0.00000000000E+00 -0.00000000000E+00 -0.18076596901E+02  0.18076596901E+02  0.00000000000E+00 0. -1.
          2    1    1    2  501    0  0.59567545424E+00  0.28743653527E+02  0.52973217071E+02  0.60272001578E+02  0.00000000000E+00 0.  1.
          1    1    1    2  502    0 -0.59567545424E+00 -0.28743653527E+02 -0.10439458865E+00  0.28750014706E+02  0.00000000000E+00 0. -1.
</event>
<event>
 4    1  0.3752836E+003  0.2024501E+02  0.7546771E-02  0.1530323E+00
          2   -1    0    0  502    0  0.00000000000E+00  0.00000000000E+00  0.10004951913E+04  0.10004951913E+04  0.00000000000E+00 0. -1.
          1   -1    0    0  501    0 -0.00000000000E+00 -0.00000000000E+00 -0.15759514539E+01  0.15759514539E+01  0.00000000000E+00 0.  1.
          2    1    1    2  501    0  0.96293554402E+01  0.17808310949E+02  0.93048331154E+03  0.93070352609E+03  0.00000000000E+00 0. -1.
          1    1    1    2  502    0 -0.96293554402E+01 -0.17808310949E+02  0.68435928327E+02  0.71367616683E+02  0.00000000000E+00 0.  1.
</event>
<event>
 4    1  0.3752836E+003  0.2338600E+02  0.7546771E-02  0.1487707E+00
          2   -1    0    0  502    0  0.00000000000E+00  0.00000000000E+00  0.86663511128E+03  0.86663511128E+03  0.00000000000E+00 0. -1.
          1   -1    0    0  501    0 -0.00000000000E+00 -0.00000000000E+00 -0.23681371968E+02  0.23681371968E+02  0.00000000000E+00 0.  1.
          2    1    1    2  501    0  0.99011997751E+01  0.21186584568E+02  0.86066371462E+03  0.86098137889E+03  0.00000000000E+00 0. -1.
          1    1    1    2  502    0 -0.99011997751E+01 -0.21186584568E+02 -0.17709975308E+02  0.29335104364E+02  0.00000000000E+00 0.  1.
</event>
<event>
 4    1  0.3752836E+003  0.3964118E+02  0.7546771E-02  0.1350601E+00
          2   -1    0    0  502    0  0.00000000000E+00  0.00000000000E+00  0.15008425426E+03  0.15008425426E+03  0.00000000000E+00 0. -1.
          1   -1    0    0  501    0 -0.00000000000E+00 -0.00000000000E+00 -0.10537536034E+02  0.10537536034E+02  0.00000000000E+00 0. -1.
          2    1    1    2  501    0 -0.37598137785E+02  0.12561969262E+02  0.76189809549E+02  0.85885447637E+02  0.00000000000E+00 0. -1.
          1    1    1    2  502    0  0.37598137785E+02 -0.12561969262E+02  0.63356908676E+02  0.74736342656E+02  0.00000000000E+00 0. -1.
</event>
<event>
 4    1  0.3752836E+003  0.2736699E+02  0.7546771E-02  0.1443956E+00
          2   -1    0    0  502    0  0.00000000000E+00  0.00000000000E+00  0.24042422737E+03  0.24042422737E+03  0.00000000000E+00 0. -1.
          1   -1    0    0  501    0 -0.00000000000E+00 -0.00000000000E+00 -0.27088198179E+03  0.27088198179E+03  0.00000000000E+00 0.  1.
          2    1    1    2  501    0 -0.26777816351E+02  0.56480906404E+01  0.23894997803E+03  0.24051204622E+03  0.00000000000E+00 0. -1.
          1    1    1    2  502    0  0.26777816351E+02 -0.56480906404E+01 -0.26940773245E+03  0.27079416294E+03  0.00000000000E+00 0.  1.
</event>
<event>
 4    1  0.3752836E+003  0.3384105E+02  0.7546771E-02  0.1388899E+00
          2   -1    0    0  502    0  0.00000000000E+00  0.00000000000E+00  0.14770939189E+04  0.14770939189E+04  0.00000000000E+00 0.  1.
          1   -1    0    0  501    0 -0.00000000000E+00 -0.00000000000E+00 -0.19156000601E+01  0.19156000601E+01  0.00000000000E+00 0.  1.
          2    1    1    2  501    0 -0.10844529710E+02 -0.32056404189E+02  0.13081405647E+04  0.13085782185E+04  0.00000000000E+00 0.  1.
          1    1    1    2  502    0  0.10844529710E+02  0.32056404189E+02  0.16703775412E+03  0.17043130046E+03  0.00000000000E+00 0.  1.
</event>
<event>
 4    1  0.3752836E+003  0.2193985E+02  0.7546771E-02  0.1506258E+00
          2   -1    0    0  502    0  0.00000000000E+00  0.00000000000E+00  0.94633160988E+03  0.94633160988E+03  0.00000000000E+00 0. -1.
          1   -1    0    0  501    0 -0.00000000000E+00 -0.00000000000E+00 -0.25260234947E+01  0.25260234947E+01  0.00000000000E+00 0. -1.
          2    1    1    2  501    0  0.85282575082E+01  0.20214494558E+02  0.89588234276E+03  0.89615095215E+03  0.00000000000E+00 0. -1.
          1    1    1    2  502    0 -0.85282575082E+01 -0.20214494558E+02  0.47923243625E+02  0.52706681226E+02  0.00000000000E+00 0. -1.
</event>
<event>
 4    1  0.3752836E+003  0.2115734E+02  0.7546771E-02  0.1517030E+00
          2   -1    0    0  502    0  0.00000000000E+00  0.00000000000E+00  0.99361286255E+03  0.99361286255E+03  0.00000000000E+00 0. -1.
          1   -1    0    0  501    0 -0.00000000000E+00 -0.00000000000E+00 -0.10211943445E+01  0.10211943445E+01  0.00000000000E+00 0.  1.
          2    1    1    2  501    0 -0.60977421052E+01  0.20259584946E+02  0.86806797033E+03  0.86832576511E+03  0.00000000000E+00 0. -1.
          1    1    1    2  502    0  0.60977421052E+01 -0.20259584946E+02  0.12452369788E+03  0.12630829179E+03  0.00000000000E+00 0.  1.
</event>
<event>
 4    1  0.3752836E+003  0.2956279E+02  0.7546771E-02  0.1423434E+00
          2   -1    0    0  502    0  0.00000000000E+00  0.00000000000E+00  0.82563627440E+02  0.82563627440E+02  0.00000000000E+00 0. -1.
          1   -1    0    0  501    0 -0.00000000000E+00 -0.00000000000E+00 -0.27204882331E+03  0.27204882331E+03  0.00000000000E+00 0.  1.
          2    1    1    2  501    0  0.29278794794E+02  0.40878646030E+01  0.79079959823E+02  0.84425105906E+02  0.00000000000E+00 0. -1.
          1    1    1    2  502    0 -0.29278794794E+02 -0.40878646030E+01 -0.26856515569E+03  0.27018734485E+03  0.00000000000E+00 0.  1.
</event>
<event>
 4    1  0.3752836E+003  0.3332667E+02  0.7546771E-02  0.1392725E+00
          2   -1    0    0  502    0  0.00000000000E+00  0.00000000000E+00  0.10317234660E+04  0.10317234660E+04  0.00000000000E+00 0. -1.
          1   -1    0    0  501    0 -0.00000000000E+00 -0.00000000000E+00 -0.10985820263E+01  0.10985820263E+01  0.00000000000E+00 0. -1.
          2    1    1    2  501    0  0.23132693377E+02  0.23990506403E+02  0.44212272215E+03  0.44337700363E+03  0.00000000000E+00 0. -1.
          1    1    1    2  502    0 -0.23132693377E+02 -0.23990506403E+02  0.58850216177E+03  0.58944504435E+03  0.00000000000E+00 0. -1.
</event>
<event>
 4    1  0.3752836E+003  0.4939124E+02  0.7546771E-02  0.1300834E+00
          2   -1    0    0  502    0  0.00000000000E+00  0.00000000000E+00  0.82739145999E+01  0.82739145999E+01  0.00000000000E+00 0.  1.
          1   -1    0    0  501    0 -0.00000000000E+00 -0.00000000000E+00 -0.11011456796E+04  0.11011456796E+04  0.00000000000E+00 0. -1.
          2    1    1    2  501    0 -0.44470116080E+02  0.21491926181E+02 -0.71764686454E+02  0.87118679610E+02  0.00000000000E+00 0.  1.
          1    1    1    2  502    0  0.44470116080E+02 -0.21491926181E+02 -0.10211070785E+04  0.10223009146E+04  0.00000000000E+00 0. -1.
</event>
<event>
 4    1  0.3752836E+003  0.2334773E+02  0.7546771E-02  0.1488177E+00
          2   -1    0    0  502    0  0.00000000000E+00  0.00000000000E+00  0.62570835043E+02  0.62570835043E+02  0.00000000000E+00 0. -1.
          1   -1    0    0  501    0 -0.00000000000E+00 -0.00000000000E+00 -0.26786742783E+03  0.26786742783E+03  0.00000000000E+00 0.  1.
          2    1    1    2  501    0 -0.21903419079E+02 -0.80843472874E+01  0.59861873639E+02  0.64253874233E+02  0.00000000000E+00 0. -1.
          1    1    1    2  502    0  0.21903419079E+02  0.80843472874E+01 -0.26515846642E+03  0.26618438864E+03  0.00000000000E+00 0.  1.
</event>
<event>
 4    1  0.3752836E+003  0.2084128E+02  0.7546771E-02  0.1521543E+00
          2   -1    0    0  502    0  0.00000000000E+00  0.00000000000E+00  0.53457327185E+03  0.53457327185E+03  0.00000000000E+00 0. -1.
          1   -1    0    0  501    0 -0.00000000000E+00 -0.00000000000E+00 -0.11320304737E+01  0.11320304737E+01  0.00000000000E+00 0.  1.
          2    1    1    2  501    0  0.15297856863E+02 -0.14153952214E+02  0.40901906176E+03  0.40954969377E+03  0.00000000000E+00 0. -1.
          1    1    1    2  502    0 -0.15297856863E+02  0.14153952214E+02  0.12442217962E+03  0.12615560855E+03  0.00000000000E+00 0.  1.
</event>
<event>
 4    1  0.3752836E+003  0.3079677E+02  0.7546771E-02  0.1412796E+00
          2   -1    0    0  502    0  0.00000000000E+00  0.00000000000E+00  0.23206640436E+04  0.23206640436E+04  0.00000000000E+00 0.  1.
          1   -1    0    0  501    0 -0.00000000000E+00 -0.00000000000E+00 -0.45691199573E+00  0.45691199573E+00  0.00000000000E+00 0.  1.
          2    1    1    2  501    0 -0.29987338119E+02  0.70143094047E+01  0.15371171672E+04  0.15374256492E+04  0.00000000000E+00 0.  1.
          1    1    1    2  502    0  0.29987338119E+02 -0.70143094047E+01  0.78308996438E+03  0.78369530642E+03  0.00000000000E+00 0.  1.
</event>
<event>
 4    1  0.3752836E+003  0.4488408E+02  0.7546771E-02  0.1322020E+00
          2   -1    0    0  502    0  0.00000000000E+00  0.00000000000E+00  0.14903240952E+03  0.14903240952E+03  0.00000000000E+00 0.  1.
          1   -1    0    0  501    0 -0.00000000000E+00 -0.00000000000E+00 -0.17704673788E+04  0.17704673788E+04  0.00000000000E+00 0. -1.
          2    1    1    2  501    0  0.36468867963E+02  0.26164901419E+02  0.14536148559E+03  0.15213330303E+03  0.00000000000E+00 0.  1.
          1    1    1    2  502    0 -0.36468867963E+02 -0.26164901419E+02 -0.17667964549E+04  0.17673664853E+04  0.00000000000E+00 0. -1.
</event>
<event>
 4    1  0.3752836E+003  0.6344247E+02  0.7546771E-02  0.1248564E+00
          2   -1    0    0  502    0  0.00000000000E+00  0.00000000000E+00  0.45422587166E+03  0.45422587166E+03  0.00000000000E+00 0. -1.
          1   -1    0    0  501    0 -0.00000000000E+00 -0.00000000000E+00 -0.20830405005E+02  0.20830405005E+02  0.00000000000E+00 0. -1.
          2    1    1    2  501    0 -0.16561761218E+02 -0.61242557431E+02  0.36644635094E+02  0.73265080744E+02  0.00000000000E+00 0. -1.
          1    1    1    2  502    0  0.16561761218E+02  0.61242557431E+02  0.39675083156E+03  0.40179119592E+03  0.00000000000E+00 0. -1.
</event>
<event>
 4    1  0.3752836E+003  0.2741192E+02  0.7546771E-02  0.1443514E+00
          2   -1    0    0  502    0  0.00000000000E+00  0.00000000000E+00  0.10280737705E+01  0.10280737705E+01  0.00000000000E+00 0.  1.
          1   -1    0    0  501    0 -0.00000000000E+00 -0.00000000000E+00 -0.87516539667E+03  0.87516539667E+03  0.00000000000E+00 0.  1.
          2    1    1    2  501    0  0.18101550651E+02 -0.20585115486E+02 -0.25919369780E+03  0.26063918757E+03  0.00000000000E+00 0.  1.
          1    1    1    2  502    0 -0.18101550651E+02  0.20585115486E+02 -0.61494362510E+03  0.61555428288E+03  0.00000000000E+00 0.  1.
</event>
<event>
 4    1  0.3752836E+003  0.2027307E+02  0.7546771E-02  0.1529902E+00
          2   -1    0    0  502    0  0.00000000000E+00  0.00000000000E+00  0.39439114214E+03  0.39439114214E+03  0.00000000000E+00 0. -1.
          1   -1    0    0  501    0 -0.00000000000E+00 -0.00000000000E+00 -0.10972909571E+01  0.10972909571E+01  0.00000000000E+00 0. -1.
          2    1    1    2  501    0  0.11654935486E+02  0.16587939799E+02  0.24099291188E+03  0.24184412510E+03  0.00000000000E+00 0. -1.
          1    1    1    2  502    0 -0.11654935486E+02 -0.16587939799E+02  0.15230093930E+03  0.15364430800E+03  0.00000000000E+00 0. -1.
</event>
<event>
 4    1  0.3752836E+003  0.3274536E+02  0.7546771E-02  0.1397147E+00
          2   -1    0    0  502    0  0.00000000000E+00  0.00000000000E+00  0.80392990514E+00  0.80392990514E+00  0.00000000000E+00 0. -1.
          1   -1    0    0  501    0 -0.00000000000E+00 -0.00000000000E+00 -0.22366263459E+04  0.22366263459E+04  0.00000000000E+00 0. -1.
          2    1    1    2  501    0  0.30628952827E+02 -0.11581261799E+02 -0.40713662572E+03  0.40845133171E+03  0.00000000000E+00 0. -1.
          1    1    1    2  502    0 -0.30628952827E+02  0.11581261799E+02 -0.18286857903E+04  0.18289789441E+04  0.00000000000E+00 0. -1.
</event>
<event>
 4    1  0.3752836E+003  0.2032368E+02  0.7546771E-02  0.1529144E+00
          2   -1    0    0  502    0  0.00000000000E+00  0.00000000000E+00  0.43699898239E+03  0.43699898239E+03  0.00000000000E+00 0.  1.
          1   -1    0    0  501    0 -0.00000000000E+00 -0.00000000000E+00 -0.19755017051E+01  0.19755017051E+01  0.00000000000E+00 0. -1.
          2    1    1    2  501    0  0.19312226476E+02  0.63316662551E+01  0.37602020976E+03  0.37656905108E+03  0.00000000000E+00 0.  1.
          1    1    1    2  502    0 -0.19312226476E+02 -0.63316662551E+01  0.59003270925E+02  0.62405433008E+02  0.00000000000E+00 0. -1.
</event>
<event>
 4    1  0.3752836E+003  0.3785557E+02  0.7546771E-02  0.1361532E+00
          2   -1    0    0  502    0  0.00000000000E+00  0.00000000000E+00  0.19721098665E+03  0.19721098665E+03  0.00000000000E+00 0.  1.
          1   -1    0    0  501    0 -0.00000000000E+00 -0.00000000000E+00 -0.10142190764E+02  0.10142190764E+02  0.00000000000E+00 0. -1.
          2    1    1    2  501    0 -0.29383966144E+02 -0.23866848445E+02  0.14873984919E+03  0.15348155153E+03  0.00000000000E+00 0.  1.
          1    1    1    2  502    0  0.29383966144E+02  0.23866848445E+02  0.38328946691E+02  0.53871625884E+02  0.00000000000E+00 0. -1.
</event>
<event>
 4    1  0.3752836E+003  0.2729934E+02  0.7546771E-02  0.1444624E+00
          2   -1    0    0  502    0  0.00000000000E+00  0.00000000000E+00  0.67423920266E+02  0.67423920266E+02  0.00000000000E+00 0. -1.
          1   -1    0    0  501    0 -0.00000000000E+00 -0.00000000000E+00 -0.11889452072E+02  0.11889452072E+02  0.00000000000E+00 0. -1.
          2    1    1    2  501    0 -0.21007796723E+02 -0.17433467867E+02  0.17250241013E+02  0.32292787740E+02  0.00000000000E+00 0. -1.
          1    1    1    2  502    0  0.21007796723E+02  0.17433467867E+02  0.38284227181E+02  0.47020584598E+02  0.00000000000E+00 0. -1.
</event>
<event>
 4    1  0.3752836E+003  0.2341393E+02  0.7546771E-02  0.1487365E+00
          2   -1    0    0  502    0  0.00000000000E+00  0.00000000000E+00  0.37825210366E+00  0.37825210366E+00  0.00000000000E+00 0. -1.
          1   -1    0    0  501    0 -0.00000000000E+00 -0.00000000000E+00 -0.14518905611E+04  0.14518905611E+04  0.00000000000E+00 0. -1.
          2    1    1    2  501    0  0.16385554846E+02 -0.16725002850E+02 -0.69526202922E+03  0.69565616608E+03  0.00000000000E+00 0. -1.
          1    1    1    2  502    0 -0.16385554846E+02  0.16725002850E+02 -0.75625027982E+03  0.75661264717E+03  0.00000000000E+00 0. -1.
</event>
<event>
 4    1  0.3752836E+003  0.2227742E+02  0.7546771E-02  0.1501777E+00
          2   -1    0    0  502    0  0.00000000000E+00  0.00000000000E+00  0.33818826728E+03  0.33818826728E+03  0.00000000000E+00 0.  1.
          1   -1    0    0  501    0 -0.00000000000E+00 -0.00000000000E+00 -0.20359883400E+01  0.20359883400E+01  0.00000000000E+00 0. -1.
          2    1    1    2  501    0 -0.65800532338E+01 -0.21283475659E+02  0.25796735964E+03  0.25892748421E+03  0.00000000000E+00 0.  1.
          1    1    1    2  502    0  0.65800532338E+01  0.21283475659E+02  0.78184919299E+02  0.81296771415E+02  0.00000000000E+00 0. -1.
</event>
<event>
 4    1  0.3752836E+003  0.2218953E+02  0.7546771E-02  0.1502934E+00
          2   -1    0    0  502    0  0.00000000000E+00  0.00000000000E+00  0.96815320016E+01  0.96815320016E+01  0.00000000000E+00 0. -1.
          1   -1    0    0  501    0 -0.00000000000E+00 -0.00000000000E+00 -0.16422420055E+03  0.16422420055E+03  0.00000000000E+00 0. -1.
          2    1    1    2  501    0  0.11946989821E+02 -0.18698790733E+02 -0.50261828686E+01  0.22751656091E+02  0.00000000000E+00 0. -1.
          1    1    1    2  502    0 -0.11946989821E+02  0.18698790733E+02 -0.14951648568E+03  0.15115407646E+03  0.00000000000E+00 0. -1.
</event>
<event>
 4    1  0.3752836E+003  0.2878269E+02  0.7546771E-02  0.1430478E+00
          2   -1    0    0  502    0  0.00000000000E+00  0.00000000000E+00  0.24583527795E+04  0.24583527795E+04  0.00000000000E+00 0.  1.
          1   -1    0    0  501    0 -0.00000000000E+00 -0.00000000000E+00 -0.54873554475E+00  0.54873554475E+00  0.00000000000E+00 0.  1.
          2    1    1    2  501    0 -0.28503978359E+02 -0.39958392163E+01  0.19926241851E+04  0.19928320518E+04  0.00000000000E+00 0.  1.
          1    1    1    2  502    0  0.28503978359E+02  0.39958392163E+01  0.46517985885E+03  0.46606946327E+03  0.00000000000E+00 0.  1.
</event>
<event>
 4    1  0.3752836E+003  0.2299698E+02  0.7546771E-02  0.1492536E+00
          2   -1    0    0  502    0  0.00000000000E+00  0.00000000000E+00  0.69416652203E+00  0.69416652203E+00  0.00000000000E+00 0. -1.
          1   -1    0    0  501    0 -0.00000000000E+00 -0.00000000000E+00 -0.92750281707E+03  0.92750281707E+03  0.00000000000E+00 0. -1.
          2    1    1    2  501    0  0.19107987883E+02 -0.12796314622E+02 -0.26727936433E+03  0.26826688104E+03  0.00000000000E+00 0. -1.
          1    1    1    2  502    0 -0.19107987883E+02  0.12796314622E+02 -0.65952928622E+03  0.65993010255E+03  0.00000000000E+00 0. -1.
</event>
<event>
 4    1  0.3752836E+003  0.3179947E+02  0.7546771E-02  0.1404578E+00
          2   -1    0    0  502    0  0.00000000000E+00  0.00000000000E+00  0.10149081761E+04  0.10149081761E+04  0.00000000000E+00 0.  1.
          1   -1    0    0  501    0 -0.00000000000E+00 -0.00000000000E+00 -0.29600329098E+01  0.29600329098E+01  0.00000000000E+00 0. -1.
          2    1    1    2  501    0 -0.31470803320E+02 -0.45601563296E+01  0.92049710537E+03  0.92104621354E+03  0.00000000000E+00 0.  1.
          1    1    1    2  502    0  0.31470803320E+02  0.45601563296E+01  0.91451037782E+02  0.96821995428E+02  0.00000000000E+00 0. -1.
</event>
<event>
 4    1  0.3752836E+003  0.2211488E+02  0.7546771E-02  0.1503922E+00
          2   -1    0    0  502    0  0.00000000000E+00  0.00000000000E+00  0.16263279273E+02  0.16263279273E+02  0.00000000000E+00 0. -1.
          1   -1    0    0  501    0 -0.00000000000E+00 -0.00000000000E+00 -0.43290520941E+02  0.43290520941E+02  0.00000000000E+00 0. -1.
          2    1    1    2  501    0 -0.12738099972E+02 -0.18077854933E+02  0.29405433803E+01  0.22309523196E+02  0.00000000000E+00 0. -1.
          1    1    1    2  502    0  0.12738099972E+02  0.18077854933E+02 -0.29967785049E+02  0.37244277018E+02  0.00000000000E+00 0. -1.
</event>
<event>
 4    1  0.3752836E+003  0.2711583E+02  0.7546771E-02  0.1446448E+00
          2   -1    0    0  502    0  0.00000000000E+00  0.00000000000E+00  0.15493543586E+04  0.15493543586E+04  0.00000000000E+00 0.  1.
          1   -1    0    0  501    0 -0.00000000000E+00 -0.00000000000E+00 -0.26725129630E+01  0.26725129630E+01  0.00000000000E+00 0.  1.
          2    1    1    2  501    0  0.21835144324E+02  0.16077771533E+02  0.14770904284E+04  0.14773392982E+04  0.00000000000E+00 0.  1.
          1    1    1    2  502    0 -0.21835144324E+02 -0.16077771533E+02  0.69591417216E+02  0.74687573366E+02  0.00000000000E+00 0.  1.
</event>
<event>
 4    1  0.3752836E+003  0.2077515E+02  0.7546771E-02  0.1522500E+00
          2   -1    0    0  502    0  0.00000000000E+00  0.00000000000E+00  0.84036802205E+02  0.84036802205E+02  0.00000000000E+00 0. -1.
          1   -1    0    0  501    0 -0.00000000000E+00 -0.00000000000E+00 -0.22282046393E+02  0.22282046393E+02  0.00000000000E+00 0. -1.
          2    1    1    2  501    0 -0.20618922086E+02 -0.25429883853E+01  0.77509553250E+02  0.80245483256E+02  0.00000000000E+00 0. -1.
          1    1    1    2  502    0  0.20618922086E+02  0.25429883853E+01 -0.15754797438E+02  0.26073365342E+02  0.00000000000E+00 0. -1.
</event>
<event>
 4    1  0.3752836E+003  0.2756364E+02  0.7546771E-02  0.1442027E+00
          2   -1    0    0  502    0  0.00000000000E+00  0.00000000000E+00  0.15304719092E+04  0.15304719092E+04  0.00000000000E+00 0.  1.
          1   -1    0    0  501    0 -0.00000000000E+00 -0.00000000000E+00 -0.27764191276E+03  0.27764191276E+03  0.00000000000E+00 0.  1.
          2    1    1    2  501    0  0.81997462271E+01 -0.26315749439E+02  0.15296633294E+04  0.15299116496E+04  0.00000000000E+00 0.  1.
          1    1    1    2  502    0 -0.81997462271E+01  0.26315749439E+02 -0.27683333288E+03  0.27820217235E+03  0.00000000000E+00 0.  1.
</event>
<event>
 4    1  0.3752836E+003  0.2191144E+02  0.7546771E-02  0.1506639E+00
          2   -1    0    0  502    0  0.00000000000E+00  0.00000000000E+00  0.66153137373E+03  0.66153137373E+03  0.00000000000E+00 0.  1.
          1   -1    0    0  501    0 -0.00000000000E+00 -0.00000000000E+00 -0.56627403121E+02  0.56627403121E+02  0.00000000000E+00 0.  1.
          2    1    1    2  501    0  0.21909865346E+02 -0.26283159172E+00  0.65922290735E+03  0.65958695625E+03  0.00000000000E+00 0.  1.
          1    1    1    2  502    0 -0.21909865346E+02  0.26283159172E+00 -0.54318936741E+02  0.58571820602E+02  0.00000000000E+00 0.  1.
</event>
<event>
 4    1  0.3752836E+003  0.2100585E+02  0.7546771E-02  0.1519181E+00
          2   -1    0    0  502    0  0.00000000000E+00  0.00000000000E+00  0.19742104835E+02  0.19742104835E+02  0.00000000000E+00 0. -1.
          1   -1    0    0  501    0 -0.00000000000E+00 -0.00000000000E+00 -0.90467505700E+02  0.90467505700E+02  0.00000000000E+00 0. -1.
          2    1    1    2  501    0 -0.11171555131E+02 -0.17788815531E+02  0.12453051380E+02  0.24419747965E+02  0.00000000000E+00 0. -1.
          1    1    1    2  502    0  0.11171555131E+02  0.17788815531E+02 -0.83178452244E+02  0.85789862570E+02  0.00000000000E+00 0. -1.
</event>
<event>
 4    1  0.3752836E+003  0.2119044E+02  0.7546771E-02  0.1516563E+00
          2   -1    0    0  502    0  0.00000000000E+00  0.00000000000E+00  0.48268186772E+03  0.48268186772E+03  0.00000000000E+00 0.  1.
          1   -1    0    0  501    0 -0.00000000000E+00 -0.00000000000E+00 -0.71722688235E+02  0.71722688235E+02  0.00000000000E+00 0.  1.
          2    1    1    2  501    0  0.18660431558E+02 -0.10041077273E+02  0.48087824971E+03  0.48134491374E+03  0.00000000000E+00 0.  1.
          1    1    1    2  502    0 -0.18660431558E+02  0.10041077273E+02 -0.69919070228E+02  0.73059642213E+02  0.00000000000E+00 0.  1.
</event>
<event>
 4    1  0.3752836E+003  0.7405555E+02  0.7546771E-02  0.1218364E+00
          2   -1    0    0  502    0  0.00000000000E+00  0.00000000000E+00  0.45677116131E+02  0.45677116131E+02  0.00000000000E+00 0.  1.
          1   -1    0    0  501    0 -0.00000000000E+00 -0.00000000000E+00 -0.35215088951E+03  0.35215088951E+03  0.00000000000E+00 0.  1.
          2    1    1    2  501    0 -0.73958789140E+02 -0.37844274516E+01  0.82455526114E+01  0.74513176822E+02  0.00000000000E+00 0.  1.
          1    1    1    2  502    0  0.73958789140E+02  0.37844274516E+01 -0.31471932599E+03  0.32331482882E+03  0.00000000000E+00 0.  1.
</event>
<event>
 4    1  0.3752836E+003  0.2289437E+02  0.7546771E-02  0.1493829E+00
          2   -1    0    0  502    0  0.00000000000E+00  0.00000000000E+00  0.10354526577E+04  0.10354526577E+04  0.00000000000E+00 0. -1.
          1   -1    0    0  501    0 -0.00000000000E+00 -0.00000000000E+00 -0.12492901454E+01  0.12492901454E+01  0.00000000000E+00 0. -1.
          2    1    1    2  501    0  0.21172316941E+02 -0.87111775748E+01  0.11733051950E+03  0.11954330774E+03  0.00000000000E+00 0. -1.
          1    1    1    2  502    0 -0.21172316941E+02  0.87111775748E+01  0.91687284810E+03  0.91715864015E+03  0.00000000000E+00 0. -1.
</event>
<event>
 4    1  0.3752836E+003  0.2205903E+02  0.7546771E-02  0.1504664E+00
          2   -1    0    0  502    0  0.00000000000E+00  0.00000000000E+00  0.46144044205E+03  0.46144044205E+03  0.00000000000E+00 0.  1.
          1   -1    0    0  501    0 -0.00000000000E+00 -0.00000000000E+00 -0.86641956313E+01  0.86641956313E+01  0.00000000000E+00 0.  1.
          2    1    1    2  501    0  0.15050024368E+02  0.16127539899E+02  0.44667231225E+03  0.44721667602E+03  0.00000000000E+00 0.  1.
          1    1    1    2  502    0 -0.15050024368E+02 -0.16127539899E+02  0.61039341638E+01  0.22887961660E+02  0.00000000000E+00 0.  1.
</event>
<event>
 4    1  0.3752836E+003  0.2402980E+02  0.7546771E-02  0.1479957E+00
          2   -1    0    0  502    0  0.00000000000E+00  0.00000000000E+00  0.16911208012E+02  0.16911208012E+02  0.00000000000E+00 0. -1.
          1   -1    0    0  501    0 -0.00000000000E+00 -0.00000000000E+00 -0.34772220602E+03  0.34772220602E+03  0.00000000000E+00 0.  1.
          2    1    1    2  501    0 -0.24029493875E+02 -0.12099560981E+00  0.77285872468E+01  0.25242073541E+02  0.00000000000E+00 0. -1.
          1    1    1    2  502    0  0.24029493875E+02  0.12099560981E+00 -0.33853958525E+03  0.33939134049E+03  0.00000000000E+00 0.  1.
</event>
<event>
 4    1  0.3752836E+003  0.2873526E+02  0.7546771E-02  0.1430915E+00
          2   -1    0    0  502    0  0.00000000000E+00  0.00000000000E+00  0.28683132460E+03  0.28683132460E+03  0.00000000000E+00 0.  1.
          1   -1    0    0  501    0 -0.00000000000E+00 -0.00000000000E+00 -0.67504126465E+01  0.67504126465E+01  0.00000000000E+00 0.  1.
          2    1    1    2  501    0 -0.21477815494E+02 -0.19089757500E+02  0.25120919710E+03  0.25284733755E+03  0.00000000000E+00 0.  1.
          1    1    1    2  502    0  0.21477815494E+02  0.19089757500E+02  0.28871714852E+02  0.40734399692E+02  0.00000000000E+00 0.  1.
</event>
<event>
 4    1  0.3752836E+003  0.2260953E+02  0.7546771E-02  0.1497460E+00
          2   -1    0    0  502    0  0.00000000000E+00  0.00000000000E+00  0.23196795187E+03  0.23196795187E+03  0.00000000000E+00 0.  1.
          1   -1    0    0  501    0 -0.00000000000E+00 -0.00000000000E+00 -0.52050629689E+01  0.52050629689E+01  0.00000000000E+00 0.  1.
          2    1    1    2  501    0 -0.18342862767E+02 -0.13218557515E+02  0.20343079338E+03  0.20468336174E+03  0.00000000000E+00 0.  1.
          1    1    1    2  502    0  0.18342862767E+02  0.13218557515E+02  0.23332095524E+02  0.32489653103E+02  0.00000000000E+00 0.  1.
</event>
<event>
 4    1  0.3752836E+003  0.2615633E+02  0.7546771E-02  0.1456272E+00
          2   -1    0    0  502    0  0.00000000000E+00  0.00000000000E+00  0.85428485143E+03  0.85428485143E+03  0.00000000000E+00 0. -1.
          1   -1    0    0  501    0 -0.00000000000E+00 -0.00000000000E+00 -0.13896196189E+03  0.13896196189E+03  0.00000000000E+00 0. -1.
          2    1    1    2  501    0  0.21037860283E+02 -0.15542257808E+02  0.85285174292E+03  0.85325274611E+03  0.00000000000E+00 0. -1.
          1    1    1    2  502    0 -0.21037860283E+02  0.15542257808E+02 -0.13752885338E+03  0.13999406721E+03  0.00000000000E+00 0. -1.
</event>
<event>
 4    1  0.3752836E+003  0.3792789E+02  0.7546771E-02  0.1361076E+00
          2   -1    0    0  502    0  0.00000000000E+00  0.00000000000E+00  0.57646545304E+02  0.57646545304E+02  0.00000000000E+00 0. -1.
          1   -1    0    0  501    0 -0.00000000000E+00 -0.00000000000E+00 -0.36089674307E+03  0.36089674307E+03  0.00000000000E+00 0.  1.
          2    1    1    2  501    0  0.26730501118E+02 -0.26907347170E+02  0.50281907585E+02  0.62982499570E+02  0.00000000000E+00 0. -1.
          1    1    1    2  502    0 -0.26730501118E+02  0.26907347170E+02 -0.35353210535E+03  0.35556078880E+03  0.00000000000E+00 0.  1.
</event>
<event>
 4    1  0.3752836E+003  0.3535753E+02  0.7546771E-02  0.1378067E+00
          2   -1    0    0  502    0  0.00000000000E+00  0.00000000000E+00  0.72815540126E+02  0.72815540126E+02  0.00000000000E+00 0.  1.
          1   -1    0    0  501    0 -0.00000000000E+00 -0.00000000000E+00 -0.10542328466E+03  0.10542328466E+03  0.00000000000E+00 0. -1.
          2    1    1    2  501    0  0.27416613162E+02  0.22326757753E+02  0.65236456185E+02  0.74202088951E+02  0.00000000000E+00 0.  1.
          1    1    1    2  502    0 -0.27416613162E+02 -0.22326757753E+02 -0.97844200721E+02  0.10403673584E+03  0.00000000000E+00 0. -1.
</event>
<event>
 4    1  0.3752836E+003  0.5015580E+02  0.7546771E-02  0.1297498E+00
          2   -1    0    0  502    0  0.00000000000E+00  0.00000000000E+00  0.24996334061E+03  0.24996334061E+03  0.00000000000E+00 0. -1.
          1   -1    0    0  501    0 -0.00000000000E+00 -0.00000000000E+00 -0.10281893528E+02  0.10281893528E+02  0.00000000000E+00 0.  1.
          2    1    1    2  501    0  0.44475867839E+02 -0.23184077861E+02  0.13878792711E+03  0.14757267022E+03  0.00000000000E+00 0. -1.
          1    1    1    2  502    0 -0.44475867839E+02  0.23184077861E+02  0.10089351998E+03  0.11267256392E+03  0.00000000000E+00 0.  1.
</event>
<event>
 4    1  0.3752836E+003  0.3304316E+02  0.7546771E-02  0.1394868E+00
          2   -1    0    0  502    0  0.00000000000E+00  0.00000000000E+00  0.46378994135E+01  0.46378994135E+01  0.00000000000E+00 0. -1.
          1   -1    0    0  501    0 -0.00000000000E+00 -0.00000000000E+00 -0.54822434666E+03  0.54822434666E+03  0.00000000000E+00 0. -1.
          2    1    1    2  501    0  0.24644887592E+02 -0.22010911910E+02 -0.62986393637E+02  0.71127607234E+02  0.00000000000E+00 0. -1.
          1    1    1    2  502    0 -0.24644887592E+02  0.22010911910E+02 -0.48060005361E+03  0.48173463884E+03  0.00000000000E+00 0. -1.
</event>
<event>
 4    1  0.3752836E+003  0.2625725E+02  0.7546771E-02  0.1455215E+00
          2   -1    0    0  502    0  0.00000000000E+00  0.00000000000E+00  0.80996609250E+03  0.80996609250E+03  0.00000000000E+00 0. -1.
          1   -1    0    0  501    0 -0.00000000000E+00 -0.00000000000E+00 -0.20113521568E+02  0.20113521568E+02  0.00000000000E+00 0. -1.
          2    1    1    2  501    0  0.13473127245E+02 -0.22537035736E+02  0.80108895899E+03  0.80151915970E+03  0.00000000000E+00 0. -1.
          1    1    1    2  502    0 -0.13473127245E+02  0.22537035736E+02 -0.11236388059E+02  0.28560454376E+02  0.00000000000E+00 0. -1.
</event>
<event>
 4    1  0.3752836E+003  0.6442386E+02  0.7546771E-02  0.1245500E+00
          2   -1    0    0  502    0  0.00000000000E+00  0.00000000000E+00  0.13431044898E+04  0.13431044898E+04  0.00000000000E+00 0.  1.
          1   -1    0    0  501    0 -0.00000000000E+00 -0.00000000000E+00 -0.31190947000E+01  0.31190947000E+01  0.00000000000E+00 0.  1.
          2    1    1    2  501    0 -0.55025411507E+02  0.33505788039E+02  0.73480198291E+03  0.73762076153E+03  0.00000000000E+00 0.  1.
          1    1    1    2  502    0  0.55025411507E+02 -0.33505788039E+02  0.60518341219E+03  0.60860282298E+03  0.00000000000E+00 0.  1.
</event>
<event>
 4    1  0.3752836E+003  0.2857904E+02  0.7546771E-02  0.1432360E+00
          2   -1    0    0  502    0  0.00000000000E+00  0.00000000000E+00  0.93458139672E+00  0.93458139672E+00  0.00000000000E+00 0. -1.
          1   -1    0    0  501    0 -0.00000000000E+00 -0.00000000000E+00 -0.18785799463E+04  0.18785799463E+04  0.00000000000E+00 0. -1.
          2    1    1    2  501    0  0.27154258405E+02 -0.89111179826E+01 -0.25158411028E+03  0.25320214517E+03  0.00000000000E+00 0. -1.
          1    1    1    2  502    0 -0.27154258405E+02  0.89111179826E+01 -0.16260612546E+04  0.16263123825E+04  0.00000000000E+00 0. -1.
</event>
<event>
 4    1  0.3752836E+003  0.2091020E+02  0.7546771E-02  0.1520551E+00
          2   -1    0    0  502    0  0.00000000000E+00  0.00000000000E+00  0.12930049230E+04  0.12930049230E+04  0.00000000000E+00 0. -1.
          1   -1    0    0  501    0 -0.00000000000E+00 -0.00000000000E+00 -0.10669316168E+01  0.10669316168E+01  0.00000000000E+00 0. -1.
          2    1    1    2  501    0 -0.15652355706E+02 -0.13865076402E+02  0.11807268874E+04  0.11809120286E+04  0.00000000000E+00 0. -1.
          1    1    1    2  502    0  0.15652355706E+02  0.13865076402E+02  0.11121110402E+03  0.11315982609E+03  0.00000000000E+00 0. -1.
</event>
<event>
 4    1  0.3752836E+003  0.2022657E+02  0.7546771E-02  0.1530600E+00
          2   -1    0    0  502    0  0.00000000000E+00  0.00000000000E+00  0.47513532599E+02  0.47513532599E+02  0.00000000000E+00 0.  1.
          1   -1    0    0  501    0 -0.00000000000E+00 -0.00000000000E+00 -0.21315553151E+02  0.21315553151E+02  0.00000000000E+00 0. -1.
          2    1    1    2  501    0  0.40187900813E+01  0.19823309967E+02  0.39668423393E+02  0.44527498316E+02  0.00000000000E+00 0.  1.
          1    1    1    2  502    0 -0.40187900813E+01 -0.19823309967E+02 -0.13470443945E+02  0.24301587435E+02  0.00000000000E+00 0. -1.
</event>
<event>
 4    1  0.3752836E+003  0.3469773E+02  0.7546771E-02  0.1382701E+00
          2   -1    0    0  502    0  0.00000000000E+00  0.00000000000E+00  0.43822637521E+03  0.43822637521E+03  0.00000000000E+00 0. -1.
          1   -1    0    0  501    0 -0.00000000000E+00 -0.00000000000E+00 -0.28966913333E+01  0.28966913333E+01  0.00000000000E+00 0. -1.
          2    1    1    2  501    0 -0.34665790401E+02 -0.14885198657E+01  0.26775625362E+03  0.26999508156E+03  0.00000000000E+00 0. -1.
          1    1    1    2  502    0  0.34665790401E+02  0.14885198657E+01  0.16757343026E+03  0.17112798498E+03  0.00000000000E+00 0. -1.
</event>
<event>
 4    1  0.3752836E+003  0.2273441E+02  0.7546771E-02  0.1495860E+00
          2   -1    0    0  502    0  0.00000000000E+00  0.00000000000E+00  0.41621494239E+03  0.41621494239E+03  0.00000000000E+00 0. -1.
          1   -1    0    0  501    0 -0.00000000000E+00 -0.00000000000E+00 -0.25409395213E+01  0.25409395213E+01  0.00000000000E+00 0. -1.
          2    1    1    2  501    0 -0.44693164775E+01  0.22290777526E+02  0.35655104027E+03  0.35727510110E+03  0.00000000000E+00 0. -1.
          1    1    1    2  502    0  0.44693164775E+01 -0.22290777526E+02  0.57122962606E+02  0.61480780813E+02  0.00000000000E+00 0. -1.
</event>
<event>
 4    1  0.3752836E+003  0.2081466E+02  0.7546771E-02  0.1521928E+00
          2   -1    0    0  502    0  0.00000000000E+00  0.00000000000E+00  0.30300770047E+03  0.30300770047E+03  0.00000000000E+00 0.  1.
          1   -1    0    0  501    0 -0.00000000000E+00 -0.00000000000E+00 -0.24031225685E+01  0.24031225685E+01  0.00000000000E+00 0.  1.
          2    1    1    2  501    0 -0.13471582135E+02 -0.15867147236E+02  0.24748474843E+03  0.24835851222E+03  0.00000000000E+00 0.  1.
          1    1    1    2  502    0  0.13471582135E+02  0.15867147236E+02  0.53119829466E+02  0.57052310813E+02  0.00000000000E+00 0.  1.
</event>
<event>
 4    1  0.3752836E+003  0.2265361E+02  0.7546771E-02  0.1496894E+00
          2   -1    0    0  502    0  0.00000000000E+00  0.00000000000E+00  0.23993602976E+02  0.23993602976E+02  0.00000000000E+00 0. -1.
          1   -1    0    0  501    0 -0.00000000000E+00 -0.00000000000E+00 -0.61753011035E+03  0.61753011035E+03  0.00000000000E+00 0.  1.
          2    1    1    2  501    0  0.72671629856E+01  0.21456339038E+02  0.18389780848E+02  0.29178248446E+02  0.00000000000E+00 0. -1.
          1    1    1    2  502    0 -0.72671629856E+01 -0.21456339038E+02 -0.61192628822E+03  0.61234546488E+03  0.00000000000E+00 0.  1.
</event>
<event>
 4    1  0.3752836E+003  0.2695874E+02  0.7546771E-02  0.1448023E+00
          2   -1    0    0  502    0  0.00000000000E+00  0.00000000000E+00  0.77954280800E+03  0.77954280800E+03  0.00000000000E+00 0.  1.
          1   -1    0    0  501    0 -0.00000000000E+00 -0.00000000000E+00 -0.19054332150E+01  0.19054332150E+01  0.00000000000E+00 0.  1.
          2    1    1    2  501    0 -0.17260911750E+02 -0.20708322882E+02  0.66804593874E+03  0.66858967235E+03  0.00000000000E+00 0.  1.
          1    1    1    2  502    0  0.17260911750E+02  0.20708322882E+02  0.10959143605E+03  0.11285856886E+03  0.00000000000E+00 0.  1.
</event>
<event>
 4    1  0.3752836E+003  0.3809250E+02  0.7546771E-02  0.1360041E+00
          2   -1    0    0  502    0  0.00000000000E+00  0.00000000000E+00  0.16630447349E+03  0.16630447349E+03  0.00000000000E+00 0. -1.
          1   -1    0    0  501    0 -0.00000000000E+00 -0.00000000000E+00 -0.30996060197E+02  0.30996060197E+02  0.00000000000E+00 0.  1.
          2    1    1    2  501    0  0.11214682795E+02  0.36404254162E+02  0.15127486235E+03  0.15599718847E+03  0.00000000000E+00 0. -1.
          1    1    1    2  502    0 -0.11214682795E+02 -0.36404254162E+02 -0.15966449052E+02  0.41303345223E+02  0.00000000000E+00 0.  1.
</event>
<event>
 4    1  0.3752836E+003  0.2194064E+02  0.7546771E-02  0.1506247E+00
          2   -1    0    0  502    0  0.00000000000E+00  0.00000000000E+00  0.12173419568E+04  0.12173419568E+04  0.00000000000E+00 0. -1.
          1   -1    0    0  501    0 -0.00000000000E+00 -0.00000000000E+00 -0.19485852699E+01  0.19485852699E+01  0.00000000000E+00 0. -1.
          2    1    1    2  501    0  0.21355314903E+02 -0.50341004680E+01  0.11519772908E+04  0.11521862133E+04  0.00000000000E+00 0. -1.
          1    1    1    2  502    0 -0.21355314903E+02  0.50341004680E+01  0.63416080746E+02  0.67104328767E+02  0.00000000000E+00 0. -1.
</event>
<event>
 4    1  0.3752836E+003  0.3908698E+02  0.7546771E-02  0.1353921E+00
          2   -1    0    0  502    0  0.00000000000E+00  0.00000000000E+00  0.20938304411E+03  0.20938304411E+03  0.00000000000E+00 0. -1.
          1   -1    0    0  501    0 -0.00000000000E+00 -0.00000000000E+00 -0.26688498788E+02  0.26688498788E+02  0.00000000000E+00 0.  1.
          2    1    1    2  501    0 -0.38822631013E+02  0.45381797517E+01  0.19196195034E+03  0.19590094980E+03  0.00000000000E+00 0. -1.
          1    1    1    2  502    0  0.38822631013E+02 -0.45381797517E+01 -0.92674050169E+01  0.40170593100E+02  0.00000000000E+00 0.  1.
</event>
<event>
 4    1  0.3752836E+003  0.3318513E+02  0.7546771E-02  0.1393792E+00
          2   -1    0    0  502    0  0.00000000000E+00  0.00000000000E+00  0.27964489394E+03  0.27964489394E+03  0.00000000000E+00 0. -1.
          1   -1    0    0  501    0 -0.00000000000E+00 -0.00000000000E+00 -0.11520797980E+02  0.11520797980E+02  0.00000000000E+00 0. -1.
          2    1    1    2  501    0 -0.24805394975E+01 -0.33092289601E+02  0.25217092196E+03  0.25434509350E+03  0.00000000000E+00 0. -1.
          1    1    1    2  502    0  0.24805394975E+01  0.33092289601E+02  0.15953174003E+02  0.36820598420E+02  0.00000000000E+00 0. -1.
</event>
<event>
 4    1  0.3752836E+003  0.2488902E+02  0.7546771E-02  0.1470049E+00
          2   -1    0    0  502    0  0.00000000000E+00  0.00000000000E+00  0.38239086856E+03  0.38239086856E+03  0.00000000000E+00 0.  1.
          1   -1    0    0  501    0 -0.00000000000E+00 -0.00000000000E+00 -0.41355438925E+02  0.41355438925E+02  0.00000000000E+00 0.  1.
          2    1    1    2  501    0  0.10752976922E+02 -0.22446314163E+02  0.37819966796E+03  0.37901774678E+03  0.00000000000E+00 0.  1.
          1    1    1    2  502    0 -0.10752976922E+02  0.22446314163E+02 -0.37164238325E+02  0.44728560702E+02  0.00000000000E+00 0.  1.
</event>
<event>
 4    1  0.3752836E+003  0.2094114E+02  0.7546771E-02  0.1520107E+00
          2   -1    0    0  502    0  0.00000000000E+00  0.00000000000E+00  0.11892442240E+04  0.11892442240E+04  0.00000000000E+00 0.  1.
          1   -1    0    0  501    0 -0.00000000000E+00 -0.00000000000E+00 -0.70786709688E+01  0.70786709688E+01  0.00000000000E+00 0. -1.
          2    1    1    2  501    0 -0.81388701101E+01  0.19294817469E+02  0.11734559071E+04  0.11736427468E+04  0.00000000000E+00 0.  1.
          1    1    1    2  502    0  0.81388701101E+01 -0.19294817469E+02  0.87096458856E+01  0.22680148132E+02  0.00000000000E+00 0. -1.
</event>
<event>
 4    1  0.3752836E+003  0.2276616E+02  0.7546771E-02  0.1495456E+00
          2   -1    0    0  502    0  0.00000000000E+00  0.00000000000E+00  0.13653205593E+02  0.13653205593E+02  0.00000000000E+00 0. -1.
          1   -1    0    0  501    0 -0.00000000000E+00 -0.00000000000E+00 -0.82722310533E+02  0.82722310533E+02  0.00000000000E+00 0. -1.
          2    1    1    2  501    0 -0.19932840540E+02 -0.10999086294E+02  0.91197539926E+00  0.22784418589E+02  0.00000000000E+00 0. -1.
          1    1    1    2  502    0  0.19932840540E+02  0.10999086294E+02 -0.69981080340E+02  0.73591097538E+02  0.00000000000E+00 0. -1.
</event>
<event>
 4    1  0.3752836E+003  0.2184128E+02  0.7546771E-02  0.1507584E+00
          2   -1    0    0  502    0  0.00000000000E+00  0.00000000000E+00  0.18741013826E+02  0.18741013826E+02  0.00000000000E+00 0.  1.
          1   -1    0    0  501    0 -0.00000000000E+00 -0.00000000000E+00 -0.28351809026E+03  0.28351809026E+03  0.00000000000E+00 0. -1.
          2    1    1    2  501    0 -0.15696854899E+02  0.15187168915E+02  0.11797249763E+02  0.24823707526E+02  0.00000000000E+00 0.  1.
          1    1    1    2  502    0  0.15696854899E+02 -0.15187168915E+02 -0.27657432620E+03  0.27743539657E+03  0.00000000000E+00 0. -1.
</event>
<event>
 4    1  0.3752836E+003  0.2814846E+02  0.7546771E-02  0.1436401E+00
          2   -1    0    0  502    0  0.00000000000E+00  0.00000000000E+00  0.29728663306E+02  0.29728663306E+02  0.00000000000E+00 0.  1.
          1   -1    0    0  501    0 -0.00000000000E+00 -0.00000000000E+00 -0.12458072020E+04  0.12458072020E+04  0.00000000000E+00 0. -1.
          2    1    1    2  501    0  0.25619166916E+02  0.11661657219E+02  0.22869715978E+02  0.36267890364E+02  0.00000000000E+00 0.  1.
          1    1    1    2  502    0 -0.25619166916E+02 -0.11661657219E+02 -0.12389482547E+04  0.12392679750E+04  0.00000000000E+00 0. -1.
</event>
<event>
 4    1  0.3752836E+003  0.3005523E+02  0.7546771E-02  0.1419117E+00
          2   -1    0    0  502    0  0.00000000000E+00  0.00000000000E+00  0.17469171589E+04  0.17469171589E+04  0.00000000000E+00 0. -1.
          1   -1    0    0  501    0 -0.00000000000E+00 -0.00000000000E+00 -0.24998164501E+01  0.24998164501E+01  0.00000000000E+00 0.  1.
          2    1    1    2  501    0  0.24575921578E+02 -0.17301470025E+02  0.16512140697E+04  0.16514875781E+04  0.00000000000E+00 0. -1.
          1    1    1    2  502    0 -0.24575921578E+02  0.17301470025E+02  0.93203272794E+02  0.97929397251E+02  0.00000000000E+00 0.  1.
</event>
<event>
 4    1  0.3752836E+003  0.2652811E+02  0.7546771E-02  0.1452407E+00
          2   -1    0    0  502    0  0.00000000000E+00  0.00000000000E+00  0.72336628636E+03  0.72336628636E+03  0.00000000000E+00 0. -1.
          1   -1    0    0  501    0 -0.00000000000E+00 -0.00000000000E+00 -0.69397212890E+02  0.69397212890E+02  0.00000000000E+00 0.  1.
          2    1    1    2  501    0  0.10495539670E+02  0.24363585516E+02  0.72057807211E+03  0.72106622348E+03  0.00000000000E+00 0. -1.
          1    1    1    2  502    0 -0.10495539670E+02 -0.24363585516E+02 -0.66608998638E+02  0.71697275762E+02  0.00000000000E+00 0.  1.
</event>
<event>
 4    1  0.3752836E+003  0.2002691E+02  0.7546771E-02  0.1533625E+00
          2   -1    0    0  502    0  0.00000000000E+00  0.00000000000E+00  0.10325458659E+04  0.10325458659E+04  0.00000000000E+00 0. -1.
          1   -1    0    0  501    0 -0.00000000000E+00 -0.00000000000E+00 -0.19322686872E+01  0.19322686872E+01  0.00000000000E+00 0. -1.
          2    1    1    2  501    0 -0.12273077598E+02 -0.15825566575E+02  0.97764290726E+03  0.97784801023E+03  0.00000000000E+00 0. -1.
          1    1    1    2  502    0  0.12273077598E+02  0.15825566575E+02  0.52970689994E+02  0.56630124400E+02  0.00000000000E+00 0. -1.
</event>
<event>
 4    1  0.3752836E+003  0.2496946E+02  0.7546771E-02  0.1469145E+00
          2   -1    0    0  502    0  0.00000000000E+00  0.00000000000E+00  0.45356463928E+02  0.45356463928E+02  0.00000000000E+00 0.  1.
          1   -1    0    0  501    0 -0.00000000000E+00 -0.00000000000E+00 -0.10510052972E+04  0.10510052972E+04  0.00000000000E+00 0. -1.
          2    1    1    2  501    0  0.18298737834E+02  0.16989116043E+02  0.41759839410E+02  0.48655503880E+02  0.00000000000E+00 0.  1.
          1    1    1    2  502    0 -0.18298737834E+02 -0.16989116043E+02 -0.10474086727E+04  0.10477062572E+04  0.00000000000E+00 0. -1.
</event>
<event>
 4    1  0.3752836E+003  0.3220114E+02  0.7546771E-02  0.1401385E+00
          2   -1    0    0  502    0  0.00000000000E+00  0.00000000000E+00  0.36832102703E+03  0.36832102703E+03  0.00000000000E+00 0. -1.
          1   -1    0    0  501    0 -0.00000000000E+00 -0.00000000000E+00 -0.61609154095E+03  0.61609154095E+03  0.00000000000E+00 0.  1.
          2    1    1    2  501    0  0.56119964251E+01 -0.31708340601E+02  0.36719516582E+03  0.36860439928E+03  0.00000000000E+00 0. -1.
          1    1    1    2  502    0 -0.56119964251E+01  0.31708340601E+02 -0.61496567975E+03  0.61580816870E+03  0.00000000000E+00 0.  1.
</event>
<event>
 4    1  0.3752836E+003  0.2850143E+02  0.7546771E-02  0.1433082E+00
          2   -1    0    0  502    0  0.00000000000E+00  0.00000000000E+00  0.99438865558E+01  0.99438865558E+01  0.00000000000E+00 0.  1.
          1   -1    0    0  501    0 -0.00000000000E+00 -0.00000000000E+00 -0.74357833328E+03  0.74357833328E+03  0.00000000000E+00 0. -1.
          2    1    1    2  501    0  0.87788830941E+01 -0.27115731379E+02 -0.11354099487E+02  0.30679753124E+02  0.00000000000E+00 0.  1.
          1    1    1    2  502    0 -0.87788830941E+01  0.27115731379E+02 -0.72228034724E+03  0.72284246671E+03  0.00000000000E+00 0. -1.
</event>
<event>
 4    1  0.3752836E+003  0.2243308E+02  0.7546771E-02  0.1499742E+00
          2   -1    0    0  502    0  0.00000000000E+00  0.00000000000E+00  0.55594744495E+02  0.55594744495E+02  0.00000000000E+00 0. -1.
          1   -1    0    0  501    0 -0.00000000000E+00 -0.00000000000E+00 -0.45286824856E+02  0.45286824856E+02  0.00000000000E+00 0. -1.
          2    1    1    2  501    0 -0.37224135645E+01  0.22122085706E+02  0.50272916065E+02  0.55050968460E+02  0.00000000000E+00 0. -1.
          1    1    1    2  502    0  0.37224135645E+01 -0.22122085706E+02 -0.39964996425E+02  0.45830600891E+02  0.00000000000E+00 0. -1.
</event>
<event>
 4    1  0.3752836E+003  0.3322944E+02  0.7546771E-02  0.1393457E+00
          2   -1    0    0  502    0  0.00000000000E+00  0.00000000000E+00  0.10082171030E+02  0.10082171030E+02  0.00000000000E+00 0. -1.
          1   -1    0    0  501    0 -0.00000000000E+00 -0.00000000000E+00 -0.13296344351E+04  0.13296344351E+04  0.00000000000E+00 0.  1.
          2    1    1    2  501    0 -0.24759426120E+02 -0.22162269177E+02 -0.18098099967E+02  0.37838295142E+02  0.00000000000E+00 0. -1.
          1    1    1    2  502    0  0.24759426120E+02  0.22162269177E+02 -0.13014541641E+04  0.13018783110E+04  0.00000000000E+00 0.  1.
</event>
<event>
 4    1  0.3752836E+003  0.2509170E+02  0.7546771E-02  0.1467780E+00
          2   -1    0    0  502    0  0.00000000000E+00  0.00000000000E+00  0.72047031378E+03  0.72047031378E+03  0.00000000000E+00 0.  1.
          1   -1    0    0  501    0 -0.00000000000E+00 -0.00000000000E+00 -0.91082431720E+01  0.91082431720E+01  0.00000000000E+00 0.  1.
          2    1    1    2  501    0 -0.19639529479E+02 -0.15616734024E+02  0.70252981586E+03  0.70297776328E+03  0.00000000000E+00 0.  1.
          1    1    1    2  502    0  0.19639529479E+02  0.15616734024E+02  0.88322547450E+01  0.26600793665E+02  0.00000000000E+00 0.  1.
</event>
<event>
 4    1  0.3752836E+003  0.3637702E+02  0.7546771E-02  0.1371132E+00
          2   -1    0    0  502    0  0.00000000000E+00  0.00000000000E+00  0.79966549275E+01  0.79966549275E+01  0.00000000000E+00 0. -1.
          1   -1    0    0  501    0 -0.00000000000E+00 -0.00000000000E+00 -0.59841993034E+03  0.59841993034E+03  0.00000000000E+00 0. -1.
          2    1    1    2  501    0  0.10970684316E+01 -0.36360470730E+02 -0.37311357967E+02  0.52109738286E+02  0.00000000000E+00 0. -1.
          1    1    1    2  502    0 -0.10970684316E+01  0.36360470730E+02 -0.55311191744E+03  0.55430684698E+03  0.00000000000E+00 0. -1.
</event>
<event>
 4    1  0.3752836E+003  0.6257470E+02  0.7546771E-02  0.1251327E+00
          2   -1    0    0  502    0  0.00000000000E+00  0.00000000000E+00  0.53167498583E+01  0.53167498583E+01  0.00000000000E+00 0.  1.
          1   -1    0    0  501    0 -0.00000000000E+00 -0.00000000000E+00 -0.90101670674E+03  0.90101670674E+03  0.00000000000E+00 0. -1.
          2    1    1    2  501    0  0.35854536957E+02 -0.51283968076E+02 -0.25418792921E+03  0.26177680676E+03  0.00000000000E+00 0.  1.
          1    1    1    2  502    0 -0.35854536957E+02  0.51283968076E+02 -0.64151202767E+03  0.64455664984E+03  0.00000000000E+00 0. -1.
</event>
<event>
 4    1  0.3752836E+003  0.3030120E+02  0.7546771E-02  0.1416997E+00
          2   -1    0    0  502    0  0.00000000000E+00  0.00000000000E+00  0.70742426361E+01  0.70742426361E+01  0.00000000000E+00 0.  1.
          1   -1    0    0  501    0 -0.00000000000E+00 -0.00000000000E+00 -0.62802102702E+03  0.62802102702E+03  0.00000000000E+00 0.  1.
          2    1    1    2  501    0 -0.22621538341E+02 -0.20160075931E+02 -0.27635639677E+02  0.41010867326E+02  0.00000000000E+00 0.  1.
          1    1    1    2  502    0  0.22621538341E+02  0.20160075931E+02 -0.59331114471E+03  0.59408440233E+03  0.00000000000E+00 0.  1.
</event>
<event>
 4    1  0.3752836E+003  0.2104644E+02  0.7546771E-02  0.1518603E+00
          2   -1    0    0  502    0  0.00000000000E+00  0.00000000000E+00  0.13324655492E+03  0.13324655492E+03  0.00000000000E+00 0.  1.
          1   -1    0    0  501    0 -0.00000000000E+00 -0.00000000000E+00 -0.15684220312E+02  0.15684220312E+02  0.00000000000E+00 0.  1.
          2    1    1    2  501    0  0.20949524217E+02 -0.20174352567E+01  0.12488561476E+03  0.12664663195E+03  0.00000000000E+00 0.  1.
          1    1    1    2  502    0 -0.20949524217E+02  0.20174352567E+01 -0.73232801476E+01  0.22284143287E+02  0.00000000000E+00 0.  1.
</event>
<event>
 4    1  0.3752836E+003  0.3688785E+02  0.7546771E-02  0.1367756E+00
          2   -1    0    0  502    0  0.00000000000E+00  0.00000000000E+00  0.48327029723E+02  0.48327029723E+02  0.00000000000E+00 0. -1.
          1   -1    0    0  501    0 -0.00000000000E+00 -0.00000000000E+00 -0.34862975807E+02  0.34862975807E+02  0.00000000000E+00 0. -1.
          2    1    1    2  501    0 -0.35747476152E+02  0.91011582190E+01  0.24975634497E+02  0.44547676154E+02  0.00000000000E+00 0. -1.
          1    1    1    2  502    0  0.35747476152E+02 -0.91011582190E+01 -0.11511580581E+02  0.38642329376E+02  0.00000000000E+00 0. -1.
</event>
<event>
 4    1  0.3752836E+003  0.2833476E+02  0.7546771E-02  0.1434642E+00
          2   -1    0    0  502    0  0.00000000000E+00  0.00000000000E+00  0.66079873147E+01  0.66079873147E+01  0.00000000000E+00 0.  1.
          1   -1    0    0  501    0 -0.00000000000E+00 -0.00000000000E+00 -0.48274527004E+03  0.48274527004E+03  0.00000000000E+00 0. -1.
          2    1    1    2  501    0 -0.16207065720E+02  0.23241979901E+02 -0.26410178960E+02  0.38734431217E+02  0.00000000000E+00 0.  1.
          1    1    1    2  502    0  0.16207065720E+02 -0.23241979901E+02 -0.44972710377E+03  0.45061882614E+03  0.00000000000E+00 0. -1.
</event>
<event>
 4    1  0.3752836E+003  0.4257942E+02  0.7546771E-02  0.1333999E+00
          2   -1    0    0  502    0  0.00000000000E+00  0.00000000000E+00  0.16451402762E+01  0.16451402762E+01  0.00000000000E+00 0. -1.
          1   -1    0    0  501    0 -0.00000000000E+00 -0.00000000000E+00 -0.18291974203E+04  0.18291974203E+04  0.00000000000E+00 0. -1.
          2    1    1    2  501    0  0.30180099539E+02 -0.30036120415E+02 -0.33660373281E+03  0.33928613276E+03  0.00000000000E+00 0. -1.
          1    1    1    2  502    0 -0.30180099539E+02  0.30036120415E+02 -0.14909485472E+04  0.14915564278E+04  0.00000000000E+00 0. -1.
</event>
<event>
 4    1  0.3752836E+003  0.2266728E+02  0.7546771E-02  0.1496719E+00
          2   -1    0    0  502    0  0.00000000000E+00  0.00000000000E+00  0.17391506832E+03  0.17391506832E+03  0.00000000000E+00 0. -1.
          1   -1    0    0  501    0 -0.00000000000E+00 -0.00000000000E+00 -0.23144012612E+02  0.23144012612E+02  0.00000000000E+00 0. -1.
          2    1    1    2  501    0 -0.13861706083E+02  0.17934841385E+02  0.16741177112E+03  0.16893935759E+03  0.00000000000E+00 0. -1.
          1    1    1    2  502    0  0.13861706083E+02 -0.17934841385E+02 -0.16640715420E+02  0.28119723340E+02  0.00000000000E+00 0. -1.
</event>
<event>
 4    1  0.3752836E+003  0.4292381E+02  0.7546771E-02  0.1332155E+00
          2   -1    0    0  502    0  0.00000000000E+00  0.00000000000E+00  0.12048826910E+04  0.12048826910E+04  0.00000000000E+00 0.  1.
          1   -1    0    0  501    0 -0.00000000000E+00 -0.00000000000E+00 -0.18114222419E+02  0.18114222419E+02  0.00000000000E+00 0.  1.
          2    1    1    2  501    0  0.42442078853E+02 -0.64127749815E+01  0.11785031299E+04  0.11792845632E+04  0.00000000000E+00 0.  1.
          1    1    1    2  502    0 -0.42442078853E+02  0.64127749815E+01  0.82653386725E+01  0.43712350242E+02  0.00000000000E+00 0.  1.
</event>
<event>
 4    1  0.3752836E+003  0.2168006E+02  0.7546771E-02  0.1509773E+00
          2   -1    0    0  502    0  0.00000000000E+00  0.00000000000E+00  0.33762367952E+03  0.33762367952E+03  0.00000000000E+00 0.  1.
          1   -1    0    0  501    0 -0.00000000000E+00 -0.00000000000E+00 -0.40231700274E+01  0.40231700274E+01  0.00000000000E+00 0. -1.
          2    1    1    2  501    0  0.67036894757E+01 -0.20617605036E+02  0.30494193991E+03  0.30571164814E+03  0.00000000000E+00 0.  1.
          1    1    1    2  502    0 -0.67036894757E+01  0.20617605036E+02  0.28658569585E+02  0.35935201414E+02  0.00000000000E+00 0. -1.
</event>
<event>
 4    1  0.3752836E+003  0.2140837E+02  0.7546771E-02  0.1513514E+00
          2   -1    0    0  502    0  0.00000000000E+00  0.00000000000E+00  0.14875150482E+03  0.14875150482E+03  0.00000000000E+00 0. -1.
          1   -1    0    0  501    0 -0.00000000000E+00 -0.00000000000E+00 -0.97537959198E+02  0.97537959198E+02  0.00000000000E+00 0.  1.
          2    1    1    2  501    0 -0.15134425486E+02  0.15141582689E+02  0.14679090425E+03  0.14834381662E+03  0.00000000000E+00 0. -1.
          1    1    1    2  502    0  0.15134425486E+02 -0.15141582689E+02 -0.95577358626E+02  0.97945647392E+02  0.00000000000E+00 0.  1.
</event>
<event>
 4    1  0.3752836E+003  0.1972574E+03  0.7546771E-02  0.1057098E+00
          2   -1    0    0  502    0  0.00000000000E+00  0.00000000000E+00  0.21320878830E+04  0.21320878830E+04  0.00000000000E+00 0. -1.
          1   -1    0    0  501    0 -0.00000000000E+00 -0.00000000000E+00 -0.10276400240E+04  0.10276400240E+04  0.00000000000E+00 0.  1.
          2    1    1    2  501    0 -0.39285879188E+02 -0.19330570799E+03  0.21179965761E+04  0.21271624229E+04  0.00000000000E+00 0. -1.
          1    1    1    2  502    0  0.39285879188E+02  0.19330570799E+03 -0.10135487171E+04  0.10325654841E+04  0.00000000000E+00 0.  1.
</event>
<event>
 4    1  0.3752836E+003  0.3333824E+02  0.7546771E-02  0.1392638E+00
          2   -1    0    0  502    0  0.00000000000E+00  0.00000000000E+00  0.12976510063E+04  0.12976510063E+04  0.00000000000E+00 0. -1.
          1   -1    0    0  501    0 -0.00000000000E+00 -0.00000000000E+00 -0.74492799077E+01  0.74492799077E+01  0.00000000000E+00 0. -1.
          2    1    1    2  501    0  0.15822249922E+02 -0.29344419757E+02  0.12589915139E+04  0.12594328369E+04  0.00000000000E+00 0. -1.
          1    1    1    2  502    0 -0.15822249922E+02  0.29344419757E+02  0.31210212494E+02  0.45667449319E+02  0.00000000000E+00 0. -1.
</event>
<event>
 4    1  0.3752836E+003  0.2389889E+02  0.7546771E-02  0.1481509E+00
          2   -1    0    0  502    0  0.00000000000E+00  0.00000000000E+00  0.59179928948E+01  0.59179928948E+01  0.00000000000E+00 0. -1.
          1   -1    0    0  501    0 -0.00000000000E+00 -0.00000000000E+00 -0.14703656867E+03  0.14703656867E+03  0.00000000000E+00 0. -1.
          2    1    1    2  501    0  0.14439710829E+02 -0.19043410096E+02 -0.25729001739E+02  0.35116068222E+02  0.00000000000E+00 0. -1.
          1    1    1    2  502    0 -0.14439710829E+02  0.19043410096E+02 -0.11538957404E+03  0.11783849335E+03  0.00000000000E+00 0. -1.
</event>
<event>
 4    1  0.3752836E+003  0.2989498E+02  0.7546771E-02  0.1420511E+00
          2   -1    0    0  502    0  0.00000000000E+00  0.00000000000E+00  0.16077807079E+03  0.16077807079E+03  0.00000000000E+00 0. -1.
          1   -1    0    0  501    0 -0.00000000000E+00 -0.00000000000E+00 -0.28276649278E+03  0.28276649278E+03  0.00000000000E+00 0.  1.
          2    1    1    2  501    0 -0.24287626288E+02 -0.17430459225E+02  0.15858743973E+03  0.16138056184E+03  0.00000000000E+00 0. -1.
          1    1    1    2  502    0  0.24287626288E+02  0.17430459225E+02 -0.28057586171E+03  0.28216400174E+03  0.00000000000E+00 0.  1.
</event>
<event>
 4    1  0.3752836E+003  0.3389982E+02  0.7546771E-02  0.1388467E+00
          2   -1    0    0  502    0  0.00000000000E+00  0.00000000000E+00  0.63952284880E+03  0.63952284880E+03  0.00000000000E+00 0. -1.
          1   -1    0    0  501    0 -0.00000000000E+00 -0.00000000000E+00 -0.12691392777E+03  0.12691392777E+03  0.00000000000E+00 0. -1.
          2    1    1    2  501    0  0.33730516422E+02 -0.33838095399E+01  0.63680020185E+03  0.63770188567E+03  0.00000000000E+00 0. -1.
          1    1    1    2  502    0 -0.33730516422E+02  0.33838095399E+01 -0.12419128082E+03  0.12873489091E+03  0.00000000000E+00 0. -1.
</event>
<event>
 4    1  0.3752836E+003  0.2728379E+02  0.7546771E-02  0.1444778E+00
          2   -1    0    0  502    0  0.00000000000E+00  0.00000000000E+00  0.31171853152E+01  0.31171853152E+01  0.00000000000E+00 0.  1.
          1   -1    0    0  501    0 -0.00000000000E+00 -0.00000000000E+00 -0.27956643765E+03  0.27956643765E+03  0.00000000000E+00 0. -1.
          2    1    1    2  501    0 -0.23382632894E+02  0.14059070331E+02 -0.84255745025E+02  0.88563172647E+02  0.00000000000E+00 0.  1.
          1    1    1    2  502    0  0.23382632894E+02 -0.14059070331E+02 -0.19219350731E+03  0.19412045032E+03  0.00000000000E+00 0. -1.
</event>
<event>
 4    1  0.3752836E+003  0.1475450E+03  0.7546771E-02  0.1100160E+00
          2   -1    0    0  502    0  0.00000000000E+00  0.00000000000E+00  0.89087573774E+03  0.89087573774E+03  0.00000000000E+00 0.  1.
          1   -1    0    0  501    0 -0.00000000000E+00 -0.00000000000E+00 -0.81588891861E+02  0.81588891861E+02  0.00000000000E+00 0. -1.
          2    1    1    2  501    0 -0.13961786371E+03  0.47711501579E+02  0.81159899381E+03  0.82490148624E+03  0.00000000000E+00 0.  1.
          1    1    1    2  502    0  0.13961786371E+03 -0.47711501579E+02 -0.23121479307E+01  0.14756314336E+03  0.00000000000E+00 0. -1.
</event>
<event>
 4    1  0.3752836E+003  0.2174014E+02  0.7546771E-02  0.1508955E+00
          2   -1    0    0  502    0  0.00000000000E+00  0.00000000000E+00  0.32194639677E+03  0.32194639677E+03  0.00000000000E+00 0. -1.
          1   -1    0    0  501    0 -0.00000000000E+00 -0.00000000000E+00 -0.56066185755E+02  0.56066185755E+02  0.00000000000E+00 0.  1.
          2    1    1    2  501    0 -0.21738244435E+02  0.28739635298E+00  0.31945548829E+03  0.32019438294E+03  0.00000000000E+00 0. -1.
          1    1    1    2  502    0  0.21738244435E+02 -0.28739635298E+00 -0.53575277276E+02  0.57818199583E+02  0.00000000000E+00 0.  1.
</event>
<event>
 4    1  0.3752836E+003  0.2932304E+02  0.7546771E-02  0.1425572E+00
          2   -1    0    0  502    0  0.00000000000E+00  0.00000000000E+00  0.12702096636E+03  0.12702096636E+03  0.00000000000E+00 0.  1.
          1   -1    0    0  501    0 -0.00000000000E+00 -0.00000000000E+00 -0.24970344347E+02  0.24970344347E+02  0.00000000000E+00 0. -1.
          2    1    1    2  501    0  0.13982418765E+02  0.25774654969E+02  0.11590740460E+03  0.11955905367E+03  0.00000000000E+00 0.  1.
          1    1    1    2  502    0 -0.13982418765E+02 -0.25774654969E+02 -0.13856782583E+02  0.32432257042E+02  0.00000000000E+00 0. -1.
</event>
<event>
 4    1  0.3752836E+003  0.3035548E+02  0.7546771E-02  0.1416532E+00
          2   -1    0    0  502    0  0.00000000000E+00  0.00000000000E+00  0.14164544925E+01  0.14164544925E+01  0.00000000000E+00 0.  1.
          1   -1    0    0  501    0 -0.00000000000E+00 -0.00000000000E+00 -0.12395523750E+04  0.12395523750E+04  0.00000000000E+00 0.  1.
          2    1    1    2  501    0 -0.13856185972E+02  0.27008537207E+02 -0.19134552149E+03  0.19373838950E+03  0.00000000000E+00 0.  1.
          1    1    1    2  502    0  0.13856185972E+02 -0.27008537207E+02 -0.10467903990E+04  0.10472304400E+04  0.00000000000E+00 0.  1.
</event>
<event>
 4    1  0.3752836E+003  0.3874468E+02  0.7546771E-02  0.1356003E+00
          2   -1    0    0  502    0  0.00000000000E+00  0.00000000000E+00  0.31214621171E+03  0.31214621171E+03  0.00000000000E+00 0.  1.
          1   -1    0    0  501    0 -0.00000000000E+00 -0.00000000000E+00 -0.56300467044E+01  0.56300467044E+01  0.00000000000E+00 0.  1.
          2    1    1    2  501    0  0.35710159429E+02  0.15031088649E+02  0.92586237552E+02  0.10036613222E+03  0.00000000000E+00 0.  1.
          1    1    1    2  502    0 -0.35710159429E+02 -0.15031088649E+02  0.21392992745E+03  0.21741012619E+03  0.00000000000E+00 0.  1.
</event>
<event>
 4    1  0.3752836E+003  0.2425330E+02  0.7546771E-02  0.1477333E+00
          2   -1    0    0  502    0  0.00000000000E+00  0.00000000000E+00  0.32249269000E+03  0.32249269000E+03  0.00000000000E+00 0. -1.
          1   -1    0    0  501    0 -0.00000000000E+00 -0.00000000000E+00 -0.46790101345E+03  0.46790101345E+03  0.00000000000E+00 0.  1.
          2    1    1    2  501    0 -0.12527936387E+02  0.20767124398E+02  0.32172165299E+03  0.32263453728E+03  0.00000000000E+00 0. -1.
          1    1    1    2  502    0  0.12527936387E+02 -0.20767124398E+02 -0.46712997644E+03  0.46775916617E+03  0.00000000000E+00 0.  1.
</event>
<event>
 4    1  0.3752836E+003  0.2065180E+02  0.7546771E-02  0.1524295E+00
          2   -1    0    0  502    0  0.00000000000E+00  0.00000000000E+00  0.14215729751E+02  0.14215729751E+02  0.00000000000E+00 0. -1.
          1   -1    0    0  501    0 -0.00000000000E+00 -0.00000000000E+00 -0.20809094493E+03  0.20809094493E+03  0.00000000000E+00 0.  1.
          2    1    1    2  501    0 -0.19363906299E+02 -0.71788670411E+01  0.58911719577E+01  0.21475635175E+02  0.00000000000E+00 0. -1.
          1    1    1    2  502    0  0.19363906299E+02  0.71788670411E+01 -0.19976638714E+03  0.20083103950E+03  0.00000000000E+00 0.  1.
</event>
<event>
 4    1  0.3752836E+003  0.2067044E+02  0.7546771E-02  0.1524022E+00
          2   -1    0    0  502    0  0.00000000000E+00  0.00000000000E+00  0.13907713850E+04  0.13907713850E+04  0.00000000000E+00 0.  1.
          1   -1    0    0  501    0 -0.00000000000E+00 -0.00000000000E+00 -0.53811861716E+00  0.53811861716E+00  0.00000000000E+00 0. -1.
          2    1    1    2  501    0  0.20327382866E+02  0.37502962166E+01  0.11508062983E+04  0.11509919215E+04  0.00000000000E+00 0.  1.
          1    1    1    2  502    0 -0.20327382866E+02 -0.37502962166E+01  0.23942696814E+03  0.24031758214E+03  0.00000000000E+00 0. -1.
</event>
<event>
 4    1  0.3752836E+003  0.3890139E+02  0.7546771E-02  0.1355047E+00
          2   -1    0    0  502    0  0.00000000000E+00  0.00000000000E+00  0.48559677109E+03  0.48559677109E+03  0.00000000000E+00 0. -1.
          1   -1    0    0  501    0 -0.00000000000E+00 -0.00000000000E+00 -0.40163754856E+01  0.40163754856E+01  0.00000000000E+00 0. -1.
          2    1    1    2  501    0 -0.14068518009E+02 -0.36268347777E+02  0.12490711698E+03  0.13082470761E+03  0.00000000000E+00 0. -1.
          1    1    1    2  502    0  0.14068518009E+02  0.36268347777E+02  0.35667327862E+03  0.35878843896E+03  0.00000000000E+00 0. -1.
</event>
<event>
 4    1  0.3752836E+003  0.2733485E+02  0.7546771E-02  0.1444273E+00
          2   -1    0    0  502    0  0.00000000000E+00  0.00000000000E+00  0.85219451312E+03  0.85219451312E+03  0.00000000000E+00 0. -1.
          1   -1    0    0  501    0 -0.00000000000E+00 -0.00000000000E+00 -0.60824429113E+01  0.60824429113E+01  0.00000000000E+00 0. -1.
          2    1    1    2  501    0  0.18310641712E+02 -0.20295678447E+02  0.82006115861E+03  0.82051660435E+03  0.00000000000E+00 0. -1.
          1    1    1    2  502    0 -0.18310641712E+02  0.20295678447E+02  0.26050911600E+02  0.37760351677E+02  0.00000000000E+00 0. -1.
</event>
<event>
 4    1  0.3752836E+003  0.2312125E+02  0.7546771E-02  0.1490981E+00
          2   -1    0    0  502    0  0.00000000000E+00  0.00000000000E+00  0.20683809744E+01  0.20683809744E+01  0.00000000000E+00 0.  1.
          1   -1    0    0  501    0 -0.00000000000E+00 -0.00000000000E+00 -0.10312198474E+04  0.10312198474E+04  0.00000000000E+00 0.  1.
          2    1    1    2  501    0  0.23086860984E+02 -0.12606601377E+01 -0.67338131818E+02  0.71197025295E+02  0.00000000000E+00 0.  1.
          1    1    1    2  502    0 -0.23086860984E+02  0.12606601377E+01 -0.96181333460E+03  0.96209120307E+03  0.00000000000E+00 0.  1.
</event>
<event>
 4    1  0.3752836E+003  0.2291486E+02  0.7546771E-02  0.1493570E+00
          2   -1    0    0  502    0  0.00000000000E+00  0.00000000000E+00  0.80064913885E+03  0.80064913885E+03  0.00000000000E+00 0.  1.
          1   -1    0    0  501    0 -0.00000000000E+00 -0.00000000000E+00 -0.58373999283E+01  0.58373999283E+01  0.00000000000E+00 0. -1.
          2    1    1    2  501    0  0.22506408023E+02  0.43072645606E+01  0.77732225231E+03  0.77765993523E+03  0.00000000000E+00 0.  1.
          1    1    1    2  502    0 -0.22506408023E+02 -0.43072645606E+01  0.17489486615E+02  0.28826603548E+02  0.00000000000E+00 0. -1.
</event>
<event>
 4    1  0.3752836E+003  0.4919274E+02  0.7546771E-02  0.1301711E+00
          2   -1    0    0  502    0  0.00000000000E+00  0.00000000000E+00  0.37210036963E+03  0.37210036963E+03  0.00000000000E+00 0.  1.
          1   -1    0    0  501    0 -0.00000000000E+00 -0.00000000000E+00 -0.73812449998E+01  0.73812449998E+01  0.00000000000E+00 0.  1.
          2    1    1    2  501    0  0.47372027417E+02 -0.13259584675E+02  0.24779296719E+03  0.25262873976E+03  0.00000000000E+00 0.  1.
          1    1    1    2  502    0 -0.47372027417E+02  0.13259584675E+02  0.11692615745E+03  0.12685287487E+03  0.00000000000E+00 0.  1.
</event>
<event>
 4    1  0.3752836E+003  0.2441455E+02  0.7546771E-02  0.1475461E+00
          2   -1    0    0  502    0  0.00000000000E+00  0.00000000000E+00  0.96676313169E+03  0.96676313169E+03  0.00000000000E+00 0. -1.
          1   -1    0    0  501    0 -0.00000000000E+00 -0.00000000000E+00 -0.16406504447E+01  0.16406504447E+01  0.00000000000E+00 0. -1.
          2    1    1    2  501    0 -0.23412325356E+02 -0.69233831207E+01  0.86511018501E+03  0.86545462181E+03  0.00000000000E+00 0. -1.
          1    1    1    2  502    0  0.23412325356E+02  0.69233831207E+01  0.10001229624E+03  0.10294916033E+03  0.00000000000E+00 0. -1.
</event>
<event>
 4    1  0.3752836E+003  0.2076170E+02  0.7546771E-02  0.1522695E+00
          2   -1    0    0  502    0  0.00000000000E+00  0.00000000000E+00  0.44845580896E+03  0.44845580896E+03  0.00000000000E+00 0.  1.
          1   -1    0    0  501    0 -0.00000000000E+00 -0.00000000000E+00 -0.12067894817E+03  0.12067894817E+03  0.00000000000E+00 0.  1.
          2    1    1    2  501    0 -0.56745286004E+01 -0.19971175505E+02  0.44732028299E+03  0.44780183530E+03  0.00000000000E+00 0.  1.
          1    1    1    2  502    0  0.56745286004E+01  0.19971175505E+02 -0.11954342221E+03  0.12133292183E+03  0.00000000000E+00 0.  1.
</event>
<event>
 4    1  0.3752836E+003  0.3304869E+02  0.7546771E-02  0.1394826E+00
          2   -1    0    0  502    0  0.00000000000E+00  0.00000000000E+00  0.33494971411E+03  0.33494971411E+03  0.00000000000E+00 0. -1.
          1   -1    0    0  501    0 -0.00000000000E+00 -0.00000000000E+00 -0.32005564725E+02  0.32005564725E+02  0.00000000000E+00 0.  1.
          2    1    1    2  501    0 -0.29297157742E+02  0.15293534759E+02  0.32535202746E+03  0.32702623355E+03  0.00000000000E+00 0. -1.
          1    1    1    2  502    0  0.29297157742E+02 -0.15293534759E+02 -0.22407878079E+02  0.39929045283E+02  0.00000000000E+00 0.  1.
</event>
<event>
 4    1  0.3752836E+003  0.2306885E+02  0.7546771E-02  0.1491635E+00
          2   -1    0    0  502    0  0.00000000000E+00  0.00000000000E+00  0.52858643286E+03  0.52858643286E+03  0.00000000000E+00 0.  1.
          1   -1    0    0  501    0 -0.00000000000E+00 -0.00000000000E+00 -0.84118047778E+03  0.84118047778E+03  0.00000000000E+00 0. -1.
          2    1    1    2  501    0 -0.18301852994E+02 -0.14043287331E+02  0.52817645227E+03  0.52867999439E+03  0.00000000000E+00 0.  1.
          1    1    1    2  502    0  0.18301852994E+02  0.14043287331E+02 -0.84077049719E+03  0.84108691625E+03  0.00000000000E+00 0. -1.
</event>
<event>
 4    1  0.3752836E+003  0.2318129E+02  0.7546771E-02  0.1490234E+00
          2   -1    0    0  502    0  0.00000000000E+00  0.00000000000E+00  0.34199992606E+03  0.34199992606E+03  0.00000000000E+00 0. -1.
          1   -1    0    0  501    0 -0.00000000000E+00 -0.00000000000E+00 -0.15739654006E+01  0.15739654006E+01  0.00000000000E+00 0. -1.
          2    1    1    2  501    0  0.16150010261E+02 -0.16629754711E+02  0.16309383735E+03  0.16473303055E+03  0.00000000000E+00 0. -1.
          1    1    1    2  502    0 -0.16150010261E+02  0.16629754711E+02  0.17733212331E+03  0.17884086091E+03  0.00000000000E+00 0. -1.
</event>
<event>
 4    1  0.3752836E+003  0.2838869E+02  0.7546771E-02  0.1434136E+00
          2   -1    0    0  502    0  0.00000000000E+00  0.00000000000E+00  0.61952828625E+03  0.61952828625E+03  0.00000000000E+00 0. -1.
          1   -1    0    0  501    0 -0.00000000000E+00 -0.00000000000E+00 -0.13056008433E+02  0.13056008433E+02  0.00000000000E+00 0.  1.
          2    1    1    2  501    0  0.15914879383E+02 -0.23508178277E+02  0.60335777766E+03  0.60402526909E+03  0.00000000000E+00 0. -1.
          1    1    1    2  502    0 -0.15914879383E+02  0.23508178277E+02  0.31145001546E+01  0.28559025595E+02  0.00000000000E+00 0.  1.
</event>
<event>
 4    1  0.3752836E+003  0.3503586E+02  0.7546771E-02  0.1380311E+00
          2   -1    0    0  502    0  0.00000000000E+00  0.00000000000E+00  0.15609514989E+04  0.15609514989E+04  0.00000000000E+00 0. -1.
          1   -1    0    0  501    0 -0.00000000000E+00 -0.00000000000E+00 -0.85150851686E+02  0.85150851686E+02  0.00000000000E+00 0.  1.
          2    1    1    2  501    0 -0.17142323776E+02 -0.30555725954E+02  0.15571421543E+04  0.15575362598E+04  0.00000000000E+00 0. -1.
          1    1    1    2  502    0  0.17142323776E+02  0.30555725954E+02 -0.81341507153E+02  0.88566090797E+02  0.00000000000E+00 0.  1.
</event>
<event>
 4    1  0.3752836E+003  0.2627044E+02  0.7546771E-02  0.1455078E+00
          2   -1    0    0  502    0  0.00000000000E+00  0.00000000000E+00  0.15438936763E+04  0.15438936763E+04  0.00000000000E+00 0.  1.
          1   -1    0    0  501    0 -0.00000000000E+00 -0.00000000000E+00 -0.46599533532E+02  0.46599533532E+02  0.00000000000E+00 0. -1.
          2    1    1    2  501    0  0.73689789652E+01  0.25215754710E+02  0.15400702484E+04  0.15402942921E+04  0.00000000000E+00 0.  1.
          1    1    1    2  502    0 -0.73689789652E+01 -0.25215754710E+02 -0.42776105611E+02  0.50198917796E+02  0.00000000000E+00 0. -1.
</event>
<event>
 4    1  0.3752836E+003  0.2355204E+02  0.7546771E-02  0.1485680E+00
          2   -1    0    0  502    0  0.00000000000E+00  0.00000000000E+00  0.58187597135E+01  0.58187597135E+01  0.00000000000E+00 0.  1.
          1   -1    0    0  501    0 -0.00000000000E+00 -0.00000000000E+00 -0.41464912841E+03  0.41464912841E+03  0.00000000000E+00 0.  1.
          2    1    1    2  501    0  0.20666542177E+02  0.11295697677E+02 -0.19924114547E+02  0.30849134381E+02  0.00000000000E+00 0.  1.
          1    1    1    2  502    0 -0.20666542177E+02 -0.11295697677E+02 -0.38890625415E+03  0.38961875375E+03  0.00000000000E+00 0.  1.
</event>
<event>
 4    1  0.3752836E+003  0.2115772E+02  0.7546771E-02  0.1517025E+00
          2   -1    0    0  502    0  0.00000000000E+00  0.00000000000E+00  0.99044547841E+03  0.99044547841E+03  0.00000000000E+00 0.  1.
          1   -1    0    0  501    0 -0.00000000000E+00 -0.00000000000E+00 -0.82886713535E+00  0.82886713535E+00  0.00000000000E+00 0.  1.
          2    1    1    2  501    0  0.17713447884E+02 -0.11570783499E+02  0.82902967279E+03  0.82929961271E+03  0.00000000000E+00 0.  1.
          1    1    1    2  502    0 -0.17713447884E+02  0.11570783499E+02  0.16058693848E+03  0.16197473283E+03  0.00000000000E+00 0.  1.
</event>
<event>
 4    1  0.3752836E+003  0.2227310E+02  0.7546771E-02  0.1501833E+00
          2   -1    0    0  502    0  0.00000000000E+00  0.00000000000E+00  0.36712797983E+03  0.36712797983E+03  0.00000000000E+00 0.  1.
          1   -1    0    0  501    0 -0.00000000000E+00 -0.00000000000E+00 -0.71272089268E+03  0.71272089268E+03  0.00000000000E+00 0. -1.
          2    1    1    2  501    0  0.15211754573E+02 -0.16269409229E+02  0.36661590492E+03  0.36729186337E+03  0.00000000000E+00 0.  1.
          1    1    1    2  502    0 -0.15211754573E+02  0.16269409229E+02 -0.71220881778E+03  0.71255700914E+03  0.00000000000E+00 0. -1.
</event>
<event>
 4    1  0.3752836E+003  0.2377934E+02  0.7546771E-02  0.1482937E+00
          2   -1    0    0  502    0  0.00000000000E+00  0.00000000000E+00  0.16270654440E+03  0.16270654440E+03  0.00000000000E+00 0. -1.
          1   -1    0    0  501    0 -0.00000000000E+00 -0.00000000000E+00 -0.74488357661E+01  0.74488357661E+01  0.00000000000E+00 0.  1.
          2    1    1    2  501    0  0.22790217262E+02  0.67869742060E+01  0.13976710988E+03  0.14177553395E+03  0.00000000000E+00 0. -1.
          1    1    1    2  502    0 -0.22790217262E+02 -0.67869742060E+01  0.15490598756E+02  0.28379846222E+02  0.00000000000E+00 0.  1.
</event>
<event>
 4    1  0.3752836E+003  0.3131617E+02  0.7546771E-02  0.1408494E+00
          2   -1    0    0  502    0  0.00000000000E+00  0.00000000000E+00  0.69793494611E+03  0.69793494611E+03  0.00000000000E+00 0. -1.
          1   -1    0    0  501    0 -0.00000000000E+00 -0.00000000000E+00 -0.54064027482E+01  0.54064027482E+01  0.00000000000E+00 0. -1.
          2    1    1    2  501    0  0.15754629106E+02 -0.27064627300E+02  0.64880233290E+03  0.64955767224E+03  0.00000000000E+00 0. -1.
          1    1    1    2  502    0 -0.15754629106E+02  0.27064627300E+02  0.43726210457E+02  0.53783676614E+02  0.00000000000E+00 0. -1.
</event>
<event>
 4    1  0.3752836E+003  0.2393789E+02  0.7546771E-02  0.1481045E+00
          2   -1    0    0  502    0  0.00000000000E+00  0.00000000000E+00  0.14291526831E+04  0.14291526831E+04  0.00000000000E+00 0.  1.
          1   -1    0    0  501    0 -0.00000000000E+00 -0.00000000000E+00 -0.22971485712E+02  0.22971485712E+02  0.00000000000E+00 0.  1.
          2    1    1    2  501    0 -0.79078239047E+01 -0.22593997677E+02  0.14227883154E+04  0.14229896742E+04  0.00000000000E+00 0.  1.
          1    1    1    2  502    0  0.79078239047E+01  0.22593997677E+02 -0.16607117994E+02  0.29134494641E+02  0.00000000000E+00 0.  1.
</event>
<event>
 4    1  0.3752836E+003  0.2930821E+02  0.7546771E-02  0.1425705E+00
          2   -1    0    0  502    0  0.00000000000E+00  0.00000000000E+00  0.27960258115E+03  0.27960258115E+03  0.00000000000E+00 0.  1.
          1   -1    0    0  501    0 -0.00000000000E+00 -0.00000000000E+00 -0.42788369520E+02  0.42788369520E+02  0.00000000000E+00 0.  1.
          2    1    1    2  501    0 -0.26279806709E+02 -0.12974694506E+02  0.27370806131E+03  0.27527272615E+03  0.00000000000E+00 0.  1.
          1    1    1    2  502    0  0.26279806709E+02  0.12974694506E+02 -0.36893849675E+02  0.47118224521E+02  0.00000000000E+00 0.  1.
</event>
<event>
 4    1  0.3752836E+003  0.2113675E+02  0.7546771E-02  0.1517321E+00
          2   -1    0    0  502    0  0.00000000000E+00  0.00000000000E+00  0.39292922921E+03  0.39292922921E+03  0.00000000000E+00 0.  1.
          1   -1    0    0  501    0 -0.00000000000E+00 -0.00000000000E+00 -0.11570433380E+02  0.11570433380E+02  0.00000000000E+00 0. -1.
          2    1    1    2  501    0 -0.16204687566E+02 -0.13570933793E+02  0.38273496185E+03  0.38331816180E+03  0.00000000000E+00 0.  1.
          1    1    1    2  502    0  0.16204687566E+02  0.13570933793E+02 -0.13761660133E+01  0.21181500797E+02  0.00000000000E+00 0. -1.
</event>
<event>
 4    1  0.3752836E+003  0.2796694E+02  0.7546771E-02  0.1438130E+00
          2   -1    0    0  502    0  0.00000000000E+00  0.00000000000E+00  0.43107236300E+01  0.43107236300E+01  0.00000000000E+00 0.  1.
          1   -1    0    0  501    0 -0.00000000000E+00 -0.00000000000E+00 -0.33742345332E+03  0.33742345332E+03  0.00000000000E+00 0.  1.
          2    1    1    2  501    0 -0.27893889758E+02 -0.20200576694E+01 -0.50383106875E+02  0.57624709780E+02  0.00000000000E+00 0.  1.
          1    1    1    2  502    0  0.27893889758E+02  0.20200576694E+01 -0.28272962282E+03  0.28410946717E+03  0.00000000000E+00 0.  1.
</event>
<event>
 4    1  0.3752836E+003  0.2156830E+02  0.7546771E-02  0.1511303E+00
          2   -1    0    0  502    0  0.00000000000E+00  0.00000000000E+00  0.74628779733E+03  0.74628779733E+03  0.00000000000E+00 0. -1.
          1   -1    0    0  501    0 -0.00000000000E+00 -0.00000000000E+00 -0.29656074808E+01  0.29656074808E+01  0.00000000000E+00 0. -1.
          2    1    1    2  501    0  0.16765179415E+02 -0.13569097259E+02  0.70459656363E+03  0.70492659839E+03  0.00000000000E+00 0. -1.
          1    1    1    2  502    0 -0.16765179415E+02  0.13569097259E+02  0.38725626222E+02  0.44326806421E+02  0.00000000000E+00 0. -1.
</event>
<event>
 4    1  0.3752836E+003  0.2752257E+02  0.7546771E-02  0.1442428E+00
          2   -1    0    0  502    0  0.00000000000E+00  0.00000000000E+00  0.27773952030E+01  0.27773952030E+01  0.00000000000E+00 0.  1.
          1   -1    0    0  501    0 -0.00000000000E+00 -0.00000000000E+00 -0.31733296598E+03  0.31733296598E+03  0.00000000000E+00 0. -1.
          2    1    1    2  501    0  0.43936409661E+01 -0.27169596019E+02 -0.21728077823E+03  0.21901695738E+03  0.00000000000E+00 0.  1.
          1    1    1    2  502    0 -0.43936409661E+01  0.27169596019E+02 -0.97274792539E+02  0.10109340380E+03  0.00000000000E+00 0. -1.
</event>
<event>
 4    1  0.4172755E+003  0.2538419E+02  0.7546771E-02  0.1464551E+00
          2   -1    0    0  502    0  0.00000000000E+00  0.00000000000E+00  0.57103156470E+03  0.57103156470E+03  0.00000000000E+00 0. -1.
          1   -1    0    0  501    0 -0.00000000000E+00 -0.00000000000E+00 -0.16874208298E+04  0.16874208298E+04  0.00000000000E+00 0. -1.
          2    1    1    2  501    0  0.16804449718E+02 -0.19025450687E+02  0.57065393442E+03  0.57121823341E+03  0.00000000000E+00 0. -1.
          1    1    1    2  502    0 -0.16804449718E+02  0.19025450687E+02 -0.16870431995E+04  0.16872341611E+04  0.00000000000E+00 0. -1.
</event>
<event>
 4    1  0.3752836E+003  0.2447891E+02  0.7546771E-02  0.1474718E+00
          2   -1    0    0  502    0  0.00000000000E+00  0.00000000000E+00  0.10860151284E+03  0.10860151284E+03  0.00000000000E+00 0.  1.
          1   -1    0    0  501    0 -0.00000000000E+00 -0.00000000000E+00 -0.19697293147E+02  0.19697293147E+02  0.00000000000E+00 0. -1.
          2    1    1    2  501    0  0.28073059186E+01  0.24317398372E+02  0.98880208945E+02  0.10186516849E+03  0.00000000000E+00 0.  1.
          1    1    1    2  502    0 -0.28073059186E+01 -0.24317398372E+02 -0.99759892483E+01  0.26433637502E+02  0.00000000000E+00 0. -1.
</event>
<event>
 4    1  0.3752836E+003  0.3460995E+02  0.7546771E-02  0.1383326E+00
          2   -1    0    0  502    0  0.00000000000E+00  0.00000000000E+00  0.32079053956E+03  0.32079053956E+03  0.00000000000E+00 0.  1.
          1   -1    0    0  501    0 -0.00000000000E+00 -0.00000000000E+00 -0.12180292421E+02  0.12180292421E+02  0.00000000000E+00 0.  1.
          2    1    1    2  501    0 -0.34448466667E+02 -0.33394332013E+01  0.29294209061E+03  0.29497951984E+03  0.00000000000E+00 0.  1.
          1    1    1    2  502    0  0.34448466667E+02  0.33394332013E+01  0.15668156530E+02  0.37991312150E+02  0.00000000000E+00 0.  1.
</event>
<event>
 4    1  0.3752836E+003  0.2318814E+02  0.7546771E-02  0.1490149E+00
          2   -1    0    0  502    0  0.00000000000E+00  0.00000000000E+00  0.26937611227E+02  0.26937611227E+02  0.00000000000E+00 0. -1.
          1   -1    0    0  501    0 -0.00000000000E+00 -0.00000000000E+00 -0.49692510253E+02  0.49692510253E+02  0.00000000000E+00 0. -1.
          2    1    1    2  501    0  0.23104753525E+02 -0.19647775644E+01  0.18259650109E+02  0.29514484722E+02  0.00000000000E+00 0. -1.
          1    1    1    2  502    0 -0.23104753525E+02  0.19647775644E+01 -0.41014549136E+02  0.47115636758E+02  0.00000000000E+00 0. -1.
</event>
<event>
 4    1  0.3752836E+003  0.5322245E+02  0.7546771E-02  0.1284775E+00
          2   -1    0    0  502    0  0.00000000000E+00  0.00000000000E+00  0.15801662588E+02  0.15801662588E+02  0.00000000000E+00 0.  1.
          1   -1    0    0  501    0 -0.00000000000E+00 -0.00000000000E+00 -0.56039446483E+03  0.56039446483E+03  0.00000000000E+00 0.  1.
          2    1    1    2  501    0 -0.22805978752E+02  0.48088637286E+02 -0.34704474718E+02  0.63537628759E+02  0.00000000000E+00 0.  1.
          1    1    1    2  502    0  0.22805978752E+02 -0.48088637286E+02 -0.50988832752E+03  0.51265849866E+03  0.00000000000E+00 0.  1.
</event>
<event>
 4    1  0.3752836E+003  0.2530875E+02  0.7546771E-02  0.1465379E+00
          2   -1    0    0  502    0  0.00000000000E+00  0.00000000000E+00  0.55485843923E+03  0.55485843923E+03  0.00000000000E+00 0. -1.
          1   -1    0    0  501    0 -0.00000000000E+00 -0.00000000000E+00 -0.24556335077E+01  0.24556335077E+01  0.00000000000E+00 0. -1.
          2    1    1    2  501    0  0.66969705894E+01 -0.24406621613E+02  0.47904656355E+03  0.47971464710E+03  0.00000000000E+00 0. -1.
          1    1    1    2  502    0 -0.66969705894E+01  0.24406621613E+02  0.73356242179E+02  0.77599425644E+02  0.00000000000E+00 0. -1.
</event>
<event>
 4    1  0.3752836E+003  0.2836804E+02  0.7546771E-02  0.1434330E+00
          2   -1    0    0  502    0  0.00000000000E+00  0.00000000000E+00  0.85863155358E+01  0.85863155358E+01  0.00000000000E+00 0.  1.
          1   -1    0    0  501    0 -0.00000000000E+00 -0.00000000000E+00 -0.15863385610E+03  0.15863385610E+03  0.00000000000E+00 0.  1.
          2    1    1    2  501    0  0.82409071074E+01  0.27144657036E+02 -0.12850675255E+03  0.13160064744E+03  0.00000000000E+00 0.  1.
          1    1    1    2  502    0 -0.82409071074E+01 -0.27144657036E+02 -0.21540788010E+02  0.35619524192E+02  0.00000000000E+00 0.  1.
</event>
<event>
 4    1  0.3752836E+003  0.2337941E+02  0.7546771E-02  0.1487788E+00
          2   -1    0    0  502    0  0.00000000000E+00  0.00000000000E+00  0.11893124322E+04  0.11893124322E+04  0.00000000000E+00 0.  1.
          1   -1    0    0  501    0 -0.00000000000E+00 -0.00000000000E+00 -0.59929142852E+01  0.59929142852E+01  0.00000000000E+00 0.  1.
          2    1    1    2  501    0 -0.44292215695E+01 -0.22956020586E+02  0.11659386711E+04  0.11661730496E+04  0.00000000000E+00 0.  1.
          1    1    1    2  502    0  0.44292215695E+01  0.22956020586E+02  0.17380846814E+02  0.29132296868E+02  0.00000000000E+00 0.  1.
</event>
<event>
 4    1  0.3752836E+003  0.2777270E+02  0.7546771E-02  0.1439997E+00
          2   -1    0    0  502    0  0.00000000000E+00  0.00000000000E+00  0.37786277600E+01  0.37786277600E+01  0.00000000000E+00 0. -1.
          1   -1    0    0  501    0 -0.00000000000E+00 -0.00000000000E+00 -0.10078304444E+04  0.10078304444E+04  0.00000000000E+00 0. -1.
          2    1    1    2  501    0 -0.17901694501E+02 -0.21233285645E+02 -0.50339862735E+02  0.57492824469E+02  0.00000000000E+00 0. -1.
          1    1    1    2  502    0  0.17901694501E+02  0.21233285645E+02 -0.95371195387E+03  0.95411624765E+03  0.00000000000E+00 0. -1.
</event>
<event>
 4    1  0.3752836E+003  0.2472137E+02  0.7546771E-02  0.1471945E+00
          2   -1    0    0  502    0  0.00000000000E+00  0.00000000000E+00  0.11227893296E+04  0.11227893296E+04  0.00000000000E+00 0.  1.
          1   -1    0    0  501    0 -0.00000000000E+00 -0.00000000000E+00 -0.45528079080E+02  0.45528079080E+02  0.00000000000E+00 0.  1.
          2    1    1    2  501    0 -0.19691318808E+02 -0.14946505826E+02  0.11192868776E+04  0.11195598512E+04  0.00000000000E+00 0.  1.
          1    1    1    2  502    0  0.19691318808E+02  0.14946505826E+02 -0.42025627114E+02  0.48757557436E+02  0.00000000000E+00 0.  1.
</event>
<event>
 4    1  0.3752836E+003  0.2526058E+02  0.7546771E-02  0.1465909E+00
          2   -1    0    0  502    0  0.00000000000E+00  0.00000000000E+00  0.76225754649E+03  0.76225754649E+03  0.00000000000E+00 0.  1.
          1   -1    0    0  501    0 -0.00000000000E+00 -0.00000000000E+00 -0.88164532262E+00  0.88164532262E+00  0.00000000000E+00 0.  1.
          2    1    1    2  501    0  0.12697711187E+02  0.21837224074E+02  0.29493261808E+03  0.29601240756E+03  0.00000000000E+00 0.  1.
          1    1    1    2  502    0 -0.12697711187E+02 -0.21837224074E+02  0.46644328308E+03  0.46712678424E+03  0.00000000000E+00 0.  1.
</event>
<event>
 4    1  0.3752836E+003  0.2624368E+02  0.7546771E-02  0.1455357E+00
          2   -1    0    0  502    0  0.00000000000E+00  0.00000000000E+00  0.79602357290E+02  0.79602357290E+02  0.00000000000E+00 0. -1.
          1   -1    0    0  501    0 -0.00000000000E+00 -0.00000000000E+00 -0.92447916578E+01  0.92447916578E+01  0.00000000000E+00 0.  1.
          2    1    1    2  501    0  0.45653815488E+01  0.25843527385E+02  0.46426522464E+02  0.53330597264E+02  0.00000000000E+00 0. -1.
          1    1    1    2  502    0 -0.45653815488E+01 -0.25843527385E+02  0.23931043168E+02  0.35516551684E+02  0.00000000000E+00 0.  1.
</event>
<event>
 4    1  0.3752836E+003  0.2372629E+02  0.7546771E-02  0.1483574E+00
          2   -1    0    0  502    0  0.00000000000E+00  0.00000000000E+00  0.21754011096E+02  0.21754011096E+02  0.00000000000E+00 0. -1.
          1   -1    0    0  501    0 -0.00000000000E+00 -0.00000000000E+00 -0.49661741132E+02  0.49661741132E+02  0.00000000000E+00 0. -1.
          2    1    1    2  501    0  0.14469293367E+02  0.18803626004E+02  0.10757617335E+02  0.26051163739E+02  0.00000000000E+00 0. -1.
          1    1    1    2  502    0 -0.14469293367E+02 -0.18803626004E+02 -0.38665347371E+02  0.45364588489E+02  0.00000000000E+00 0. -1.
</event>
<event>
 4    1  0.3752836E+003  0.2153614E+02  0.7546771E-02  0.1511746E+00
          2   -1    0    0  502    0  0.00000000000E+00  0.00000000000E+00  0.30932235919E+03  0.30932235919E+03  0.00000000000E+00 0.  1.
          1   -1    0    0  501    0 -0.00000000000E+00 -0.00000000000E+00 -0.40561696028E+01  0.40561696028E+01  0.00000000000E+00 0.  1.
          2    1    1    2  501    0 -0.97648662355E+01  0.19195121534E+02  0.27703440819E+03  0.27787023703E+03  0.00000000000E+00 0.  1.
          1    1    1    2  502    0  0.97648662355E+01 -0.19195121534E+02  0.28231781391E+02  0.35508291761E+02  0.00000000000E+00 0.  1.
</event>
<event>
 4    1  0.3752836E+003  0.2082765E+02  0.7546771E-02  0.1521740E+00
          2   -1    0    0  502    0  0.00000000000E+00  0.00000000000E+00  0.18635641934E+02  0.18635641934E+02  0.00000000000E+00 0.  1.
          1   -1    0    0  501    0 -0.00000000000E+00 -0.00000000000E+00 -0.71763340838E+02  0.71763340838E+02  0.00000000000E+00 0.  1.
          2    1    1    2  501    0  0.35980237791E+01 -0.20514510174E+02  0.10588796593E+02  0.23364792233E+02  0.00000000000E+00 0.  1.
          1    1    1    2  502    0 -0.35980237791E+01  0.20514510174E+02 -0.63716495497E+02  0.67034190539E+02  0.00000000000E+00 0.  1.
</event>
<event>
 4    1  0.3752836E+003  0.3680751E+02  0.7546771E-02  0.1368283E+00
          2   -1    0    0  502    0  0.00000000000E+00  0.00000000000E+00  0.32029301573E+03  0.32029301573E+03  0.00000000000E+00 0.  1.
          1   -1    0    0  501    0 -0.00000000000E+00 -0.00000000000E+00 -0.47170468440E+01  0.47170468440E+01  0.00000000000E+00 0.  1.
          2    1    1    2  501    0  0.32260467602E+02 -0.17721594067E+02  0.21001343625E+03  0.21321453063E+03  0.00000000000E+00 0.  1.
          1    1    1    2  502    0 -0.32260467602E+02  0.17721594067E+02  0.10556253263E+03  0.11179553194E+03  0.00000000000E+00 0.  1.
</event>
<event>
 4    1  0.3752836E+003  0.2615409E+02  0.7546771E-02  0.1456296E+00
          2   -1    0    0  502    0  0.00000000000E+00  0.00000000000E+00  0.77995356008E+00  0.77995356008E+00  0.00000000000E+00 0. -1.
          1   -1    0    0  501    0 -0.00000000000E+00 -0.00000000000E+00 -0.21011736533E+04  0.21011736533E+04  0.00000000000E+00 0. -1.
          2    1    1    2  501    0 -0.26090150553E+02  0.18277437816E+01 -0.24800225767E+03  0.24937753791E+03  0.00000000000E+00 0. -1.
          1    1    1    2  502    0  0.26090150553E+02 -0.18277437816E+01 -0.18523914421E+04  0.18525760690E+04  0.00000000000E+00 0. -1.
</event>
<event>
 4    1  0.3752836E+003  0.2667927E+02  0.7546771E-02  0.1450857E+00
          2   -1    0    0  502    0  0.00000000000E+00  0.00000000000E+00  0.27603964514E+02  0.27603964514E+02  0.00000000000E+00 0. -1.
          1   -1    0    0  501    0 -0.00000000000E+00 -0.00000000000E+00 -0.10435806302E+03  0.10435806302E+03  0.00000000000E+00 0.  1.
          2    1    1    2  501    0 -0.72434650192E+01  0.25677144361E+02  0.18875033309E+02  0.32681040534E+02  0.00000000000E+00 0. -1.
          1    1    1    2  502    0  0.72434650192E+01 -0.25677144361E+02 -0.95629131816E+02  0.99280987001E+02  0.00000000000E+00 0.  1.
</event>
<event>
 4    1  0.3752836E+003  0.5375705E+02  0.7546771E-02  0.1282656E+00
          2   -1    0    0  502    0  0.00000000000E+00  0.00000000000E+00  0.27845152069E+02  0.27845152069E+02  0.00000000000E+00 0.  1.
          1   -1    0    0  501    0 -0.00000000000E+00 -0.00000000000E+00 -0.39407949655E+03  0.39407949655E+03  0.00000000000E+00 0. -1.
          2    1    1    2  501    0  0.37398993855E+02  0.38615230403E+02 -0.20520690697E+01  0.53796205702E+02  0.00000000000E+00 0.  1.
          1    1    1    2  502    0 -0.37398993855E+02 -0.38615230403E+02 -0.36418227541E+03  0.36812844292E+03  0.00000000000E+00 0. -1.
</event>
<event>
 4    1  0.3752836E+003  0.2968122E+02  0.7546771E-02  0.1422387E+00
          2   -1    0    0  502    0  0.00000000000E+00  0.00000000000E+00  0.71709448512E+01  0.71709448512E+01  0.00000000000E+00 0. -1.
          1   -1    0    0  501    0 -0.00000000000E+00 -0.00000000000E+00 -0.12860378370E+03  0.12860378370E+03  0.00000000000E+00 0. -1.
          2    1    1    2  501    0  0.29677217889E+02  0.48714898497E+00 -0.46361112255E+02  0.55048408744E+02  0.00000000000E+00 0. -1.
          1    1    1    2  502    0 -0.29677217889E+02 -0.48714898497E+00 -0.75071726591E+02  0.80726319804E+02  0.00000000000E+00 0. -1.
</event>
<event>
 4    1  0.3752836E+003  0.3202462E+02  0.7546771E-02  0.1402782E+00
          2   -1    0    0  502    0  0.00000000000E+00  0.00000000000E+00  0.34582586275E+03  0.34582586275E+03  0.00000000000E+00 0.  1.
          1   -1    0    0  501    0 -0.00000000000E+00 -0.00000000000E+00 -0.62174367907E+01  0.62174367907E+01  0.00000000000E+00 0.  1.
          2    1    1    2  501    0 -0.26245547435E+02 -0.18350675480E+02  0.29710343751E+03  0.29882441104E+03  0.00000000000E+00 0.  1.
          1    1    1    2  502    0  0.26245547435E+02  0.18350675480E+02  0.42504988454E+02  0.53218888510E+02  0.00000000000E+00 0.  1.
</event>
<event>
 4    1  0.3752836E+003  0.2177761E+02  0.7546771E-02  0.1508446E+00
          2   -1    0    0  502    0  0.00000000000E+00  0.00000000000E+00  0.63316270934E+00  0.63316270934E+00  0.00000000000E+00 0. -1.
          1   -1    0    0  501    0 -0.00000000000E+00 -0.00000000000E+00 -0.11020261807E+04  0.11020261807E+04  0.00000000000E+00 0. -1.
          2    1    1    2  501    0  0.12393749459E+02 -0.17906963474E+02 -0.23866812931E+03  0.23965963431E+03  0.00000000000E+00 0. -1.
          1    1    1    2  502    0 -0.12393749459E+02  0.17906963474E+02 -0.86272488868E+03  0.86299970910E+03  0.00000000000E+00 0. -1.
</event>
<event>
 4    1  0.3752836E+003  0.3370227E+02  0.7546771E-02  0.1389923E+00
          2   -1    0    0  502    0  0.00000000000E+00  0.00000000000E+00  0.30323590331E+02  0.30323590331E+02  0.00000000000E+00 0.  1.
          1   -1    0    0  501    0 -0.00000000000E+00 -0.00000000000E+00 -0.70666182750E+02  0.70666182750E+02  0.00000000000E+00 0.  1.
          2    1    1    2  501    0 -0.22454252629E+02  0.25132643438E+02  0.14443994421E+02  0.36667045179E+02  0.00000000000E+00 0.  1.
          1    1    1    2  502    0  0.22454252629E+02 -0.25132643438E+02 -0.54786586839E+02  0.64322727902E+02  0.00000000000E+00 0.  1.
</event>
<event>
 4    1  0.3752836E+003  0.2055434E+02  0.7546771E-02  0.1525724E+00
          2   -1    0    0  502    0  0.00000000000E+00  0.00000000000E+00  0.20289840471E+03  0.20289840471E+03  0.00000000000E+00 0. -1.
          1   -1    0    0  501    0 -0.00000000000E+00 -0.00000000000E+00 -0.78784378455E+03  0.78784378455E+03  0.00000000000E+00 0.  1.
          2    1    1    2  501    0  0.17458220599E+02  0.10848575588E+02  0.20224335177E+03  0.20328515537E+03  0.00000000000E+00 0. -1.
          1    1    1    2  502    0 -0.17458220599E+02 -0.10848575588E+02 -0.78718873161E+03  0.78745703389E+03  0.00000000000E+00 0.  1.
</event>
<event>
 4    1  0.3752836E+003  0.2328827E+02  0.7546771E-02  0.1488910E+00
          2   -1    0    0  502    0  0.00000000000E+00  0.00000000000E+00  0.97449556901E+02  0.97449556901E+02  0.00000000000E+00 0. -1.
          1   -1    0    0  501    0 -0.00000000000E+00 -0.00000000000E+00 -0.90551040056E+01  0.90551040056E+01  0.00000000000E+00 0. -1.
          2    1    1    2  501    0  0.12498536205E+02  0.19650188692E+02  0.77256077178E+02  0.80689805948E+02  0.00000000000E+00 0. -1.
          1    1    1    2  502    0 -0.12498536205E+02 -0.19650188692E+02  0.11138375717E+02  0.25814854959E+02  0.00000000000E+00 0. -1.
</event>
<event>
 4    1  0.3752836E+003  0.3282843E+02  0.7546771E-02  0.1396508E+00
          2   -1    0    0  502    0  0.00000000000E+00  0.00000000000E+00  0.12081334934E+04  0.12081334934E+04  0.00000000000E+00 0.  1.
          1   -1    0    0  501    0 -0.00000000000E+00 -0.00000000000E+00 -0.25788784951E+02  0.25788784951E+02  0.00000000000E+00 0. -1.
          2    1    1    2  501    0  0.20716843731E+02 -0.25466023588E+02  0.11973691494E+04  0.11978190957E+04  0.00000000000E+00 0.  1.
          1    1    1    2  502    0 -0.20716843731E+02  0.25466023588E+02 -0.15024440987E+02  0.36103182664E+02  0.00000000000E+00 0. -1.
</event>
<event>
 4    1  0.3752836E+003  0.5309551E+02  0.7546771E-02  0.1285282E+00
          2   -1    0    0  502    0  0.00000000000E+00  0.00000000000E+00  0.93550726674E+02  0.93550726674E+02  0.00000000000E+00 0.  1.
          1   -1    0    0  501    0 -0.00000000000E+00 -0.00000000000E+00 -0.67216591592E+03  0.67216591592E+03  0.00000000000E+00 0.  1.
          2    1    1    2  501    0  0.48814010083E+02 -0.20888417053E+02  0.84870088700E+02  0.10011026672E+03  0.00000000000E+00 0.  1.
          1    1    1    2  502    0 -0.48814010083E+02  0.20888417053E+02 -0.66348527795E+03  0.66560637587E+03  0.00000000000E+00 0.  1.
</event>
<event>
 4    1  0.3752836E+003  0.2428406E+02  0.7546771E-02  0.1476974E+00
          2   -1    0    0  502    0  0.00000000000E+00  0.00000000000E+00  0.66717323738E+03  0.66717323738E+03  0.00000000000E+00 0. -1.
          1   -1    0    0  501    0 -0.00000000000E+00 -0.00000000000E+00 -0.12225747987E+01  0.12225747987E+01  0.00000000000E+00 0. -1.
          2    1    1    2  501    0  0.22420814701E+02  0.93285919950E+01  0.50887148941E+03  0.50945059456E+03  0.00000000000E+00 0. -1.
          1    1    1    2  502    0 -0.22420814701E+02 -0.93285919950E+01  0.15707917317E+03  0.15894521762E+03  0.00000000000E+00 0. -1.
</event>
<event>
 4    1  0.3752836E+003  0.2378885E+02  0.7546771E-02  0.1482823E+00
          2   -1    0    0  502    0  0.00000000000E+00  0.00000000000E+00  0.22426722604E+04  0.22426722604E+04  0.00000000000E+00 0.  1.
          1   -1    0    0  501    0 -0.00000000000E+00 -0.00000000000E+00 -0.27837271376E+00  0.27837271376E+00  0.00000000000E+00 0.  1.
          2    1    1    2  501    0 -0.22313447157E+02  0.82473955354E+01  0.14641701070E+04  0.14643633469E+04  0.00000000000E+00 0.  1.
          1    1    1    2  502    0  0.22313447157E+02 -0.82473955354E+01  0.77822378066E+03  0.77858728621E+03  0.00000000000E+00 0.  1.
</event>
<event>
 4    1  0.3752836E+003  0.2132430E+02  0.7546771E-02  0.1514685E+00
          2   -1    0    0  502    0  0.00000000000E+00  0.00000000000E+00  0.38166091770E+03  0.38166091770E+03  0.00000000000E+00 0.  1.
          1   -1    0    0  501    0 -0.00000000000E+00 -0.00000000000E+00 -0.10483766107E+04  0.10483766107E+04  0.00000000000E+00 0. -1.
          2    1    1    2  501    0  0.77472158916E+01 -0.19867224870E+02  0.38125450652E+03  0.38185039573E+03  0.00000000000E+00 0.  1.
          1    1    1    2  502    0 -0.77472158916E+01  0.19867224870E+02 -0.10479701995E+04  0.10481871327E+04  0.00000000000E+00 0. -1.
</event>
<event>
 4    1  0.3752836E+003  0.4560216E+02  0.7546771E-02  0.1318456E+00
          2   -1    0    0  502    0  0.00000000000E+00  0.00000000000E+00  0.10050391451E+02  0.10050391451E+02  0.00000000000E+00 0.  1.
          1   -1    0    0  501    0 -0.00000000000E+00 -0.00000000000E+00 -0.46112292195E+03  0.46112292195E+03  0.00000000000E+00 0.  1.
          2    1    1    2  501    0  0.39301855151E+02  0.23128362595E+02 -0.50616633578E+02  0.68129293035E+02  0.00000000000E+00 0.  1.
          1    1    1    2  502    0 -0.39301855151E+02 -0.23128362595E+02 -0.40045589692E+03  0.40304402037E+03  0.00000000000E+00 0.  1.
</event>
<event>
 4    1  0.3752836E+003  0.2636753E+02  0.7546771E-02  0.1454067E+00
          2   -1    0    0  502    0  0.00000000000E+00  0.00000000000E+00  0.14303023779E+02  0.14303023779E+02  0.00000000000E+00 0.  1.
          1   -1    0    0  501    0 -0.00000000000E+00 -0.00000000000E+00 -0.64323013730E+02  0.64323013730E+02  0.00000000000E+00 0. -1.
          2    1    1    2  501    0  0.97554661845E+01 -0.24496483118E+02 -0.55785390423E+01  0.26951194843E+02  0.00000000000E+00 0.  1.
          1    1    1    2  502    0 -0.97554661845E+01  0.24496483118E+02 -0.44441450909E+02  0.51674842666E+02  0.00000000000E+00 0. -1.
</event>
<event>
 4    1  0.3752836E+003  0.2104544E+02  0.7546771E-02  0.1518617E+00
          2   -1    0    0  502    0  0.00000000000E+00  0.00000000000E+00  0.25503132825E+02  0.25503132825E+02  0.00000000000E+00 0. -1.
          1   -1    0    0  501    0 -0.00000000000E+00 -0.00000000000E+00 -0.24903360025E+03  0.24903360025E+03  0.00000000000E+00 0.  1.
          2    1    1    2  501    0 -0.15365336605E+02  0.14381126144E+02  0.20630288974E+02  0.29470649489E+02  0.00000000000E+00 0. -1.
          1    1    1    2  502    0  0.15365336605E+02 -0.14381126144E+02 -0.24416075640E+03  0.24506608358E+03  0.00000000000E+00 0.  1.
</event>
<event>
 4    1  0.3752836E+003  0.2471495E+02  0.7546771E-02  0.1472018E+00
          2   -1    0    0  502    0  0.00000000000E+00  0.00000000000E+00  0.49190580683E+00  0.49190580683E+00  0.00000000000E+00 0.  1.
          1   -1    0    0  501    0 -0.00000000000E+00 -0.00000000000E+00 -0.12657531302E+04  0.12657531302E+04  0.00000000000E+00 0.  1.
          2    1    1    2  501    0  0.53928385350E+01 -0.24119401847E+02 -0.71980112927E+03  0.72022530777E+03  0.00000000000E+00 0.  1.
          1    1    1    2  502    0 -0.53928385350E+01  0.24119401847E+02 -0.54546009517E+03  0.54601972828E+03  0.00000000000E+00 0.  1.
</event>
<event>
 4    1  0.3752836E+003  0.2326446E+02  0.7546771E-02  0.1489204E+00
          2   -1    0    0  502    0  0.00000000000E+00  0.00000000000E+00  0.71866425705E+03  0.71866425705E+03  0.00000000000E+00 0. -1.
          1   -1    0    0  501    0 -0.00000000000E+00 -0.00000000000E+00 -0.25728931096E+01  0.25728931096E+01  0.00000000000E+00 0.  1.
          2    1    1    2  501    0  0.11558441388E+02  0.20190033852E+02  0.66132775349E+03  0.66173683029E+03  0.00000000000E+00 0. -1.
          1    1    1    2  502    0 -0.11558441388E+02 -0.20190033852E+02  0.54763610451E+02  0.59500319864E+02  0.00000000000E+00 0.  1.
</event>
<event>
 4    1  0.3752836E+003  0.2082060E+02  0.7546771E-02  0.1521842E+00
          2   -1    0    0  502    0  0.00000000000E+00  0.00000000000E+00  0.24180923206E+03  0.24180923206E+03  0.00000000000E+00 0.  1.
          1   -1    0    0  501    0 -0.00000000000E+00 -0.00000000000E+00 -0.17954352967E+01  0.17954352967E+01  0.00000000000E+00 0.  1.
          2    1    1    2  501    0 -0.19183101936E+02  0.80935728646E+01  0.12473975685E+03  0.12646542713E+03  0.00000000000E+00 0.  1.
          1    1    1    2  502    0  0.19183101936E+02 -0.80935728646E+01  0.11527403991E+03  0.11713924022E+03  0.00000000000E+00 0.  1.
</event>
<event>
 4    1  0.3752836E+003  0.4411667E+02  0.7546771E-02  0.1325916E+00
          2   -1    0    0  502    0  0.00000000000E+00  0.00000000000E+00  0.39113617308E+02  0.39113617308E+02  0.00000000000E+00 0. -1.
          1   -1    0    0  501    0 -0.00000000000E+00 -0.00000000000E+00 -0.59278548029E+02  0.59278548029E+02  0.00000000000E+00 0.  1.
          2    1    1    2  501    0 -0.25771886795E+02  0.35806288843E+02  0.96315346840E+01  0.45155807269E+02  0.00000000000E+00 0. -1.
          1    1    1    2  502    0  0.25771886795E+02 -0.35806288843E+02 -0.29796465405E+02  0.53236358068E+02  0.00000000000E+00 0.  1.
</event>
<event>
 4    1  0.3752836E+003  0.3788076E+02  0.7546771E-02  0.1361373E+00
          2   -1    0    0  502    0  0.00000000000E+00  0.00000000000E+00  0.59546175124E+02  0.59546175124E+02  0.00000000000E+00 0.  1.
          1   -1    0    0  501    0 -0.00000000000E+00 -0.00000000000E+00 -0.18908678983E+03  0.18908678983E+03  0.00000000000E+00 0.  1.
          2    1    1    2  501    0 -0.33291910411E+02 -0.18072088770E+02  0.51354541422E+02  0.63814109850E+02  0.00000000000E+00 0.  1.
          1    1    1    2  502    0  0.33291910411E+02  0.18072088770E+02 -0.18089515613E+03  0.18481885511E+03  0.00000000000E+00 0.  1.
</event>
<event>
 4    1  0.3752836E+003  0.2126490E+02  0.7546771E-02  0.1515516E+00
          2   -1    0    0  502    0  0.00000000000E+00  0.00000000000E+00  0.87278892585E+02  0.87278892585E+02  0.00000000000E+00 0.  1.
          1   -1    0    0  501    0 -0.00000000000E+00 -0.00000000000E+00 -0.18526146401E+02  0.18526146401E+02  0.00000000000E+00 0. -1.
          2    1    1    2  501    0  0.14204739321E+02 -0.15824708923E+02  0.79276205394E+02  0.82078698658E+02  0.00000000000E+00 0.  1.
          1    1    1    2  502    0 -0.14204739321E+02  0.15824708923E+02 -0.10523459210E+02  0.23726340329E+02  0.00000000000E+00 0. -1.
</event>
<event>
 4    1  0.3752836E+003  0.2158642E+02  0.7546771E-02  0.1511055E+00
          2   -1    0    0  502    0  0.00000000000E+00  0.00000000000E+00  0.59571048271E+03  0.59571048271E+03  0.00000000000E+00 0.  1.
          1   -1    0    0  501    0 -0.00000000000E+00 -0.00000000000E+00 -0.26835464510E+02  0.26835464510E+02  0.00000000000E+00 0.  1.
          2    1    1    2  501    0 -0.12433065156E+01  0.21550583020E+02  0.59114035697E+03  0.59153435664E+03  0.00000000000E+00 0.  1.
          1    1    1    2  502    0  0.12433065156E+01 -0.21550583020E+02 -0.22265338775E+02  0.31011590581E+02  0.00000000000E+00 0.  1.
</event>
<event>
 4    1  0.3752836E+003  0.2075995E+02  0.7546771E-02  0.1522720E+00
          2   -1    0    0  502    0  0.00000000000E+00  0.00000000000E+00  0.90084644656E+03  0.90084644656E+03  0.00000000000E+00 0. -1.
          1   -1    0    0  501    0 -0.00000000000E+00 -0.00000000000E+00 -0.12968923415E+01  0.12968923415E+01  0.00000000000E+00 0. -1.
          2    1    1    2  501    0  0.15537663856E+02  0.13767953410E+02  0.80811682960E+03  0.80838343985E+03  0.00000000000E+00 0. -1.
          1    1    1    2  502    0 -0.15537663856E+02 -0.13767953410E+02  0.91432724622E+02  0.93759899056E+02  0.00000000000E+00 0. -1.
</event>
<event>
 4    1  0.3752836E+003  0.2169232E+02  0.7546771E-02  0.1509606E+00
          2   -1    0    0  502    0  0.00000000000E+00  0.00000000000E+00  0.96878048724E+02  0.96878048724E+02  0.00000000000E+00 0. -1.
          1   -1    0    0  501    0 -0.00000000000E+00 -0.00000000000E+00 -0.31595725887E+03  0.31595725887E+03  0.00000000000E+00 0.  1.
          2    1    1    2  501    0 -0.11240934491E+02 -0.18552582497E+02  0.95285274944E+02  0.97723285591E+02  0.00000000000E+00 0. -1.
          1    1    1    2  502    0  0.11240934491E+02  0.18552582497E+02 -0.31436448509E+03  0.31511202200E+03  0.00000000000E+00 0.  1.
</event>
<event>
 4    1  0.3752836E+003  0.2335226E+02  0.7546771E-02  0.1488122E+00
          2   -1    0    0  502    0  0.00000000000E+00  0.00000000000E+00  0.28253007084E+01  0.28253007084E+01  0.00000000000E+00 0.  1.
          1   -1    0    0  501    0 -0.00000000000E+00 -0.00000000000E+00 -0.21502274253E+03  0.21502274253E+03  0.00000000000E+00 0.  1.
          2    1    1    2  501    0 -0.22610859687E+02  0.58375101975E+01 -0.14094544337E+03  0.14286688037E+03  0.00000000000E+00 0.  1.
          1    1    1    2  502    0  0.22610859687E+02 -0.58375101975E+01 -0.71251998452E+02  0.74981162864E+02  0.00000000000E+00 0.  1.
</event>
<event>
 4    1  0.3752836E+003  0.2211638E+02  0.7546771E-02  0.1503902E+00
          2   -1    0    0  502    0  0.00000000000E+00  0.00000000000E+00  0.65330060979E+02  0.65330060979E+02  0.00000000000E+00 0. -1.
          1   -1    0    0  501    0 -0.00000000000E+00 -0.00000000000E+00 -0.27750968548E+03  0.27750968548E+03  0.00000000000E+00 0. -1.
          2    1    1    2  501    0  0.11906981014E+02 -0.18637541016E+02  0.63001823348E+02  0.66770980801E+02  0.00000000000E+00 0. -1.
          1    1    1    2  502    0 -0.11906981014E+02  0.18637541016E+02 -0.27518144785E+03  0.27606876566E+03  0.00000000000E+00 0. -1.
</event>
<event>
 4    1  0.3752836E+003  0.2036795E+02  0.7546771E-02  0.1528483E+00
          2   -1    0    0  502    0  0.00000000000E+00  0.00000000000E+00  0.12359421507E+04  0.12359421507E+04  0.00000000000E+00 0.  1.
          1   -1    0    0  501    0 -0.00000000000E+00 -0.00000000000E+00 -0.27544279469E+01  0.27544279469E+01  0.00000000000E+00 0.  1.
          2    1    1    2  501    0  0.15709247407E+01 -0.20307278219E+02  0.11969793615E+04  0.11971526407E+04  0.00000000000E+00 0.  1.
          1    1    1    2  502    0 -0.15709247407E+01  0.20307278219E+02  0.36208361282E+02  0.41543937945E+02  0.00000000000E+00 0.  1.
</event>
<event>
 4    1  0.3752836E+003  0.2039965E+02  0.7546771E-02  0.1528011E+00
          2   -1    0    0  502    0  0.00000000000E+00  0.00000000000E+00  0.11312817099E+04  0.11312817099E+04  0.00000000000E+00 0.  1.
          1   -1    0    0  501    0 -0.00000000000E+00 -0.00000000000E+00 -0.16641433435E+01  0.16641433435E+01  0.00000000000E+00 0.  1.
          2    1    1    2  501    0  0.11078323866E+02 -0.17129405952E+02  0.10647683357E+04  0.10649637339E+04  0.00000000000E+00 0.  1.
          1    1    1    2  502    0 -0.11078323866E+02  0.17129405952E+02  0.64849230834E+02  0.67982119324E+02  0.00000000000E+00 0.  1.
</event>
<event>
 4    1  0.3752836E+003  0.7880196E+02  0.7546771E-02  0.1206656E+00
          2   -1    0    0  502    0  0.00000000000E+00  0.00000000000E+00  0.80943456481E+03  0.80943456481E+03  0.00000000000E+00 0.  1.
          1   -1    0    0  501    0 -0.00000000000E+00 -0.00000000000E+00 -0.22068988725E+03  0.22068988725E+03  0.00000000000E+00 0.  1.
          2    1    1    2  501    0 -0.52097717711E+02  0.59123404809E+02  0.80040297843E+03  0.80427276285E+03  0.00000000000E+00 0.  1.
          1    1    1    2  502    0  0.52097717711E+02 -0.59123404809E+02 -0.21165830087E+03  0.22585168920E+03  0.00000000000E+00 0.  1.
</event>
<event>
 4    1  0.3752836E+003  0.2444477E+02  0.7546771E-02  0.1475112E+00
          2   -1    0    0  502    0  0.00000000000E+00  0.00000000000E+00  0.84805469477E+02  0.84805469477E+02  0.00000000000E+00 0.  1.
          1   -1    0    0  501    0 -0.00000000000E+00 -0.00000000000E+00 -0.25347671139E+02  0.25347671139E+02  0.00000000000E+00 0.  1.
          2    1    1    2  501    0 -0.20838519745E+02 -0.12778993642E+02  0.76528507265E+02  0.80337780700E+02  0.00000000000E+00 0.  1.
          1    1    1    2  502    0  0.20838519745E+02  0.12778993642E+02 -0.17070708927E+02  0.29815359916E+02  0.00000000000E+00 0.  1.
</event>
<event>
 4    1  0.3752836E+003  0.2160086E+02  0.7546771E-02  0.1510856E+00
          2   -1    0    0  502    0  0.00000000000E+00  0.00000000000E+00  0.22598190715E+03  0.22598190715E+03  0.00000000000E+00 0. -1.
          1   -1    0    0  501    0 -0.00000000000E+00 -0.00000000000E+00 -0.24093401410E+01  0.24093401410E+01  0.00000000000E+00 0. -1.
          2    1    1    2  501    0  0.20054792230E+02  0.80251154627E+01  0.15497287842E+03  0.15647105232E+03  0.00000000000E+00 0. -1.
          1    1    1    2  502    0 -0.20054792230E+02 -0.80251154627E+01  0.68599688589E+02  0.71920194967E+02  0.00000000000E+00 0. -1.
</event>
<event>
 4    1  0.3752836E+003  0.2491225E+02  0.7546771E-02  0.1469787E+00
          2   -1    0    0  502    0  0.00000000000E+00  0.00000000000E+00  0.13534697538E+04  0.13534697538E+04  0.00000000000E+00 0.  1.
          1   -1    0    0  501    0 -0.00000000000E+00 -0.00000000000E+00 -0.10025741903E+02  0.10025741903E+02  0.00000000000E+00 0. -1.
          2    1    1    2  501    0  0.24835293832E+02 -0.19566460866E+01  0.13376969914E+04  0.13379289448E+04  0.00000000000E+00 0.  1.
          1    1    1    2  502    0 -0.24835293832E+02  0.19566460866E+01  0.57470204573E+01  0.25566550956E+02  0.00000000000E+00 0. -1.
</event>
<event>
 4    1  0.3752836E+003  0.2068475E+02  0.7546771E-02  0.1523814E+00
          2   -1    0    0  502    0  0.00000000000E+00  0.00000000000E+00  0.14790942309E+01  0.14790942309E+01  0.00000000000E+00 0. -1.
          1   -1    0    0  501    0 -0.00000000000E+00 -0.00000000000E+00 -0.45684534482E+03  0.45684534482E+03  0.00000000000E+00 0.  1.
          2    1    1    2  501    0  0.17480891969E+02  0.11057902408E+02 -0.88891766958E+02  0.91266669834E+02  0.00000000000E+00 0. -1.
          1    1    1    2  502    0 -0.17480891969E+02 -0.11057902408E+02 -0.36647448364E+03  0.36705776922E+03  0.00000000000E+00 0.  1.
</event>
<event>
 4    1  0.3752836E+003  0.2229838E+02  0.7546771E-02  0.1501501E+00
          2   -1    0    0  502    0  0.00000000000E+00  0.00000000000E+00  0.11890347407E+03  0.11890347407E+03  0.00000000000E+00 0.  1.
          1   -1    0    0  501    0 -0.00000000000E+00 -0.00000000000E+00 -0.85101922898E+01  0.85101922898E+01  0.00000000000E+00 0.  1.
          2    1    1    2  501    0 -0.22074431573E+02 -0.31523302792E+01  0.10063106757E+03  0.10307196260E+03  0.00000000000E+00 0.  1.
          1    1    1    2  502    0  0.22074431573E+02  0.31523302792E+01  0.97622142161E+01  0.24341703758E+02  0.00000000000E+00 0.  1.
</event>
<event>
 4    1  0.3752836E+003  0.1990293E+03  0.7546771E-02  0.1055827E+00
          2   -1    0    0  502    0  0.00000000000E+00  0.00000000000E+00  0.74941974197E+03  0.74941974197E+03  0.00000000000E+00 0.  1.
          1   -1    0    0  501    0 -0.00000000000E+00 -0.00000000000E+00 -0.52936094295E+02  0.52936094295E+02  0.00000000000E+00 0.  1.
          2    1    1    2  501    0  0.19070318053E+03  0.56964295279E+02  0.33280734420E+03  0.38778004378E+03  0.00000000000E+00 0.  1.
          1    1    1    2  502    0 -0.19070318053E+03 -0.56964295279E+02  0.36367630347E+03  0.41457579248E+03  0.00000000000E+00 0.  1.
</event>
<event>
 4    1  0.3752836E+003  0.2127857E+02  0.7546771E-02  0.1515325E+00
          2   -1    0    0  502    0  0.00000000000E+00  0.00000000000E+00  0.24091490716E+04  0.24091490716E+04  0.00000000000E+00 0. -1.
          1   -1    0    0  501    0 -0.00000000000E+00 -0.00000000000E+00 -0.18941959239E+00  0.18941959239E+00  0.00000000000E+00 0. -1.
          2    1    1    2  501    0 -0.17708669642E+00  0.21277821036E+02  0.10980331997E+04  0.10982393567E+04  0.00000000000E+00 0. -1.
          1    1    1    2  502    0  0.17708669642E+00 -0.21277821036E+02  0.13109264524E+04  0.13110991345E+04  0.00000000000E+00 0. -1.
</event>
<event>
 4    1  0.3752836E+003  0.2231008E+02  0.7546771E-02  0.1501348E+00
          2   -1    0    0  502    0  0.00000000000E+00  0.00000000000E+00  0.50137801343E+03  0.50137801343E+03  0.00000000000E+00 0. -1.
          1   -1    0    0  501    0 -0.00000000000E+00 -0.00000000000E+00 -0.14907017445E+01  0.14907017445E+01  0.00000000000E+00 0.  1.
          2    1    1    2  501    0 -0.13332193077E+02  0.17888323633E+02  0.39526384018E+03  0.39589296893E+03  0.00000000000E+00 0. -1.
          1    1    1    2  502    0  0.13332193077E+02 -0.17888323633E+02  0.10462347150E+03  0.10697574624E+03  0.00000000000E+00 0.  1.
</event>
<event>
 4    1  0.3752836E+003  0.2636554E+02  0.7546771E-02  0.1454088E+00
          2   -1    0    0  502    0  0.00000000000E+00  0.00000000000E+00  0.26493125585E+03  0.26493125585E+03  0.00000000000E+00 0.  1.
          1   -1    0    0  501    0 -0.00000000000E+00 -0.00000000000E+00 -0.33407958284E+01  0.33407958284E+01  0.00000000000E+00 0.  1.
          2    1    1    2  501    0 -0.92199835074E+01 -0.24700882704E+02  0.19293384235E+03  0.19472701206E+03  0.00000000000E+00 0.  1.
          1    1    1    2  502    0  0.92199835074E+01  0.24700882704E+02  0.68656617673E+02  0.73545039619E+02  0.00000000000E+00 0.  1.
</event>
<event>
 4    1  0.3752836E+003  0.2774564E+02  0.7546771E-02  0.1440258E+00
          2   -1    0    0  502    0  0.00000000000E+00  0.00000000000E+00  0.82138476894E+02  0.82138476894E+02  0.00000000000E+00 0.  1.
          1   -1    0    0  501    0 -0.00000000000E+00 -0.00000000000E+00 -0.16808129944E+02  0.16808129944E+02  0.00000000000E+00 0.  1.
          2    1    1    2  501    0 -0.27529041108E+02  0.34601174309E+01  0.65571397061E+02  0.71199920151E+02  0.00000000000E+00 0.  1.
          1    1    1    2  502    0  0.27529041108E+02 -0.34601174309E+01 -0.24105011070E+00  0.27746686688E+02  0.00000000000E+00 0.  1.
</event>
<event>
 4    1  0.3752836E+003  0.2032595E+02  0.7546771E-02  0.1529110E+00
          2   -1    0    0  502    0  0.00000000000E+00  0.00000000000E+00  0.41173608197E+03  0.41173608197E+03  0.00000000000E+00 0.  1.
          1   -1    0    0  501    0 -0.00000000000E+00 -0.00000000000E+00 -0.23624439280E+01  0.23624439280E+01  0.00000000000E+00 0. -1.
          2    1    1    2  501    0 -0.19361692415E+02 -0.61861927795E+01  0.36172545941E+03  0.36229608347E+03  0.00000000000E+00 0.  1.
          1    1    1    2  502    0  0.19361692415E+02  0.61861927795E+01  0.47648178631E+02  0.51802442424E+02  0.00000000000E+00 0. -1.
</event>
<event>
 4    1  0.3752836E+003  0.5753571E+02  0.7546771E-02  0.1268443E+00
          2   -1    0    0  502    0  0.00000000000E+00  0.00000000000E+00  0.43140518777E+01  0.43140518777E+01  0.00000000000E+00 0. -1.
          1   -1    0    0  501    0 -0.00000000000E+00 -0.00000000000E+00 -0.16902709745E+04  0.16902709745E+04  0.00000000000E+00 0. -1.
          2    1    1    2  501    0 -0.35220404645E+02 -0.45495946745E+02 -0.21688513255E+03  0.22438698446E+03  0.00000000000E+00 0. -1.
          1    1    1    2  502    0  0.35220404645E+02  0.45495946745E+02 -0.14690717901E+04  0.14701980419E+04  0.00000000000E+00 0. -1.
</event>
<event>
 4    1  0.3752836E+003  0.2014019E+02  0.7546771E-02  0.1531903E+00
          2   -1    0    0  502    0  0.00000000000E+00  0.00000000000E+00  0.65343302571E+03  0.65343302571E+03  0.00000000000E+00 0. -1.
          1   -1    0    0  501    0 -0.00000000000E+00 -0.00000000000E+00 -0.63828878709E+01  0.63828878709E+01  0.00000000000E+00 0.  1.
          2    1    1    2  501    0 -0.18990078444E+02 -0.67085269475E+01  0.63698027990E+03  0.63729859909E+03  0.00000000000E+00 0. -1.
          1    1    1    2  502    0  0.18990078444E+02  0.67085269475E+01  0.10069857935E+02  0.22517314493E+02  0.00000000000E+00 0.  1.
</event>
<event>
 4    1  0.3752836E+003  0.1101380E+03  0.7546771E-02  0.1147312E+00
          2   -1    0    0  502    0  0.00000000000E+00  0.00000000000E+00  0.13163170013E+03  0.13163170013E+03  0.00000000000E+00 0.  1.
          1   -1    0    0  501    0 -0.00000000000E+00 -0.00000000000E+00 -0.55112374772E+03  0.55112374772E+03  0.00000000000E+00 0.  1.
          2    1    1    2  501    0  0.38210706884E+02 -0.10329728013E+03  0.10178596790E+03  0.14996922839E+03  0.00000000000E+00 0.  1.
          1    1    1    2  502    0 -0.38210706884E+02  0.10329728013E+03 -0.52127801550E+03  0.53278621946E+03  0.00000000000E+00 0.  1.
</event>
<event>
 4    1  0.3752836E+003  0.2079275E+02  0.7546771E-02  0.1522244E+00
          2   -1    0    0  502    0  0.00000000000E+00  0.00000000000E+00  0.54212050151E+03  0.54212050151E+03  0.00000000000E+00 0. -1.
          1   -1    0    0  501    0 -0.00000000000E+00 -0.00000000000E+00 -0.18077902998E+02  0.18077902998E+02  0.00000000000E+00 0.  1.
          2    1    1    2  501    0  0.11528459914E+02 -0.17304139751E+02  0.53587261779E+03  0.53627586291E+03  0.00000000000E+00 0. -1.
          1    1    1    2  502    0 -0.11528459914E+02  0.17304139751E+02 -0.11830019277E+02  0.23922541600E+02  0.00000000000E+00 0.  1.
</event>
<event>
 4    1  0.3752836E+003  0.2071181E+02  0.7546771E-02  0.1523419E+00
          2   -1    0    0  502    0  0.00000000000E+00  0.00000000000E+00  0.57084182601E+01  0.57084182601E+01  0.00000000000E+00 0.  1.
          1   -1    0    0  501    0 -0.00000000000E+00 -0.00000000000E+00 -0.25857977022E+03  0.25857977022E+03  0.00000000000E+00 0.  1.
          2    1    1    2  501    0  0.94075970676E+01  0.18451999800E+02 -0.15137729882E+02  0.25654045396E+02  0.00000000000E+00 0.  1.
          1    1    1    2  502    0 -0.94075970676E+01 -0.18451999800E+02 -0.23773362208E+03  0.23863414309E+03  0.00000000000E+00 0.  1.
</event>
<event>
 4    1  0.3752836E+003  0.2036034E+02  0.7546771E-02  0.1528597E+00
          2   -1    0    0  502    0  0.00000000000E+00  0.00000000000E+00  0.12188878251E+03  0.12188878251E+03  0.00000000000E+00 0. -1.
          1   -1    0    0  501    0 -0.00000000000E+00 -0.00000000000E+00 -0.53859057316E+03  0.53859057316E+03  0.00000000000E+00 0. -1.
          2    1    1    2  501    0 -0.99488306303E+01  0.17764128088E+02  0.12084446133E+03  0.12254765322E+03  0.00000000000E+00 0. -1.
          1    1    1    2  502    0  0.99488306303E+01 -0.17764128088E+02 -0.53754625198E+03  0.53793170244E+03  0.00000000000E+00 0. -1.
</event>
<event>
 4    1  0.3752836E+003  0.3176184E+02  0.7546771E-02  0.1404880E+00
          2   -1    0    0  502    0  0.00000000000E+00  0.00000000000E+00  0.75644513569E+02  0.75644513569E+02  0.00000000000E+00 0. -1.
          1   -1    0    0  501    0 -0.00000000000E+00 -0.00000000000E+00 -0.24032407105E+02  0.24032407105E+02  0.00000000000E+00 0.  1.
          2    1    1    2  501    0 -0.30896191411E+02  0.73647515977E+01  0.59055149853E+02  0.67054641405E+02  0.00000000000E+00 0. -1.
          1    1    1    2  502    0  0.30896191411E+02 -0.73647515977E+01 -0.74430433887E+01  0.32622279269E+02  0.00000000000E+00 0.  1.
</event>
<event>
 4    1  0.3752836E+003  0.2213593E+02  0.7546771E-02  0.1503643E+00
          2   -1    0    0  502    0  0.00000000000E+00  0.00000000000E+00  0.19190164254E+03  0.19190164254E+03  0.00000000000E+00 0. -1.
          1   -1    0    0  501    0 -0.00000000000E+00 -0.00000000000E+00 -0.56712701602E+01  0.56712701602E+01  0.00000000000E+00 0.  1.
          2    1    1    2  501    0  0.11745017074E+02 -0.18763098332E+02  0.16636172565E+03  0.16782795669E+03  0.00000000000E+00 0. -1.
          1    1    1    2  502    0 -0.11745017074E+02  0.18763098332E+02  0.19868646723E+02  0.29744956004E+02  0.00000000000E+00 0.  1.
</event>
<event>
 4    1  0.3752836E+003  0.4703136E+02  0.7546771E-02  0.1311583E+00
          2   -1    0    0  502    0  0.00000000000E+00  0.00000000000E+00  0.12605434008E+03  0.12605434008E+03  0.00000000000E+00 0.  1.
          1   -1    0    0  501    0 -0.00000000000E+00 -0.00000000000E+00 -0.19074344285E+02  0.19074344285E+02  0.00000000000E+00 0. -1.
          2    1    1    2  501    0 -0.25044042246E+01 -0.46964636118E+02  0.74019760168E+02  0.87697628141E+02  0.00000000000E+00 0.  1.
          1    1    1    2  502    0  0.25044042246E+01  0.46964636118E+02  0.32960235624E+02  0.57431056221E+02  0.00000000000E+00 0. -1.
</event>
<event>
 4    1  0.3752836E+003  0.2482622E+02  0.7546771E-02  0.1470757E+00
          2   -1    0    0  502    0  0.00000000000E+00  0.00000000000E+00  0.12276731048E+04  0.12276731048E+04  0.00000000000E+00 0. -1.
          1   -1    0    0  501    0 -0.00000000000E+00 -0.00000000000E+00 -0.73212769672E+01  0.73212769672E+01  0.00000000000E+00 0. -1.
          2    1    1    2  501    0  0.95512176917E+00 -0.24807837763E+02  0.12061254106E+04  0.12063808881E+04  0.00000000000E+00 0. -1.
          1    1    1    2  502    0 -0.95512176917E+00  0.24807837763E+02  0.14226417211E+02  0.28613493648E+02  0.00000000000E+00 0. -1.
</event>
<event>
 4    1  0.3752836E+003  0.2311487E+02  0.7546771E-02  0.1491061E+00
          2   -1    0    0  502    0  0.00000000000E+00  0.00000000000E+00  0.93370683047E+02  0.93370683047E+02  0.00000000000E+00 0. -1.
          1   -1    0    0  501    0 -0.00000000000E+00 -0.00000000000E+00 -0.93903209882E+01  0.93903209882E+01  0.00000000000E+00 0. -1.
          2    1    1    2  501    0  0.83441412327E+01  0.21556263020E+02  0.74102575739E+02  0.77624022696E+02  0.00000000000E+00 0. -1.
          1    1    1    2  502    0 -0.83441412327E+01 -0.21556263020E+02  0.98777863195E+01  0.25136981339E+02  0.00000000000E+00 0. -1.
</event>
<event>
 4    1  0.3752836E+003  0.2086686E+02  0.7546771E-02  0.1521174E+00
          2   -1    0    0  502    0  0.00000000000E+00  0.00000000000E+00  0.85893248209E+02  0.85893248209E+02  0.00000000000E+00 0.  1.
          1   -1    0    0  501    0 -0.00000000000E+00 -0.00000000000E+00 -0.45561126728E+02  0.45561126728E+02  0.00000000000E+00 0.  1.
          2    1    1    2  501    0 -0.95300316462E+00 -0.20845086066E+02  0.82128863970E+02  0.84738280164E+02  0.00000000000E+00 0.  1.
          1    1    1    2  502    0  0.95300316462E+00  0.20845086066E+02 -0.41796742489E+02  0.46716094773E+02  0.00000000000E+00 0.  1.
</event>
<event>
 4    1  0.3752836E+003  0.2482158E+02  0.7546771E-02  0.1470809E+00
          2   -1    0    0  502    0  0.00000000000E+00  0.00000000000E+00  0.23306649651E+01  0.23306649651E+01  0.00000000000E+00 0. -1.
          1   -1    0    0  501    0 -0.00000000000E+00 -0.00000000000E+00 -0.47540096493E+03  0.47540096493E+03  0.00000000000E+00 0. -1.
          2    1    1    2  501    0 -0.24478051456E+02 -0.41153004588E+01 -0.77381024951E+02  0.81264590834E+02  0.00000000000E+00 0. -1.
          1    1    1    2  502    0  0.24478051456E+02  0.41153004588E+01 -0.39568927501E+03  0.39646703906E+03  0.00000000000E+00 0. -1.
</event>
<event>
 4    1  0.3752836E+003  0.2620676E+02  0.7546771E-02  0.1455743E+00
          2   -1    0    0  502    0  0.00000000000E+00  0.00000000000E+00  0.15450893793E+03  0.15450893793E+03  0.00000000000E+00 0.  1.
          1   -1    0    0  501    0 -0.00000000000E+00 -0.00000000000E+00 -0.18619595204E+03  0.18619595204E+03  0.00000000000E+00 0.  1.
          2    1    1    2  501    0 -0.77062252640E+00 -0.26195426638E+02  0.15246326290E+03  0.15469919447E+03  0.00000000000E+00 0.  1.
          1    1    1    2  502    0  0.77062252640E+00  0.26195426638E+02 -0.18415027701E+03  0.18600569550E+03  0.00000000000E+00 0.  1.
</event>
<event>
 4    1  0.3752836E+003  0.2151917E+02  0.7546771E-02  0.1511980E+00
          2   -1    0    0  502    0  0.00000000000E+00  0.00000000000E+00  0.11394543118E+04  0.11394543118E+04  0.00000000000E+00 0. -1.
          1   -1    0    0  501    0 -0.00000000000E+00 -0.00000000000E+00 -0.12934640445E+03  0.12934640445E+03  0.00000000000E+00 0. -1.
          2    1    1    2  501    0  0.12938006130E+02  0.17195422681E+02  0.11384568998E+04  0.11386602598E+04  0.00000000000E+00 0. -1.
          1    1    1    2  502    0 -0.12938006130E+02 -0.17195422681E+02 -0.12834899240E+03  0.13014045649E+03  0.00000000000E+00 0. -1.
</event>
<event>
 4    1  0.3752836E+003  0.2017822E+02  0.7546771E-02  0.1531329E+00
          2   -1    0    0  502    0  0.00000000000E+00  0.00000000000E+00  0.53706124417E+03  0.53706124417E+03  0.00000000000E+00 0. -1.
          1   -1    0    0  501    0 -0.00000000000E+00 -0.00000000000E+00 -0.17019259493E+01  0.17019259493E+01  0.00000000000E+00 0. -1.
          2    1    1    2  501    0 -0.18972507153E+02 -0.68705689803E+01  0.46828258776E+03  0.46871712444E+03  0.00000000000E+00 0. -1.
          1    1    1    2  502    0  0.18972507153E+02  0.68705689803E+01  0.67076730464E+02  0.70046045681E+02  0.00000000000E+00 0. -1.
</event>
<event>
 4    1  0.3752836E+003  0.2140543E+02  0.7546771E-02  0.1513554E+00
          2   -1    0    0  502    0  0.00000000000E+00  0.00000000000E+00  0.27483059014E+03  0.27483059014E+03  0.00000000000E+00 0.  1.
          1   -1    0    0  501    0 -0.00000000000E+00 -0.00000000000E+00 -0.18621333019E+03  0.18621333019E+03  0.00000000000E+00 0. -1.
          2    1    1    2  501    0 -0.15371725760E+02 -0.14896386078E+02  0.27379633050E+03  0.27463179508E+03  0.00000000000E+00 0.  1.
          1    1    1    2  502    0  0.15371725760E+02  0.14896386078E+02 -0.18517907055E+03  0.18641212525E+03  0.00000000000E+00 0. -1.
</event>
<event>
 4    1  0.3752836E+003  0.2889609E+02  0.7546771E-02  0.1429438E+00
          2   -1    0    0  502    0  0.00000000000E+00  0.00000000000E+00  0.99722087045E+02  0.99722087045E+02  0.00000000000E+00 0. -1.
          1   -1    0    0  501    0 -0.00000000000E+00 -0.00000000000E+00 -0.17962879759E+02  0.17962879759E+02  0.00000000000E+00 0. -1.
          2    1    1    2  501    0 -0.16238502964E+02  0.23901779276E+02  0.83873528806E+02  0.88711627566E+02  0.00000000000E+00 0. -1.
          1    1    1    2  502    0  0.16238502964E+02 -0.23901779276E+02 -0.21143215202E+01  0.28973339238E+02  0.00000000000E+00 0. -1.
</event>
<event>
 4    1  0.3752836E+003  0.2040205E+02  0.7546771E-02  0.1527976E+00
          2   -1    0    0  502    0  0.00000000000E+00  0.00000000000E+00  0.41119733103E+02  0.41119733103E+02  0.00000000000E+00 0. -1.
          1   -1    0    0  501    0 -0.00000000000E+00 -0.00000000000E+00 -0.10913680417E+03  0.10913680417E+03  0.00000000000E+00 0.  1.
          2    1    1    2  501    0 -0.20282233990E+02  0.22078971902E+01  0.37550789698E+02  0.42735297268E+02  0.00000000000E+00 0. -1.
          1    1    1    2  502    0  0.20282233990E+02 -0.22078971902E+01 -0.10556786077E+03  0.10752124001E+03  0.00000000000E+00 0.  1.
</event>
<event>
 4    1  0.3752836E+003  0.3894079E+02  0.7546771E-02  0.1354807E+00
          2   -1    0    0  502    0  0.00000000000E+00  0.00000000000E+00  0.14442267364E+03  0.14442267364E+03  0.00000000000E+00 0.  1.
          1   -1    0    0  501    0 -0.00000000000E+00 -0.00000000000E+00 -0.15495575756E+02  0.15495575756E+02  0.00000000000E+00 0.  1.
          2    1    1    2  501    0  0.30217256402E+01 -0.38823369778E+02  0.10986533736E+03  0.11656233191E+03  0.00000000000E+00 0.  1.
          1    1    1    2  502    0 -0.30217256402E+01  0.38823369778E+02  0.19061760523E+02  0.43355917486E+02  0.00000000000E+00 0.  1.
</event>
<event>
 4    1  0.3752836E+003  0.3758421E+02  0.7546771E-02  0.1363255E+00
          2   -1    0    0  502    0  0.00000000000E+00  0.00000000000E+00  0.10779799876E+02  0.10779799876E+02  0.00000000000E+00 0. -1.
          1   -1    0    0  501    0 -0.00000000000E+00 -0.00000000000E+00 -0.26233604110E+03  0.26233604110E+03  0.00000000000E+00 0.  1.
          2    1    1    2  501    0  0.53383733519E+00 -0.37580414719E+02 -0.29169554530E+02  0.47575576342E+02  0.00000000000E+00 0. -1.
          1    1    1    2  502    0 -0.53383733519E+00  0.37580414719E+02 -0.22238668669E+03  0.22554026463E+03  0.00000000000E+00 0.  1.
</event>
<event>
 4    1  0.3752836E+003  0.2727024E+02  0.7546771E-02  0.1444912E+00
          2   -1    0    0  502    0  0.00000000000E+00  0.00000000000E+00  0.12997454373E+04  0.12997454373E+04  0.00000000000E+00 0. -1.
          1   -1    0    0  501    0 -0.00000000000E+00 -0.00000000000E+00 -0.16692541011E+01  0.16692541011E+01  0.00000000000E+00 0. -1.
          2    1    1    2  501    0 -0.22239079396E+02  0.15782567340E+02  0.11765665031E+04  0.11768824930E+04  0.00000000000E+00 0. -1.
          1    1    1    2  502    0  0.22239079396E+02 -0.15782567340E+02  0.12150968015E+03  0.12453219846E+03  0.00000000000E+00 0. -1.
</event>
<event>
 4    1  0.3752836E+003  0.1023497E+03  0.7546771E-02  0.1159798E+00
          2   -1    0    0  502    0  0.00000000000E+00  0.00000000000E+00  0.35439451898E+02  0.35439451898E+02  0.00000000000E+00 0. -1.
          1   -1    0    0  501    0 -0.00000000000E+00 -0.00000000000E+00 -0.63406217701E+03  0.63406217701E+03  0.00000000000E+00 0. -1.
          2    1    1    2  501    0  0.35375311752E+02 -0.96041879004E+02 -0.54732523989E+02  0.11606508685E+03  0.00000000000E+00 0. -1.
          1    1    1    2  502    0 -0.35375311752E+02  0.96041879004E+02 -0.54389020113E+03  0.55343654206E+03  0.00000000000E+00 0. -1.
</event>
<event>
 4    1  0.3752836E+003  0.2039338E+02  0.7546771E-02  0.1528105E+00
          2   -1    0    0  502    0  0.00000000000E+00  0.00000000000E+00  0.66293387965E+03  0.66293387965E+03  0.00000000000E+00 0.  1.
          1   -1    0    0  501    0 -0.00000000000E+00 -0.00000000000E+00 -0.30461482155E+01  0.30461482155E+01  0.00000000000E+00 0. -1.
          2    1    1    2  501    0 -0.19901747258E+02 -0.44508660329E+01  0.62666997358E+03  0.62700171095E+03  0.00000000000E+00 0.  1.
          1    1    1    2  502    0  0.19901747258E+02  0.44508660329E+01  0.33217757855E+02  0.38978316912E+02  0.00000000000E+00 0. -1.
</event>
<event>
 4    1  0.3752836E+003  0.2231260E+02  0.7546771E-02  0.1501315E+00
          2   -1    0    0  502    0  0.00000000000E+00  0.00000000000E+00  0.31234605051E+02  0.31234605051E+02  0.00000000000E+00 0. -1.
          1   -1    0    0  501    0 -0.00000000000E+00 -0.00000000000E+00 -0.63890810368E+02  0.63890810368E+02  0.00000000000E+00 0. -1.
          2    1    1    2  501    0  0.22014838629E+02 -0.36330522692E+01  0.24876840827E+02  0.33417202130E+02  0.00000000000E+00 0. -1.
          1    1    1    2  502    0 -0.22014838629E+02  0.36330522692E+01 -0.57533046144E+02  0.61708213289E+02  0.00000000000E+00 0. -1.
</event>
<event>
 4    1  0.3752836E+003  0.2141111E+02  0.7546771E-02  0.1513476E+00
          2   -1    0    0  502    0  0.00000000000E+00  0.00000000000E+00  0.97336197025E+01  0.97336197025E+01  0.00000000000E+00 0. -1.
          1   -1    0    0  501    0 -0.00000000000E+00 -0.00000000000E+00 -0.10665927422E+03  0.10665927422E+03  0.00000000000E+00 0.  1.
          2    1    1    2  501    0 -0.21215064900E+02 -0.28907662733E+01 -0.49739103651E+01  0.21981248661E+02  0.00000000000E+00 0. -1.
          1    1    1    2  502    0  0.21215064900E+02  0.28907662733E+01 -0.91951744151E+02  0.94411645260E+02  0.00000000000E+00 0.  1.
</event>
<event>
 4    1  0.3752836E+003  0.2104801E+02  0.7546771E-02  0.1518580E+00
          2   -1    0    0  502    0  0.00000000000E+00  0.00000000000E+00  0.11357878560E+03  0.11357878560E+03  0.00000000000E+00 0. -1.
          1   -1    0    0  501    0 -0.00000000000E+00 -0.00000000000E+00 -0.18062819623E+03  0.18062819623E+03  0.00000000000E+00 0.  1.
          2    1    1    2  501    0 -0.16448842996E+02 -0.13132190760E+02  0.11198181753E+03  0.11394273266E+03  0.00000000000E+00 0. -1.
          1    1    1    2  502    0  0.16448842996E+02  0.13132190760E+02 -0.17903122816E+03  0.18026424916E+03  0.00000000000E+00 0.  1.
</event>
<event>
 4    1  0.3752836E+003  0.2490125E+02  0.7546771E-02  0.1469911E+00
          2   -1    0    0  502    0  0.00000000000E+00  0.00000000000E+00  0.14944448656E+04  0.14944448656E+04  0.00000000000E+00 0.  1.
          1   -1    0    0  501    0 -0.00000000000E+00 -0.00000000000E+00 -0.13222609337E+03  0.13222609337E+03  0.00000000000E+00 0. -1.
          2    1    1    2  501    0  0.24821360912E+02  0.19931118987E+01  0.14931677618E+04  0.14933753839E+04  0.00000000000E+00 0.  1.
          1    1    1    2  502    0 -0.24821360912E+02 -0.19931118987E+01 -0.13094898958E+03  0.13329557503E+03  0.00000000000E+00 0. -1.
</event>
<event>
 4    1  0.3752836E+003  0.4101067E+02  0.7546771E-02  0.1342663E+00
          2   -1    0    0  502    0  0.00000000000E+00  0.00000000000E+00  0.92938556007E+01  0.92938556007E+01  0.00000000000E+00 0. -1.
          1   -1    0    0  501    0 -0.00000000000E+00 -0.00000000000E+00 -0.35802721103E+03  0.35802721103E+03  0.00000000000E+00 0. -1.
          2    1    1    2  501    0  0.40953533814E+02  0.21640605919E+01 -0.45209331224E+02  0.61038993437E+02  0.00000000000E+00 0. -1.
          1    1    1    2  502    0 -0.40953533814E+02 -0.21640605919E+01 -0.30352402420E+03  0.30628207319E+03  0.00000000000E+00 0. -1.
</event>
<event>
 4    1  0.3752836E+003  0.2357295E+02  0.7546771E-02  0.1485426E+00
          2   -1    0    0  502    0  0.00000000000E+00  0.00000000000E+00  0.92546753222E+03  0.92546753222E+03  0.00000000000E+00 0.  1.
          1   -1    0    0  501    0 -0.00000000000E+00 -0.00000000000E+00 -0.73578765875E+01  0.73578765875E+01  0.00000000000E+00 0.  1.
          2    1    1    2  501    0  0.21062706124E+02 -0.10585195430E+02  0.90603189578E+03  0.90633850195E+03  0.00000000000E+00 0.  1.
          1    1    1    2  502    0 -0.21062706124E+02  0.10585195430E+02  0.12077759849E+02  0.26486906851E+02  0.00000000000E+00 0.  1.
</event>
<event>
 4    1  0.3752836E+003  0.3887715E+02  0.7546771E-02  0.1355194E+00
          2   -1    0    0  502    0  0.00000000000E+00  0.00000000000E+00  0.24860646754E+01  0.24860646754E+01  0.00000000000E+00 0. -1.
          1   -1    0    0  501    0 -0.00000000000E+00 -0.00000000000E+00 -0.12781693473E+04  0.12781693473E+04  0.00000000000E+00 0. -1.
          2    1    1    2  501    0 -0.46817274835E+01  0.38594220205E+02 -0.17416764037E+03  0.17845391382E+03  0.00000000000E+00 0. -1.
          1    1    1    2  502    0  0.46817274835E+01 -0.38594220205E+02 -0.11015156422E+04  0.11022014981E+04  0.00000000000E+00 0. -1.
</event>
<event>
 4    1  0.3752836E+003  0.3911606E+02  0.7546771E-02  0.1353745E+00
          2   -1    0    0  502    0  0.00000000000E+00  0.00000000000E+00  0.47902767268E+03  0.47902767268E+03  0.00000000000E+00 0.  1.
          1   -1    0    0  501    0 -0.00000000000E+00 -0.00000000000E+00 -0.33006682638E+01  0.33006682638E+01  0.00000000000E+00 0.  1.
          2    1    1    2  501    0  0.39017110654E+02  0.27805658099E+01  0.28119542972E+03  0.28390304008E+03  0.00000000000E+00 0.  1.
          1    1    1    2  502    0 -0.39017110654E+02 -0.27805658099E+01  0.19453157470E+03  0.19842530087E+03  0.00000000000E+00 0.  1.
</event>
<event>
 4    1  0.3752836E+003  0.2509639E+02  0.7546771E-02  0.1467728E+00
          2   -1    0    0  502    0  0.00000000000E+00  0.00000000000E+00  0.96802653336E+01  0.96802653336E+01  0.00000000000E+00 0. -1.
          1   -1    0    0  501    0 -0.00000000000E+00 -0.00000000000E+00 -0.11771302575E+03  0.11771302575E+03  0.00000000000E+00 0. -1.
          2    1    1    2  501    0  0.74977467176E+01 -0.23950205531E+02 -0.11417029729E+02  0.27571309701E+02  0.00000000000E+00 0. -1.
          1    1    1    2  502    0 -0.74977467176E+01  0.23950205531E+02 -0.96615730685E+02  0.99821981380E+02  0.00000000000E+00 0. -1.
</event>
<event>
 4    1  0.3752836E+003  0.4131678E+02  0.7546771E-02  0.1340938E+00
          2   -1    0    0  502    0  0.00000000000E+00  0.00000000000E+00  0.21353623394E+03  0.21353623394E+03  0.00000000000E+00 0.  1.
          1   -1    0    0  501    0 -0.00000000000E+00 -0.00000000000E+00 -0.13425058549E+02  0.13425058549E+02  0.00000000000E+00 0. -1.
          2    1    1    2  501    0 -0.11428389295E+02  0.39704758857E+02  0.17223167685E+03  0.17711811445E+03  0.00000000000E+00 0.  1.
          1    1    1    2  502    0  0.11428389295E+02 -0.39704758857E+02  0.27879498544E+02  0.49843178037E+02  0.00000000000E+00 0. -1.
</event>
<event>
 4    1  0.3752836E+003  0.3319822E+02  0.7546771E-02  0.1393693E+00
          2   -1    0    0  502    0  0.00000000000E+00  0.00000000000E+00  0.12427323899E+03  0.12427323899E+03  0.00000000000E+00 0. -1.
          1   -1    0    0  501    0 -0.00000000000E+00 -0.00000000000E+00 -0.50205284551E+02  0.50205284551E+02  0.00000000000E+00 0. -1.
          2    1    1    2  501    0 -0.32062679359E+02 -0.86085050519E+01  0.11619391038E+03  0.12084347966E+03  0.00000000000E+00 0. -1.
          1    1    1    2  502    0  0.32062679359E+02  0.86085050519E+01 -0.42125955948E+02  0.53635043875E+02  0.00000000000E+00 0. -1.
</event>
<event>
 4    1  0.3752836E+003  0.2611147E+02  0.7546771E-02  0.1456744E+00
          2   -1    0    0  502    0  0.00000000000E+00  0.00000000000E+00  0.34295036853E+02  0.34295036853E+02  0.00000000000E+00 0. -1.
          1   -1    0    0  501    0 -0.00000000000E+00 -0.00000000000E+00 -0.43929234446E+03  0.43929234446E+03  0.00000000000E+00 0.  1.
          2    1    1    2  501    0 -0.13953065113E+02 -0.22070813241E+02  0.28874815600E+02  0.38930242731E+02  0.00000000000E+00 0. -1.
          1    1    1    2  502    0  0.13953065113E+02  0.22070813241E+02 -0.43387212320E+03  0.43465713858E+03  0.00000000000E+00 0.  1.
</event>
<event>
 4    1  0.3752836E+003  0.2084298E+02  0.7546771E-02  0.1521519E+00
          2   -1    0    0  502    0  0.00000000000E+00  0.00000000000E+00  0.76409520256E+02  0.76409520256E+02  0.00000000000E+00 0. -1.
          1   -1    0    0  501    0 -0.00000000000E+00 -0.00000000000E+00 -0.14493313654E+03  0.14493313654E+03  0.00000000000E+00 0. -1.
          2    1    1    2  501    0  0.19281546010E+02 -0.79152953268E+01  0.74217053815E+02  0.77088267549E+02  0.00000000000E+00 0. -1.
          1    1    1    2  502    0 -0.19281546010E+02  0.79152953268E+01 -0.14274067009E+03  0.14425438924E+03  0.00000000000E+00 0. -1.
</event>
<event>
 4    1  0.3752836E+003  0.2301743E+02  0.7546771E-02  0.1492279E+00
          2   -1    0    0  502    0  0.00000000000E+00  0.00000000000E+00  0.10061097089E+02  0.10061097089E+02  0.00000000000E+00 0. -1.
          1   -1    0    0  501    0 -0.00000000000E+00 -0.00000000000E+00 -0.24133841760E+03  0.24133841760E+03  0.00000000000E+00 0.  1.
          2    1    1    2  501    0 -0.22703172421E+02  0.37905458945E+01 -0.44951655132E+01  0.23452266183E+02  0.00000000000E+00 0. -1.
          1    1    1    2  502    0  0.22703172421E+02 -0.37905458945E+01 -0.22678215500E+03  0.22794724850E+03  0.00000000000E+00 0.  1.
</event>
<event>
 4    1  0.3752836E+003  0.2621363E+02  0.7546771E-02  0.1455671E+00
          2   -1    0    0  502    0  0.00000000000E+00  0.00000000000E+00  0.24372671835E+02  0.24372671835E+02  0.00000000000E+00 0. -1.
          1   -1    0    0  501    0 -0.00000000000E+00 -0.00000000000E+00 -0.18894356890E+03  0.18894356890E+03  0.00000000000E+00 0.  1.
          2    1    1    2  501    0 -0.23859642693E+02  0.10856879659E+02  0.16093745584E+02  0.30759763202E+02  0.00000000000E+00 0. -1.
          1    1    1    2  502    0  0.23859642693E+02 -0.10856879659E+02 -0.18066464265E+03  0.18255647753E+03  0.00000000000E+00 0.  1.
</event>
<event>
 4    1  0.3752836E+003  0.2439777E+02  0.7546771E-02  0.1475655E+00
          2   -1    0    0  502    0  0.00000000000E+00  0.00000000000E+00  0.11696403537E+04  0.11696403537E+04  0.00000000000E+00 0. -1.
          1   -1    0    0  501    0 -0.00000000000E+00 -0.00000000000E+00 -0.42115635466E+01  0.42115635466E+01  0.00000000000E+00 0. -1.
          2    1    1    2  501    0 -0.91070091875E+00  0.24380768019E+02  0.11330374391E+04  0.11333000881E+04  0.00000000000E+00 0. -1.
          1    1    1    2  502    0  0.91070091875E+00 -0.24380768019E+02  0.32391351001E+02  0.40551829120E+02  0.00000000000E+00 0. -1.
</event>
<event>
 4    1  0.3752836E+003  0.2645738E+02  0.7546771E-02  0.1453136E+00
          2   -1    0    0  502    0  0.00000000000E+00  0.00000000000E+00  0.65630253718E+02  0.65630253718E+02  0.00000000000E+00 0. -1.
          1   -1    0    0  501    0 -0.00000000000E+00 -0.00000000000E+00 -0.62487488488E+03  0.62487488488E+03  0.00000000000E+00 0. -1.
          2    1    1    2  501    0  0.25796029415E+02  0.58785695836E+01  0.62671093643E+02  0.68026896830E+02  0.00000000000E+00 0. -1.
          1    1    1    2  502    0 -0.25796029415E+02 -0.58785695836E+01 -0.62191572480E+03  0.62247824176E+03  0.00000000000E+00 0. -1.
</event>
<event>
 4    1  0.3752836E+003  0.2322788E+02  0.7546771E-02  0.1489656E+00
          2   -1    0    0  502    0  0.00000000000E+00  0.00000000000E+00  0.21730386093E+02  0.21730386093E+02  0.00000000000E+00 0.  1.
          1   -1    0    0  501    0 -0.00000000000E+00 -0.00000000000E+00 -0.91503541910E+02  0.91503541910E+02  0.00000000000E+00 0. -1.
          2    1    1    2  501    0 -0.54786861851E+00  0.23221420470E+02  0.13442557743E+02  0.26837229502E+02  0.00000000000E+00 0.  1.
          1    1    1    2  502    0  0.54786861851E+00 -0.23221420470E+02 -0.83215713560E+02  0.86396698501E+02  0.00000000000E+00 0. -1.
</event>
<event>
 4    1  0.3752836E+003  0.2200354E+02  0.7546771E-02  0.1505405E+00
          2   -1    0    0  502    0  0.00000000000E+00  0.00000000000E+00  0.27050903471E+02  0.27050903471E+02  0.00000000000E+00 0.  1.
          1   -1    0    0  501    0 -0.00000000000E+00 -0.00000000000E+00 -0.42627901012E+02  0.42627901012E+02  0.00000000000E+00 0.  1.
          2    1    1    2  501    0  0.16379626370E+02  0.14692293411E+02  0.18747495949E+02  0.28907166067E+02  0.00000000000E+00 0.  1.
          1    1    1    2  502    0 -0.16379626370E+02 -0.14692293411E+02 -0.34324493490E+02  0.40771638415E+02  0.00000000000E+00 0.  1.
</event>
<event>
 4    1  0.3752836E+003  0.2114687E+02  0.7546771E-02  0.1517178E+00
          2   -1    0    0  502    0  0.00000000000E+00  0.00000000000E+00  0.80812318601E+03  0.80812318601E+03  0.00000000000E+00 0.  1.
          1   -1    0    0  501    0 -0.00000000000E+00 -0.00000000000E+00 -0.89750778703E+02  0.89750778703E+02  0.00000000000E+00 0.  1.
          2    1    1    2  501    0  0.18058561138E+02  0.11003565640E+02  0.80673705991E+03  0.80701417207E+03  0.00000000000E+00 0.  1.
          1    1    1    2  502    0 -0.18058561138E+02 -0.11003565640E+02 -0.88364652610E+02  0.90859792637E+02  0.00000000000E+00 0.  1.
</event>
<event>
 4    1  0.3752836E+003  0.2083891E+02  0.7546771E-02  0.1521577E+00
          2   -1    0    0  502    0  0.00000000000E+00  0.00000000000E+00  0.97777698907E+03  0.97777698907E+03  0.00000000000E+00 0. -1.
          1   -1    0    0  501    0 -0.00000000000E+00 -0.00000000000E+00 -0.10088444760E+02  0.10088444760E+02  0.00000000000E+00 0. -1.
          2    1    1    2  501    0 -0.98605901888E+01  0.18358345703E+02  0.96678226357E+03  0.96700682792E+03  0.00000000000E+00 0. -1.
          1    1    1    2  502    0  0.98605901888E+01 -0.18358345703E+02  0.90628074430E+00  0.20858605912E+02  0.00000000000E+00 0. -1.
</event>
<event>
 4    1  0.3752836E+003  0.2653751E+02  0.7546771E-02  0.1452310E+00
          2   -1    0    0  502    0  0.00000000000E+00  0.00000000000E+00  0.21336059012E+01  0.21336059012E+01  0.00000000000E+00 0. -1.
          1   -1    0    0  501    0 -0.00000000000E+00 -0.00000000000E+00 -0.53837694405E+03  0.53837694405E+03  0.00000000000E+00 0.  1.
          2    1    1    2  501    0  0.22717143227E+02  0.13717539864E+02 -0.10001585628E+03  0.10347662056E+03  0.00000000000E+00 0. -1.
          1    1    1    2  502    0 -0.22717143227E+02 -0.13717539864E+02 -0.43622748187E+03  0.43703392939E+03  0.00000000000E+00 0.  1.
</event>
<event>
 4    1  0.3752836E+003  0.2525483E+02  0.7546771E-02  0.1465973E+00
          2   -1    0    0  502    0  0.00000000000E+00  0.00000000000E+00  0.74420699894E+02  0.74420699894E+02  0.00000000000E+00 0. -1.
          1   -1    0    0  501    0 -0.00000000000E+00 -0.00000000000E+00 -0.86795092645E+02  0.86795092645E+02  0.00000000000E+00 0. -1.
          2    1    1    2  501    0 -0.19651050843E+02 -0.15863241535E+02  0.70337614934E+02  0.74734104034E+02  0.00000000000E+00 0. -1.
          1    1    1    2  502    0  0.19651050843E+02  0.15863241535E+02 -0.82712007686E+02  0.86481688505E+02  0.00000000000E+00 0. -1.
</event>
<event>
 4    1  0.3752836E+003  0.2604243E+02  0.7546771E-02  0.1457472E+00
          2   -1    0    0  502    0  0.00000000000E+00  0.00000000000E+00  0.18601096759E+02  0.18601096759E+02  0.00000000000E+00 0.  1.
          1   -1    0    0  501    0 -0.00000000000E+00 -0.00000000000E+00 -0.25045191162E+03  0.25045191162E+03  0.00000000000E+00 0.  1.
          2    1    1    2  501    0  0.58973361057E+01 -0.25365918760E+02  0.84239893822E+01  0.27371006645E+02  0.00000000000E+00 0.  1.
          1    1    1    2  502    0 -0.58973361057E+01  0.25365918760E+02 -0.24027480425E+03  0.24168200174E+03  0.00000000000E+00 0.  1.
</event>
<event>
 4    1  0.3752836E+003  0.2350909E+02  0.7546771E-02  0.1486203E+00
          2   -1    0    0  502    0  0.00000000000E+00  0.00000000000E+00  0.90214087273E+02  0.90214087273E+02  0.00000000000E+00 0. -1.
          1   -1    0    0  501    0 -0.00000000000E+00 -0.00000000000E+00 -0.27056606365E+02  0.27056606365E+02  0.00000000000E+00 0. -1.
          2    1    1    2  501    0 -0.19448547496E+02 -0.13207236106E+02  0.83150363453E+02  0.86409837562E+02  0.00000000000E+00 0. -1.
          1    1    1    2  502    0  0.19448547496E+02  0.13207236106E+02 -0.19992882544E+02  0.30860856076E+02  0.00000000000E+00 0. -1.
</event>
<event>
 4    1  0.3752836E+003  0.4290969E+02  0.7546771E-02  0.1332230E+00
          2   -1    0    0  502    0  0.00000000000E+00  0.00000000000E+00  0.19941766074E+04  0.19941766074E+04  0.00000000000E+00 0. -1.
          1   -1    0    0  501    0 -0.00000000000E+00 -0.00000000000E+00 -0.60440839383E+01  0.60440839383E+01  0.00000000000E+00 0.  1.
          2    1    1    2  501    0 -0.37136314691E+02 -0.21497336273E+02  0.19146229082E+04  0.19151036844E+04  0.00000000000E+00 0. -1.
          1    1    1    2  502    0  0.37136314691E+02  0.21497336273E+02  0.73509615205E+02  0.85117006898E+02  0.00000000000E+00 0.  1.
</event>
<event>
 4    1  0.3752836E+003  0.3039558E+02  0.7546771E-02  0.1416189E+00
          2   -1    0    0  502    0  0.00000000000E+00  0.00000000000E+00  0.38266661199E+03  0.38266661199E+03  0.00000000000E+00 0. -1.
          1   -1    0    0  501    0 -0.00000000000E+00 -0.00000000000E+00 -0.69776543399E+02  0.69776543399E+02  0.00000000000E+00 0. -1.
          2    1    1    2  501    0  0.30308004201E+02 -0.23057322917E+01  0.37871839085E+03  0.37993619344E+03  0.00000000000E+00 0. -1.
          1    1    1    2  502    0 -0.30308004201E+02  0.23057322917E+01 -0.65828322256E+02  0.72506961949E+02  0.00000000000E+00 0. -1.
</event>
<event>
 4    1  0.3752836E+003  0.2160169E+02  0.7546771E-02  0.1510845E+00
          2   -1    0    0  502    0  0.00000000000E+00  0.00000000000E+00  0.34734289235E+03  0.34734289235E+03  0.00000000000E+00 0. -1.
          1   -1    0    0  501    0 -0.00000000000E+00 -0.00000000000E+00 -0.93366088738E+02  0.93366088738E+02  0.00000000000E+00 0.  1.
          2    1    1    2  501    0 -0.14627724641E+02  0.15895367066E+02  0.34575181772E+03  0.34642596969E+03  0.00000000000E+00 0. -1.
          1    1    1    2  502    0  0.14627724641E+02 -0.15895367066E+02 -0.91775014110E+02  0.94283011392E+02  0.00000000000E+00 0.  1.
</event>
<event>
 4    1  0.3752836E+003  0.2787633E+02  0.7546771E-02  0.1438998E+00
          2   -1    0    0  502    0  0.00000000000E+00  0.00000000000E+00  0.27803998633E+02  0.27803998633E+02  0.00000000000E+00 0. -1.
          1   -1    0    0  501    0 -0.00000000000E+00 -0.00000000000E+00 -0.32519654064E+02  0.32519654064E+02  0.00000000000E+00 0. -1.
          2    1    1    2  501    0 -0.10679715928E+02  0.25749438986E+02  0.89500399509E+01  0.29277861184E+02  0.00000000000E+00 0. -1.
          1    1    1    2  502    0  0.10679715928E+02 -0.25749438986E+02 -0.13665695382E+02  0.31045791513E+02  0.00000000000E+00 0. -1.
</event>
<event>
 4    1  0.3752836E+003  0.5004302E+02  0.7546771E-02  0.1297986E+00
          2   -1    0    0  502    0  0.00000000000E+00  0.00000000000E+00  0.19685297833E+01  0.19685297833E+01  0.00000000000E+00 0.  1.
          1   -1    0    0  501    0 -0.00000000000E+00 -0.00000000000E+00 -0.18162329689E+04  0.18162329689E+04  0.00000000000E+00 0.  1.
          2    1    1    2  501    0 -0.42836027342E+02  0.25872348913E+02 -0.40956587638E+03  0.41261181608E+03  0.00000000000E+00 0.  1.
          1    1    1    2  502    0  0.42836027342E+02 -0.25872348913E+02 -0.14046985627E+04  0.14055896826E+04  0.00000000000E+00 0.  1.
</event>
<event>
 4    1  0.3752836E+003  0.2976674E+02  0.7546771E-02  0.1421635E+00
          2   -1    0    0  502    0  0.00000000000E+00  0.00000000000E+00  0.54641842833E+03  0.54641842833E+03  0.00000000000E+00 0. -1.
          1   -1    0    0  501    0 -0.00000000000E+00 -0.00000000000E+00 -0.68446016237E+03  0.68446016237E+03  0.00000000000E+00 0.  1.
          2    1    1    2  501    0 -0.15545870831E+02  0.25384733283E+02  0.54568896796E+03  0.54650023654E+03  0.00000000000E+00 0. -1.
          1    1    1    2  502    0  0.15545870831E+02 -0.25384733283E+02 -0.68373070200E+03  0.68437835416E+03  0.00000000000E+00 0.  1.
</event>
<event>
 4    1  0.3752836E+003  0.2021603E+02  0.7546771E-02  0.1530759E+00
          2   -1    0    0  502    0  0.00000000000E+00  0.00000000000E+00  0.56065724489E+01  0.56065724489E+01  0.00000000000E+00 0. -1.
          1   -1    0    0  501    0 -0.00000000000E+00 -0.00000000000E+00 -0.14468115010E+03  0.14468115010E+03  0.00000000000E+00 0. -1.
          2    1    1    2  501    0  0.12246501889E+02  0.16084493447E+02 -0.16606340390E+02  0.26162153564E+02  0.00000000000E+00 0. -1.
          1    1    1    2  502    0 -0.12246501889E+02 -0.16084493447E+02 -0.12246823726E+03  0.12412556898E+03  0.00000000000E+00 0. -1.
</event>
<event>
 4    1  0.3752836E+003  0.2425438E+02  0.7546771E-02  0.1477320E+00
          2   -1    0    0  502    0  0.00000000000E+00  0.00000000000E+00  0.35575486953E+03  0.35575486953E+03  0.00000000000E+00 0. -1.
          1   -1    0    0  501    0 -0.00000000000E+00 -0.00000000000E+00 -0.19395920808E+02  0.19395920808E+02  0.00000000000E+00 0. -1.
          2    1    1    2  501    0  0.20863539111E+02 -0.12368812692E+02  0.34758091782E+03  0.34842613166E+03  0.00000000000E+00 0. -1.
          1    1    1    2  502    0 -0.20863539111E+02  0.12368812692E+02 -0.11221969089E+02  0.26724658686E+02  0.00000000000E+00 0. -1.
</event>
<event>
 4    1  0.3752836E+003  0.2472038E+02  0.7546771E-02  0.1471956E+00
          2   -1    0    0  502    0  0.00000000000E+00  0.00000000000E+00  0.13640828649E+04  0.13640828649E+04  0.00000000000E+00 0. -1.
          1   -1    0    0  501    0 -0.00000000000E+00 -0.00000000000E+00 -0.52980731431E+00  0.52980731431E+00  0.00000000000E+00 0.  1.
          2    1    1    2  501    0 -0.99961446720E+01 -0.22609160452E+02  0.94990318995E+03  0.95022479830E+03  0.00000000000E+00 0. -1.
          1    1    1    2  502    0  0.99961446720E+01  0.22609160452E+02  0.41364986769E+03  0.41438787396E+03  0.00000000000E+00 0.  1.
</event>
<event>
 4    1  0.3752836E+003  0.8125819E+02  0.7546771E-02  0.1200956E+00
          2   -1    0    0  502    0  0.00000000000E+00  0.00000000000E+00  0.27189677980E+03  0.27189677980E+03  0.00000000000E+00 0. -1.
          1   -1    0    0  501    0 -0.00000000000E+00 -0.00000000000E+00 -0.16668700175E+03  0.16668700175E+03  0.00000000000E+00 0.  1.
          2    1    1    2  501    0 -0.54053210976E+02  0.60672431016E+02  0.25529400273E+03  0.26791401855E+03  0.00000000000E+00 0. -1.
          1    1    1    2  502    0  0.54053210976E+02 -0.60672431016E+02 -0.15008422469E+03  0.17066976300E+03  0.00000000000E+00 0.  1.
</event>
<event>
 4    1  0.3752836E+003  0.3279863E+02  0.7546771E-02  0.1396737E+00
          2   -1    0    0  502    0  0.00000000000E+00  0.00000000000E+00  0.48562431450E+03  0.48562431450E+03  0.00000000000E+00 0. -1.
          1   -1    0    0  501    0 -0.00000000000E+00 -0.00000000000E+00 -0.24074107182E+01  0.24074107182E+01  0.00000000000E+00 0.  1.
          2    1    1    2  501    0 -0.28887552945E+02  0.15532528230E+02  0.31055983914E+03  0.31228698954E+03  0.00000000000E+00 0. -1.
          1    1    1    2  502    0  0.28887552945E+02 -0.15532528230E+02  0.17265706465E+03  0.17574473569E+03  0.00000000000E+00 0.  1.
</event>
<event>
 4    1  0.3752836E+003  0.4842164E+02  0.7546771E-02  0.1305165E+00
          2   -1    0    0  502    0  0.00000000000E+00  0.00000000000E+00  0.64679317114E+03  0.64679317114E+03  0.00000000000E+00 0.  1.
          1   -1    0    0  501    0 -0.00000000000E+00 -0.00000000000E+00 -0.12329760317E+02  0.12329760317E+02  0.00000000000E+00 0.  1.
          2    1    1    2  501    0 -0.23901985070E+02  0.42111166141E+02  0.59414025309E+03  0.59611013709E+03  0.00000000000E+00 0.  1.
          1    1    1    2  502    0  0.23901985070E+02 -0.42111166141E+02  0.40323157738E+02  0.63012794368E+02  0.00000000000E+00 0.  1.
</event>
<event>
 4    1  0.3752836E+003  0.2063357E+02  0.7546771E-02  0.1524561E+00
          2   -1    0    0  502    0  0.00000000000E+00  0.00000000000E+00  0.10804487768E+04  0.10804487768E+04  0.00000000000E+00 0. -1.
          1   -1    0    0  501    0 -0.00000000000E+00 -0.00000000000E+00 -0.20747633019E+03  0.20747633019E+03  0.00000000000E+00 0.  1.
          2    1    1    2  501    0  0.16493756278E+02  0.12397581580E+02  0.10798369721E+04  0.10800340876E+04  0.00000000000E+00 0. -1.
          1    1    1    2  502    0 -0.16493756278E+02 -0.12397581580E+02 -0.20686452551E+03  0.20789101938E+03  0.00000000000E+00 0.  1.
</event>
<event>
 4    1  0.3752836E+003  0.2137437E+02  0.7546771E-02  0.1513986E+00
          2   -1    0    0  502    0  0.00000000000E+00  0.00000000000E+00  0.30649751156E+03  0.30649751156E+03  0.00000000000E+00 0.  1.
          1   -1    0    0  501    0 -0.00000000000E+00 -0.00000000000E+00 -0.26560239521E+02  0.26560239521E+02  0.00000000000E+00 0.  1.
          2    1    1    2  501    0 -0.19028338888E+02 -0.97358031965E+01  0.30175713549E+03  0.30251319370E+03  0.00000000000E+00 0.  1.
          1    1    1    2  502    0  0.19028338888E+02  0.97358031965E+01 -0.21819863449E+02  0.30544557382E+02  0.00000000000E+00 0.  1.
</event>
<event>
 4    1  0.3752836E+003  0.3175801E+02  0.7546771E-02  0.1404910E+00
          2   -1    0    0  502    0  0.00000000000E+00  0.00000000000E+00  0.22033668316E+04  0.22033668316E+04  0.00000000000E+00 0. -1.
          1   -1    0    0  501    0 -0.00000000000E+00 -0.00000000000E+00 -0.20592600004E+01  0.20592600004E+01  0.00000000000E+00 0. -1.
          2    1    1    2  501    0 -0.25463165650E+01  0.31655769277E+02  0.20731165053E+04  0.20733597411E+04  0.00000000000E+00 0. -1.
          1    1    1    2  502    0  0.25463165650E+01 -0.31655769277E+02  0.12819106636E+03  0.13206635056E+03  0.00000000000E+00 0. -1.
</event>
<event>
 4    1  0.3752836E+003  0.2777848E+02  0.7546771E-02  0.1439941E+00
          2   -1    0    0  502    0  0.00000000000E+00  0.00000000000E+00  0.44330305298E+02  0.44330305298E+02  0.00000000000E+00 0.  1.
          1   -1    0    0  501    0 -0.00000000000E+00 -0.00000000000E+00 -0.76734271679E+03  0.76734271679E+03  0.00000000000E+00 0. -1.
          2    1    1    2  501    0  0.26205784115E+02 -0.92141778190E+01  0.39700824787E+02  0.48454098719E+02  0.00000000000E+00 0.  1.
          1    1    1    2  502    0 -0.26205784115E+02  0.92141778190E+01 -0.76271323628E+03  0.76321892337E+03  0.00000000000E+00 0. -1.
</event>
<event>
 4    1  0.3752836E+003  0.2018160E+02  0.7546771E-02  0.1531277E+00
          2   -1    0    0  502    0  0.00000000000E+00  0.00000000000E+00  0.96579610199E+03  0.96579610199E+03  0.00000000000E+00 0.  1.
          1   -1    0    0  501    0 -0.00000000000E+00 -0.00000000000E+00 -0.15042304481E+02  0.15042304481E+02  0.00000000000E+00 0. -1.
          2    1    1    2  501    0 -0.19858189410E+02  0.35985329720E+01  0.95887260604E+03  0.95908496586E+03  0.00000000000E+00 0.  1.
          1    1    1    2  502    0  0.19858189410E+02 -0.35985329720E+01 -0.81188085348E+01  0.21753440606E+02  0.00000000000E+00 0. -1.
</event>
<event>
 4    1  0.3752836E+003  0.2718258E+02  0.7546771E-02  0.1445783E+00
          2   -1    0    0  502    0  0.00000000000E+00  0.00000000000E+00  0.33663239450E+03  0.33663239450E+03  0.00000000000E+00 0.  1.
          1   -1    0    0  501    0 -0.00000000000E+00 -0.00000000000E+00 -0.40405236427E+03  0.40405236427E+03  0.00000000000E+00 0. -1.
          2    1    1    2  501    0 -0.18571697890E+02 -0.19849052901E+02  0.33562510955E+03  0.33672408144E+03  0.00000000000E+00 0.  1.
          1    1    1    2  502    0  0.18571697890E+02  0.19849052901E+02 -0.40304507932E+03  0.40396067732E+03  0.00000000000E+00 0. -1.
</event>
<event>
 4    1  0.3752836E+003  0.5465411E+02  0.7546771E-02  0.1279164E+00
          2   -1    0    0  502    0  0.00000000000E+00  0.00000000000E+00  0.36335964928E+01  0.36335964928E+01  0.00000000000E+00 0.  1.
          1   -1    0    0  501    0 -0.00000000000E+00 -0.00000000000E+00 -0.91288447044E+03  0.91288447044E+03  0.00000000000E+00 0. -1.
          2    1    1    2  501    0 -0.44547771782E+02  0.31663345285E+02 -0.31008806034E+03  0.31486771281E+03  0.00000000000E+00 0.  1.
          1    1    1    2  502    0  0.44547771782E+02 -0.31663345285E+02 -0.59916281361E+03  0.60165035412E+03  0.00000000000E+00 0. -1.
</event>
<event>
 4    1  0.3752836E+003  0.2384239E+02  0.7546771E-02  0.1482183E+00
          2   -1    0    0  502    0  0.00000000000E+00  0.00000000000E+00  0.17491194757E+04  0.17491194757E+04  0.00000000000E+00 0. -1.
          1   -1    0    0  501    0 -0.00000000000E+00 -0.00000000000E+00 -0.71917645807E+02  0.71917645807E+02  0.00000000000E+00 0.  1.
          2    1    1    2  501    0  0.18931149155E+02  0.14493826044E+02  0.17470598192E+04  0.17472225019E+04  0.00000000000E+00 0. -1.
          1    1    1    2  502    0 -0.18931149155E+02 -0.14493826044E+02 -0.69857989275E+02  0.73814619604E+02  0.00000000000E+00 0.  1.
</event>
<event>
 4    1  0.5056867E+003  0.2495307E+02  0.7546771E-02  0.1469329E+00
          2   -1    0    0  502    0  0.00000000000E+00  0.00000000000E+00  0.12079589982E+04  0.12079589982E+04  0.00000000000E+00 0. -1.
          1   -1    0    0  501    0 -0.00000000000E+00 -0.00000000000E+00 -0.18159924550E+04  0.18159924550E+04  0.00000000000E+00 0.  1.
          2    1    1    2  501    0 -0.16003472094E+02  0.19145359743E+02  0.12077443993E+04  0.12080021481E+04  0.00000000000E+00 0. -1.
          1    1    1    2  502    0  0.16003472094E+02 -0.19145359743E+02 -0.18157778561E+04  0.18159493051E+04  0.00000000000E+00 0.  1.
</event>
<event>
 4    1  0.3752836E+003  0.3906450E+02  0.7546771E-02  0.1354057E+00
          2   -1    0    0  502    0  0.00000000000E+00  0.00000000000E+00  0.38008399860E+03  0.38008399860E+03  0.00000000000E+00 0. -1.
          1   -1    0    0  501    0 -0.00000000000E+00 -0.00000000000E+00 -0.17473752291E+02  0.17473752291E+02  0.00000000000E+00 0. -1.
          2    1    1    2  501    0 -0.38342443545E+02 -0.74761283558E+01  0.35575859527E+03  0.35789693151E+03  0.00000000000E+00 0. -1.
          1    1    1    2  502    0  0.38342443545E+02  0.74761283558E+01  0.68516510355E+01  0.39660819383E+02  0.00000000000E+00 0. -1.
</event>
<event>
 4    1  0.3752836E+003  0.2188578E+02  0.7546771E-02  0.1506984E+00
          2   -1    0    0  502    0  0.00000000000E+00  0.00000000000E+00  0.19807534861E+03  0.19807534861E+03  0.00000000000E+00 0.  1.
          1   -1    0    0  501    0 -0.00000000000E+00 -0.00000000000E+00 -0.28848717942E+01  0.28848717942E+01  0.00000000000E+00 0.  1.
          2    1    1    2  501    0 -0.21689004060E+02 -0.29282055201E+01  0.13800805792E+03  0.13973264235E+03  0.00000000000E+00 0.  1.
          1    1    1    2  502    0  0.21689004060E+02  0.29282055201E+01  0.57182418889E+02  0.61227578057E+02  0.00000000000E+00 0.  1.
</event>
<event>
 4    1  0.3752836E+003  0.2647825E+02  0.7546771E-02  0.1452921E+00
          2   -1    0    0  502    0  0.00000000000E+00  0.00000000000E+00  0.56505011387E+03  0.56505011387E+03  0.00000000000E+00 0. -1.
          1   -1    0    0  501    0 -0.00000000000E+00 -0.00000000000E+00 -0.18061547599E+01  0.18061547599E+01  0.00000000000E+00 0. -1.
          2    1    1    2  501    0  0.26371818844E+02  0.23716471244E+01  0.44019792763E+03  0.44099355214E+03  0.00000000000E+00 0. -1.
          1    1    1    2  502    0 -0.26371818844E+02 -0.23716471244E+01  0.12304603148E+03  0.12586271649E+03  0.00000000000E+00 0. -1.
</event>
<event>
 4    1  0.3752836E+003  0.2628045E+02  0.7546771E-02  0.1454973E+00
          2   -1    0    0  502    0  0.00000000000E+00  0.00000000000E+00  0.17555542752E+01  0.17555542752E+01  0.00000000000E+00 0. -1.
          1   -1    0    0  501    0 -0.00000000000E+00 -0.00000000000E+00 -0.82407775334E+03  0.82407775334E+03  0.00000000000E+00 0.  1.
          2    1    1    2  501    0 -0.22727449696E+02 -0.13195656156E+02 -0.11265947808E+03  0.11568414028E+03  0.00000000000E+00 0. -1.
          1    1    1    2  502    0  0.22727449696E+02  0.13195656156E+02 -0.70966272099E+03  0.71014916734E+03  0.00000000000E+00 0.  1.
</event>
<event>
 4    1  0.3752836E+003  0.2105877E+02  0.7546771E-02  0.1518427E+00
          2   -1    0    0  502    0  0.00000000000E+00  0.00000000000E+00  0.55409642290E+02  0.55409642290E+02  0.00000000000E+00 0.  1.
          1   -1    0    0  501    0 -0.00000000000E+00 -0.00000000000E+00 -0.14540391638E+02  0.14540391638E+02  0.00000000000E+00 0. -1.
          2    1    1    2  501    0  0.10024824705E+02  0.18519580003E+02  0.43885281323E+02  0.48676378980E+02  0.00000000000E+00 0.  1.
          1    1    1    2  502    0 -0.10024824705E+02 -0.18519580003E+02 -0.30160306705E+01  0.21273654948E+02  0.00000000000E+00 0. -1.
</event>
<event>
 4    1  0.3752836E+003  0.2384859E+02  0.7546771E-02  0.1482109E+00
          2   -1    0    0  502    0  0.00000000000E+00  0.00000000000E+00  0.31464790898E+03  0.31464790898E+03  0.00000000000E+00 0. -1.
          1   -1    0    0  501    0 -0.00000000000E+00 -0.00000000000E+00 -0.67627883424E+01  0.67627883424E+01  0.00000000000E+00 0. -1.
          2    1    1    2  501    0  0.23847536617E+02 -0.22456542926E+00  0.29150434868E+03  0.29247827395E+03  0.00000000000E+00 0. -1.
          1    1    1    2  502    0 -0.23847536617E+02  0.22456542926E+00  0.16380771956E+02  0.28932423373E+02  0.00000000000E+00 0. -1.
</event>
<event>
 4    1  0.3752836E+003  0.4430747E+02  0.7546771E-02  0.1324939E+00
          2   -1    0    0  502    0  0.00000000000E+00  0.00000000000E+00  0.12549849707E+03  0.12549849707E+03  0.00000000000E+00 0. -1.
          1   -1    0    0  501    0 -0.00000000000E+00 -0.00000000000E+00 -0.86575061022E+03  0.86575061022E+03  0.00000000000E+00 0. -1.
          2    1    1    2  501    0  0.41178078904E+02 -0.16355964331E+02  0.12100048569E+03  0.12885755425E+03  0.00000000000E+00 0. -1.
          1    1    1    2  502    0 -0.41178078904E+02  0.16355964331E+02 -0.86125259884E+03  0.86239155304E+03  0.00000000000E+00 0. -1.
</event>
<event>
 4    1  0.3752836E+003  0.3316389E+02  0.7546771E-02  0.1393952E+00
          2   -1    0    0  502    0  0.00000000000E+00  0.00000000000E+00  0.80124490092E+01  0.80124490092E+01  0.00000000000E+00 0.  1.
          1   -1    0    0  501    0 -0.00000000000E+00 -0.00000000000E+00 -0.13738146076E+03  0.13738146076E+03  0.00000000000E+00 0.  1.
          2    1    1    2  501    0 -0.31363243103E+02 -0.10779127042E+02 -0.66785429560E+02  0.74566320810E+02  0.00000000000E+00 0.  1.
          1    1    1    2  502    0  0.31363243103E+02  0.10779127042E+02 -0.62583582187E+02  0.70827588954E+02  0.00000000000E+00 0.  1.
</event>
<event>
 4    1  0.3752836E+003  0.2148137E+02  0.7546771E-02  0.1512502E+00
          2   -1    0    0  502    0  0.00000000000E+00  0.00000000000E+00  0.80606696339E+03  0.80606696339E+03  0.00000000000E+00 0. -1.
          1   -1    0    0  501    0 -0.00000000000E+00 -0.00000000000E+00 -0.13313041603E+02  0.13313041603E+02  0.00000000000E+00 0.  1.
          2    1    1    2  501    0 -0.11058659640E+02  0.18416165041E+02  0.79716170292E+03  0.79745108294E+03  0.00000000000E+00 0. -1.
          1    1    1    2  502    0  0.11058659640E+02 -0.18416165041E+02 -0.44077811306E+01  0.21928922051E+02  0.00000000000E+00 0.  1.
</event>
<event>
 4    1  0.3752836E+003  0.3365963E+02  0.7546771E-02  0.1390239E+00
          2   -1    0    0  502    0  0.00000000000E+00  0.00000000000E+00  0.28018261169E+04  0.28018261169E+04  0.00000000000E+00 0.  1.
          1   -1    0    0  501    0 -0.00000000000E+00 -0.00000000000E+00 -0.41727127053E+00  0.41727127053E+00  0.00000000000E+00 0. -1.
          2    1    1    2  501    0  0.28085924093E+02 -0.18551326726E+02  0.16470837756E+04  0.16474276721E+04  0.00000000000E+00 0.  1.
          1    1    1    2  502    0 -0.28085924093E+02  0.18551326726E+02  0.11543250700E+04  0.11548157161E+04  0.00000000000E+00 0. -1.
</event>
<event>
 4    1  0.3752836E+003  0.1143318E+03  0.7546771E-02  0.1141055E+00
          2   -1    0    0  502    0  0.00000000000E+00  0.00000000000E+00  0.17180711425E+03  0.17180711425E+03  0.00000000000E+00 0.  1.
          1   -1    0    0  501    0 -0.00000000000E+00 -0.00000000000E+00 -0.75454839981E+03  0.75454839981E+03  0.00000000000E+00 0. -1.
          2    1    1    2  501    0 -0.10949336375E+03 -0.32908412028E+02  0.14783478544E+03  0.18688735665E+03  0.00000000000E+00 0.  1.
          1    1    1    2  502    0  0.10949336375E+03  0.32908412028E+02 -0.73057607101E+03  0.73946815741E+03  0.00000000000E+00 0. -1.
</event>
<event>
 4    1  0.3752836E+003  0.3924550E+02  0.7546771E-02  0.1352965E+00
          2   -1    0    0  502    0  0.00000000000E+00  0.00000000000E+00  0.14581444168E+03  0.14581444168E+03  0.00000000000E+00 0.  1.
          1   -1    0    0  501    0 -0.00000000000E+00 -0.00000000000E+00 -0.67083081345E+02  0.67083081345E+02  0.00000000000E+00 0.  1.
          2    1    1    2  501    0  0.10837049027E+02  0.37719592567E+02  0.13707505972E+03  0.14258254203E+03  0.00000000000E+00 0.  1.
          1    1    1    2  502    0 -0.10837049027E+02 -0.37719592567E+02 -0.58343699382E+02  0.70314980997E+02  0.00000000000E+00 0.  1.
</event>
<event>
 4    1  0.3752836E+003  0.3020092E+02  0.7546771E-02  0.1417858E+00
          2   -1    0    0  502    0  0.00000000000E+00  0.00000000000E+00  0.53821231513E+00  0.53821231513E+00  0.00000000000E+00 0. -1.
          1   -1    0    0  501    0 -0.00000000000E+00 -0.00000000000E+00 -0.17571061150E+04  0.17571061150E+04  0.00000000000E+00 0.  1.
          2    1    1    2  501    0  0.28419242085E+02 -0.10219706481E+02 -0.71263160155E+03  0.71327126344E+03  0.00000000000E+00 0. -1.
          1    1    1    2  502    0 -0.28419242085E+02  0.10219706481E+02 -0.10439363012E+04  0.10443730639E+04  0.00000000000E+00 0.  1.
</event>
<event>
 4    1  0.3752836E+003  0.2194603E+02  0.7546771E-02  0.1506175E+00
          2   -1    0    0  502    0  0.00000000000E+00  0.00000000000E+00  0.31276804814E+01  0.31276804814E+01  0.00000000000E+00 0.  1.
          1   -1    0    0  501    0 -0.00000000000E+00 -0.00000000000E+00 -0.26107670173E+03  0.26107670173E+03  0.00000000000E+00 0.  1.
          2    1    1    2  501    0 -0.54310121684E+01 -0.21263398787E+02 -0.44369516376E+02  0.49500323278E+02  0.00000000000E+00 0.  1.
          1    1    1    2  502    0  0.54310121684E+01  0.21263398787E+02 -0.21357950487E+03  0.21470405893E+03  0.00000000000E+00 0.  1.
</event>
<event>
 4    1  0.3752836E+003  0.5910095E+02  0.7546771E-02  0.1262918E+00
          2   -1    0    0  502    0  0.00000000000E+00  0.00000000000E+00  0.11163899882E+04  0.11163899882E+04  0.00000000000E+00 0. -1.
          1   -1    0    0  501    0 -0.00000000000E+00 -0.00000000000E+00 -0.51653419086E+01  0.51653419086E+01  0.00000000000E+00 0. -1.
          2    1    1    2  501    0 -0.32884566089E+01 -0.59009393554E+02  0.90773299822E+03  0.90965494476E+03  0.00000000000E+00 0. -1.
          1    1    1    2  502    0  0.32884566089E+01  0.59009393554E+02  0.20349164805E+03  0.21190038533E+03  0.00000000000E+00 0. -1.
</event>
<event>
 4    1  0.3752836E+003  0.4834796E+02  0.7546771E-02  0.1305498E+00
          2   -1    0    0  502    0  0.00000000000E+00  0.00000000000E+00  0.15791066032E+04  0.15791066032E+04  0.00000000000E+00 0. -1.
          1   -1    0    0  501    0 -0.00000000000E+00 -0.00000000000E+00 -0.34816331423E+02  0.34816331423E+02  0.00000000000E+00 0.  1.
          2    1    1    2  501    0  0.23544975325E+02 -0.42227475994E+02  0.15617655159E+04  0.15625136966E+04  0.00000000000E+00 0. -1.
          1    1    1    2  502    0 -0.23544975325E+02  0.42227475994E+02 -0.17475244116E+02  0.51409237971E+02  0.00000000000E+00 0.  1.
</event>
<event>
 4    1  0.3752836E+003  0.2167181E+02  0.7546771E-02  0.1509885E+00
          2   -1    0    0  502    0  0.00000000000E+00  0.00000000000E+00  0.42816244624E+01  0.42816244624E+01  0.00000000000E+00 0.  1.
          1   -1    0    0  501    0 -0.00000000000E+00 -0.00000000000E+00 -0.39351828868E+03  0.39351828868E+03  0.00000000000E+00 0.  1.
          2    1    1    2  501    0  0.20846949855E+02 -0.59221577873E+01 -0.25699827162E+02  0.33617679683E+02  0.00000000000E+00 0.  1.
          1    1    1    2  502    0 -0.20846949855E+02  0.59221577873E+01 -0.36353683706E+03  0.36418223346E+03  0.00000000000E+00 0.  1.
</event>
<event>
 4    1  0.3752836E+003  0.2723108E+02  0.7546771E-02  0.1445301E+00
          2   -1    0    0  502    0  0.00000000000E+00  0.00000000000E+00  0.27601143255E+03  0.27601143255E+03  0.00000000000E+00 0.  1.
          1   -1    0    0  501    0 -0.00000000000E+00 -0.00000000000E+00 -0.16271846384E+02  0.16271846384E+02  0.00000000000E+00 0.  1.
          2    1    1    2  501    0  0.14907268018E+02  0.22788270714E+02  0.26340301863E+03  0.26480687707E+03  0.00000000000E+00 0.  1.
          1    1    1    2  502    0 -0.14907268018E+02 -0.22788270714E+02 -0.36634324629E+01  0.27476401862E+02  0.00000000000E+00 0.  1.
</event>
<event>
 4    1  0.3752836E+003  0.5599839E+02  0.7546771E-02  0.1274070E+00
          2   -1    0    0  502    0  0.00000000000E+00  0.00000000000E+00  0.14189984295E+04  0.14189984295E+04  0.00000000000E+00 0. -1.
          1   -1    0    0  501    0 -0.00000000000E+00 -0.00000000000E+00 -0.40647056312E+01  0.40647056312E+01  0.00000000000E+00 0.  1.
          2    1    1    2  501    0  0.50778098664E+02 -0.23609424649E+02  0.11881189556E+04  0.11894378811E+04  0.00000000000E+00 0. -1.
          1    1    1    2  502    0 -0.50778098664E+02  0.23609424649E+02  0.22681476823E+03  0.23362525404E+03  0.00000000000E+00 0.  1.
</event>
<event>
 4    1  0.3752836E+003  0.5498585E+02  0.7546771E-02  0.1277891E+00
          2   -1    0    0  502    0  0.00000000000E+00  0.00000000000E+00  0.64094290264E+03  0.64094290264E+03  0.00000000000E+00 0.  1.
          1   -1    0    0  501    0 -0.00000000000E+00 -0.00000000000E+00 -0.14789300438E+04  0.14789300438E+04  0.00000000000E+00 0. -1.
          2    1    1    2  501    0 -0.40606035192E+02 -0.37075510612E+02  0.63925117106E+03  0.64161164522E+03  0.00000000000E+00 0.  1.
          1    1    1    2  502    0  0.40606035192E+02  0.37075510612E+02 -0.14772383122E+04  0.14782613012E+04  0.00000000000E+00 0. -1.
</event>
<event>
 4    1  0.3752836E+003  0.2457230E+02  0.7546771E-02  0.1473645E+00
          2   -1    0    0  502    0  0.00000000000E+00  0.00000000000E+00  0.12481277166E+04  0.12481277166E+04  0.00000000000E+00 0.  1.
          1   -1    0    0  501    0 -0.00000000000E+00 -0.00000000000E+00 -0.11578508554E+01  0.11578508554E+01  0.00000000000E+00 0. -1.
          2    1    1    2  501    0 -0.19682797141E+02 -0.14710037266E+02  0.11000955887E+04  0.11003699841E+04  0.00000000000E+00 0.  1.
          1    1    1    2  502    0  0.19682797141E+02  0.14710037266E+02  0.14687427711E+03  0.14891558339E+03  0.00000000000E+00 0. -1.
</event>
<event>
 4    1  0.3752836E+003  0.2184722E+02  0.7546771E-02  0.1507504E+00
          2   -1    0    0  502    0  0.00000000000E+00  0.00000000000E+00  0.22910861219E+01  0.22910861219E+01  0.00000000000E+00 0.  1.
          1   -1    0    0  501    0 -0.00000000000E+00 -0.00000000000E+00 -0.11219360380E+04  0.11219360380E+04  0.00000000000E+00 0. -1.
          2    1    1    2  501    0  0.13819628530E+02 -0.16920954940E+02 -0.52575330716E+02  0.56933876108E+02  0.00000000000E+00 0.  1.
          1    1    1    2  502    0 -0.13819628530E+02  0.16920954940E+02 -0.10670696212E+04  0.10672932480E+04  0.00000000000E+00 0. -1.
</event>
<event>
 4    1  0.3752836E+003  0.2491235E+02  0.7546771E-02  0.1469786E+00
          2   -1    0    0  502    0  0.00000000000E+00  0.00000000000E+00  0.25864459146E+03  0.25864459146E+03  0.00000000000E+00 0. -1.
          1   -1    0    0  501    0 -0.00000000000E+00 -0.00000000000E+00 -0.29602050822E+01  0.29602050822E+01  0.00000000000E+00 0. -1.
          2    1    1    2  501    0  0.24364238072E+02 -0.51970201554E+01  0.18476822952E+03  0.18644013450E+03  0.00000000000E+00 0. -1.
          1    1    1    2  502    0 -0.24364238072E+02  0.51970201554E+01  0.70916156866E+02  0.75164662043E+02  0.00000000000E+00 0. -1.
</event>
<event>
 4    1  0.3752836E+003  0.2293979E+02  0.7546771E-02  0.1493256E+00
          2   -1    0    0  502    0  0.00000000000E+00  0.00000000000E+00  0.21354404915E+01  0.21354404915E+01  0.00000000000E+00 0. -1.
          1   -1    0    0  501    0 -0.00000000000E+00 -0.00000000000E+00 -0.85347757495E+03  0.85347757495E+03  0.00000000000E+00 0. -1.
          2    1    1    2  501    0  0.22263190119E+02  0.55303207109E+01 -0.64873902847E+02  0.68810299752E+02  0.00000000000E+00 0. -1.
          1    1    1    2  502    0 -0.22263190119E+02 -0.55303207109E+01 -0.78646823161E+03  0.78680271569E+03  0.00000000000E+00 0. -1.
</event>
<event>
 4    1  0.3752836E+003  0.5381628E+02  0.7546771E-02  0.1282423E+00
          2   -1    0    0  502    0  0.00000000000E+00  0.00000000000E+00  0.13123904291E+02  0.13123904291E+02  0.00000000000E+00 0.  1.
          1   -1    0    0  501    0 -0.00000000000E+00 -0.00000000000E+00 -0.23419525273E+03  0.23419525273E+03  0.00000000000E+00 0.  1.
          2    1    1    2  501    0  0.53751756456E+02  0.26345960090E+01 -0.80829992955E+02  0.97106540353E+02  0.00000000000E+00 0.  1.
          1    1    1    2  502    0 -0.53751756456E+02 -0.26345960090E+01 -0.14024135549E+03  0.15021261667E+03  0.00000000000E+00 0.  1.
</event>
<event>
 4    1  0.3752836E+003  0.2304229E+02  0.7546771E-02  0.1491968E+00
          2   -1    0    0  502    0  0.00000000000E+00  0.00000000000E+00  0.19854732531E+01  0.19854732531E+01  0.00000000000E+00 0.  1.
          1   -1    0    0  501    0 -0.00000000000E+00 -0.00000000000E+00 -0.94215162671E+03  0.94215162671E+03  0.00000000000E+00 0.  1.
          2    1    1    2  501    0 -0.57654572501E+01  0.22309339233E+02 -0.70587918298E+02  0.74253628356E+02  0.00000000000E+00 0.  1.
          1    1    1    2  502    0  0.57654572501E+01 -0.22309339233E+02 -0.86957823515E+03  0.86988347160E+03  0.00000000000E+00 0.  1.
</event>
<event>
 4    1  0.3752836E+003  0.3069783E+02  0.7546771E-02  0.1413627E+00
          2   -1    0    0  502    0  0.00000000000E+00  0.00000000000E+00  0.58387473346E+02  0.58387473346E+02  0.00000000000E+00 0. -1.
          1   -1    0    0  501    0 -0.00000000000E+00 -0.00000000000E+00 -0.21016373097E+03  0.21016373097E+03  0.00000000000E+00 0.  1.
          2    1    1    2  501    0 -0.27506911703E+02 -0.13628164350E+02  0.53128583555E+02  0.61359623904E+02  0.00000000000E+00 0. -1.
          1    1    1    2  502    0  0.27506911703E+02  0.13628164350E+02 -0.20490484118E+03  0.20719158041E+03  0.00000000000E+00 0.  1.
</event>
<event>
 4    1  0.3752836E+003  0.2519424E+02  0.7546771E-02  0.1466642E+00
          2   -1    0    0  502    0  0.00000000000E+00  0.00000000000E+00  0.17072458463E+04  0.17072458463E+04  0.00000000000E+00 0.  1.
          1   -1    0    0  501    0 -0.00000000000E+00 -0.00000000000E+00 -0.43211569593E+00  0.43211569593E+00  0.00000000000E+00 0. -1.
          2    1    1    2  501    0  0.13357994305E+02  0.21361495379E+02  0.11724141768E+04  0.11726848475E+04  0.00000000000E+00 0.  1.
          1    1    1    2  502    0 -0.13357994305E+02 -0.21361495379E+02  0.53439955380E+03  0.53499311454E+03  0.00000000000E+00 0. -1.
</event>
<event>
 4    1  0.3752836E+003  0.2131588E+02  0.7546771E-02  0.1514802E+00
          2   -1    0    0  502    0  0.00000000000E+00  0.00000000000E+00  0.21189756109E+02  0.21189756109E+02  0.00000000000E+00 0.  1.
          1   -1    0    0  501    0 -0.00000000000E+00 -0.00000000000E+00 -0.61083157604E+02  0.61083157604E+02  0.00000000000E+00 0. -1.
          2    1    1    2  501    0  0.14870286872E+02 -0.15272244952E+02  0.13191973720E+02  0.25067809401E+02  0.00000000000E+00 0.  1.
          1    1    1    2  502    0 -0.14870286872E+02  0.15272244952E+02 -0.53085375215E+02  0.57205104311E+02  0.00000000000E+00 0. -1.
</event>
<event>
 4    1  0.3752836E+003  0.4442147E+02  0.7546771E-02  0.1324358E+00
          2   -1    0    0  502    0  0.00000000000E+00  0.00000000000E+00  0.11446955036E+03  0.11446955036E+03  0.00000000000E+00 0. -1.
          1   -1    0    0  501    0 -0.00000000000E+00 -0.00000000000E+00 -0.31283149516E+03  0.31283149516E+03  0.00000000000E+00 0. -1.
          2    1    1    2  501    0  0.33302156302E+02 -0.29397848427E+02  0.10849961231E+03  0.11724091853E+03  0.00000000000E+00 0. -1.
          1    1    1    2  502    0 -0.33302156302E+02  0.29397848427E+02 -0.30686155712E+03  0.31006012698E+03  0.00000000000E+00 0. -1.
</event>
<event>
 4    1  0.3752836E+003  0.5482802E+02  0.7546771E-02  0.1278495E+00
          2   -1    0    0  502    0  0.00000000000E+00  0.00000000000E+00  0.19680689205E+04  0.19680689205E+04  0.00000000000E+00 0. -1.
          1   -1    0    0  501    0 -0.00000000000E+00 -0.00000000000E+00 -0.53572372629E+02  0.53572372629E+02  0.00000000000E+00 0. -1.
          2    1    1    2  501    0 -0.39663016744E+02 -0.37854416598E+02  0.19535545802E+04  0.19543238241E+04  0.00000000000E+00 0. -1.
          1    1    1    2  502    0  0.39663016744E+02  0.37854416598E+02 -0.39058032279E+02  0.67317469046E+02  0.00000000000E+00 0. -1.
</event>
<event>
 4    1  0.3752836E+003  0.2346175E+02  0.7546771E-02  0.1486780E+00
          2   -1    0    0  502    0  0.00000000000E+00  0.00000000000E+00  0.65794248447E+03  0.65794248447E+03  0.00000000000E+00 0.  1.
          1   -1    0    0  501    0 -0.00000000000E+00 -0.00000000000E+00 -0.37229308097E+01  0.37229308097E+01  0.00000000000E+00 0. -1.
          2    1    1    2  501    0 -0.23421322801E+02  0.13766838973E+01  0.61840733491E+03  0.61885223236E+03  0.00000000000E+00 0.  1.
          1    1    1    2  502    0  0.23421322801E+02 -0.13766838973E+01  0.35812218748E+02  0.42813182922E+02  0.00000000000E+00 0. -1.
</event>
<event>
 4    1  0.3752836E+003  0.2581110E+02  0.7546771E-02  0.1459931E+00
          2   -1    0    0  502    0  0.00000000000E+00  0.00000000000E+00  0.17649494524E+02  0.17649494524E+02  0.00000000000E+00 0. -1.
          1   -1    0    0  501    0 -0.00000000000E+00 -0.00000000000E+00 -0.85054115702E+02  0.85054115702E+02  0.00000000000E+00 0.  1.
          2    1    1    2  501    0 -0.28745089855E+01  0.25650539989E+02  0.45953216182E+01  0.26216978934E+02  0.00000000000E+00 0. -1.
          1    1    1    2  502    0  0.28745089855E+01 -0.25650539989E+02 -0.71999942796E+02  0.76486631292E+02  0.00000000000E+00 0.  1.
</event>
<event>
 4    1  0.3752836E+003  0.2529368E+02  0.7546771E-02  0.1465545E+00
          2   -1    0    0  502    0  0.00000000000E+00  0.00000000000E+00  0.32483700459E+02  0.32483700459E+02  0.00000000000E+00 0. -1.
          1   -1    0    0  501    0 -0.00000000000E+00 -0.00000000000E+00 -0.17467284660E+03  0.17467284660E+03  0.00000000000E+00 0.  1.
          2    1    1    2  501    0 -0.15864194863E+02  0.19700185704E+02  0.26469658494E+02  0.36611648642E+02  0.00000000000E+00 0. -1.
          1    1    1    2  502    0  0.15864194863E+02 -0.19700185704E+02 -0.16865880464E+03  0.17054489842E+03  0.00000000000E+00 0.  1.
</event>
<event>
 4    1  0.3752836E+003  0.4610235E+02  0.7546771E-02  0.1316017E+00
          2   -1    0    0  502    0  0.00000000000E+00  0.00000000000E+00  0.47783054732E+02  0.47783054732E+02  0.00000000000E+00 0. -1.
          1   -1    0    0  501    0 -0.00000000000E+00 -0.00000000000E+00 -0.12640726030E+04  0.12640726030E+04  0.00000000000E+00 0. -1.
          2    1    1    2  501    0 -0.43918306827E+02 -0.14021730654E+02  0.36139161727E+02  0.58578712989E+02  0.00000000000E+00 0. -1.
          1    1    1    2  502    0  0.43918306827E+02  0.14021730654E+02 -0.12524287100E+04  0.12532769448E+04  0.00000000000E+00 0. -1.
</event>
<event>
 4    1  0.3752836E+003  0.2466213E+02  0.7546771E-02  0.1472619E+00
          2   -1    0    0  502    0  0.00000000000E+00  0.00000000000E+00  0.19378736417E+04  0.19378736417E+04  0.00000000000E+00 0. -1.
          1   -1    0    0  501    0 -0.00000000000E+00 -0.00000000000E+00 -0.42025376903E+00  0.42025376903E+00  0.00000000000E+00 0. -1.
          2    1    1    2  501    0 -0.23738697490E+02 -0.66854205173E+01  0.14563588741E+04  0.14565676746E+04  0.00000000000E+00 0. -1.
          1    1    1    2  502    0  0.23738697490E+02  0.66854205173E+01  0.48109451382E+03  0.48172622083E+03  0.00000000000E+00 0. -1.
</event>
<event>
 4    1  0.3752836E+003  0.2675828E+02  0.7546771E-02  0.1450051E+00
          2   -1    0    0  502    0  0.00000000000E+00  0.00000000000E+00  0.39426052000E+00  0.39426052000E+00  0.00000000000E+00 0. -1.
          1   -1    0    0  501    0 -0.00000000000E+00 -0.00000000000E+00 -0.23275239818E+04  0.23275239818E+04  0.00000000000E+00 0. -1.
          2    1    1    2  501    0 -0.43440798000E-01  0.26758242250E+02 -0.61794124386E+03  0.61852032002E+03  0.00000000000E+00 0. -1.
          1    1    1    2  502    0  0.43440798000E-01 -0.26758242250E+02 -0.17091884774E+04  0.17093979223E+04  0.00000000000E+00 0. -1.
</event>
<event>
 4    1  0.3752836E+003  0.4088198E+02  0.7546771E-02  0.1343394E+00
          2   -1    0    0  502    0  0.00000000000E+00  0.00000000000E+00  0.19961100115E+04  0.19961100115E+04  0.00000000000E+00 0. -1.
          1   -1    0    0  501    0 -0.00000000000E+00 -0.00000000000E+00 -0.26753045531E+02  0.26753045531E+02  0.00000000000E+00 0. -1.
          2    1    1    2  501    0  0.40785009663E+02 -0.28141770689E+01  0.19801566811E+04  0.19805786574E+04  0.00000000000E+00 0. -1.
          1    1    1    2  502    0 -0.40785009663E+02  0.28141770689E+01 -0.10799715094E+02  0.42284399628E+02  0.00000000000E+00 0. -1.
</event>
<event>
 4    1  0.3752836E+003  0.3501486E+02  0.7546771E-02  0.1380459E+00
          2   -1    0    0  502    0  0.00000000000E+00  0.00000000000E+00  0.13151578504E+03  0.13151578504E+03  0.00000000000E+00 0. -1.
          1   -1    0    0  501    0 -0.00000000000E+00 -0.00000000000E+00 -0.66520817694E+02  0.66520817694E+02  0.00000000000E+00 0.  1.
          2    1    1    2  501    0  0.13980326122E+02  0.32102816264E+02  0.12431568052E+03  0.12915273421E+03  0.00000000000E+00 0. -1.
          1    1    1    2  502    0 -0.13980326122E+02 -0.32102816264E+02 -0.59320713177E+02  0.68883868521E+02  0.00000000000E+00 0.  1.
</event>
<event>
 4    1  0.3752836E+003  0.3192736E+02  0.7546771E-02  0.1403555E+00
          2   -1    0    0  502    0  0.00000000000E+00  0.00000000000E+00  0.25447667434E+03  0.25447667434E+03  0.00000000000E+00 0.  1.
          1   -1    0    0  501    0 -0.00000000000E+00 -0.00000000000E+00 -0.55246450190E+01  0.55246450190E+01  0.00000000000E+00 0.  1.
          2    1    1    2  501    0  0.31619823544E+02 -0.44207790488E+01  0.19264153897E+03  0.19526935004E+03  0.00000000000E+00 0.  1.
          1    1    1    2  502    0 -0.31619823544E+02  0.44207790488E+01  0.56310490353E+02  0.64731969321E+02  0.00000000000E+00 0.  1.
</event>
<event>
 4    1  0.3873005E+003  0.2330981E+02  0.7546771E-02  0.1488644E+00
          2   -1    0    0  502    0  0.00000000000E+00  0.00000000000E+00  0.14523426658E+04  0.14523426658E+04  0.00000000000E+00 0. -1.
          1   -1    0    0  501    0 -0.00000000000E+00 -0.00000000000E+00 -0.49348486928E+03  0.49348486928E+03  0.00000000000E+00 0. -1.
          2    1    1    2  501    0 -0.40449038048E+01  0.22956174645E+02  0.14519738061E+04  0.14521609005E+04  0.00000000000E+00 0. -1.
          1    1    1    2  502    0  0.40449038048E+01 -0.22956174645E+02 -0.49311600961E+03  0.49366663461E+03  0.00000000000E+00 0. -1.
</event>
<event>
 4    1  0.3752836E+003  0.2539683E+02  0.7546771E-02  0.1464413E+00
          2   -1    0    0  502    0  0.00000000000E+00  0.00000000000E+00  0.75731877898E+00  0.75731877898E+00  0.00000000000E+00 0.  1.
          1   -1    0    0  501    0 -0.00000000000E+00 -0.00000000000E+00 -0.15255983291E+04  0.15255983291E+04  0.00000000000E+00 0. -1.
          2    1    1    2  501    0 -0.24990646817E+02  0.45239993452E+01 -0.25518828610E+03  0.25644894299E+03  0.00000000000E+00 0.  1.
          1    1    1    2  502    0  0.24990646817E+02 -0.45239993452E+01 -0.12696527242E+04  0.12699067048E+04  0.00000000000E+00 0. -1.
</event>
<event>
 4    1  0.3752836E+003  0.2044462E+02  0.7546771E-02  0.1527344E+00
          2   -1    0    0  502    0  0.00000000000E+00  0.00000000000E+00  0.13622904152E+04  0.13622904152E+04  0.00000000000E+00 0.  1.
          1   -1    0    0  501    0 -0.00000000000E+00 -0.00000000000E+00 -0.64040921601E+02  0.64040921601E+02  0.00000000000E+00 0.  1.
          2    1    1    2  501    0  0.20285013512E+02  0.25496602236E+01  0.13605799572E+04  0.13607335530E+04  0.00000000000E+00 0.  1.
          1    1    1    2  502    0 -0.20285013512E+02 -0.25496602236E+01 -0.62330463585E+02  0.65597783737E+02  0.00000000000E+00 0.  1.
</event>
<event>
 4    1  0.3752836E+003  0.2393269E+02  0.7546771E-02  0.1481107E+00
          2   -1    0    0  502    0  0.00000000000E+00  0.00000000000E+00  0.15330832424E+04  0.15330832424E+04  0.00000000000E+00 0.  1.
          1   -1    0    0  501    0 -0.00000000000E+00 -0.00000000000E+00 -0.53902067120E+00  0.53902067120E+00  0.00000000000E+00 0.  1.
          2    1    1    2  501    0  0.45235765704E+01  0.23501298615E+02  0.11910566495E+04  0.11912970730E+04  0.00000000000E+00 0.  1.
          1    1    1    2  502    0 -0.45235765704E+01 -0.23501298615E+02  0.34148757219E+03  0.34232519005E+03  0.00000000000E+00 0.  1.
</event>
<event>
 4    1  0.3752836E+003  0.2213819E+02  0.7546771E-02  0.1503613E+00
          2   -1    0    0  502    0  0.00000000000E+00  0.00000000000E+00  0.16005445387E+03  0.16005445387E+03  0.00000000000E+00 0. -1.
          1   -1    0    0  501    0 -0.00000000000E+00 -0.00000000000E+00 -0.16677168716E+02  0.16677168716E+02  0.00000000000E+00 0.  1.
          2    1    1    2  501    0  0.21538920972E+02 -0.51161063225E+01  0.15153099677E+03  0.15313961814E+03  0.00000000000E+00 0. -1.
          1    1    1    2  502    0 -0.21538920972E+02  0.51161063225E+01 -0.81537116218E+01  0.23592004445E+02  0.00000000000E+00 0.  1.
</event>
<event>
 4    1  0.3752836E+003  0.2647319E+02  0.7546771E-02  0.1452973E+00
          2   -1    0    0  502    0  0.00000000000E+00  0.00000000000E+00  0.11806685947E+04  0.11806685947E+04  0.00000000000E+00 0.  1.
          1   -1    0    0  501    0 -0.00000000000E+00 -0.00000000000E+00 -0.15689049298E+01  0.15689049298E+01  0.00000000000E+00 0.  1.
          2    1    1    2  501    0  0.25423599775E+02  0.73803905092E+01  0.10556180900E+04  0.10559499901E+04  0.00000000000E+00 0.  1.
          1    1    1    2  502    0 -0.25423599775E+02 -0.73803905092E+01  0.12348159979E+03  0.12628750958E+03  0.00000000000E+00 0.  1.
</event>
<event>
 4    1  0.3752836E+003  0.2030526E+02  0.7546771E-02  0.1529419E+00
          2   -1    0    0  502    0  0.00000000000E+00  0.00000000000E+00  0.53971892059E+02  0.53971892059E+02  0.00000000000E+00 0. -1.
          1   -1    0    0  501    0 -0.00000000000E+00 -0.00000000000E+00 -0.15042986646E+04  0.15042986646E+04  0.00000000000E+00 0.  1.
          2    1    1    2  501    0  0.11479098810E+02  0.16749146739E+02  0.51991045966E+02  0.55815521914E+02  0.00000000000E+00 0. -1.
          1    1    1    2  502    0 -0.11479098810E+02 -0.16749146739E+02 -0.15023178186E+04  0.15024550348E+04  0.00000000000E+00 0.  1.
</event>
<event>
 4    1  0.3752836E+003  0.2008010E+02  0.7546771E-02  0.1532815E+00
          2   -1    0    0  502    0  0.00000000000E+00  0.00000000000E+00  0.20266496949E+01  0.20266496949E+01  0.00000000000E+00 0.  1.
          1   -1    0    0  501    0 -0.00000000000E+00 -0.00000000000E+00 -0.59390319007E+03  0.59390319007E+03  0.00000000000E+00 0. -1.
          2    1    1    2  501    0 -0.90764765796E+01  0.17911674978E+02 -0.52954204029E+02  0.56633543523E+02  0.00000000000E+00 0.  1.
          1    1    1    2  502    0  0.90764765796E+01 -0.17911674978E+02 -0.53892233634E+03  0.53929629624E+03  0.00000000000E+00 0. -1.
</event>
<event>
 4    1  0.3752836E+003  0.2028036E+02  0.7546771E-02  0.1529792E+00
          2   -1    0    0  502    0  0.00000000000E+00  0.00000000000E+00  0.14317184591E+04  0.14317184591E+04  0.00000000000E+00 0.  1.
          1   -1    0    0  501    0 -0.00000000000E+00 -0.00000000000E+00 -0.40646775851E+00  0.40646775851E+00  0.00000000000E+00 0.  1.
          2    1    1    2  501    0 -0.72505479618E+01 -0.18939969531E+02  0.11034203815E+04  0.11036067376E+04  0.00000000000E+00 0.  1.
          1    1    1    2  502    0  0.72505479618E+01  0.18939969531E+02  0.32789160987E+03  0.32851818932E+03  0.00000000000E+00 0.  1.
</event>
<event>
 4    1  0.3752836E+003  0.2030172E+02  0.7546771E-02  0.1529472E+00
          2   -1    0    0  502    0  0.00000000000E+00  0.00000000000E+00  0.16451917758E+04  0.16451917758E+04  0.00000000000E+00 0.  1.
          1   -1    0    0  501    0 -0.00000000000E+00 -0.00000000000E+00 -0.71920553528E+00  0.71920553528E+00  0.00000000000E+00 0.  1.
          2    1    1    2  501    0 -0.13231705410E+02  0.15397459401E+02  0.14865738743E+04  0.14867124953E+04  0.00000000000E+00 0.  1.
          1    1    1    2  502    0  0.13231705410E+02 -0.15397459401E+02  0.15789869592E+03  0.15919848604E+03  0.00000000000E+00 0.  1.
</event>
<event>
 4    1  0.3752836E+003  0.2922207E+02  0.7546771E-02  0.1426479E+00
          2   -1    0    0  502    0  0.00000000000E+00  0.00000000000E+00  0.40696372518E+03  0.40696372518E+03  0.00000000000E+00 0. -1.
          1   -1    0    0  501    0 -0.00000000000E+00 -0.00000000000E+00 -0.11758623356E+02  0.11758623356E+02  0.00000000000E+00 0. -1.
          2    1    1    2  501    0  0.49175082439E+01 -0.28805335682E+02  0.38736657814E+03  0.38846723815E+03  0.00000000000E+00 0. -1.
          1    1    1    2  502    0 -0.49175082439E+01  0.28805335682E+02  0.78385236779E+01  0.30255110387E+02  0.00000000000E+00 0. -1.
</event>
<event>
 4    1  0.3752836E+003  0.2379608E+02  0.7546771E-02  0.1482737E+00
          2   -1    0    0  502    0  0.00000000000E+00  0.00000000000E+00  0.17508293294E+02  0.17508293294E+02  0.00000000000E+00 0.  1.
          1   -1    0    0  501    0 -0.00000000000E+00 -0.00000000000E+00 -0.72718733482E+02  0.72718733482E+02  0.00000000000E+00 0.  1.
          2    1    1    2  501    0 -0.21099618803E+02  0.11002704310E+02  0.60110116166E+01  0.24543546533E+02  0.00000000000E+00 0.  1.
          1    1    1    2  502    0  0.21099618803E+02 -0.11002704310E+02 -0.61221451804E+02  0.65683480243E+02  0.00000000000E+00 0.  1.
</event>
<event>
 4    1  0.3752836E+003  0.2526711E+02  0.7546771E-02  0.1465837E+00
          2   -1    0    0  502    0  0.00000000000E+00  0.00000000000E+00  0.12728513477E+03  0.12728513477E+03  0.00000000000E+00 0. -1.
          1   -1    0    0  501    0 -0.00000000000E+00 -0.00000000000E+00 -0.47590015604E+02  0.47590015604E+02  0.00000000000E+00 0. -1.
          2    1    1    2  501    0  0.22882189740E+02  0.10715972188E+02  0.12254916009E+03  0.12512682889E+03  0.00000000000E+00 0. -1.
          1    1    1    2  502    0 -0.22882189740E+02 -0.10715972188E+02 -0.42854040927E+02  0.49748321489E+02  0.00000000000E+00 0. -1.
</event>
<event>
 4    1  0.3752836E+003  0.2070434E+02  0.7546771E-02  0.1523528E+00
          2   -1    0    0  502    0  0.00000000000E+00  0.00000000000E+00  0.42273297457E+03  0.42273297457E+03  0.00000000000E+00 0.  1.
          1   -1    0    0  501    0 -0.00000000000E+00 -0.00000000000E+00 -0.63302173451E+01  0.63302173451E+01  0.00000000000E+00 0. -1.
          2    1    1    2  501    0  0.11500429683E+02  0.17216551352E+02  0.40480048970E+03  0.40532962634E+03  0.00000000000E+00 0.  1.
          1    1    1    2  502    0 -0.11500429683E+02 -0.17216551352E+02  0.11602267520E+02  0.23733565576E+02  0.00000000000E+00 0. -1.
</event>
<event>
 4    1  0.3752836E+003  0.2466282E+02  0.7546771E-02  0.1472611E+00
          2   -1    0    0  502    0  0.00000000000E+00  0.00000000000E+00  0.10830950535E+01  0.10830950535E+01  0.00000000000E+00 0. -1.
          1   -1    0    0  501    0 -0.00000000000E+00 -0.00000000000E+00 -0.10163848747E+04  0.10163848747E+04  0.00000000000E+00 0. -1.
          2    1    1    2  501    0 -0.96209780558E+01  0.22708843309E+02 -0.16734482799E+03  0.16915243491E+03  0.00000000000E+00 0. -1.
          1    1    1    2  502    0  0.96209780558E+01 -0.22708843309E+02 -0.84795695163E+03  0.84831553481E+03  0.00000000000E+00 0. -1.
</event>
<event>
 4    1  0.3752836E+003  0.2420324E+02  0.7546771E-02  0.1477918E+00
          2   -1    0    0  502    0  0.00000000000E+00  0.00000000000E+00  0.70112856514E+02  0.70112856514E+02  0.00000000000E+00 0.  1.
          1   -1    0    0  501    0 -0.00000000000E+00 -0.00000000000E+00 -0.32546772138E+02  0.32546772138E+02  0.00000000000E+00 0.  1.
          2    1    1    2  501    0 -0.15157957557E+02 -0.18868840681E+02  0.63036689738E+02  0.67523485389E+02  0.00000000000E+00 0.  1.
          1    1    1    2  502    0  0.15157957557E+02  0.18868840681E+02 -0.25470605361E+02  0.35136143263E+02  0.00000000000E+00 0.  1.
</event>
<event>
 4    1  0.3752836E+003  0.3378798E+02  0.7546771E-02  0.1389290E+00
          2   -1    0    0  502    0  0.00000000000E+00  0.00000000000E+00  0.73890629981E+02  0.73890629981E+02  0.00000000000E+00 0.  1.
          1   -1    0    0  501    0 -0.00000000000E+00 -0.00000000000E+00 -0.37270261569E+02  0.37270261569E+02  0.00000000000E+00 0.  1.
          2    1    1    2  501    0 -0.29972674549E+02 -0.15597002515E+02  0.60837544648E+02  0.69590477408E+02  0.00000000000E+00 0.  1.
          1    1    1    2  502    0  0.29972674549E+02  0.15597002515E+02 -0.24217176236E+02  0.41570414142E+02  0.00000000000E+00 0.  1.
</event>
<event>
 4    1  0.3752836E+003  0.2357096E+02  0.7546771E-02  0.1485450E+00
          2   -1    0    0  502    0  0.00000000000E+00  0.00000000000E+00  0.24270627551E+04  0.24270627551E+04  0.00000000000E+00 0. -1.
          1   -1    0    0  501    0 -0.00000000000E+00 -0.00000000000E+00 -0.22907356980E+00  0.22907356980E+00  0.00000000000E+00 0. -1.
          2    1    1    2  501    0  0.11456853942E+02  0.20599290208E+02  0.12453816401E+04  0.12456046804E+04  0.00000000000E+00 0. -1.
          1    1    1    2  502    0 -0.11456853942E+02 -0.20599290208E+02  0.11814520414E+04  0.11816871483E+04  0.00000000000E+00 0. -1.
</event>
<event>
 4    1  0.3752836E+003  0.2696930E+02  0.7546771E-02  0.1447917E+00
          2   -1    0    0  502    0  0.00000000000E+00  0.00000000000E+00  0.49803357238E+03  0.49803357238E+03  0.00000000000E+00 0. -1.
          1   -1    0    0  501    0 -0.00000000000E+00 -0.00000000000E+00 -0.20021150603E+01  0.20021150603E+01  0.00000000000E+00 0. -1.
          2    1    1    2  501    0 -0.25480501650E+02  0.88366967558E+01  0.37806260194E+03  0.37902331612E+03  0.00000000000E+00 0. -1.
          1    1    1    2  502    0  0.25480501650E+02 -0.88366967558E+01  0.11796885538E+03  0.12101237132E+03  0.00000000000E+00 0. -1.
</event>
<event>
 4    1  0.3752836E+003  0.2096460E+02  0.7546771E-02  0.1519771E+00
          2   -1    0    0  502    0  0.00000000000E+00  0.00000000000E+00  0.18474762906E+02  0.18474762906E+02  0.00000000000E+00 0.  1.
          1   -1    0    0  501    0 -0.00000000000E+00 -0.00000000000E+00 -0.73788951613E+02  0.73788951613E+02  0.00000000000E+00 0. -1.
          2    1    1    2  501    0  0.15429978440E+02 -0.14192609823E+02  0.10316854922E+02  0.23365613703E+02  0.00000000000E+00 0.  1.
          1    1    1    2  502    0 -0.15429978440E+02  0.14192609823E+02 -0.65631043629E+02  0.68898100816E+02  0.00000000000E+00 0. -1.
</event>
<event>
 4    1  0.3752836E+003  0.5104411E+02  0.7546771E-02  0.1293708E+00
          2   -1    0    0  502    0  0.00000000000E+00  0.00000000000E+00  0.10691054520E+02  0.10691054520E+02  0.00000000000E+00 0. -1.
          1   -1    0    0  501    0 -0.00000000000E+00 -0.00000000000E+00 -0.24427757123E+03  0.24427757123E+03  0.00000000000E+00 0. -1.
          2    1    1    2  501    0  0.47727409224E+02  0.18099614817E+02 -0.11064049566E+03  0.12184753148E+03  0.00000000000E+00 0. -1.
          1    1    1    2  502    0 -0.47727409224E+02 -0.18099614817E+02 -0.12294602105E+03  0.13312109427E+03  0.00000000000E+00 0. -1.
</event>
<event>
 4    1  0.3752836E+003  0.2138604E+02  0.7546771E-02  0.1513824E+00
          2   -1    0    0  502    0  0.00000000000E+00  0.00000000000E+00  0.59122667510E+03  0.59122667510E+03  0.00000000000E+00 0. -1.
          1   -1    0    0  501    0 -0.00000000000E+00 -0.00000000000E+00 -0.17084233448E+01  0.17084233448E+01  0.00000000000E+00 0. -1.
          2    1    1    2  501    0 -0.11420850577E+02 -0.18081120473E+02  0.51406395791E+03  0.51450861564E+03  0.00000000000E+00 0. -1.
          1    1    1    2  502    0  0.11420850577E+02  0.18081120473E+02  0.75454293839E+02  0.78426482799E+02  0.00000000000E+00 0. -1.
</event>
<event>
 4    1  0.3752836E+003  0.2199572E+02  0.7546771E-02  0.1505509E+00
          2   -1    0    0  502    0  0.00000000000E+00  0.00000000000E+00  0.19839109552E+01  0.19839109552E+01  0.00000000000E+00 0. -1.
          1   -1    0    0  501    0 -0.00000000000E+00 -0.00000000000E+00 -0.13916385845E+04  0.13916385845E+04  0.00000000000E+00 0.  1.
          2    1    1    2  501    0 -0.15649246398E+02 -0.15456800498E+02 -0.62008288499E+02  0.65793916414E+02  0.00000000000E+00 0. -1.
          1    1    1    2  502    0  0.15649246398E+02  0.15456800498E+02 -0.13276463851E+04  0.13278285791E+04  0.00000000000E+00 0.  1.
</event>
<event>
 4    1  0.3752836E+003  0.2806735E+02  0.7546771E-02  0.1437171E+00
          2   -1    0    0  502    0  0.00000000000E+00  0.00000000000E+00  0.18621430538E+04  0.18621430538E+04  0.00000000000E+00 0. -1.
          1   -1    0    0  501    0 -0.00000000000E+00 -0.00000000000E+00 -0.99073641514E+01  0.99073641514E+01  0.00000000000E+00 0.  1.
          2    1    1    2  501    0  0.25015834932E+02 -0.12727289119E+02  0.18419407338E+04  0.18421545653E+04  0.00000000000E+00 0. -1.
          1    1    1    2  502    0 -0.25015834932E+02  0.12727289119E+02  0.10294955850E+02  0.29895852582E+02  0.00000000000E+00 0.  1.
</event>
<event>
 4    1  0.3752836E+003  0.2178685E+02  0.7546771E-02  0.1508321E+00
          2   -1    0    0  502    0  0.00000000000E+00  0.00000000000E+00  0.23985929942E+03  0.23985929942E+03  0.00000000000E+00 0. -1.
          1   -1    0    0  501    0 -0.00000000000E+00 -0.00000000000E+00 -0.32751346060E+01  0.32751346060E+01  0.00000000000E+00 0.  1.
          2    1    1    2  501    0 -0.49121168863E+01 -0.21225875641E+02  0.19477022521E+03  0.19598496707E+03  0.00000000000E+00 0. -1.
          1    1    1    2  502    0  0.49121168863E+01  0.21225875641E+02  0.41813939605E+02  0.47149466957E+02  0.00000000000E+00 0.  1.
</event>
<event>
 4    1  0.3752836E+003  0.2154354E+02  0.7546771E-02  0.1511644E+00
          2   -1    0    0  502    0  0.00000000000E+00  0.00000000000E+00  0.12894137334E+03  0.12894137334E+03  0.00000000000E+00 0. -1.
          1   -1    0    0  501    0 -0.00000000000E+00 -0.00000000000E+00 -0.15100301147E+03  0.15100301147E+03  0.00000000000E+00 0. -1.
          2    1    1    2  501    0 -0.19218010196E+02 -0.97361308993E+01  0.12726303471E+03  0.12907363854E+03  0.00000000000E+00 0. -1.
          1    1    1    2  502    0  0.19218010196E+02  0.97361308993E+01 -0.14932467284E+03  0.15087074627E+03  0.00000000000E+00 0. -1.
</event>
<event>
 4    1  0.3752836E+003  0.2138895E+02  0.7546771E-02  0.1513784E+00
          2   -1    0    0  502    0  0.00000000000E+00  0.00000000000E+00  0.15024035363E+03  0.15024035363E+03  0.00000000000E+00 0. -1.
          1   -1    0    0  501    0 -0.00000000000E+00 -0.00000000000E+00 -0.67677966316E+01  0.67677966316E+01  0.00000000000E+00 0. -1.
          2    1    1    2  501    0  0.12985026429E+02  0.16996357100E+02  0.12996016518E+03  0.13170850997E+03  0.00000000000E+00 0. -1.
          1    1    1    2  502    0 -0.12985026429E+02 -0.16996357100E+02  0.13512391819E+02  0.25299640288E+02  0.00000000000E+00 0. -1.
</event>
<event>
 4    1  0.3752836E+003  0.3219002E+02  0.7546771E-02  0.1401473E+00
          2   -1    0    0  502    0  0.00000000000E+00  0.00000000000E+00  0.11229304855E+04  0.11229304855E+04  0.00000000000E+00 0. -1.
          1   -1    0    0  501    0 -0.00000000000E+00 -0.00000000000E+00 -0.52374342970E+01  0.52374342970E+01  0.00000000000E+00 0. -1.
          2    1    1    2  501    0 -0.28413027728E+02  0.15129344085E+02  0.10708328749E+04  0.10713165933E+04  0.00000000000E+00 0. -1.
          1    1    1    2  502    0  0.28413027728E+02 -0.15129344085E+02  0.46860176315E+02  0.56851326470E+02  0.00000000000E+00 0. -1.
</event>
<event>
 4    1  0.3752836E+003  0.5517979E+02  0.7546771E-02  0.1277152E+00
          2   -1    0    0  502    0  0.00000000000E+00  0.00000000000E+00  0.11554131081E+04  0.11554131081E+04  0.00000000000E+00 0.  1.
          1   -1    0    0  501    0 -0.00000000000E+00 -0.00000000000E+00 -0.55026691554E+01  0.55026691554E+01  0.00000000000E+00 0. -1.
          2    1    1    2  501    0 -0.47804474964E+02 -0.27559786971E+02  0.99396979475E+03  0.99550025744E+03  0.00000000000E+00 0.  1.
          1    1    1    2  502    0  0.47804474964E+02  0.27559786971E+02  0.15594064420E+03  0.16541551982E+03  0.00000000000E+00 0. -1.
</event>
<event>
 4    1  0.3752836E+003  0.2983285E+02  0.7546771E-02  0.1421055E+00
          2   -1    0    0  502    0  0.00000000000E+00  0.00000000000E+00  0.67788246345E+03  0.67788246345E+03  0.00000000000E+00 0. -1.
          1   -1    0    0  501    0 -0.00000000000E+00 -0.00000000000E+00 -0.25046321376E+01  0.25046321376E+01  0.00000000000E+00 0. -1.
          2    1    1    2  501    0  0.28482389602E+02 -0.88742690020E+01  0.57235021244E+03  0.57312718035E+03  0.00000000000E+00 0. -1.
          1    1    1    2  502    0 -0.28482389602E+02  0.88742690020E+01  0.10302761887E+03  0.10725991524E+03  0.00000000000E+00 0. -1.
</event>
<event>
 4    1  0.3752836E+003  0.2025549E+02  0.7546771E-02  0.1530165E+00
          2   -1    0    0  502    0  0.00000000000E+00  0.00000000000E+00  0.35651941157E+01  0.35651941157E+01  0.00000000000E+00 0.  1.
          1   -1    0    0  501    0 -0.00000000000E+00 -0.00000000000E+00 -0.97349051909E+03  0.97349051909E+03  0.00000000000E+00 0. -1.
          2    1    1    2  501    0 -0.95120974616E+01 -0.17883089687E+02 -0.26218217813E+02  0.33131251715E+02  0.00000000000E+00 0.  1.
          1    1    1    2  502    0  0.95120974616E+01  0.17883089687E+02 -0.94370710717E+03  0.94392446150E+03  0.00000000000E+00 0. -1.
</event>
<event>
 4    1  0.3752836E+003  0.4810841E+02  0.7546771E-02  0.1306589E+00
          2   -1    0    0  502    0  0.00000000000E+00  0.00000000000E+00  0.13744749776E+04  0.13744749776E+04  0.00000000000E+00 0. -1.
          1   -1    0    0  501    0 -0.00000000000E+00 -0.00000000000E+00 -0.26277555491E+02  0.26277555491E+02  0.00000000000E+00 0. -1.
          2    1    1    2  501    0  0.25025846926E+02  0.41086810760E+02  0.13516635546E+04  0.13525194209E+04  0.00000000000E+00 0. -1.
          1    1    1    2  502    0 -0.25025846926E+02 -0.41086810760E+02 -0.34661325498E+01  0.48233112150E+02  0.00000000000E+00 0. -1.
</event>
<event>
 4    1  0.3752836E+003  0.2115536E+02  0.7546771E-02  0.1517058E+00
          2   -1    0    0  502    0  0.00000000000E+00  0.00000000000E+00  0.34654351200E+03  0.34654351200E+03  0.00000000000E+00 0. -1.
          1   -1    0    0  501    0 -0.00000000000E+00 -0.00000000000E+00 -0.32201042424E+03  0.32201042424E+03  0.00000000000E+00 0. -1.
          2    1    1    2  501    0 -0.11475765736E+02 -0.17772336780E+02  0.34587250724E+03  0.34651888898E+03  0.00000000000E+00 0. -1.
          1    1    1    2  502    0  0.11475765736E+02  0.17772336780E+02 -0.32133941948E+03  0.32203504726E+03  0.00000000000E+00 0. -1.
</event>
<event>
 4    1  0.3752836E+003  0.2406768E+02  0.7546771E-02  0.1479509E+00
          2   -1    0    0  502    0  0.00000000000E+00  0.00000000000E+00  0.47119418212E+01  0.47119418212E+01  0.00000000000E+00 0. -1.
          1   -1    0    0  501    0 -0.00000000000E+00 -0.00000000000E+00 -0.10093631585E+04  0.10093631585E+04  0.00000000000E+00 0. -1.
          2    1    1    2  501    0 -0.11480627013E+02  0.21152972218E+02 -0.27166929023E+02  0.36294559687E+02  0.00000000000E+00 0. -1.
          1    1    1    2  502    0  0.11480627013E+02 -0.21152972218E+02 -0.97748428768E+03  0.97778054066E+03  0.00000000000E+00 0. -1.
</event>
<event>
 4    1  0.3752836E+003  0.4208865E+02  0.7546771E-02  0.1336663E+00
          2   -1    0    0  502    0  0.00000000000E+00  0.00000000000E+00  0.60364459918E+01  0.60364459918E+01  0.00000000000E+00 0.  1.
          1   -1    0    0  501    0 -0.00000000000E+00 -0.00000000000E+00 -0.14314938906E+04  0.14314938906E+04  0.00000000000E+00 0. -1.
          2    1    1    2  501    0 -0.40197386705E+02  0.12474943899E+02 -0.71858765589E+02  0.83277465831E+02  0.00000000000E+00 0.  1.
          1    1    1    2  502    0  0.40197386705E+02 -0.12474943899E+02 -0.13535986791E+04  0.13542528708E+04  0.00000000000E+00 0. -1.
</event>
<event>
 4    1  0.3752836E+003  0.4987407E+02  0.7546771E-02  0.1298719E+00
          2   -1    0    0  502    0  0.00000000000E+00  0.00000000000E+00  0.75838830971E+02  0.75838830971E+02  0.00000000000E+00 0.  1.
          1   -1    0    0  501    0 -0.00000000000E+00 -0.00000000000E+00 -0.12025826207E+03  0.12025826207E+03  0.00000000000E+00 0. -1.
          2    1    1    2  501    0  0.44119702391E+02  0.23256714638E+02  0.61405842121E+02  0.79108156099E+02  0.00000000000E+00 0.  1.
          1    1    1    2  502    0 -0.44119702391E+02 -0.23256714638E+02 -0.10582527322E+03  0.11698893694E+03  0.00000000000E+00 0. -1.
</event>
<event>
 4    1  0.3752836E+003  0.2793772E+02  0.7546771E-02  0.1438409E+00
          2   -1    0    0  502    0  0.00000000000E+00  0.00000000000E+00  0.12046512163E+04  0.12046512163E+04  0.00000000000E+00 0. -1.
          1   -1    0    0  501    0 -0.00000000000E+00 -0.00000000000E+00 -0.57640884109E+01  0.57640884109E+01  0.00000000000E+00 0. -1.
          2    1    1    2  501    0  0.14582679434E+02 -0.23829851833E+02  0.11696230045E+04  0.11699566184E+04  0.00000000000E+00 0. -1.
          1    1    1    2  502    0 -0.14582679434E+02  0.23829851833E+02  0.29264123429E+02  0.40458686310E+02  0.00000000000E+00 0. -1.
</event>
<event>
 4    1  0.3752836E+003  0.2766720E+02  0.7546771E-02  0.1441019E+00
          2   -1    0    0  502    0  0.00000000000E+00  0.00000000000E+00  0.20310927149E+03  0.20310927149E+03  0.00000000000E+00 0. -1.
          1   -1    0    0  501    0 -0.00000000000E+00 -0.00000000000E+00 -0.59697801551E+01  0.59697801551E+01  0.00000000000E+00 0.  1.
          2    1    1    2  501    0 -0.27580454717E+02 -0.21891483067E+01  0.16204603673E+03  0.16439097260E+03  0.00000000000E+00 0. -1.
          1    1    1    2  502    0  0.27580454717E+02  0.21891483067E+01  0.35093454613E+02  0.44688079053E+02  0.00000000000E+00 0.  1.
</event>
<event>
 4    1  0.3752836E+003  0.3636582E+02  0.7546771E-02  0.1371207E+00
          2   -1    0    0  502    0  0.00000000000E+00  0.00000000000E+00  0.17081247430E+02  0.17081247430E+02  0.00000000000E+00 0.  1.
          1   -1    0    0  501    0 -0.00000000000E+00 -0.00000000000E+00 -0.37774338563E+03  0.37774338563E+03  0.00000000000E+00 0.  1.
          2    1    1    2  501    0 -0.35760494408E+02  0.66075533751E+01 -0.43084068557E+01  0.36620145979E+02  0.00000000000E+00 0.  1.
          1    1    1    2  502    0  0.35760494408E+02 -0.66075533751E+01 -0.35635373135E+03  0.35820448708E+03  0.00000000000E+00 0.  1.
</event>
<event>
 4    1  0.3752836E+003  0.2063502E+02  0.7546771E-02  0.1524540E+00
          2   -1    0    0  502    0  0.00000000000E+00  0.00000000000E+00  0.64996029253E+03  0.64996029253E+03  0.00000000000E+00 0.  1.
          1   -1    0    0  501    0 -0.00000000000E+00 -0.00000000000E+00 -0.18326490683E+03  0.18326490683E+03  0.00000000000E+00 0.  1.
          2    1    1    2  501    0  0.10060424077E+02  0.18016436265E+02  0.64921498629E+03  0.64954284118E+03  0.00000000000E+00 0.  1.
          1    1    1    2  502    0 -0.10060424077E+02 -0.18016436265E+02 -0.18251960059E+03  0.18368235818E+03  0.00000000000E+00 0.  1.
</event>
<event>
 4    1  0.3752836E+003  0.2293593E+02  0.7546771E-02  0.1493304E+00
          2   -1    0    0  502    0  0.00000000000E+00  0.00000000000E+00  0.82660255182E+03  0.82660255182E+03  0.00000000000E+00 0.  1.
          1   -1    0    0  501    0 -0.00000000000E+00 -0.00000000000E+00 -0.77794877237E+00  0.77794877237E+00  0.00000000000E+00 0.  1.
          2    1    1    2  501    0 -0.12810847525E+02  0.19024679754E+02  0.23645445298E+03  0.23756423256E+03  0.00000000000E+00 0.  1.
          1    1    1    2  502    0  0.12810847525E+02 -0.19024679754E+02  0.58937015007E+03  0.58981626804E+03  0.00000000000E+00 0.  1.
</event>
<event>
 4    1  0.3752836E+003  0.2375308E+02  0.7546771E-02  0.1483252E+00
          2   -1    0    0  502    0  0.00000000000E+00  0.00000000000E+00  0.23707655965E+00  0.23707655965E+00  0.00000000000E+00 0. -1.
          1   -1    0    0  501    0 -0.00000000000E+00 -0.00000000000E+00 -0.25504632587E+04  0.25504632587E+04  0.00000000000E+00 0. -1.
          2    1    1    2  501    0 -0.76626245430E+01  0.22483173611E+02 -0.94526485699E+03  0.94556324948E+03  0.00000000000E+00 0. -1.
          1    1    1    2  502    0  0.76626245430E+01 -0.22483173611E+02 -0.16049613251E+04  0.16051370857E+04  0.00000000000E+00 0. -1.
</event>
<event>
 4    1  0.3752836E+003  0.4612050E+02  0.7546771E-02  0.1315930E+00
          2   -1    0    0  502    0  0.00000000000E+00  0.00000000000E+00  0.55920196669E+03  0.55920196669E+03  0.00000000000E+00 0. -1.
          1   -1    0    0  501    0 -0.00000000000E+00 -0.00000000000E+00 -0.60608042722E+01  0.60608042722E+01  0.00000000000E+00 0.  1.
          2    1    1    2  501    0  0.34214064638E+02 -0.30927307915E+02  0.44904315555E+03  0.45140542325E+03  0.00000000000E+00 0. -1.
          1    1    1    2  502    0 -0.34214064638E+02  0.30927307915E+02  0.10409800686E+03  0.11385734771E+03  0.00000000000E+00 0.  1.
</event>
<event>
 4    1  0.3752836E+003  0.2752014E+02  0.7546771E-02  0.1442452E+00
          2   -1    0    0  502    0  0.00000000000E+00  0.00000000000E+00  0.15638219606E+04  0.15638219606E+04  0.00000000000E+00 0. -1.
          1   -1    0    0  501    0 -0.00000000000E+00 -0.00000000000E+00 -0.86922265878E+00  0.86922265878E+00  0.00000000000E+00 0. -1.
          2    1    1    2  501    0  0.21145581040E+02  0.17613128343E+02  0.13020956537E+04  0.13023864439E+04  0.00000000000E+00 0. -1.
          1    1    1    2  502    0 -0.21145581040E+02 -0.17613128343E+02  0.26085708418E+03  0.26230473929E+03  0.00000000000E+00 0. -1.
</event>
<event>
 4    1  0.3752836E+003  0.2495975E+02  0.7546771E-02  0.1469254E+00
          2   -1    0    0  502    0  0.00000000000E+00  0.00000000000E+00  0.54789121762E+03  0.54789121762E+03  0.00000000000E+00 0.  1.
          1   -1    0    0  501    0 -0.00000000000E+00 -0.00000000000E+00 -0.26757441975E+03  0.26757441975E+03  0.00000000000E+00 0.  1.
          2    1    1    2  501    0  0.21896520504E+02  0.11980458792E+02  0.54702395775E+03  0.54759309652E+03  0.00000000000E+00 0.  1.
          1    1    1    2  502    0 -0.21896520504E+02 -0.11980458792E+02 -0.26670715988E+03  0.26787254084E+03  0.00000000000E+00 0.  1.
</event>
<event>
 4    1  0.3752836E+003  0.3664460E+02  0.7546771E-02  0.1369356E+00
          2   -1    0    0  502    0  0.00000000000E+00  0.00000000000E+00  0.11968972801E+03  0.11968972801E+03  0.00000000000E+00 0.  1.
          1   -1    0    0  501    0 -0.00000000000E+00 -0.00000000000E+00 -0.56888596725E+03  0.56888596725E+03  0.00000000000E+00 0.  1.
          2    1    1    2  501    0 -0.28087261006E+02  0.23535773254E+02  0.11627790220E+03  0.12191545183E+03  0.00000000000E+00 0.  1.
          1    1    1    2  502    0  0.28087261006E+02 -0.23535773254E+02 -0.56547414144E+03  0.56666024344E+03  0.00000000000E+00 0.  1.
</event>
<event>
 4    1  0.3752836E+003  0.2003147E+02  0.7546771E-02  0.1533555E+00
          2   -1    0    0  502    0  0.00000000000E+00  0.00000000000E+00  0.92923151383E+01  0.92923151383E+01  0.00000000000E+00 0.  1.
          1   -1    0    0  501    0 -0.00000000000E+00 -0.00000000000E+00 -0.43365042828E+03  0.43365042828E+03  0.00000000000E+00 0. -1.
          2    1    1    2  501    0  0.16401174607E+02  0.11500491733E+02 -0.20235749207E+01  0.20133422314E+02  0.00000000000E+00 0.  1.
          1    1    1    2  502    0 -0.16401174607E+02 -0.11500491733E+02 -0.42233453822E+03  0.42280932110E+03  0.00000000000E+00 0. -1.
</event>
<event>
 4    1  0.3752836E+003  0.2740625E+02  0.7546771E-02  0.1443569E+00
          2   -1    0    0  502    0  0.00000000000E+00  0.00000000000E+00  0.33793986331E+02  0.33793986331E+02  0.00000000000E+00 0. -1.
          1   -1    0    0  501    0 -0.00000000000E+00 -0.00000000000E+00 -0.11989584904E+04  0.11989584904E+04  0.00000000000E+00 0. -1.
          2    1    1    2  501    0  0.24537080580E+02 -0.12207952144E+02  0.28054165674E+02  0.39219110528E+02  0.00000000000E+00 0. -1.
          1    1    1    2  502    0 -0.24537080580E+02  0.12207952144E+02 -0.11932186698E+04  0.11935333662E+04  0.00000000000E+00 0. -1.
</event>
<event>
 4    1  0.3752836E+003  0.2724319E+02  0.7546771E-02  0.1445180E+00
          2   -1    0    0  502    0  0.00000000000E+00  0.00000000000E+00  0.10592441951E+04  0.10592441951E+04  0.00000000000E+00 0.  1.
          1   -1    0    0  501    0 -0.00000000000E+00 -0.00000000000E+00 -0.36921996223E+01  0.36921996223E+01  0.00000000000E+00 0.  1.
          2    1    1    2  501    0  0.23695076125E+02  0.13443753711E+02  0.10061643843E+04  0.10065331388E+04  0.00000000000E+00 0.  1.
          1    1    1    2  502    0 -0.23695076125E+02 -0.13443753711E+02  0.49387611092E+02  0.56403255897E+02  0.00000000000E+00 0.  1.
</event>
<event>
 4    1  0.3752836E+003  0.2950314E+02  0.7546771E-02  0.1423964E+00
          2   -1    0    0  502    0  0.00000000000E+00  0.00000000000E+00  0.13924854707E+04  0.13924854707E+04  0.00000000000E+00 0. -1.
          1   -1    0    0  501    0 -0.00000000000E+00 -0.00000000000E+00 -0.90370623129E+01  0.90370623129E+01  0.00000000000E+00 0. -1.
          2    1    1    2  501    0  0.24045636341E+01 -0.29404984112E+02  0.13678153548E+04  0.13681335022E+04  0.00000000000E+00 0. -1.
          1    1    1    2  502    0 -0.24045636341E+01  0.29404984112E+02  0.15633053665E+02  0.33389030890E+02  0.00000000000E+00 0. -1.
</event>
<event>
 4    1  0.3752836E+003  0.2263024E+02  0.7546771E-02  0.1497194E+00
          2   -1    0    0  502    0  0.00000000000E+00  0.00000000000E+00  0.66787585884E+03  0.66787585884E+03  0.00000000000E+00 0.  1.
          1   -1    0    0  501    0 -0.00000000000E+00 -0.00000000000E+00 -0.17560494681E+01  0.17560494681E+01  0.00000000000E+00 0.  1.
          2    1    1    2  501    0  0.22095060693E+02  0.48924708928E+01  0.58435871403E+03  0.58479674644E+03  0.00000000000E+00 0.  1.
          1    1    1    2  502    0 -0.22095060693E+02 -0.48924708928E+01  0.81761095337E+02  0.84835161868E+02  0.00000000000E+00 0.  1.
</event>
<event>
 4    1  0.3752836E+003  0.2031744E+02  0.7546771E-02  0.1529237E+00
          2   -1    0    0  502    0  0.00000000000E+00  0.00000000000E+00  0.23214585510E+02  0.23214585510E+02  0.00000000000E+00 0.  1.
          1   -1    0    0  501    0 -0.00000000000E+00 -0.00000000000E+00 -0.20083353516E+03  0.20083353516E+03  0.00000000000E+00 0. -1.
          2    1    1    2  501    0  0.12539374555E+02  0.15986316888E+02  0.18140345845E+02  0.27237297759E+02  0.00000000000E+00 0.  1.
          1    1    1    2  502    0 -0.12539374555E+02 -0.15986316888E+02 -0.19575929550E+03  0.19681082291E+03  0.00000000000E+00 0. -1.
</event>
<event>
 4    1  0.3752836E+003  0.2402280E+02  0.7546771E-02  0.1480039E+00
          2   -1    0    0  502    0  0.00000000000E+00  0.00000000000E+00  0.23088945058E+01  0.23088945058E+01  0.00000000000E+00 0.  1.
          1   -1    0    0  501    0 -0.00000000000E+00 -0.00000000000E+00 -0.68381899640E+03  0.68381899640E+03  0.00000000000E+00 0.  1.
          2    1    1    2  501    0 -0.19372767843E+02 -0.14205305202E+02 -0.67488358533E+02  0.71636396945E+02  0.00000000000E+00 0.  1.
          1    1    1    2  502    0  0.19372767843E+02  0.14205305202E+02 -0.61402174336E+03  0.61449149396E+03  0.00000000000E+00 0.  1.
</event>
<event>
 4    1  0.3752836E+003  0.3299493E+02  0.7546771E-02  0.1395235E+00
          2   -1    0    0  502    0  0.00000000000E+00  0.00000000000E+00  0.21997526348E+01  0.21997526348E+01  0.00000000000E+00 0.  1.
          1   -1    0    0  501    0 -0.00000000000E+00 -0.00000000000E+00 -0.53103566018E+03  0.53103566018E+03  0.00000000000E+00 0.  1.
          2    1    1    2  501    0 -0.22262357143E+02  0.24352677600E+02 -0.19487171715E+03  0.19764526707E+03  0.00000000000E+00 0.  1.
          1    1    1    2  502    0  0.22262357143E+02 -0.24352677600E+02 -0.33396419040E+03  0.33559014574E+03  0.00000000000E+00 0.  1.
</event>
<event>
 4    1  0.3752836E+003  0.2957457E+02  0.7546771E-02  0.1423330E+00
          2   -1    0    0  502    0  0.00000000000E+00  0.00000000000E+00  0.17643088324E+04  0.17643088324E+04  0.00000000000E+00 0. -1.
          1   -1    0    0  501    0 -0.00000000000E+00 -0.00000000000E+00 -0.58729730581E+00  0.58729730581E+00  0.00000000000E+00 0.  1.
          2    1    1    2  501    0  0.15729306621E+02  0.25044839017E+02  0.12302657473E+04  0.12306211700E+04  0.00000000000E+00 0. -1.
          1    1    1    2  502    0 -0.15729306621E+02 -0.25044839017E+02  0.53345578786E+03  0.53427495978E+03  0.00000000000E+00 0.  1.
</event>
<event>
 4    1  0.3752836E+003  0.2403160E+02  0.7546771E-02  0.1479935E+00
          2   -1    0    0  502    0  0.00000000000E+00  0.00000000000E+00  0.38882251229E+02  0.38882251229E+02  0.00000000000E+00 0.  1.
          1   -1    0    0  501    0 -0.00000000000E+00 -0.00000000000E+00 -0.35768724062E+02  0.35768724062E+02  0.00000000000E+00 0. -1.
          2    1    1    2  501    0  0.13532138174E+02  0.19859487376E+02  0.30099147146E+02  0.38515927372E+02  0.00000000000E+00 0.  1.
          1    1    1    2  502    0 -0.13532138174E+02 -0.19859487376E+02 -0.26985619979E+02  0.36135047918E+02  0.00000000000E+00 0. -1.
</event>
<event>
 4    1  0.3752836E+003  0.2019325E+02  0.7546771E-02  0.1531102E+00
          2   -1    0    0  502    0  0.00000000000E+00  0.00000000000E+00  0.41126257559E+02  0.41126257559E+02  0.00000000000E+00 0.  1.
          1   -1    0    0  501    0 -0.00000000000E+00 -0.00000000000E+00 -0.58420484097E+02  0.58420484097E+02  0.00000000000E+00 0. -1.
          2    1    1    2  501    0 -0.19267860821E+02  0.60429223638E+01  0.36706285888E+02  0.41894137955E+02  0.00000000000E+00 0.  1.
          1    1    1    2  502    0  0.19267860821E+02 -0.60429223638E+01 -0.54000512426E+02  0.57652603701E+02  0.00000000000E+00 0. -1.
</event>
<event>
 4    1  0.3752836E+003  0.2128569E+02  0.7546771E-02  0.1515225E+00
          2   -1    0    0  502    0  0.00000000000E+00  0.00000000000E+00  0.15728543265E+04  0.15728543265E+04  0.00000000000E+00 0. -1.
          1   -1    0    0  501    0 -0.00000000000E+00 -0.00000000000E+00 -0.36414827213E+01  0.36414827213E+01  0.00000000000E+00 0.  1.
          2    1    1    2  501    0  0.19347664518E+02 -0.88740220604E+01  0.15410345779E+04  0.15411815761E+04  0.00000000000E+00 0. -1.
          1    1    1    2  502    0 -0.19347664518E+02  0.88740220604E+01  0.28178265918E+02  0.35314233108E+02  0.00000000000E+00 0.  1.
</event>
<event>
 4    1  0.3752836E+003  0.3006753E+02  0.7546771E-02  0.1419010E+00
          2   -1    0    0  502    0  0.00000000000E+00  0.00000000000E+00  0.36527560053E+02  0.36527560053E+02  0.00000000000E+00 0. -1.
          1   -1    0    0  501    0 -0.00000000000E+00 -0.00000000000E+00 -0.55400574925E+03  0.55400574925E+03  0.00000000000E+00 0. -1.
          2    1    1    2  501    0  0.62868827415E+01 -0.29402919823E+02  0.29856744855E+02  0.42373125942E+02  0.00000000000E+00 0. -1.
          1    1    1    2  502    0 -0.62868827415E+01  0.29402919823E+02 -0.54733493405E+03  0.54816018336E+03  0.00000000000E+00 0. -1.
</event>
<event>
 4    1  0.3752836E+003  0.2508507E+02  0.7546771E-02  0.1467854E+00
          2   -1    0    0  502    0  0.00000000000E+00  0.00000000000E+00  0.95508127301E+01  0.95508127301E+01  0.00000000000E+00 0.  1.
          1   -1    0    0  501    0 -0.00000000000E+00 -0.00000000000E+00 -0.64816547646E+03  0.64816547646E+03  0.00000000000E+00 0.  1.
          2    1    1    2  501    0  0.69871422152E+01 -0.24092335489E+02 -0.76110982002E+01  0.26214301468E+02  0.00000000000E+00 0.  1.
          1    1    1    2  502    0 -0.69871422152E+01  0.24092335489E+02 -0.63100356553E+03  0.63150198772E+03  0.00000000000E+00 0.  1.
</event>
<event>
 4    1  0.3752836E+003  0.2605710E+02  0.7546771E-02  0.1457317E+00
          2   -1    0    0  502    0  0.00000000000E+00  0.00000000000E+00  0.90499768550E+02  0.90499768550E+02  0.00000000000E+00 0. -1.
          1   -1    0    0  501    0 -0.00000000000E+00 -0.00000000000E+00 -0.83244680683E+01  0.83244680683E+01  0.00000000000E+00 0. -1.
          2    1    1    2  501    0  0.71070784111E+01 -0.25069137546E+02  0.56614716006E+02  0.62323336635E+02  0.00000000000E+00 0. -1.
          1    1    1    2  502    0 -0.71070784111E+01  0.25069137546E+02  0.25560584476E+02  0.36500899983E+02  0.00000000000E+00 0. -1.
</event>
<event>
 4    1  0.3752836E+003  0.2811757E+02  0.7546771E-02  0.1436694E+00
          2   -1    0    0  502    0  0.00000000000E+00  0.00000000000E+00  0.21841398454E+03  0.21841398454E+03  0.00000000000E+00 0.  1.
          1   -1    0    0  501    0 -0.00000000000E+00 -0.00000000000E+00 -0.73917211717E+01  0.73917211717E+01  0.00000000000E+00 0. -1.
          2    1    1    2  501    0  0.12862886909E+02 -0.25002872610E+02  0.18616366799E+03  0.18827508805E+03  0.00000000000E+00 0.  1.
          1    1    1    2  502    0 -0.12862886909E+02  0.25002872610E+02  0.24858595379E+02  0.37530617669E+02  0.00000000000E+00 0. -1.
</event>
<event>
 4    1  0.3752836E+003  0.4941333E+02  0.7546771E-02  0.1300736E+00
          2   -1    0    0  502    0  0.00000000000E+00  0.00000000000E+00  0.75469214282E+03  0.75469214282E+03  0.00000000000E+00 0. -1.
          1   -1    0    0  501    0 -0.00000000000E+00 -0.00000000000E+00 -0.75465434634E+01  0.75465434634E+01  0.00000000000E+00 0. -1.
          2    1    1    2  501    0  0.11016144904E+02  0.48169717697E+02  0.66163533666E+03  0.66347795432E+03  0.00000000000E+00 0. -1.
          1    1    1    2  502    0 -0.11016144904E+02 -0.48169717697E+02  0.85510262700E+02  0.98760731967E+02  0.00000000000E+00 0. -1.
</event>
<event>
 4    1  0.3752836E+003  0.3968276E+02  0.7546771E-02  0.1350355E+00
          2   -1    0    0  502    0  0.00000000000E+00  0.00000000000E+00  0.44776903447E+03  0.44776903447E+03  0.00000000000E+00 0.  1.
          1   -1    0    0  501    0 -0.00000000000E+00 -0.00000000000E+00 -0.67537200366E+01  0.67537200366E+01  0.00000000000E+00 0. -1.
          2    1    1    2  501    0  0.36946049843E+02  0.14481400849E+02  0.37784035146E+03  0.37991848173E+03  0.00000000000E+00 0.  1.
          1    1    1    2  502    0 -0.36946049843E+02 -0.14481400849E+02  0.63174962969E+02  0.74604272771E+02  0.00000000000E+00 0. -1.
</event>
<event>
 4    1  0.3752836E+003  0.2125035E+02  0.7546771E-02  0.1515720E+00
          2   -1    0    0  502    0  0.00000000000E+00  0.00000000000E+00  0.17806225203E+01  0.17806225203E+01  0.00000000000E+00 0. -1.
          1   -1    0    0  501    0 -0.00000000000E+00 -0.00000000000E+00 -0.47986994125E+03  0.47986994125E+03  0.00000000000E+00 0. -1.
          2    1    1    2  501    0 -0.17543812780E+02 -0.11991329855E+02 -0.73678155568E+02  0.76681470816E+02  0.00000000000E+00 0. -1.
          1    1    1    2  502    0  0.17543812780E+02  0.11991329855E+02 -0.40441116316E+03  0.40496909295E+03  0.00000000000E+00 0. -1.
</event>
<event>
 4    1  0.3752836E+003  0.2292837E+02  0.7546771E-02  0.1493400E+00
          2   -1    0    0  502    0  0.00000000000E+00  0.00000000000E+00  0.92802227655E+03  0.92802227655E+03  0.00000000000E+00 0.  1.
          1   -1    0    0  501    0 -0.00000000000E+00 -0.00000000000E+00 -0.58005152450E+02  0.58005152450E+02  0.00000000000E+00 0. -1.
          2    1    1    2  501    0  0.17453970470E+02  0.14868384890E+02  0.92560895896E+03  0.92589289600E+03  0.00000000000E+00 0.  1.
          1    1    1    2  502    0 -0.17453970470E+02 -0.14868384890E+02 -0.55591834867E+02  0.60134532993E+02  0.00000000000E+00 0. -1.
</event>
<event>
 4    1  0.3752836E+003  0.3324983E+02  0.7546771E-02  0.1393303E+00
          2   -1    0    0  502    0  0.00000000000E+00  0.00000000000E+00  0.31313830971E+03  0.31313830971E+03  0.00000000000E+00 0. -1.
          1   -1    0    0  501    0 -0.00000000000E+00 -0.00000000000E+00 -0.46832961179E+03  0.46832961179E+03  0.00000000000E+00 0. -1.
          2    1    1    2  501    0 -0.33162928055E+02  0.24023171921E+01  0.31166272919E+03  0.31343134446E+03  0.00000000000E+00 0. -1.
          1    1    1    2  502    0  0.33162928055E+02 -0.24023171921E+01 -0.46685403127E+03  0.46803657703E+03  0.00000000000E+00 0. -1.
</event>
<event>
 4    1  0.3752836E+003  0.2393124E+02  0.7546771E-02  0.1481124E+00
          2   -1    0    0  502    0  0.00000000000E+00  0.00000000000E+00  0.10218470566E+03  0.10218470566E+03  0.00000000000E+00 0.  1.
          1   -1    0    0  501    0 -0.00000000000E+00 -0.00000000000E+00 -0.52815832025E+02  0.52815832025E+02  0.00000000000E+00 0.  1.
          2    1    1    2  501    0 -0.13296371765E+02 -0.19897505270E+02  0.97957411219E+02  0.10083827959E+03  0.00000000000E+00 0.  1.
          1    1    1    2  502    0  0.13296371765E+02  0.19897505270E+02 -0.48588537580E+02  0.54162258098E+02  0.00000000000E+00 0.  1.
</event>
<event>
 4    1  0.3752836E+003  0.2057553E+02  0.7546771E-02  0.1525412E+00
          2   -1    0    0  502    0  0.00000000000E+00  0.00000000000E+00  0.73904323692E+03  0.73904323692E+03  0.00000000000E+00 0.  1.
          1   -1    0    0  501    0 -0.00000000000E+00 -0.00000000000E+00 -0.74728714396E+03  0.74728714396E+03  0.00000000000E+00 0. -1.
          2    1    1    2  501    0  0.21554603564E+01  0.20462312310E+02  0.73875834305E+03  0.73904481708E+03  0.00000000000E+00 0.  1.
          1    1    1    2  502    0 -0.21554603564E+01 -0.20462312310E+02 -0.74700225008E+03  0.74728556380E+03  0.00000000000E+00 0. -1.
</event>
<event>
 4    1  0.3752836E+003  0.2014971E+02  0.7546771E-02  0.1531759E+00
          2   -1    0    0  502    0  0.00000000000E+00  0.00000000000E+00  0.20303729368E+03  0.20303729368E+03  0.00000000000E+00 0. -1.
          1   -1    0    0  501    0 -0.00000000000E+00 -0.00000000000E+00 -0.24916207468E+01  0.24916207468E+01  0.00000000000E+00 0.  1.
          2    1    1    2  501    0 -0.62999472839E+01  0.19139530224E+02  0.14593489155E+03  0.14731939291E+03  0.00000000000E+00 0. -1.
          1    1    1    2  502    0  0.62999472839E+01 -0.19139530224E+02  0.54610781380E+02  0.58209521523E+02  0.00000000000E+00 0.  1.
</event>
<event>
 4    1  0.3752836E+003  0.2165384E+02  0.7546771E-02  0.1510131E+00
          2   -1    0    0  502    0  0.00000000000E+00  0.00000000000E+00  0.15481173833E+04  0.15481173833E+04  0.00000000000E+00 0. -1.
          1   -1    0    0  501    0 -0.00000000000E+00 -0.00000000000E+00 -0.72935074937E+02  0.72935074937E+02  0.00000000000E+00 0. -1.
          2    1    1    2  501    0 -0.13033571007E+02 -0.17292047325E+02  0.15464327000E+04  0.15465842960E+04  0.00000000000E+00 0. -1.
          1    1    1    2  502    0  0.13033571007E+02  0.17292047325E+02 -0.71250391674E+02  0.74468162242E+02  0.00000000000E+00 0. -1.
</event>
<event>
 4    1  0.3752836E+003  0.5121997E+02  0.7546771E-02  0.1292968E+00
          2   -1    0    0  502    0  0.00000000000E+00  0.00000000000E+00  0.73316780743E+02  0.73316780743E+02  0.00000000000E+00 0. -1.
          1   -1    0    0  501    0 -0.00000000000E+00 -0.00000000000E+00 -0.54720145802E+02  0.54720145802E+02  0.00000000000E+00 0. -1.
          2    1    1    2  501    0  0.20671668004E+02 -0.46863287257E+02  0.46959179986E+02  0.69488489231E+02  0.00000000000E+00 0. -1.
          1    1    1    2  502    0 -0.20671668004E+02  0.46863287257E+02 -0.28362545045E+02  0.58548437315E+02  0.00000000000E+00 0. -1.
</event>
<event>
 4    1  0.3752836E+003  0.2631143E+02  0.7546771E-02  0.1454650E+00
          2   -1    0    0  502    0  0.00000000000E+00  0.00000000000E+00  0.32722646702E+01  0.32722646702E+01  0.00000000000E+00 0. -1.
          1   -1    0    0  501    0 -0.00000000000E+00 -0.00000000000E+00 -0.88606128649E+03  0.88606128649E+03  0.00000000000E+00 0. -1.
          2    1    1    2  501    0  0.22074138783E+02  0.14318646263E+02 -0.53429002341E+02  0.59556271919E+02  0.00000000000E+00 0. -1.
          1    1    1    2  502    0 -0.22074138783E+02 -0.14318646263E+02 -0.82936001948E+03  0.82977727924E+03  0.00000000000E+00 0. -1.
</event>
<event>
 4    1  0.3752836E+003  0.2204445E+02  0.7546771E-02  0.1504859E+00
          2   -1    0    0  502    0  0.00000000000E+00  0.00000000000E+00  0.11896588505E+04  0.11896588505E+04  0.00000000000E+00 0.  1.
          1   -1    0    0  501    0 -0.00000000000E+00 -0.00000000000E+00 -0.11513822624E+01  0.11513822624E+01  0.00000000000E+00 0.  1.
          2    1    1    2  501    0  0.16791130267E+02 -0.14283400973E+02  0.10725172170E+04  0.10727437431E+04  0.00000000000E+00 0.  1.
          1    1    1    2  502    0 -0.16791130267E+02  0.14283400973E+02  0.11599025124E+03  0.11806648966E+03  0.00000000000E+00 0.  1.
</event>
<event>
 4    1  0.3752836E+003  0.2605399E+02  0.7546771E-02  0.1457349E+00
          2   -1    0    0  502    0  0.00000000000E+00  0.00000000000E+00  0.25420040215E+02  0.25420040215E+02  0.00000000000E+00 0. -1.
          1   -1    0    0  501    0 -0.00000000000E+00 -0.00000000000E+00 -0.67541944531E+03  0.67541944531E+03  0.00000000000E+00 0.  1.
          2    1    1    2  501    0  0.17932217050E+02 -0.18900958216E+02  0.18422987950E+02  0.31909514487E+02  0.00000000000E+00 0. -1.
          1    1    1    2  502    0 -0.17932217050E+02  0.18900958216E+02 -0.66842239304E+03  0.66892997103E+03  0.00000000000E+00 0.  1.
</event>
<event>
 4    1  0.3752836E+003  0.2467453E+02  0.7546771E-02  0.1472477E+00
          2   -1    0    0  502    0  0.00000000000E+00  0.00000000000E+00  0.10081010504E+04  0.10081010504E+04  0.00000000000E+00 0.  1.
          1   -1    0    0  501    0 -0.00000000000E+00 -0.00000000000E+00 -0.13556019263E+01  0.13556019263E+01  0.00000000000E+00 0.  1.
          2    1    1    2  501    0 -0.12575351686E+02  0.21229533489E+02  0.87921260570E+03  0.87955877494E+03  0.00000000000E+00 0.  1.
          1    1    1    2  502    0  0.12575351686E+02 -0.21229533489E+02  0.12753284279E+03  0.12989787740E+03  0.00000000000E+00 0.  1.
</event>
<event>
 4    1  0.3752836E+003  0.2224968E+02  0.7546771E-02  0.1502141E+00
          2   -1    0    0  502    0  0.00000000000E+00  0.00000000000E+00  0.75583521451E+01  0.75583521451E+01  0.00000000000E+00 0. -1.
          1   -1    0    0  501    0 -0.00000000000E+00 -0.00000000000E+00 -0.68847721669E+02  0.68847721669E+02  0.00000000000E+00 0. -1.
          2    1    1    2  501    0 -0.45851936960E+01 -0.21772095231E+02 -0.22216518997E+02  0.31442357550E+02  0.00000000000E+00 0. -1.
          1    1    1    2  502    0  0.45851936960E+01  0.21772095231E+02 -0.39072850526E+02  0.44963716263E+02  0.00000000000E+00 0. -1.
</event>
<event>
 4    1  0.3752836E+003  0.2553437E+02  0.7546771E-02  0.1462913E+00
          2   -1    0    0  502    0  0.00000000000E+00  0.00000000000E+00  0.14323149561E+03  0.14323149561E+03  0.00000000000E+00 0.  1.
          1   -1    0    0  501    0 -0.00000000000E+00 -0.00000000000E+00 -0.21421902784E+03  0.21421902784E+03  0.00000000000E+00 0.  1.
          2    1    1    2  501    0  0.13980348538E+02  0.21367121564E+02  0.14132236596E+03  0.14361063732E+03  0.00000000000E+00 0.  1.
          1    1    1    2  502    0 -0.13980348538E+02 -0.21367121564E+02 -0.21230989819E+03  0.21383988613E+03  0.00000000000E+00 0.  1.
</event>
<event>
 4    1  0.3752836E+003  0.2262880E+02  0.7546771E-02  0.1497213E+00
          2   -1    0    0  502    0  0.00000000000E+00  0.00000000000E+00  0.11496823265E+02  0.11496823265E+02  0.00000000000E+00 0. -1.
          1   -1    0    0  501    0 -0.00000000000E+00 -0.00000000000E+00 -0.39398713914E+03  0.39398713914E+03  0.00000000000E+00 0.  1.
          2    1    1    2  501    0  0.91308765858E+01 -0.20704817324E+02 -0.30655527489E+00  0.22630871477E+02  0.00000000000E+00 0. -1.
          1    1    1    2  502    0 -0.91308765858E+01  0.20704817324E+02 -0.38218376060E+03  0.38285309093E+03  0.00000000000E+00 0.  1.
</event>
<event>
 4    1  0.3752836E+003  0.4255595E+02  0.7546771E-02  0.1334126E+00
          2   -1    0    0  502    0  0.00000000000E+00  0.00000000000E+00  0.16312394824E+03  0.16312394824E+03  0.00000000000E+00 0. -1.
          1   -1    0    0  501    0 -0.00000000000E+00 -0.00000000000E+00 -0.29881399011E+02  0.29881399011E+02  0.00000000000E+00 0.  1.
          2    1    1    2  501    0  0.33923348432E+02  0.25694648128E+02  0.14312441639E+03  0.14931713591E+03  0.00000000000E+00 0. -1.
          1    1    1    2  502    0 -0.33923348432E+02 -0.25694648128E+02 -0.98818671579E+01  0.43688211337E+02  0.00000000000E+00 0.  1.
</event>
<event>
 4    1  0.3752836E+003  0.2990614E+02  0.7546771E-02  0.1420414E+00
          2   -1    0    0  502    0  0.00000000000E+00  0.00000000000E+00  0.16115557416E+04  0.16115557416E+04  0.00000000000E+00 0. -1.
          1   -1    0    0  501    0 -0.00000000000E+00 -0.00000000000E+00 -0.41256590861E+01  0.41256590861E+01  0.00000000000E+00 0.  1.
          2    1    1    2  501    0  0.21337655088E+02 -0.20954282051E+02  0.15552593874E+04  0.15555468940E+04  0.00000000000E+00 0. -1.
          1    1    1    2  502    0 -0.21337655088E+02  0.20954282051E+02  0.52170695115E+02  0.60134506648E+02  0.00000000000E+00 0.  1.
</event>
<event>
 4    1  0.3752836E+003  0.2857347E+02  0.7546771E-02  0.1432412E+00
          2   -1    0    0  502    0  0.00000000000E+00  0.00000000000E+00  0.69338178970E+03  0.69338178970E+03  0.00000000000E+00 0.  1.
          1   -1    0    0  501    0 -0.00000000000E+00 -0.00000000000E+00 -0.38042153288E+01  0.38042153288E+01  0.00000000000E+00 0.  1.
          2    1    1    2  501    0 -0.45526500599E+01  0.28208447864E+02  0.63445262564E+03  0.63509572297E+03  0.00000000000E+00 0.  1.
          1    1    1    2  502    0  0.45526500599E+01 -0.28208447864E+02  0.55124948729E+02  0.62090282057E+02  0.00000000000E+00 0.  1.
</event>
<event>
 4    1  0.3752836E+003  0.2087338E+02  0.7546771E-02  0.1521080E+00
          2   -1    0    0  502    0  0.00000000000E+00  0.00000000000E+00  0.16947900712E+03  0.16947900712E+03  0.00000000000E+00 0.  1.
          1   -1    0    0  501    0 -0.00000000000E+00 -0.00000000000E+00 -0.88482326079E+03  0.88482326079E+03  0.00000000000E+00 0.  1.
          2    1    1    2  501    0  0.91416970746E+01 -0.18765061847E+02  0.16871264462E+03  0.16999898419E+03  0.00000000000E+00 0.  1.
          1    1    1    2  502    0 -0.91416970746E+01  0.18765061847E+02 -0.88405689829E+03  0.88430328372E+03  0.00000000000E+00 0.  1.
</event>
<event>
 4    1  0.3752836E+003  0.3390615E+02  0.7546771E-02  0.1388421E+00
          2   -1    0    0  502    0  0.00000000000E+00  0.00000000000E+00  0.25335603434E+03  0.25335603434E+03  0.00000000000E+00 0.  1.
          1   -1    0    0  501    0 -0.00000000000E+00 -0.00000000000E+00 -0.13205195844E+02  0.13205195844E+02  0.00000000000E+00 0. -1.
          2    1    1    2  501    0 -0.21016094148E+02  0.26607339124E+02  0.22805560069E+03  0.23056232067E+03  0.00000000000E+00 0.  1.
          1    1    1    2  502    0  0.21016094148E+02 -0.26607339124E+02  0.12095237809E+02  0.35998909513E+02  0.00000000000E+00 0. -1.
</event>
<event>
 4    1  0.3752836E+003  0.2466107E+02  0.7546771E-02  0.1472631E+00
          2   -1    0    0  502    0  0.00000000000E+00  0.00000000000E+00  0.46869441940E+03  0.46869441940E+03  0.00000000000E+00 0. -1.
          1   -1    0    0  501    0 -0.00000000000E+00 -0.00000000000E+00 -0.30368651253E+03  0.30368651253E+03  0.00000000000E+00 0. -1.
          2    1    1    2  501    0 -0.20531497487E+02  0.13661112301E+02  0.46786848652E+03  0.46851797091E+03  0.00000000000E+00 0. -1.
          1    1    1    2  502    0  0.20531497487E+02 -0.13661112301E+02 -0.30286057965E+03  0.30386296103E+03  0.00000000000E+00 0. -1.
</event>
<event>
 4    1  0.3752836E+003  0.3103589E+02  0.7546771E-02  0.1410803E+00
          2   -1    0    0  502    0  0.00000000000E+00  0.00000000000E+00  0.42491531173E+02  0.42491531173E+02  0.00000000000E+00 0.  1.
          1   -1    0    0  501    0 -0.00000000000E+00 -0.00000000000E+00 -0.68734696278E+02  0.68734696278E+02  0.00000000000E+00 0.  1.
          2    1    1    2  501    0 -0.18352128894E+01  0.30981584674E+02  0.32406521715E+02  0.44871029016E+02  0.00000000000E+00 0.  1.
          1    1    1    2  502    0  0.18352128894E+01 -0.30981584674E+02 -0.58649686821E+02  0.66355198436E+02  0.00000000000E+00 0.  1.
</event>
<event>
 4    1  0.3752836E+003  0.2192258E+02  0.7546771E-02  0.1506489E+00
          2   -1    0    0  502    0  0.00000000000E+00  0.00000000000E+00  0.59617957792E+03  0.59617957792E+03  0.00000000000E+00 0. -1.
          1   -1    0    0  501    0 -0.00000000000E+00 -0.00000000000E+00 -0.78541477153E+01  0.78541477153E+01  0.00000000000E+00 0. -1.
          2    1    1    2  501    0  0.19078057515E+02  0.10799406869E+02  0.58026089165E+03  0.58067486758E+03  0.00000000000E+00 0. -1.
          1    1    1    2  502    0 -0.19078057515E+02 -0.10799406869E+02  0.80645385547E+01  0.23358858050E+02  0.00000000000E+00 0. -1.
</event>
<event>
 4    1  0.3752836E+003  0.2236145E+02  0.7546771E-02  0.1500676E+00
          2   -1    0    0  502    0  0.00000000000E+00  0.00000000000E+00  0.55751592810E+02  0.55751592810E+02  0.00000000000E+00 0. -1.
          1   -1    0    0  501    0 -0.00000000000E+00 -0.00000000000E+00 -0.65169820307E+03  0.65169820307E+03  0.00000000000E+00 0.  1.
          2    1    1    2  501    0 -0.19075035436E+02  0.11669511452E+02  0.53309097210E+02  0.57809119694E+02  0.00000000000E+00 0. -1.
          1    1    1    2  502    0  0.19075035436E+02 -0.11669511452E+02 -0.64925570747E+03  0.64964067618E+03  0.00000000000E+00 0.  1.
</event>
<event>
 4    1  0.3752836E+003  0.3280072E+02  0.7546771E-02  0.1396721E+00
          2   -1    0    0  502    0  0.00000000000E+00  0.00000000000E+00  0.37261044658E+03  0.37261044658E+03  0.00000000000E+00 0.  1.
          1   -1    0    0  501    0 -0.00000000000E+00 -0.00000000000E+00 -0.21514392082E+02  0.21514392082E+02  0.00000000000E+00 0. -1.
          2    1    1    2  501    0  0.25413475769E+01  0.32702125630E+02  0.35891041609E+03  0.36040612404E+03  0.00000000000E+00 0.  1.
          1    1    1    2  502    0 -0.25413475769E+01 -0.32702125630E+02 -0.78143615968E+01  0.33718714617E+02  0.00000000000E+00 0. -1.
</event>
<event>
 4    1  0.3752836E+003  0.2142880E+02  0.7546771E-02  0.1513230E+00
          2   -1    0    0  502    0  0.00000000000E+00  0.00000000000E+00  0.63030916163E+03  0.63030916163E+03  0.00000000000E+00 0.  1.
          1   -1    0    0  501    0 -0.00000000000E+00 -0.00000000000E+00 -0.60769693582E+01  0.60769693582E+01  0.00000000000E+00 0. -1.
          2    1    1    2  501    0  0.21412775587E+02  0.82859561445E+00  0.61062760966E+03  0.61100349525E+03  0.00000000000E+00 0.  1.
          1    1    1    2  502    0 -0.21412775587E+02 -0.82859561445E+00  0.13604582615E+02  0.25382635741E+02  0.00000000000E+00 0. -1.
</event>
<event>
 4    1  0.3752836E+003  0.3102810E+02  0.7546771E-02  0.1410868E+00
          2   -1    0    0  502    0  0.00000000000E+00  0.00000000000E+00  0.79702685421E+02  0.79702685421E+02  0.00000000000E+00 0.  1.
          1   -1    0    0  501    0 -0.00000000000E+00 -0.00000000000E+00 -0.44177774109E+03  0.44177774109E+03  0.00000000000E+00 0. -1.
          2    1    1    2  501    0  0.31024849916E+02  0.44906033159E+00  0.76113373984E+02  0.82194821410E+02  0.00000000000E+00 0.  1.
          1    1    1    2  502    0 -0.31024849916E+02 -0.44906033159E+00 -0.43818842965E+03  0.43928560510E+03  0.00000000000E+00 0. -1.
</event>
<event>
 4    1  0.3752836E+003  0.2214242E+02  0.7546771E-02  0.1503557E+00
          2   -1    0    0  502    0  0.00000000000E+00  0.00000000000E+00  0.12257109780E+01  0.12257109780E+01  0.00000000000E+00 0.  1.
          1   -1    0    0  501    0 -0.00000000000E+00 -0.00000000000E+00 -0.63864659506E+03  0.63864659506E+03  0.00000000000E+00 0. -1.
          2    1    1    2  501    0  0.21509603954E+02  0.52558044849E+01 -0.12313737721E+03  0.12511235035E+03  0.00000000000E+00 0.  1.
          1    1    1    2  502    0 -0.21509603954E+02 -0.52558044849E+01 -0.51428350687E+03  0.51475995569E+03  0.00000000000E+00 0. -1.
</event>
<event>
 4    1  0.3752836E+003  0.2068941E+02  0.7546771E-02  0.1523746E+00
          2   -1    0    0  502    0  0.00000000000E+00  0.00000000000E+00  0.94370834441E+02  0.94370834441E+02  0.00000000000E+00 0.  1.
          1   -1    0    0  501    0 -0.00000000000E+00 -0.00000000000E+00 -0.70980238467E+02  0.70980238467E+02  0.00000000000E+00 0. -1.
          2    1    1    2  501    0  0.18176157092E+02 -0.98832736874E+01  0.91685621741E+02  0.93990983713E+02  0.00000000000E+00 0.  1.
          1    1    1    2  502    0 -0.18176157092E+02  0.98832736874E+01 -0.68295025767E+02  0.71360089195E+02  0.00000000000E+00 0. -1.
</event>
<event>
 4    1  0.3752836E+003  0.2287742E+02  0.7546771E-02  0.1494043E+00
          2   -1    0    0  502    0  0.00000000000E+00  0.00000000000E+00  0.32124017084E+03  0.32124017084E+03  0.00000000000E+00 0. -1.
          1   -1    0    0  501    0 -0.00000000000E+00 -0.00000000000E+00 -0.34625816787E+01  0.34625816787E+01  0.00000000000E+00 0.  1.
          2    1    1    2  501    0  0.24800552062E+01  0.22742595464E+02  0.27702364636E+03  0.27796668319E+03  0.00000000000E+00 0. -1.
          1    1    1    2  502    0 -0.24800552062E+01 -0.22742595464E+02  0.40753942804E+02  0.46736069329E+02  0.00000000000E+00 0.  1.
</event>
<event>
 4    1  0.3752836E+003  0.2014092E+02  0.7546771E-02  0.1531892E+00
          2   -1    0    0  502    0  0.00000000000E+00  0.00000000000E+00  0.17379539366E+02  0.17379539366E+02  0.00000000000E+00 0.  1.
          1   -1    0    0  501    0 -0.00000000000E+00 -0.00000000000E+00 -0.37375881654E+02  0.37375881654E+02  0.00000000000E+00 0.  1.
          2    1    1    2  501    0  0.13929580072E+02  0.14547283228E+02  0.67784713420E+01  0.21250984072E+02  0.00000000000E+00 0.  1.
          1    1    1    2  502    0 -0.13929580072E+02 -0.14547283228E+02 -0.26774813630E+02  0.33504436948E+02  0.00000000000E+00 0.  1.
</event>
<event>
 4    1  0.3752836E+003  0.2381649E+02  0.7546771E-02  0.1482492E+00
          2   -1    0    0  502    0  0.00000000000E+00  0.00000000000E+00  0.46768189252E+00  0.46768189252E+00  0.00000000000E+00 0.  1.
          1   -1    0    0  501    0 -0.00000000000E+00 -0.00000000000E+00 -0.14270370460E+04  0.14270370460E+04  0.00000000000E+00 0. -1.
          2    1    1    2  501    0 -0.32725621458E+01  0.23590584356E+02 -0.43676103181E+03  0.43740990414E+03  0.00000000000E+00 0.  1.
          1    1    1    2  502    0  0.32725621458E+01 -0.23590584356E+02 -0.98980833227E+03  0.99009482373E+03  0.00000000000E+00 0. -1.
</event>
<event>
 4    1  0.3752836E+003  0.2279918E+02  0.7546771E-02  0.1495035E+00
          2   -1    0    0  502    0  0.00000000000E+00  0.00000000000E+00  0.24748090367E+02  0.24748090367E+02  0.00000000000E+00 0.  1.
          1   -1    0    0  501    0 -0.00000000000E+00 -0.00000000000E+00 -0.22260886705E+03  0.22260886705E+03  0.00000000000E+00 0.  1.
          2    1    1    2  501    0 -0.85540400797E+01 -0.21133644060E+02  0.18768859833E+02  0.29530875577E+02  0.00000000000E+00 0.  1.
          1    1    1    2  502    0  0.85540400797E+01  0.21133644060E+02 -0.21662963651E+03  0.21782608184E+03  0.00000000000E+00 0.  1.
</event>
<event>
 4    1  0.3752836E+003  0.2164655E+02  0.7546771E-02  0.1510231E+00
          2   -1    0    0  502    0  0.00000000000E+00  0.00000000000E+00  0.92753512506E+01  0.92753512506E+01  0.00000000000E+00 0. -1.
          1   -1    0    0  501    0 -0.00000000000E+00 -0.00000000000E+00 -0.39136767604E+03  0.39136767604E+03  0.00000000000E+00 0.  1.
          2    1    1    2  501    0  0.21493976377E+02 -0.25655531422E+01 -0.41000242449E+01  0.22031415801E+02  0.00000000000E+00 0. -1.
          1    1    1    2  502    0 -0.21493976377E+02  0.25655531422E+01 -0.37799230054E+03  0.37861161149E+03  0.00000000000E+00 0.  1.
</event>
<event>
 4    1  0.3752836E+003  0.3304225E+02  0.7546771E-02  0.1394875E+00
          2   -1    0    0  502    0  0.00000000000E+00  0.00000000000E+00  0.61465403678E+01  0.61465403678E+01  0.00000000000E+00 0. -1.
          1   -1    0    0  501    0 -0.00000000000E+00 -0.00000000000E+00 -0.44768193482E+03  0.44768193482E+03  0.00000000000E+00 0. -1.
          2    1    1    2  501    0  0.14973340712E+02  0.29454867837E+02 -0.44528219373E+02  0.55448647341E+02  0.00000000000E+00 0. -1.
          1    1    1    2  502    0 -0.14973340712E+02 -0.29454867837E+02 -0.39700717508E+03  0.39837982785E+03  0.00000000000E+00 0. -1.
</event>
<event>
 4    1  0.3752836E+003  0.2046968E+02  0.7546771E-02  0.1526973E+00
          2   -1    0    0  502    0  0.00000000000E+00  0.00000000000E+00  0.39379776461E+03  0.39379776461E+03  0.00000000000E+00 0. -1.
          1   -1    0    0  501    0 -0.00000000000E+00 -0.00000000000E+00 -0.91338880142E+03  0.91338880142E+03  0.00000000000E+00 0. -1.
          2    1    1    2  501    0  0.98835096272E+01  0.17925517390E+02  0.39341696418E+03  0.39394912824E+03  0.00000000000E+00 0. -1.
          1    1    1    2  502    0 -0.98835096272E+01 -0.17925517390E+02 -0.91300800098E+03  0.91323743780E+03  0.00000000000E+00 0. -1.
</event>
<event>
 4    1  0.3752836E+003  0.2541277E+02  0.7546771E-02  0.1464238E+00
          2   -1    0    0  502    0  0.00000000000E+00  0.00000000000E+00  0.10853129799E+04  0.10853129799E+04  0.00000000000E+00 0. -1.
          1   -1    0    0  501    0 -0.00000000000E+00 -0.00000000000E+00 -0.32749311355E+03  0.32749311355E+03  0.00000000000E+00 0. -1.
          2    1    1    2  501    0 -0.25372091970E+02 -0.14372219471E+01  0.10846709331E+04  0.10849685903E+04  0.00000000000E+00 0. -1.
          1    1    1    2  502    0  0.25372091970E+02  0.14372219471E+01 -0.32685106677E+03  0.32783750320E+03  0.00000000000E+00 0. -1.
</event>
<event>
 4    1  0.3752836E+003  0.2411914E+02  0.7546771E-02  0.1478904E+00
          2   -1    0    0  502    0  0.00000000000E+00  0.00000000000E+00  0.76748138130E+02  0.76748138130E+02  0.00000000000E+00 0. -1.
          1   -1    0    0  501    0 -0.00000000000E+00 -0.00000000000E+00 -0.26351786135E+03  0.26351786135E+03  0.00000000000E+00 0.  1.
          2    1    1    2  501    0 -0.23307302829E+02 -0.62050242390E+01  0.74283453553E+02  0.78100986952E+02  0.00000000000E+00 0. -1.
          1    1    1    2  502    0  0.23307302829E+02  0.62050242390E+01 -0.26105317677E+03  0.26216501252E+03  0.00000000000E+00 0.  1.
</event>
<event>
 4    1  0.3752836E+003  0.3678564E+02  0.7546771E-02  0.1368426E+00
          2   -1    0    0  502    0  0.00000000000E+00  0.00000000000E+00  0.19815892489E+02  0.19815892489E+02  0.00000000000E+00 0. -1.
          1   -1    0    0  501    0 -0.00000000000E+00 -0.00000000000E+00 -0.38437256473E+03  0.38437256473E+03  0.00000000000E+00 0. -1.
          2    1    1    2  501    0  0.35163687801E+02 -0.10802718963E+02  0.98665196350E+00  0.36798874423E+02  0.00000000000E+00 0. -1.
          1    1    1    2  502    0 -0.35163687801E+02  0.10802718963E+02 -0.36554332420E+03  0.36738958279E+03  0.00000000000E+00 0. -1.
</event>
<event>
 4    1  0.3752836E+003  0.2028340E+02  0.7546771E-02  0.1529747E+00
          2   -1    0    0  502    0  0.00000000000E+00  0.00000000000E+00  0.29812145362E+02  0.29812145362E+02  0.00000000000E+00 0. -1.
          1   -1    0    0  501    0 -0.00000000000E+00 -0.00000000000E+00 -0.27538105872E+03  0.27538105872E+03  0.00000000000E+00 0. -1.
          2    1    1    2  501    0  0.88119726853E+01  0.18269246125E+02  0.25939433656E+02  0.32928261949E+02  0.00000000000E+00 0. -1.
          1    1    1    2  502    0 -0.88119726853E+01 -0.18269246125E+02 -0.27150834701E+03  0.27226494213E+03  0.00000000000E+00 0. -1.
</event>
<event>
 4    1  0.3752836E+003  0.3618190E+02  0.7546771E-02  0.1372439E+00
          2   -1    0    0  502    0  0.00000000000E+00  0.00000000000E+00  0.30249363674E+02  0.30249363674E+02  0.00000000000E+00 0.  1.
          1   -1    0    0  501    0 -0.00000000000E+00 -0.00000000000E+00 -0.43532952332E+02  0.43532952332E+02  0.00000000000E+00 0.  1.
          2    1    1    2  501    0 -0.20482821119E+02 -0.29825888408E+02 -0.38181515884E+01  0.36382796234E+02  0.00000000000E+00 0.  1.
          1    1    1    2  502    0  0.20482821119E+02  0.29825888408E+02 -0.94654370689E+01  0.37399519772E+02  0.00000000000E+00 0.  1.
</event>
<event>
 4    1  0.3752836E+003  0.2313170E+02  0.7546771E-02  0.1490851E+00
          2   -1    0    0  502    0  0.00000000000E+00  0.00000000000E+00  0.39991258832E+02  0.39991258832E+02  0.00000000000E+00 0.  1.
          1   -1    0    0  501    0 -0.00000000000E+00 -0.00000000000E+00 -0.54975667429E+02  0.54975667429E+02  0.00000000000E+00 0. -1.
          2    1    1    2  501    0 -0.21497625409E+02  0.85397733528E+01  0.33810848016E+02  0.40966438346E+02  0.00000000000E+00 0.  1.
          1    1    1    2  502    0  0.21497625409E+02 -0.85397733528E+01 -0.48795256614E+02  0.54000487916E+02  0.00000000000E+00 0. -1.
</event>
<event>
 4    1  0.3752836E+003  0.2292439E+02  0.7546771E-02  0.1493450E+00
          2   -1    0    0  502    0  0.00000000000E+00  0.00000000000E+00  0.16111111922E+02  0.16111111922E+02  0.00000000000E+00 0.  1.
          1   -1    0    0  501    0 -0.00000000000E+00 -0.00000000000E+00 -0.10492987175E+04  0.10492987175E+04  0.00000000000E+00 0. -1.
          2    1    1    2  501    0  0.21637271841E+02 -0.75733886905E+01  0.77657935288E+01  0.24204034748E+02  0.00000000000E+00 0.  1.
          1    1    1    2  502    0 -0.21637271841E+02  0.75733886905E+01 -0.10409533991E+04  0.10412057946E+04  0.00000000000E+00 0. -1.
</event>
<event>
 4    1  0.3752836E+003  0.3309288E+02  0.7546771E-02  0.1394490E+00
          2   -1    0    0  502    0  0.00000000000E+00  0.00000000000E+00  0.94447303591E+00  0.94447303591E+00  0.00000000000E+00 0. -1.
          1   -1    0    0  501    0 -0.00000000000E+00 -0.00000000000E+00 -0.12169409944E+04  0.12169409944E+04  0.00000000000E+00 0. -1.
          2    1    1    2  501    0 -0.32282850891E+02  0.72770908027E+01 -0.47572730746E+03  0.47687693336E+03  0.00000000000E+00 0. -1.
          1    1    1    2  502    0  0.32282850891E+02 -0.72770908027E+01 -0.74026921391E+03  0.74100853407E+03  0.00000000000E+00 0. -1.
</event>
<event>
 4    1  0.3752836E+003  0.2742512E+02  0.7546771E-02  0.1443384E+00
          2   -1    0    0  502    0  0.00000000000E+00  0.00000000000E+00  0.41121623129E+01  0.41121623129E+01  0.00000000000E+00 0.  1.
          1   -1    0    0  501    0 -0.00000000000E+00 -0.00000000000E+00 -0.12043270150E+04  0.12043270150E+04  0.00000000000E+00 0.  1.
          2    1    1    2  501    0 -0.22824564388E+01  0.27329976113E+02 -0.43658790077E+02  0.51557997951E+02  0.00000000000E+00 0.  1.
          1    1    1    2  502    0  0.22824564388E+01 -0.27329976113E+02 -0.11565560626E+04  0.11568811794E+04  0.00000000000E+00 0.  1.
</event>
<event>
 4    1  0.3752836E+003  0.3820814E+02  0.7546771E-02  0.1359318E+00
          2   -1    0    0  502    0  0.00000000000E+00  0.00000000000E+00  0.24093549479E+03  0.24093549479E+03  0.00000000000E+00 0.  1.
          1   -1    0    0  501    0 -0.00000000000E+00 -0.00000000000E+00 -0.55401904374E+02  0.55401904374E+02  0.00000000000E+00 0.  1.
          2    1    1    2  501    0 -0.91570092298E+01 -0.37094620496E+02  0.23259856833E+03  0.23571583671E+03  0.00000000000E+00 0.  1.
          1    1    1    2  502    0  0.91570092298E+01  0.37094620496E+02 -0.47064977915E+02  0.60621562451E+02  0.00000000000E+00 0.  1.
</event>
<event>
 4    1  0.3752836E+003  0.2779019E+02  0.7546771E-02  0.1439828E+00
          2   -1    0    0  502    0  0.00000000000E+00  0.00000000000E+00  0.20438040782E+03  0.20438040782E+03  0.00000000000E+00 0. -1.
          1   -1    0    0  501    0 -0.00000000000E+00 -0.00000000000E+00 -0.18127574048E+02  0.18127574048E+02  0.00000000000E+00 0.  1.
          2    1    1    2  501    0 -0.26733866342E+02  0.75891555851E+01  0.19210801717E+03  0.19410766382E+03  0.00000000000E+00 0. -1.
          1    1    1    2  502    0  0.26733866342E+02 -0.75891555851E+01 -0.58551834070E+01  0.28400318041E+02  0.00000000000E+00 0.  1.
</event>
<event>
 4    1  0.3752836E+003  0.2932233E+02  0.7546771E-02  0.1425578E+00
          2   -1    0    0  502    0  0.00000000000E+00  0.00000000000E+00  0.65611721668E+03  0.65611721668E+03  0.00000000000E+00 0. -1.
          1   -1    0    0  501    0 -0.00000000000E+00 -0.00000000000E+00 -0.84537400404E+02  0.84537400404E+02  0.00000000000E+00 0.  1.
          2    1    1    2  501    0  0.25500169757E+02 -0.14475515603E+02  0.65323573835E+03  0.65389351508E+03  0.00000000000E+00 0. -1.
          1    1    1    2  502    0 -0.25500169757E+02  0.14475515603E+02 -0.81655922077E+02  0.86761101998E+02  0.00000000000E+00 0.  1.
</event>
<event>
 4    1  0.3752836E+003  0.2929304E+02  0.7546771E-02  0.1425841E+00
          2   -1    0    0  502    0  0.00000000000E+00  0.00000000000E+00  0.83792631905E+03  0.83792631905E+03  0.00000000000E+00 0.  1.
          1   -1    0    0  501    0 -0.00000000000E+00 -0.00000000000E+00 -0.53827953736E+02  0.53827953736E+02  0.00000000000E+00 0.  1.
          2    1    1    2  501    0 -0.39193866944E+00 -0.29290422268E+02  0.83366463756E+03  0.83417912367E+03  0.00000000000E+00 0.  1.
          1    1    1    2  502    0  0.39193866944E+00  0.29290422268E+02 -0.49566272239E+02  0.57575149120E+02  0.00000000000E+00 0.  1.
</event>
<event>
 4    1  0.3752836E+003  0.2769116E+02  0.7546771E-02  0.1440786E+00
          2   -1    0    0  502    0  0.00000000000E+00  0.00000000000E+00  0.13896592340E+03  0.13896592340E+03  0.00000000000E+00 0.  1.
          1   -1    0    0  501    0 -0.00000000000E+00 -0.00000000000E+00 -0.20533376187E+02  0.20533376187E+02  0.00000000000E+00 0. -1.
          2    1    1    2  501    0 -0.27284920137E+02 -0.47258449315E+01  0.12741372029E+03  0.13038809990E+03  0.00000000000E+00 0.  1.
          1    1    1    2  502    0  0.27284920137E+02  0.47258449315E+01 -0.89811730801E+01  0.29111199685E+02  0.00000000000E+00 0. -1.
</event>
<event>
 4    1  0.3752836E+003  0.2093113E+02  0.7546771E-02  0.1520250E+00
          2   -1    0    0  502    0  0.00000000000E+00  0.00000000000E+00  0.10707063424E+02  0.10707063424E+02  0.00000000000E+00 0. -1.
          1   -1    0    0  501    0 -0.00000000000E+00 -0.00000000000E+00 -0.53586512252E+03  0.53586512252E+03  0.00000000000E+00 0.  1.
          2    1    1    2  501    0  0.15731799636E+02  0.13806611230E+02  0.65990770833E-01  0.20931229974E+02  0.00000000000E+00 0. -1.
          1    1    1    2  502    0 -0.15731799636E+02 -0.13806611230E+02 -0.52522404987E+03  0.52564095597E+03  0.00000000000E+00 0.  1.
</event>
<event>
 4    1  0.3752836E+003  0.2417380E+02  0.7546771E-02  0.1478262E+00
          2   -1    0    0  502    0  0.00000000000E+00  0.00000000000E+00  0.48746019816E+02  0.48746019816E+02  0.00000000000E+00 0.  1.
          1   -1    0    0  501    0 -0.00000000000E+00 -0.00000000000E+00 -0.23521694255E+03  0.23521694255E+03  0.00000000000E+00 0.  1.
          2    1    1    2  501    0  0.55984743690E+01  0.23516587290E+02  0.45080577610E+02  0.51153018197E+02  0.00000000000E+00 0.  1.
          1    1    1    2  502    0 -0.55984743690E+01 -0.23516587290E+02 -0.23155150034E+03  0.23280994417E+03  0.00000000000E+00 0.  1.
</event>
<event>
 4    1  0.3752836E+003  0.3609075E+02  0.7546771E-02  0.1373053E+00
          2   -1    0    0  502    0  0.00000000000E+00  0.00000000000E+00  0.36039530542E+01  0.36039530542E+01  0.00000000000E+00 0.  1.
          1   -1    0    0  501    0 -0.00000000000E+00 -0.00000000000E+00 -0.25630840123E+04  0.25630840123E+04  0.00000000000E+00 0. -1.
          2    1    1    2  501    0  0.35520381179E+02 -0.63909710533E+01 -0.90314804578E+02  0.97258963166E+02  0.00000000000E+00 0.  1.
          1    1    1    2  502    0 -0.35520381179E+02  0.63909710533E+01 -0.24691652546E+04  0.24694290022E+04  0.00000000000E+00 0. -1.
</event>
<event>
 4    1  0.3752836E+003  0.2387212E+02  0.7546771E-02  0.1481828E+00
          2   -1    0    0  502    0  0.00000000000E+00  0.00000000000E+00  0.18427058340E+02  0.18427058340E+02  0.00000000000E+00 0. -1.
          1   -1    0    0  501    0 -0.00000000000E+00 -0.00000000000E+00 -0.62337499504E+02  0.62337499504E+02  0.00000000000E+00 0. -1.
          2    1    1    2  501    0  0.16139074233E+02  0.17590012636E+02  0.67102663570E+01  0.24797296954E+02  0.00000000000E+00 0. -1.
          1    1    1    2  502    0 -0.16139074233E+02 -0.17590012636E+02 -0.50620707521E+02  0.55967260891E+02  0.00000000000E+00 0. -1.
</event>
<event>
 4    1  0.3752836E+003  0.2314408E+02  0.7546771E-02  0.1490697E+00
          2   -1    0    0  502    0  0.00000000000E+00  0.00000000000E+00  0.84736701242E+03  0.84736701242E+03  0.00000000000E+00 0. -1.
          1   -1    0    0  501    0 -0.00000000000E+00 -0.00000000000E+00 -0.45272284225E+02  0.45272284225E+02  0.00000000000E+00 0. -1.
          2    1    1    2  501    0  0.12312328517E+02  0.19597321877E+02  0.84424009859E+03  0.84455727605E+03  0.00000000000E+00 0. -1.
          1    1    1    2  502    0 -0.12312328517E+02 -0.19597321877E+02 -0.42145370399E+02  0.48082020593E+02  0.00000000000E+00 0. -1.
</event>
<event>
 4    1  0.3752836E+003  0.2609320E+02  0.7546771E-02  0.1456936E+00
          2   -1    0    0  502    0  0.00000000000E+00  0.00000000000E+00  0.40906544012E+03  0.40906544012E+03  0.00000000000E+00 0.  1.
          1   -1    0    0  501    0 -0.00000000000E+00 -0.00000000000E+00 -0.22640030962E+02  0.22640030962E+02  0.00000000000E+00 0.  1.
          2    1    1    2  501    0 -0.23432084796E+02 -0.11480090811E+02  0.40097962345E+03  0.40182771620E+03  0.00000000000E+00 0.  1.
          1    1    1    2  502    0  0.23432084796E+02  0.11480090811E+02 -0.14554214295E+02  0.29877754880E+02  0.00000000000E+00 0.  1.
</event>
<event>
 4    1  0.3752836E+003  0.2035135E+02  0.7546771E-02  0.1528731E+00
          2   -1    0    0  502    0  0.00000000000E+00  0.00000000000E+00  0.37305812771E+01  0.37305812771E+01  0.00000000000E+00 0.  1.
          1   -1    0    0  501    0 -0.00000000000E+00 -0.00000000000E+00 -0.23806660325E+03  0.23806660325E+03  0.00000000000E+00 0. -1.
          2    1    1    2  501    0  0.98692655553E+01 -0.17798172492E+02 -0.28849899826E+02  0.35305722859E+02  0.00000000000E+00 0.  1.
          1    1    1    2  502    0 -0.98692655553E+01  0.17798172492E+02 -0.20548612214E+03  0.20649146166E+03  0.00000000000E+00 0. -1.
</event>
<event>
 4    1  0.3752836E+003  0.2376733E+02  0.7546771E-02  0.1483081E+00
          2   -1    0    0  502    0  0.00000000000E+00  0.00000000000E+00  0.14478223623E+03  0.14478223623E+03  0.00000000000E+00 0.  1.
          1   -1    0    0  501    0 -0.00000000000E+00 -0.00000000000E+00 -0.86486649057E+01  0.86486649057E+01  0.00000000000E+00 0.  1.
          2    1    1    2  501    0  0.23351021396E+02 -0.44289477492E+01  0.12490230251E+03  0.12714350534E+03  0.00000000000E+00 0.  1.
          1    1    1    2  502    0 -0.23351021396E+02  0.44289477492E+01  0.11231268813E+02  0.26287395793E+02  0.00000000000E+00 0.  1.
</event>
<event>
 4    1  0.3752836E+003  0.6132328E+02  0.7546771E-02  0.1255402E+00
          2   -1    0    0  502    0  0.00000000000E+00  0.00000000000E+00  0.74578633851E+03  0.74578633851E+03  0.00000000000E+00 0. -1.
          1   -1    0    0  501    0 -0.00000000000E+00 -0.00000000000E+00 -0.89256436551E+01  0.89256436551E+01  0.00000000000E+00 0.  1.
          2    1    1    2  501    0 -0.59922017406E+02 -0.13034440522E+02  0.61733293677E+03  0.62037125951E+03  0.00000000000E+00 0. -1.
          1    1    1    2  502    0  0.59922017406E+02  0.13034440522E+02  0.11952775809E+03  0.13434072265E+03  0.00000000000E+00 0.  1.
</event>
<event>
 4    1  0.3752836E+003  0.2303162E+02  0.7546771E-02  0.1492102E+00
          2   -1    0    0  502    0  0.00000000000E+00  0.00000000000E+00  0.57937319938E+01  0.57937319938E+01  0.00000000000E+00 0. -1.
          1   -1    0    0  501    0 -0.00000000000E+00 -0.00000000000E+00 -0.96397952133E+03  0.96397952133E+03  0.00000000000E+00 0.  1.
          2    1    1    2  501    0 -0.18807278034E+02 -0.13294420429E+02 -0.17807401798E+02  0.29112864517E+02  0.00000000000E+00 0. -1.
          1    1    1    2  502    0  0.18807278034E+02  0.13294420429E+02 -0.94037838754E+03  0.94066038881E+03  0.00000000000E+00 0.  1.
</event>
<event>
 4    1  0.3752836E+003  0.2222967E+02  0.7546771E-02  0.1502404E+00
          2   -1    0    0  502    0  0.00000000000E+00  0.00000000000E+00  0.15727981023E+04  0.15727981023E+04  0.00000000000E+00 0. -1.
          1   -1    0    0  501    0 -0.00000000000E+00 -0.00000000000E+00 -0.71282441048E+01  0.71282441048E+01  0.00000000000E+00 0. -1.
          2    1    1    2  501    0 -0.20453162624E+02  0.87078437195E+01  0.15551923668E+04  0.15553512324E+04  0.00000000000E+00 0. -1.
          1    1    1    2  502    0  0.20453162624E+02 -0.87078437195E+01  0.10477491452E+02  0.24575114052E+02  0.00000000000E+00 0. -1.
</event>
<event>
 4    1  0.3752836E+003  0.2142483E+02  0.7546771E-02  0.1513285E+00
          2   -1    0    0  502    0  0.00000000000E+00  0.00000000000E+00  0.12715253083E+02  0.12715253083E+02  0.00000000000E+00 0. -1.
          1   -1    0    0  501    0 -0.00000000000E+00 -0.00000000000E+00 -0.40434981399E+02  0.40434981399E+02  0.00000000000E+00 0. -1.
          2    1    1    2  501    0 -0.18830775759E+02  0.10218860729E+02 -0.51586478476E+01  0.22037124992E+02  0.00000000000E+00 0. -1.
          1    1    1    2  502    0  0.18830775759E+02 -0.10218860729E+02 -0.22561080468E+02  0.31113109491E+02  0.00000000000E+00 0. -1.
</event>
<event>
 4    1  0.3752836E+003  0.4057758E+02  0.7546771E-02  0.1345134E+00
          2   -1    0    0  502    0  0.00000000000E+00  0.00000000000E+00  0.37009493576E+03  0.37009493576E+03  0.00000000000E+00 0.  1.
          1   -1    0    0  501    0 -0.00000000000E+00 -0.00000000000E+00 -0.64538281785E+01  0.64538281785E+01  0.00000000000E+00 0. -1.
          2    1    1    2  501    0 -0.25241228471E+02  0.31771372681E+02  0.28675662666E+03  0.28961336756E+03  0.00000000000E+00 0.  1.
          1    1    1    2  502    0  0.25241228471E+02 -0.31771372681E+02  0.76884480926E+02  0.86935396381E+02  0.00000000000E+00 0. -1.
</event>
<event>
 4    1  0.3752836E+003  0.2487559E+02  0.7546771E-02  0.1470200E+00
          2   -1    0    0  502    0  0.00000000000E+00  0.00000000000E+00  0.29433419416E+03  0.29433419416E+03  0.00000000000E+00 0. -1.
          1   -1    0    0  501    0 -0.00000000000E+00 -0.00000000000E+00 -0.23604418891E+02  0.23604418891E+02  0.00000000000E+00 0.  1.
          2    1    1    2  501    0 -0.23757335603E+02  0.73745478946E+01  0.28708973092E+03  0.28816541873E+03  0.00000000000E+00 0. -1.
          1    1    1    2  502    0  0.23757335603E+02 -0.73745478946E+01 -0.16359955647E+02  0.29773194326E+02  0.00000000000E+00 0.  1.
</event>
<event>
 4    1  0.3752836E+003  0.2659565E+02  0.7546771E-02  0.1451713E+00
          2   -1    0    0  502    0  0.00000000000E+00  0.00000000000E+00  0.25701953990E+03  0.25701953990E+03  0.00000000000E+00 0.  1.
          1   -1    0    0  501    0 -0.00000000000E+00 -0.00000000000E+00 -0.24411307823E+02  0.24411307823E+02  0.00000000000E+00 0. -1.
          2    1    1    2  501    0  0.24282050720E+02 -0.10849446560E+02  0.24885055028E+03  0.25026770637E+03  0.00000000000E+00 0.  1.
          1    1    1    2  502    0 -0.24282050720E+02  0.10849446560E+02 -0.16242318207E+02  0.31163141347E+02  0.00000000000E+00 0. -1.
</event>
<event>
 4    1  0.3752836E+003  0.5854129E+02  0.7546771E-02  0.1264871E+00
          2   -1    0    0  502    0  0.00000000000E+00  0.00000000000E+00  0.18594645402E+04  0.18594645402E+04  0.00000000000E+00 0. -1.
          1   -1    0    0  501    0 -0.00000000000E+00 -0.00000000000E+00 -0.74587434943E+03  0.74587434943E+03  0.00000000000E+00 0.  1.
          2    1    1    2  501    0 -0.35647772745E+02 -0.46436178751E+02  0.18578541032E+04  0.18587761972E+04  0.00000000000E+00 0. -1.
          1    1    1    2  502    0  0.35647772745E+02  0.46436178751E+02 -0.74426391244E+03  0.74656269245E+03  0.00000000000E+00 0.  1.
</event>
<event>
 4    1  0.3752836E+003  0.2535702E+02  0.7546771E-02  0.1464849E+00
          2   -1    0    0  502    0  0.00000000000E+00  0.00000000000E+00  0.26669631292E+03  0.26669631292E+03  0.00000000000E+00 0.  1.
          1   -1    0    0  501    0 -0.00000000000E+00 -0.00000000000E+00 -0.41988983195E+01  0.41988983195E+01  0.00000000000E+00 0.  1.
          2    1    1    2  501    0  0.20783098773E+02 -0.14527251273E+02  0.21963545798E+03  0.22109435232E+03  0.00000000000E+00 0.  1.
          1    1    1    2  502    0 -0.20783098773E+02  0.14527251273E+02  0.42861956624E+02  0.49800858926E+02  0.00000000000E+00 0.  1.
</event>
<event>
 4    1  0.3752836E+003  0.2332478E+02  0.7546771E-02  0.1488460E+00
          2   -1    0    0  502    0  0.00000000000E+00  0.00000000000E+00  0.30281573071E+02  0.30281573071E+02  0.00000000000E+00 0. -1.
          1   -1    0    0  501    0 -0.00000000000E+00 -0.00000000000E+00 -0.30926646694E+02  0.30926646694E+02  0.00000000000E+00 0.  1.
          2    1    1    2  501    0 -0.91483572365E+01  0.21455832024E+02  0.19489225846E+02  0.30395313653E+02  0.00000000000E+00 0. -1.
          1    1    1    2  502    0  0.91483572365E+01 -0.21455832024E+02 -0.20134299470E+02  0.30812906113E+02  0.00000000000E+00 0.  1.
</event>
<event>
 4    1  0.3752836E+003  0.3043382E+02  0.7546771E-02  0.1415863E+00
          2   -1    0    0  502    0  0.00000000000E+00  0.00000000000E+00  0.55040632735E+03  0.55040632735E+03  0.00000000000E+00 0.  1.
          1   -1    0    0  501    0 -0.00000000000E+00 -0.00000000000E+00 -0.15554338113E+02  0.15554338113E+02  0.00000000000E+00 0.  1.
          2    1    1    2  501    0 -0.92457412131E+01 -0.28995402613E+02  0.53466077748E+03  0.53552624966E+03  0.00000000000E+00 0.  1.
          1    1    1    2  502    0  0.92457412131E+01  0.28995402613E+02  0.19121175926E+00  0.30434415802E+02  0.00000000000E+00 0.  1.
</event>
<event>
 4    1  0.3752836E+003  0.2618159E+02  0.7546771E-02  0.1456007E+00
          2   -1    0    0  502    0  0.00000000000E+00  0.00000000000E+00  0.16730391424E+02  0.16730391424E+02  0.00000000000E+00 0.  1.
          1   -1    0    0  501    0 -0.00000000000E+00 -0.00000000000E+00 -0.12325509956E+03  0.12325509956E+03  0.00000000000E+00 0.  1.
          2    1    1    2  501    0 -0.34860834937E+01 -0.25948469815E+02  0.39258128010E+01  0.26474286960E+02  0.00000000000E+00 0.  1.
          1    1    1    2  502    0  0.34860834937E+01  0.25948469815E+02 -0.11045052094E+03  0.11351120402E+03  0.00000000000E+00 0.  1.
</event>
<event>
 4    1  0.3752836E+003  0.9590022E+02  0.7546771E-02  0.1171108E+00
          2   -1    0    0  502    0  0.00000000000E+00  0.00000000000E+00  0.14907640339E+02  0.14907640339E+02  0.00000000000E+00 0. -1.
          1   -1    0    0  501    0 -0.00000000000E+00 -0.00000000000E+00 -0.78466158151E+03  0.78466158151E+03  0.00000000000E+00 0. -1.
          2    1    1    2  501    0  0.82967983254E+01 -0.95540601458E+02 -0.56972011250E+03  0.57773510364E+03  0.00000000000E+00 0. -1.
          1    1    1    2  502    0 -0.82967983254E+01  0.95540601458E+02 -0.20003382867E+03  0.22183411821E+03  0.00000000000E+00 0. -1.
</event>
<event>
 4    1  0.3752836E+003  0.2457830E+02  0.7546771E-02  0.1473577E+00
          2   -1    0    0  502    0  0.00000000000E+00  0.00000000000E+00  0.31546518947E+03  0.31546518947E+03  0.00000000000E+00 0. -1.
          1   -1    0    0  501    0 -0.00000000000E+00 -0.00000000000E+00 -0.83803865335E+03  0.83803865335E+03  0.00000000000E+00 0. -1.
          2    1    1    2  501    0  0.82945576928E+01 -0.23136404499E+02  0.31480587046E+03  0.31576388168E+03  0.00000000000E+00 0. -1.
          1    1    1    2  502    0 -0.82945576928E+01  0.23136404499E+02 -0.83737933434E+03  0.83773996114E+03  0.00000000000E+00 0. -1.
</event>
<event>
 4    1  0.3752836E+003  0.2055437E+02  0.7546771E-02  0.1525723E+00
          2   -1    0    0  502    0  0.00000000000E+00  0.00000000000E+00  0.73198931498E+03  0.73198931498E+03  0.00000000000E+00 0.  1.
          1   -1    0    0  501    0 -0.00000000000E+00 -0.00000000000E+00 -0.79778287444E+00  0.79778287444E+00  0.00000000000E+00 0. -1.
          2    1    1    2  501    0 -0.10974223326E+02  0.17379548998E+02  0.55826876299E+03  0.55864702096E+03  0.00000000000E+00 0.  1.
          1    1    1    2  502    0  0.10974223326E+02 -0.17379548998E+02  0.17292276911E+03  0.17414007689E+03  0.00000000000E+00 0. -1.
</event>
<event>
 4    1  0.3752836E+003  0.3172317E+02  0.7546771E-02  0.1405191E+00
          2   -1    0    0  502    0  0.00000000000E+00  0.00000000000E+00  0.29864186714E+03  0.29864186714E+03  0.00000000000E+00 0. -1.
          1   -1    0    0  501    0 -0.00000000000E+00 -0.00000000000E+00 -0.76329654149E+01  0.76329654149E+01  0.00000000000E+00 0. -1.
          2    1    1    2  501    0 -0.19659761897E+02  0.24896847145E+02  0.25995067380E+03  0.26187919361E+03  0.00000000000E+00 0. -1.
          1    1    1    2  502    0  0.19659761897E+02 -0.24896847145E+02  0.31058227922E+02  0.44395638944E+02  0.00000000000E+00 0. -1.
</event>
<event>
 4    1  0.3752836E+003  0.2721360E+02  0.7546771E-02  0.1445474E+00
          2   -1    0    0  502    0  0.00000000000E+00  0.00000000000E+00  0.66642630971E+01  0.66642630971E+01  0.00000000000E+00 0.  1.
          1   -1    0    0  501    0 -0.00000000000E+00 -0.00000000000E+00 -0.48794794634E+03  0.48794794634E+03  0.00000000000E+00 0.  1.
          2    1    1    2  501    0  0.66761985950E+01  0.26381973398E+02 -0.23313904695E+02  0.35834596414E+02  0.00000000000E+00 0.  1.
          1    1    1    2  502    0 -0.66761985950E+01 -0.26381973398E+02 -0.45796977855E+03  0.45877761302E+03  0.00000000000E+00 0.  1.
</event>
<event>
 4    1  0.3752836E+003  0.2120441E+02  0.7546771E-02  0.1516366E+00
          2   -1    0    0  502    0  0.00000000000E+00  0.00000000000E+00  0.15510386264E+01  0.15510386264E+01  0.00000000000E+00 0.  1.
          1   -1    0    0  501    0 -0.00000000000E+00 -0.00000000000E+00 -0.38775065208E+03  0.38775065208E+03  0.00000000000E+00 0.  1.
          2    1    1    2  501    0 -0.19482170859E+02 -0.83709035596E+01 -0.95310988115E+02  0.97641238538E+02  0.00000000000E+00 0.  1.
          1    1    1    2  502    0  0.19482170859E+02  0.83709035596E+01 -0.29088862534E+03  0.29166045217E+03  0.00000000000E+00 0.  1.
</event>
<event>
 4    1  0.3752836E+003  0.2432379E+02  0.7546771E-02  0.1476512E+00
          2   -1    0    0  502    0  0.00000000000E+00  0.00000000000E+00  0.21546815059E+03  0.21546815059E+03  0.00000000000E+00 0.  1.
          1   -1    0    0  501    0 -0.00000000000E+00 -0.00000000000E+00 -0.17443505557E+02  0.17443505557E+02  0.00000000000E+00 0. -1.
          2    1    1    2  501    0 -0.77899541106E+01  0.23042638413E+02  0.20590996981E+03  0.20734165582E+03  0.00000000000E+00 0.  1.
          1    1    1    2  502    0  0.77899541106E+01 -0.23042638413E+02 -0.78853247755E+01  0.25570000330E+02  0.00000000000E+00 0. -1.
</event>
<event>
 4    1  0.3752836E+003  0.2190313E+02  0.7546771E-02  0.1506751E+00
          2   -1    0    0  502    0  0.00000000000E+00  0.00000000000E+00  0.66996377009E+03  0.66996377009E+03  0.00000000000E+00 0. -1.
          1   -1    0    0  501    0 -0.00000000000E+00 -0.00000000000E+00 -0.11574926053E+03  0.11574926053E+03  0.00000000000E+00 0.  1.
          2    1    1    2  501    0 -0.14631057188E+02 -0.16299674868E+02  0.66874668721E+03  0.66910528236E+03  0.00000000000E+00 0. -1.
          1    1    1    2  502    0  0.14631057188E+02  0.16299674868E+02 -0.11453217766E+03  0.11660774826E+03  0.00000000000E+00 0.  1.
</event>
<event>
 4    1  0.3752836E+003  0.2424668E+02  0.7546771E-02  0.1477410E+00
          2   -1    0    0  502    0  0.00000000000E+00  0.00000000000E+00  0.59160460846E+02  0.59160460846E+02  0.00000000000E+00 0. -1.
          1   -1    0    0  501    0 -0.00000000000E+00 -0.00000000000E+00 -0.25765095921E+03  0.25765095921E+03  0.00000000000E+00 0. -1.
          2    1    1    2  501    0 -0.14510394958E+02 -0.19425492831E+02  0.56075629171E+02  0.61093187186E+02  0.00000000000E+00 0. -1.
          1    1    1    2  502    0  0.14510394958E+02  0.19425492831E+02 -0.25456612754E+03  0.25571823287E+03  0.00000000000E+00 0. -1.
</event>
<event>
 4    1  0.3752836E+003  0.2572692E+02  0.7546771E-02  0.1460833E+00
          2   -1    0    0  502    0  0.00000000000E+00  0.00000000000E+00  0.19694948593E+03  0.19694948593E+03  0.00000000000E+00 0.  1.
          1   -1    0    0  501    0 -0.00000000000E+00 -0.00000000000E+00 -0.15501810558E+04  0.15501810558E+04  0.00000000000E+00 0. -1.
          2    1    1    2  501    0 -0.24729278871E+02  0.70948522405E+01  0.19600207349E+03  0.19768329969E+03  0.00000000000E+00 0.  1.
          1    1    1    2  502    0  0.24729278871E+02 -0.70948522405E+01 -0.15492336434E+04  0.15494472421E+04  0.00000000000E+00 0. -1.
</event>
<event>
 4    1  0.3752836E+003  0.3816659E+02  0.7546771E-02  0.1359578E+00
          2   -1    0    0  502    0  0.00000000000E+00  0.00000000000E+00  0.12381915733E+03  0.12381915733E+03  0.00000000000E+00 0. -1.
          1   -1    0    0  501    0 -0.00000000000E+00 -0.00000000000E+00 -0.78438896724E+03  0.78438896724E+03  0.00000000000E+00 0.  1.
          2    1    1    2  501    0 -0.11622669689E+00  0.38166413002E+02  0.12040085504E+03  0.12630540165E+03  0.00000000000E+00 0. -1.
          1    1    1    2  502    0  0.11622669689E+00 -0.38166413002E+02 -0.78097066496E+03  0.78190272292E+03  0.00000000000E+00 0.  1.
</event>
<event>
 4    1  0.3752836E+003  0.2049343E+02  0.7546771E-02  0.1526622E+00
          2   -1    0    0  502    0  0.00000000000E+00  0.00000000000E+00  0.88641623234E+03  0.88641623234E+03  0.00000000000E+00 0. -1.
          1   -1    0    0  501    0 -0.00000000000E+00 -0.00000000000E+00 -0.24505683781E+02  0.24505683781E+02  0.00000000000E+00 0.  1.
          2    1    1    2  501    0 -0.10337018128E+02 -0.17695390505E+02  0.88199176878E+03  0.88222982322E+03  0.00000000000E+00 0. -1.
          1    1    1    2  502    0  0.10337018128E+02  0.17695390505E+02 -0.20081220225E+02  0.28692092894E+02  0.00000000000E+00 0.  1.
</event>
<event>
 4    1  0.3752836E+003  0.2007727E+02  0.7546771E-02  0.1532858E+00
          2   -1    0    0  502    0  0.00000000000E+00  0.00000000000E+00  0.92651620815E+02  0.92651620815E+02  0.00000000000E+00 0. -1.
          1   -1    0    0  501    0 -0.00000000000E+00 -0.00000000000E+00 -0.44587186575E+01  0.44587186575E+01  0.00000000000E+00 0. -1.
          2    1    1    2  501    0  0.19447001097E+02 -0.49910486883E+01  0.36537793860E+02  0.41690608041E+02  0.00000000000E+00 0. -1.
          1    1    1    2  502    0 -0.19447001097E+02  0.49910486883E+01  0.51655108297E+02  0.55419731431E+02  0.00000000000E+00 0. -1.
</event>
<event>
 4    1  0.3752836E+003  0.3266546E+02  0.7546771E-02  0.1397763E+00
          2   -1    0    0  502    0  0.00000000000E+00  0.00000000000E+00  0.42626221483E+02  0.42626221483E+02  0.00000000000E+00 0. -1.
          1   -1    0    0  501    0 -0.00000000000E+00 -0.00000000000E+00 -0.28019870568E+02  0.28019870568E+02  0.00000000000E+00 0. -1.
          2    1    1    2  501    0  0.11726508877E+02 -0.30488032000E+02 -0.42309937063E+01  0.32938312243E+02  0.00000000000E+00 0. -1.
          1    1    1    2  502    0 -0.11726508877E+02  0.30488032000E+02  0.18837344621E+02  0.37707779808E+02  0.00000000000E+00 0. -1.
</event>
<event>
 4    1  0.3752836E+003  0.2054457E+02  0.7546771E-02  0.1525868E+00
          2   -1    0    0  502    0  0.00000000000E+00  0.00000000000E+00  0.15527810995E+02  0.15527810995E+02  0.00000000000E+00 0. -1.
          1   -1    0    0  501    0 -0.00000000000E+00 -0.00000000000E+00 -0.22014545038E+03  0.22014545038E+03  0.00000000000E+00 0.  1.
          2    1    1    2  501    0 -0.19150780917E+02 -0.74382105086E+01  0.80133542255E+01  0.22052057302E+02  0.00000000000E+00 0. -1.
          1    1    1    2  502    0  0.19150780917E+02  0.74382105086E+01 -0.21263099361E+03  0.21362120407E+03  0.00000000000E+00 0.  1.
</event>
<event>
 4    1  0.3752836E+003  0.2087110E+02  0.7546771E-02  0.1521113E+00
          2   -1    0    0  502    0  0.00000000000E+00  0.00000000000E+00  0.24821595215E+03  0.24821595215E+03  0.00000000000E+00 0.  1.
          1   -1    0    0  501    0 -0.00000000000E+00 -0.00000000000E+00 -0.35496378685E+01  0.35496378685E+01  0.00000000000E+00 0.  1.
          2    1    1    2  501    0 -0.13612088744E+02  0.15821310274E+02  0.21184297064E+03  0.21286861447E+03  0.00000000000E+00 0.  1.
          1    1    1    2  502    0  0.13612088744E+02 -0.15821310274E+02  0.32823343650E+02  0.38896975552E+02  0.00000000000E+00 0.  1.
</event>
<event>
 4    1  0.3752836E+003  0.2735661E+02  0.7546771E-02  0.1444058E+00
          2   -1    0    0  502    0  0.00000000000E+00  0.00000000000E+00  0.19081649628E+03  0.19081649628E+03  0.00000000000E+00 0. -1.
          1   -1    0    0  501    0 -0.00000000000E+00 -0.00000000000E+00 -0.17803769176E+02  0.17803769176E+02  0.00000000000E+00 0. -1.
          2    1    1    2  501    0 -0.16056472696E+02  0.22148901069E+02  0.17861339370E+03  0.18069623279E+03  0.00000000000E+00 0. -1.
          1    1    1    2  502    0  0.16056472696E+02 -0.22148901069E+02 -0.56006665996E+01  0.27924032667E+02  0.00000000000E+00 0. -1.
</event>
<event>
 4    1  0.3752836E+003  0.4441370E+02  0.7546771E-02  0.1324397E+00
          2   -1    0    0  502    0  0.00000000000E+00  0.00000000000E+00  0.69459813369E+03  0.69459813369E+03  0.00000000000E+00 0.  1.
          1   -1    0    0  501    0 -0.00000000000E+00 -0.00000000000E+00 -0.91178838109E+01  0.91178838109E+01  0.00000000000E+00 0.  1.
          2    1    1    2  501    0  0.25777324054E+02 -0.36167746618E+02  0.63470536683E+03  0.63625739997E+03  0.00000000000E+00 0.  1.
          1    1    1    2  502    0 -0.25777324054E+02  0.36167746618E+02  0.50774883048E+02  0.67458617533E+02  0.00000000000E+00 0.  1.
</event>
<event>
 4    1  0.3752836E+003  0.2287811E+02  0.7546771E-02  0.1494034E+00
          2   -1    0    0  502    0  0.00000000000E+00  0.00000000000E+00  0.27200418154E+02  0.27200418154E+02  0.00000000000E+00 0. -1.
          1   -1    0    0  501    0 -0.00000000000E+00 -0.00000000000E+00 -0.12464212104E+03  0.12464212104E+03  0.00000000000E+00 0.  1.
          2    1    1    2  501    0 -0.15593276528E+02  0.16740898833E+02  0.21094394834E+02  0.31118828063E+02  0.00000000000E+00 0. -1.
          1    1    1    2  502    0  0.15593276528E+02 -0.16740898833E+02 -0.11853609772E+03  0.12072371113E+03  0.00000000000E+00 0.  1.
</event>
<event>
 4    1  0.3752836E+003  0.9708506E+02  0.7546771E-02  0.1168957E+00
          2   -1    0    0  502    0  0.00000000000E+00  0.00000000000E+00  0.11482191711E+04  0.11482191711E+04  0.00000000000E+00 0. -1.
          1   -1    0    0  501    0 -0.00000000000E+00 -0.00000000000E+00 -0.28267679816E+02  0.28267679816E+02  0.00000000000E+00 0. -1.
          2    1    1    2  501    0  0.87976018305E+02  0.41057636697E+02  0.10555003972E+04  0.10599559415E+04  0.00000000000E+00 0. -1.
          1    1    1    2  502    0 -0.87976018305E+02 -0.41057636697E+02  0.64451094045E+02  0.11653090943E+03  0.00000000000E+00 0. -1.
</event>
<event>
 4    1  0.3752836E+003  0.2281310E+02  0.7546771E-02  0.1494859E+00
          2   -1    0    0  502    0  0.00000000000E+00  0.00000000000E+00  0.60685448808E+02  0.60685448808E+02  0.00000000000E+00 0.  1.
          1   -1    0    0  501    0 -0.00000000000E+00 -0.00000000000E+00 -0.25597402767E+03  0.25597402767E+03  0.00000000000E+00 0. -1.
          2    1    1    2  501    0 -0.19253310263E+02 -0.12237133779E+02  0.58010566517E+02  0.62335088247E+02  0.00000000000E+00 0.  1.
          1    1    1    2  502    0  0.19253310263E+02  0.12237133779E+02 -0.25329914538E+03  0.25432438823E+03  0.00000000000E+00 0. -1.
</event>
<event>
 4    1  0.3752836E+003  0.2531516E+02  0.7546771E-02  0.1465308E+00
          2   -1    0    0  502    0  0.00000000000E+00  0.00000000000E+00  0.18108762945E+01  0.18108762945E+01  0.00000000000E+00 0. -1.
          1   -1    0    0  501    0 -0.00000000000E+00 -0.00000000000E+00 -0.41807046288E+03  0.41807046288E+03  0.00000000000E+00 0.  1.
          2    1    1    2  501    0 -0.25012208726E+02 -0.39047177934E+01 -0.12587498203E+03  0.12839536015E+03  0.00000000000E+00 0. -1.
          1    1    1    2  502    0  0.25012208726E+02  0.39047177934E+01 -0.29038460455E+03  0.29148597902E+03  0.00000000000E+00 0.  1.
</event>
<event>
 4    1  0.3752836E+003  0.3114876E+02  0.7546771E-02  0.1409870E+00
          2   -1    0    0  502    0  0.00000000000E+00  0.00000000000E+00  0.16706417921E+03  0.16706417921E+03  0.00000000000E+00 0. -1.
          1   -1    0    0  501    0 -0.00000000000E+00 -0.00000000000E+00 -0.47192433436E+02  0.47192433436E+02  0.00000000000E+00 0.  1.
          2    1    1    2  501    0 -0.30280594734E+02  0.73027874087E+01  0.16025611194E+03  0.16325521902E+03  0.00000000000E+00 0. -1.
          1    1    1    2  502    0  0.30280594734E+02 -0.73027874087E+01 -0.40384366167E+02  0.51001393629E+02  0.00000000000E+00 0.  1.
</event>
<event>
 4    1  0.3752836E+003  0.2010896E+02  0.7546771E-02  0.1532377E+00
          2   -1    0    0  502    0  0.00000000000E+00  0.00000000000E+00  0.16382133491E+03  0.16382133491E+03  0.00000000000E+00 0. -1.
          1   -1    0    0  501    0 -0.00000000000E+00 -0.00000000000E+00 -0.34351980157E+01  0.34351980157E+01  0.00000000000E+00 0.  1.
          2    1    1    2  501    0 -0.14503203274E+02 -0.13929369628E+02  0.12455942581E+03  0.12617218712E+03  0.00000000000E+00 0. -1.
          1    1    1    2  502    0  0.14503203274E+02  0.13929369628E+02  0.35826711076E+02  0.41084345802E+02  0.00000000000E+00 0.  1.
</event>
<event>
 4    1  0.3752836E+003  0.2568488E+02  0.7546771E-02  0.1461286E+00
          2   -1    0    0  502    0  0.00000000000E+00  0.00000000000E+00  0.20551508290E+02  0.20551508290E+02  0.00000000000E+00 0. -1.
          1   -1    0    0  501    0 -0.00000000000E+00 -0.00000000000E+00 -0.63310795760E+03  0.63310795760E+03  0.00000000000E+00 0.  1.
          2    1    1    2  501    0  0.21944389896E+02  0.13347541101E+02  0.12158108149E+02  0.28417119754E+02  0.00000000000E+00 0. -1.
          1    1    1    2  502    0 -0.21944389896E+02 -0.13347541101E+02 -0.62471455746E+03  0.62524234614E+03  0.00000000000E+00 0.  1.
</event>
<event>
 4    1  0.3752836E+003  0.2228676E+02  0.7546771E-02  0.1501654E+00
          2   -1    0    0  502    0  0.00000000000E+00  0.00000000000E+00  0.48338705756E+01  0.48338705756E+01  0.00000000000E+00 0.  1.
          1   -1    0    0  501    0 -0.00000000000E+00 -0.00000000000E+00 -0.98741973953E+03  0.98741973953E+03  0.00000000000E+00 0.  1.
          2    1    1    2  501    0 -0.22273419820E+02  0.77103438593E+00 -0.21689370405E+02  0.31098689893E+02  0.00000000000E+00 0.  1.
          1    1    1    2  502    0  0.22273419820E+02 -0.77103438593E+00 -0.96089649855E+03  0.96115492021E+03  0.00000000000E+00 0.  1.
</event>
<event>
 4    1  0.3752836E+003  0.2261777E+02  0.7546771E-02  0.1497354E+00
          2   -1    0    0  502    0  0.00000000000E+00  0.00000000000E+00  0.56200024480E+02  0.56200024480E+02  0.00000000000E+00 0.  1.
          1   -1    0    0  501    0 -0.00000000000E+00 -0.00000000000E+00 -0.97142804551E+02  0.97142804551E+02  0.00000000000E+00 0.  1.
          2    1    1    2  501    0 -0.21584052847E+02 -0.67596042060E+01  0.52519523517E+02  0.57182724111E+02  0.00000000000E+00 0.  1.
          1    1    1    2  502    0  0.21584052847E+02  0.67596042060E+01 -0.93462303588E+02  0.96160104920E+02  0.00000000000E+00 0.  1.
</event>
<event>
 4    1  0.3752836E+003  0.4304366E+02  0.7546771E-02  0.1331517E+00
          2   -1    0    0  502    0  0.00000000000E+00  0.00000000000E+00  0.12089325832E+04  0.12089325832E+04  0.00000000000E+00 0.  1.
          1   -1    0    0  501    0 -0.00000000000E+00 -0.00000000000E+00 -0.15339355004E+01  0.15339355004E+01  0.00000000000E+00 0. -1.
          2    1    1    2  501    0  0.39512246191E+02  0.17074460092E+02  0.58553776707E+03  0.58711773219E+03  0.00000000000E+00 0.  1.
          1    1    1    2  502    0 -0.39512246191E+02 -0.17074460092E+02  0.62186088059E+03  0.62334878647E+03  0.00000000000E+00 0. -1.
</event>
<event>
 4    1  0.3752836E+003  0.2129930E+02  0.7546771E-02  0.1515034E+00
          2   -1    0    0  502    0  0.00000000000E+00  0.00000000000E+00  0.78836859285E+03  0.78836859285E+03  0.00000000000E+00 0. -1.
          1   -1    0    0  501    0 -0.00000000000E+00 -0.00000000000E+00 -0.14455120935E+01  0.14455120935E+01  0.00000000000E+00 0.  1.
          2    1    1    2  501    0  0.18230492155E+02 -0.11014053933E+02  0.69984209629E+03  0.70016613740E+03  0.00000000000E+00 0. -1.
          1    1    1    2  502    0 -0.18230492155E+02  0.11014053933E+02  0.87080984466E+02  0.89647967539E+02  0.00000000000E+00 0.  1.
</event>
<event>
 4    1  0.3752836E+003  0.4879178E+02  0.7546771E-02  0.1303498E+00
          2   -1    0    0  502    0  0.00000000000E+00  0.00000000000E+00  0.22047645326E+03  0.22047645326E+03  0.00000000000E+00 0.  1.
          1   -1    0    0  501    0 -0.00000000000E+00 -0.00000000000E+00 -0.10833628466E+02  0.10833628466E+02  0.00000000000E+00 0.  1.
          2    1    1    2  501    0  0.20167607827E+02 -0.44428651706E+02  0.11148222369E+03  0.12169192124E+03  0.00000000000E+00 0.  1.
          1    1    1    2  502    0 -0.20167607827E+02  0.44428651706E+02  0.98160601109E+02  0.10961816048E+03  0.00000000000E+00 0.  1.
</event>
<event>
 4    1  0.3752836E+003  0.2364102E+02  0.7546771E-02  0.1484602E+00
          2   -1    0    0  502    0  0.00000000000E+00  0.00000000000E+00  0.20630370339E+03  0.20630370339E+03  0.00000000000E+00 0.  1.
          1   -1    0    0  501    0 -0.00000000000E+00 -0.00000000000E+00 -0.30343204379E+02  0.30343204379E+02  0.00000000000E+00 0.  1.
          2    1    1    2  501    0  0.22360557310E+02 -0.76748524622E+01  0.20089814987E+03  0.20228436545E+03  0.00000000000E+00 0.  1.
          1    1    1    2  502    0 -0.22360557310E+02  0.76748524622E+01 -0.24937650867E+02  0.34362542314E+02  0.00000000000E+00 0.  1.
</event>
<event>
 4    1  0.3752836E+003  0.2114949E+02  0.7546771E-02  0.1517141E+00
          2   -1    0    0  502    0  0.00000000000E+00  0.00000000000E+00  0.81751308073E+02  0.81751308073E+02  0.00000000000E+00 0.  1.
          1   -1    0    0  501    0 -0.00000000000E+00 -0.00000000000E+00 -0.11478282839E+02  0.11478282839E+02  0.00000000000E+00 0. -1.
          2    1    1    2  501    0  0.15778238997E+00 -0.21148906047E+02  0.68858006075E+02  0.72032812821E+02  0.00000000000E+00 0.  1.
          1    1    1    2  502    0 -0.15778238997E+00  0.21148906047E+02  0.14150191585E+01  0.21196778092E+02  0.00000000000E+00 0. -1.
</event>
<event>
 4    1  0.3752836E+003  0.2049984E+02  0.7546771E-02  0.1526527E+00
          2   -1    0    0  502    0  0.00000000000E+00  0.00000000000E+00  0.94987191331E+03  0.94987191331E+03  0.00000000000E+00 0. -1.
          1   -1    0    0  501    0 -0.00000000000E+00 -0.00000000000E+00 -0.36884265459E+01  0.36884265459E+01  0.00000000000E+00 0. -1.
          2    1    1    2  501    0 -0.19050596102E+02  0.75708745840E+01  0.92036428594E+03  0.92059256036E+03  0.00000000000E+00 0. -1.
          1    1    1    2  502    0  0.19050596102E+02 -0.75708745840E+01  0.25819200825E+02  0.32967779498E+02  0.00000000000E+00 0. -1.
</event>
<event>
 4    1  0.3752836E+003  0.2349039E+02  0.7546771E-02  0.1486430E+00
          2   -1    0    0  502    0  0.00000000000E+00  0.00000000000E+00  0.79349789987E+02  0.79349789987E+02  0.00000000000E+00 0. -1.
          1   -1    0    0  501    0 -0.00000000000E+00 -0.00000000000E+00 -0.71540029474E+01  0.71540029474E+01  0.00000000000E+00 0.  1.
          2    1    1    2  501    0  0.53437562478E+01  0.22874485275E+02  0.28865909725E+02  0.37216106079E+02  0.00000000000E+00 0. -1.
          1    1    1    2  502    0 -0.53437562478E+01 -0.22874485275E+02  0.43329877314E+02  0.49287686855E+02  0.00000000000E+00 0.  1.
</event>
<event>
 4    1  0.3752836E+003  0.2845654E+02  0.7546771E-02  0.1433501E+00
          2   -1    0    0  502    0  0.00000000000E+00  0.00000000000E+00  0.14011412942E+03  0.14011412942E+03  0.00000000000E+00 0.  1.
          1   -1    0    0  501    0 -0.00000000000E+00 -0.00000000000E+00 -0.25580053424E+02  0.25580053424E+02  0.00000000000E+00 0.  1.
          2    1    1    2  501    0  0.34998703311E+01 -0.28240491440E+02  0.13015677673E+03  0.13323123124E+03  0.00000000000E+00 0.  1.
          1    1    1    2  502    0 -0.34998703311E+01  0.28240491440E+02 -0.15622700728E+02  0.32462951609E+02  0.00000000000E+00 0.  1.
</event>
<event>
 4    1  0.3752836E+003  0.2736777E+02  0.7546771E-02  0.1443948E+00
          2   -1    0    0  502    0  0.00000000000E+00  0.00000000000E+00  0.87741628979E+03  0.87741628979E+03  0.00000000000E+00 0. -1.
          1   -1    0    0  501    0 -0.00000000000E+00 -0.00000000000E+00 -0.85827740628E+00  0.85827740628E+00  0.00000000000E+00 0. -1.
          2    1    1    2  501    0  0.72975920480E+01  0.26376887506E+02  0.47056860253E+03  0.47136377113E+03  0.00000000000E+00 0. -1.
          1    1    1    2  502    0 -0.72975920480E+01 -0.26376887506E+02  0.40598940985E+03  0.40691079607E+03  0.00000000000E+00 0. -1.
</event>
<event>
 4    1  0.3752836E+003  0.3273084E+02  0.7546771E-02  0.1397259E+00
          2   -1    0    0  502    0  0.00000000000E+00  0.00000000000E+00  0.22599349826E+04  0.22599349826E+04  0.00000000000E+00 0.  1.
          1   -1    0    0  501    0 -0.00000000000E+00 -0.00000000000E+00 -0.14912345200E+03  0.14912345200E+03  0.00000000000E+00 0. -1.
          2    1    1    2  501    0 -0.37541329258E+01 -0.32514835179E+02  0.22580189391E+04  0.22582561496E+04  0.00000000000E+00 0.  1.
          1    1    1    2  502    0  0.37541329258E+01  0.32514835179E+02 -0.14720740852E+03  0.15080228494E+03  0.00000000000E+00 0. -1.
</event>
<event>
 4    1  0.3752836E+003  0.3478620E+02  0.7546771E-02  0.1382072E+00
          2   -1    0    0  502    0  0.00000000000E+00  0.00000000000E+00  0.18550173548E+04  0.18550173548E+04  0.00000000000E+00 0. -1.
          1   -1    0    0  501    0 -0.00000000000E+00 -0.00000000000E+00 -0.16291630641E+01  0.16291630641E+01  0.00000000000E+00 0.  1.
          2    1    1    2  501    0  0.34043690928E+02 -0.71489141956E+01  0.16455263599E+04  0.16458940066E+04  0.00000000000E+00 0. -1.
          1    1    1    2  502    0 -0.34043690928E+02  0.71489141956E+01  0.20786183185E+03  0.21075251127E+03  0.00000000000E+00 0.  1.
</event>
<event>
 4    1  0.3752836E+003  0.2450131E+02  0.7546771E-02  0.1474460E+00
          2   -1    0    0  502    0  0.00000000000E+00  0.00000000000E+00  0.65556448352E+02  0.65556448352E+02  0.00000000000E+00 0. -1.
          1   -1    0    0  501    0 -0.00000000000E+00 -0.00000000000E+00 -0.14746328186E+03  0.14746328186E+03  0.00000000000E+00 0.  1.
          2    1    1    2  501    0 -0.24481968748E+02  0.97334341372E+00  0.62196411653E+02  0.66848394249E+02  0.00000000000E+00 0. -1.
          1    1    1    2  502    0  0.24481968748E+02 -0.97334341372E+00 -0.14410324516E+03  0.14617133596E+03  0.00000000000E+00 0.  1.
</event>
<event>
 4    1  0.3752836E+003  0.2519820E+02  0.7546771E-02  0.1466598E+00
          2   -1    0    0  502    0  0.00000000000E+00  0.00000000000E+00  0.20898911951E+03  0.20898911951E+03  0.00000000000E+00 0.  1.
          1   -1    0    0  501    0 -0.00000000000E+00 -0.00000000000E+00 -0.29486398344E+02  0.29486398344E+02  0.00000000000E+00 0. -1.
          2    1    1    2  501    0  0.88541289757E+00 -0.25182641527E+02  0.20267920555E+03  0.20423958909E+03  0.00000000000E+00 0.  1.
          1    1    1    2  502    0 -0.88541289757E+00  0.25182641527E+02 -0.23176484380E+02  0.34235928766E+02  0.00000000000E+00 0. -1.
</event>
<event>
 4    1  0.3752836E+003  0.4718995E+02  0.7546771E-02  0.1310838E+00
          2   -1    0    0  502    0  0.00000000000E+00  0.00000000000E+00  0.23087987221E+02  0.23087987221E+02  0.00000000000E+00 0.  1.
          1   -1    0    0  501    0 -0.00000000000E+00 -0.00000000000E+00 -0.21548060978E+03  0.21548060978E+03  0.00000000000E+00 0.  1.
          2    1    1    2  501    0  0.46521289262E+02  0.79158966583E+01 -0.75411275626E+01  0.47788705563E+02  0.00000000000E+00 0.  1.
          1    1    1    2  502    0 -0.46521289262E+02 -0.79158966583E+01 -0.18485149500E+03  0.19077989144E+03  0.00000000000E+00 0.  1.
</event>
<event>
 4    1  0.3752836E+003  0.2010893E+02  0.7546771E-02  0.1532377E+00
          2   -1    0    0  502    0  0.00000000000E+00  0.00000000000E+00  0.17295489639E+03  0.17295489639E+03  0.00000000000E+00 0.  1.
          1   -1    0    0  501    0 -0.00000000000E+00 -0.00000000000E+00 -0.10676235659E+03  0.10676235659E+03  0.00000000000E+00 0. -1.
          2    1    1    2  501    0  0.11727433339E+02 -0.16335127767E+02  0.17141502788E+03  0.17259050053E+03  0.00000000000E+00 0.  1.
          1    1    1    2  502    0 -0.11727433339E+02  0.16335127767E+02 -0.10522248808E+03  0.10712675244E+03  0.00000000000E+00 0. -1.
</event>
<event>
 4    1  0.3752836E+003  0.2154076E+02  0.7546771E-02  0.1511682E+00
          2   -1    0    0  502    0  0.00000000000E+00  0.00000000000E+00  0.29951835482E+03  0.29951835482E+03  0.00000000000E+00 0.  1.
          1   -1    0    0  501    0 -0.00000000000E+00 -0.00000000000E+00 -0.35286802329E+02  0.35286802329E+02  0.00000000000E+00 0.  1.
          2    1    1    2  501    0 -0.11720661205E+02  0.18072917982E+02  0.29580244267E+03  0.29658572008E+03  0.00000000000E+00 0.  1.
          1    1    1    2  502    0  0.11720661205E+02 -0.18072917982E+02 -0.31570890179E+02  0.38219437073E+02  0.00000000000E+00 0.  1.
</event>
<event>
 4    1  0.3752836E+003  0.3250998E+02  0.7546771E-02  0.1398968E+00
          2   -1    0    0  502    0  0.00000000000E+00  0.00000000000E+00  0.35164985726E+03  0.35164985726E+03  0.00000000000E+00 0.  1.
          1   -1    0    0  501    0 -0.00000000000E+00 -0.00000000000E+00 -0.47279329213E+01  0.47279329213E+01  0.00000000000E+00 0. -1.
          2    1    1    2  501    0 -0.17340814881E+02 -0.27499004744E+02  0.28101100606E+03  0.28288528532E+03  0.00000000000E+00 0.  1.
          1    1    1    2  502    0  0.17340814881E+02  0.27499004744E+02  0.65910918277E+02  0.73492504861E+02  0.00000000000E+00 0. -1.
</event>
<event>
 4    1  0.3752836E+003  0.2170163E+02  0.7546771E-02  0.1509479E+00
          2   -1    0    0  502    0  0.00000000000E+00  0.00000000000E+00  0.28484703517E+03  0.28484703517E+03  0.00000000000E+00 0. -1.
          1   -1    0    0  501    0 -0.00000000000E+00 -0.00000000000E+00 -0.24116352671E+01  0.24116352671E+01  0.00000000000E+00 0.  1.
          2    1    1    2  501    0  0.28992097401E+01 -0.21507101609E+02  0.22175454397E+03  0.22281391026E+03  0.00000000000E+00 0. -1.
          1    1    1    2  502    0 -0.28992097401E+01  0.21507101609E+02  0.60680855931E+02  0.64444760169E+02  0.00000000000E+00 0.  1.
</event>
<event>
 4    1  0.3752836E+003  0.3556452E+02  0.7546771E-02  0.1376637E+00
          2   -1    0    0  502    0  0.00000000000E+00  0.00000000000E+00  0.39795859223E+02  0.39795859223E+02  0.00000000000E+00 0. -1.
          1   -1    0    0  501    0 -0.00000000000E+00 -0.00000000000E+00 -0.39115583711E+03  0.39115583711E+03  0.00000000000E+00 0.  1.
          2    1    1    2  501    0  0.19931699264E+02 -0.29454415441E+02  0.30856249511E+02  0.47084427982E+02  0.00000000000E+00 0. -1.
          1    1    1    2  502    0 -0.19931699264E+02  0.29454415441E+02 -0.38221622740E+03  0.38386726835E+03  0.00000000000E+00 0.  1.
</event>
<event>
 4    1  0.3752836E+003  0.2707720E+02  0.7546771E-02  0.1446834E+00
          2   -1    0    0  502    0  0.00000000000E+00  0.00000000000E+00  0.26081126855E+03  0.26081126855E+03  0.00000000000E+00 0.  1.
          1   -1    0    0  501    0 -0.00000000000E+00 -0.00000000000E+00 -0.32726185353E+01  0.32726185353E+01  0.00000000000E+00 0. -1.
          2    1    1    2  501    0  0.27077177396E+02  0.31544825689E-01  0.17835364981E+03  0.18039733626E+03  0.00000000000E+00 0.  1.
          1    1    1    2  502    0 -0.27077177396E+02 -0.31544825689E-01  0.79185000204E+02  0.83686550820E+02  0.00000000000E+00 0. -1.
</event>
<event>
 4    1  0.3752836E+003  0.2587610E+02  0.7546771E-02  0.1459237E+00
          2   -1    0    0  502    0  0.00000000000E+00  0.00000000000E+00  0.79002397485E+03  0.79002397485E+03  0.00000000000E+00 0. -1.
          1   -1    0    0  501    0 -0.00000000000E+00 -0.00000000000E+00 -0.11770590788E+01  0.11770590788E+01  0.00000000000E+00 0.  1.
          2    1    1    2  501    0 -0.27933516609E+01  0.25724888116E+02  0.60373902892E+03  0.60429329611E+03  0.00000000000E+00 0. -1.
          1    1    1    2  502    0  0.27933516609E+01 -0.25724888116E+02  0.18510788685E+03  0.18690773782E+03  0.00000000000E+00 0.  1.
</event>
<event>
 4    1  0.3752836E+003  0.2058685E+02  0.7546771E-02  0.1525246E+00
          2   -1    0    0  502    0  0.00000000000E+00  0.00000000000E+00  0.90997070088E+02  0.90997070088E+02  0.00000000000E+00 0. -1.
          1   -1    0    0  501    0 -0.00000000000E+00 -0.00000000000E+00 -0.30366383342E+02  0.30366383342E+02  0.00000000000E+00 0. -1.
          2    1    1    2  501    0 -0.89704978087E+01  0.18529661608E+02  0.86149898936E+02  0.88575523013E+02  0.00000000000E+00 0. -1.
          1    1    1    2  502    0  0.89704978087E+01 -0.18529661608E+02 -0.25519212190E+02  0.32787930418E+02  0.00000000000E+00 0. -1.
</event>
<event>
 4    1  0.3752836E+003  0.2498701E+02  0.7546771E-02  0.1468949E+00
          2   -1    0    0  502    0  0.00000000000E+00  0.00000000000E+00  0.46428911068E+01  0.46428911068E+01  0.00000000000E+00 0. -1.
          1   -1    0    0  501    0 -0.00000000000E+00 -0.00000000000E+00 -0.95510501141E+03  0.95510501141E+03  0.00000000000E+00 0. -1.
          2    1    1    2  501    0  0.20036659558E+02  0.14929261296E+02 -0.30420142759E+02  0.39366682036E+02  0.00000000000E+00 0. -1.
          1    1    1    2  502    0 -0.20036659558E+02 -0.14929261296E+02 -0.92004197754E+03  0.92038122048E+03  0.00000000000E+00 0. -1.
</event>
<event>
 4    1  0.3752836E+003  0.7221318E+02  0.7546771E-02  0.1223179E+00
          2   -1    0    0  502    0  0.00000000000E+00  0.00000000000E+00  0.20967653314E+04  0.20967653314E+04  0.00000000000E+00 0. -1.
          1   -1    0    0  501    0 -0.00000000000E+00 -0.00000000000E+00 -0.18714127854E+02  0.18714127854E+02  0.00000000000E+00 0.  1.
          2    1    1    2  501    0 -0.51199446853E+02 -0.50925043425E+02  0.20239758370E+04  0.20252636698E+04  0.00000000000E+00 0. -1.
          1    1    1    2  502    0  0.51199446853E+02  0.50925043425E+02  0.54075366604E+02  0.90215789523E+02  0.00000000000E+00 0.  1.
</event>
<event>
 4    1  0.3752836E+003  0.2465336E+02  0.7546771E-02  0.1472719E+00
          2   -1    0    0  502    0  0.00000000000E+00  0.00000000000E+00  0.22163355260E+03  0.22163355260E+03  0.00000000000E+00 0.  1.
          1   -1    0    0  501    0 -0.00000000000E+00 -0.00000000000E+00 -0.30149162021E+01  0.30149162021E+01  0.00000000000E+00 0.  1.
          2    1    1    2  501    0 -0.24507254147E+02 -0.26800449093E+01  0.14308490102E+03  0.14519324036E+03  0.00000000000E+00 0.  1.
          1    1    1    2  502    0  0.24507254147E+02  0.26800449093E+01  0.75533735385E+02  0.79455228448E+02  0.00000000000E+00 0.  1.
</event>
<event>
 4    1  0.3752836E+003  0.3505082E+02  0.7546771E-02  0.1380206E+00
          2   -1    0    0  502    0  0.00000000000E+00  0.00000000000E+00  0.12829338726E+03  0.12829338726E+03  0.00000000000E+00 0. -1.
          1   -1    0    0  501    0 -0.00000000000E+00 -0.00000000000E+00 -0.99106044828E+01  0.99106044828E+01  0.00000000000E+00 0.  1.
          2    1    1    2  501    0 -0.30439274821E+02  0.17378440236E+02  0.71885267950E+02  0.79975317348E+02  0.00000000000E+00 0. -1.
          1    1    1    2  502    0  0.30439274821E+02 -0.17378440236E+02  0.46497514826E+02  0.58228674394E+02  0.00000000000E+00 0.  1.
</event>
<event>
 4    1  0.3752836E+003  0.4329977E+02  0.7546771E-02  0.1330163E+00
          2   -1    0    0  502    0  0.00000000000E+00  0.00000000000E+00  0.41707306526E+03  0.41707306526E+03  0.00000000000E+00 0. -1.
          1   -1    0    0  501    0 -0.00000000000E+00 -0.00000000000E+00 -0.24594605750E+03  0.24594605750E+03  0.00000000000E+00 0.  1.
          2    1    1    2  501    0 -0.43234804792E+02  0.23710762354E+01  0.41402949381E+03  0.41628751133E+03  0.00000000000E+00 0. -1.
          1    1    1    2  502    0  0.43234804792E+02 -0.23710762354E+01 -0.24290248605E+03  0.24673161143E+03  0.00000000000E+00 0.  1.
</event>
<event>
 4    1  0.3752836E+003  0.2610624E+02  0.7546771E-02  0.1456799E+00
          2   -1    0    0  502    0  0.00000000000E+00  0.00000000000E+00  0.51876344559E+01  0.51876344559E+01  0.00000000000E+00 0.  1.
          1   -1    0    0  501    0 -0.00000000000E+00 -0.00000000000E+00 -0.70406655834E+03  0.70406655834E+03  0.00000000000E+00 0. -1.
          2    1    1    2  501    0 -0.25761690171E+02  0.42274271748E+01 -0.29605415640E+02  0.39471717168E+02  0.00000000000E+00 0.  1.
          1    1    1    2  502    0  0.25761690171E+02 -0.42274271748E+01 -0.66927350824E+03  0.66978247563E+03  0.00000000000E+00 0. -1.
</event>
<event>
 4    1  0.3752836E+003  0.2503201E+02  0.7546771E-02  0.1468446E+00
          2   -1    0    0  502    0  0.00000000000E+00  0.00000000000E+00  0.66928081001E+03  0.66928081001E+03  0.00000000000E+00 0.  1.
          1   -1    0    0  501    0 -0.00000000000E+00 -0.00000000000E+00 -0.10305326356E+01  0.10305326356E+01  0.00000000000E+00 0. -1.
          2    1    1    2  501    0  0.23538185512E+01 -0.24921093764E+02  0.43551056627E+03  0.43622936021E+03  0.00000000000E+00 0.  1.
          1    1    1    2  502    0 -0.23538185512E+01  0.24921093764E+02  0.23273971111E+03  0.23408198244E+03  0.00000000000E+00 0. -1.
</event>
<event>
 4    1  0.3752836E+003  0.4202285E+02  0.7546771E-02  0.1337023E+00
          2   -1    0    0  502    0  0.00000000000E+00  0.00000000000E+00  0.62092529587E+01  0.62092529587E+01  0.00000000000E+00 0. -1.
          1   -1    0    0  501    0 -0.00000000000E+00 -0.00000000000E+00 -0.52483453189E+03  0.52483453189E+03  0.00000000000E+00 0.  1.
          2    1    1    2  501    0 -0.40832277652E+02  0.99320405617E+01 -0.79596832678E+02  0.90008755687E+02  0.00000000000E+00 0. -1.
          1    1    1    2  502    0  0.40832277652E+02 -0.99320405617E+01 -0.43902844625E+03  0.44103502916E+03  0.00000000000E+00 0.  1.
</event>
<event>
 4    1  0.3752836E+003  0.2259360E+02  0.7546771E-02  0.1497665E+00
          2   -1    0    0  502    0  0.00000000000E+00  0.00000000000E+00  0.17333666332E+02  0.17333666332E+02  0.00000000000E+00 0.  1.
          1   -1    0    0  501    0 -0.00000000000E+00 -0.00000000000E+00 -0.36635742070E+02  0.36635742070E+02  0.00000000000E+00 0. -1.
          2    1    1    2  501    0 -0.10449171807E+02 -0.20032113680E+02  0.23001457997E+01  0.22710381781E+02  0.00000000000E+00 0.  1.
          1    1    1    2  502    0  0.10449171807E+02  0.20032113680E+02 -0.21602221538E+02  0.31259026621E+02  0.00000000000E+00 0. -1.
</event>
<event>
 4    1  0.3752836E+003  0.2077627E+02  0.7546771E-02  0.1522483E+00
          2   -1    0    0  502    0  0.00000000000E+00  0.00000000000E+00  0.37336050246E+03  0.37336050246E+03  0.00000000000E+00 0. -1.
          1   -1    0    0  501    0 -0.00000000000E+00 -0.00000000000E+00 -0.52058010337E+01  0.52058010337E+01  0.00000000000E+00 0. -1.
          2    1    1    2  501    0  0.60524368445E+01  0.19875142105E+02  0.35102413215E+03  0.35163844303E+03  0.00000000000E+00 0. -1.
          1    1    1    2  502    0 -0.60524368445E+01 -0.19875142105E+02  0.17130569280E+02  0.26927860466E+02  0.00000000000E+00 0. -1.
</event>
<event>
 4    1  0.3752836E+003  0.2265857E+02  0.7546771E-02  0.1496831E+00
          2   -1    0    0  502    0  0.00000000000E+00  0.00000000000E+00  0.76064904687E+03  0.76064904687E+03  0.00000000000E+00 0.  1.
          1   -1    0    0  501    0 -0.00000000000E+00 -0.00000000000E+00 -0.76154051882E+00  0.76154051882E+00  0.00000000000E+00 0. -1.
          2    1    1    2  501    0 -0.18596213246E+02  0.12945706768E+02  0.25157973599E+03  0.25259804835E+03  0.00000000000E+00 0.  1.
          1    1    1    2  502    0  0.18596213246E+02 -0.12945706768E+02  0.50830777036E+03  0.50881253903E+03  0.00000000000E+00 0. -1.
</event>
<event>
 4    1  0.3752836E+003  0.4521872E+02  0.7546771E-02  0.1320349E+00
          2   -1    0    0  502    0  0.00000000000E+00  0.00000000000E+00  0.48097014327E+02  0.48097014327E+02  0.00000000000E+00 0.  1.
          1   -1    0    0  501    0 -0.00000000000E+00 -0.00000000000E+00 -0.14104781283E+03  0.14104781283E+03  0.00000000000E+00 0.  1.
          2    1    1    2  501    0 -0.44472907107E+02  0.81788136228E+01  0.32570049938E+02  0.55727377578E+02  0.00000000000E+00 0.  1.
          1    1    1    2  502    0  0.44472907107E+02 -0.81788136228E+01 -0.12552084844E+03  0.13341744958E+03  0.00000000000E+00 0.  1.
</event>
<event>
 4    1  0.3752836E+003  0.2374484E+02  0.7546771E-02  0.1483351E+00
          2   -1    0    0  502    0  0.00000000000E+00  0.00000000000E+00  0.86340037842E+01  0.86340037842E+01  0.00000000000E+00 0.  1.
          1   -1    0    0  501    0 -0.00000000000E+00 -0.00000000000E+00 -0.74003463719E+02  0.74003463719E+02  0.00000000000E+00 0.  1.
          2    1    1    2  501    0  0.15982670055E+02  0.17560508960E+02 -0.18516402806E+02  0.30111034355E+02  0.00000000000E+00 0.  1.
          1    1    1    2  502    0 -0.15982670055E+02 -0.17560508960E+02 -0.46853057128E+02  0.52526433148E+02  0.00000000000E+00 0.  1.
</event>
<event>
 4    1  0.3752836E+003  0.3134143E+02  0.7546771E-02  0.1408287E+00
          2   -1    0    0  502    0  0.00000000000E+00  0.00000000000E+00  0.16413049731E+04  0.16413049731E+04  0.00000000000E+00 0. -1.
          1   -1    0    0  501    0 -0.00000000000E+00 -0.00000000000E+00 -0.68124291055E+00  0.68124291055E+00  0.00000000000E+00 0. -1.
          2    1    1    2  501    0 -0.97844237734E+01 -0.29774992886E+02  0.11064734070E+04  0.11069171991E+04  0.00000000000E+00 0. -1.
          1    1    1    2  502    0  0.97844237734E+01  0.29774992886E+02  0.53415032315E+03  0.53506901693E+03  0.00000000000E+00 0. -1.
</event>
<event>
 4    1  0.3752836E+003  0.2016646E+02  0.7546771E-02  0.1531506E+00
          2   -1    0    0  502    0  0.00000000000E+00  0.00000000000E+00  0.21790281267E+03  0.21790281267E+03  0.00000000000E+00 0.  1.
          1   -1    0    0  501    0 -0.00000000000E+00 -0.00000000000E+00 -0.18811407434E+01  0.18811407434E+01  0.00000000000E+00 0.  1.
          2    1    1    2  501    0  0.85434769148E+01 -0.18267326544E+02  0.11775013554E+03  0.11946455808E+03  0.00000000000E+00 0.  1.
          1    1    1    2  502    0 -0.85434769148E+01  0.18267326544E+02  0.98271536390E+02  0.10031939534E+03  0.00000000000E+00 0.  1.
</event>
<event>
 4    1  0.3752836E+003  0.2130226E+02  0.7546771E-02  0.1514993E+00
          2   -1    0    0  502    0  0.00000000000E+00  0.00000000000E+00  0.11666937899E+02  0.11666937899E+02  0.00000000000E+00 0. -1.
          1   -1    0    0  501    0 -0.00000000000E+00 -0.00000000000E+00 -0.39200294789E+02  0.39200294789E+02  0.00000000000E+00 0.  1.
          2    1    1    2  501    0  0.20335051658E+01  0.21204978303E+02 -0.11522380270E+02  0.24218825223E+02  0.00000000000E+00 0. -1.
          1    1    1    2  502    0 -0.20335051658E+01 -0.21204978303E+02 -0.16010976621E+02  0.26648407465E+02  0.00000000000E+00 0.  1.
</event>
<event>
 4    1  0.3752836E+003  0.3015363E+02  0.7546771E-02  0.1418266E+00
          2   -1    0    0  502    0  0.00000000000E+00  0.00000000000E+00  0.10976128957E+04  0.10976128957E+04  0.00000000000E+00 0. -1.
          1   -1    0    0  501    0 -0.00000000000E+00 -0.00000000000E+00 -0.34561852921E+02  0.34561852921E+02  0.00000000000E+00 0. -1.
          2    1    1    2  501    0 -0.27553089754E+02 -0.12250256499E+02  0.10907877405E+04  0.10912044430E+04  0.00000000000E+00 0. -1.
          1    1    1    2  502    0  0.27553089754E+02  0.12250256499E+02 -0.27736697758E+02  0.40970305610E+02  0.00000000000E+00 0. -1.
</event>
<event>
 4    1  0.3752836E+003  0.6326258E+02  0.7546771E-02  0.1249133E+00
          2   -1    0    0  502    0  0.00000000000E+00  0.00000000000E+00  0.31906931765E+02  0.31906931765E+02  0.00000000000E+00 0.  1.
          1   -1    0    0  501    0 -0.00000000000E+00 -0.00000000000E+00 -0.21154099911E+03  0.21154099911E+03  0.00000000000E+00 0.  1.
          2    1    1    2  501    0 -0.59986635233E+02 -0.20093717241E+02 -0.12156065322E+02  0.64419902229E+02  0.00000000000E+00 0.  1.
          1    1    1    2  502    0  0.59986635233E+02  0.20093717241E+02 -0.16747800203E+03  0.17902802865E+03  0.00000000000E+00 0.  1.
</event>
<event>
 4    1  0.3752836E+003  0.2270137E+02  0.7546771E-02  0.1496282E+00
          2   -1    0    0  502    0  0.00000000000E+00  0.00000000000E+00  0.16715490250E+01  0.16715490250E+01  0.00000000000E+00 0. -1.
          1   -1    0    0  501    0 -0.00000000000E+00 -0.00000000000E+00 -0.31719882155E+03  0.31719882155E+03  0.00000000000E+00 0. -1.
          2    1    1    2  501    0 -0.97748979830E+01 -0.20489096932E+02 -0.18445633280E+03  0.18584803048E+03  0.00000000000E+00 0. -1.
          1    1    1    2  502    0  0.97748979830E+01  0.20489096932E+02 -0.13107093973E+03  0.13302234010E+03  0.00000000000E+00 0. -1.
</event>
<event>
 4    1  0.3752836E+003  0.6225828E+02  0.7546771E-02  0.1252347E+00
          2   -1    0    0  502    0  0.00000000000E+00  0.00000000000E+00  0.43005681846E+02  0.43005681846E+02  0.00000000000E+00 0. -1.
          1   -1    0    0  501    0 -0.00000000000E+00 -0.00000000000E+00 -0.50654924333E+03  0.50654924333E+03  0.00000000000E+00 0. -1.
          2    1    1    2  501    0 -0.59666107623E+02  0.17777772697E+02  0.17363808731E+02  0.64634321027E+02  0.00000000000E+00 0. -1.
          1    1    1    2  502    0  0.59666107623E+02 -0.17777772697E+02 -0.48090737021E+03  0.48492060415E+03  0.00000000000E+00 0. -1.
</event>
<event>
 4    1  0.3752836E+003  0.5643661E+02  0.7546771E-02  0.1272445E+00
          2   -1    0    0  502    0  0.00000000000E+00  0.00000000000E+00  0.29456837548E+04  0.29456837548E+04  0.00000000000E+00 0. -1.
          1   -1    0    0  501    0 -0.00000000000E+00 -0.00000000000E+00 -0.38570936214E+03  0.38570936214E+03  0.00000000000E+00 0. -1.
          2    1    1    2  501    0 -0.52380823266E+02 -0.21008093149E+02  0.29433473608E+04  0.29438883771E+04  0.00000000000E+00 0. -1.
          1    1    1    2  502    0  0.52380823266E+02  0.21008093149E+02 -0.38337296818E+03  0.38750473978E+03  0.00000000000E+00 0. -1.
</event>
<event>
 4    1  0.3752836E+003  0.2795571E+02  0.7546771E-02  0.1438237E+00
          2   -1    0    0  502    0  0.00000000000E+00  0.00000000000E+00  0.75346767346E+02  0.75346767346E+02  0.00000000000E+00 0. -1.
          1   -1    0    0  501    0 -0.00000000000E+00 -0.00000000000E+00 -0.14243665647E+03  0.14243665647E+03  0.00000000000E+00 0. -1.
          2    1    1    2  501    0 -0.20705503559E+02  0.18783071211E+02  0.71307050475E+02  0.76591233762E+02  0.00000000000E+00 0. -1.
          1    1    1    2  502    0  0.20705503559E+02 -0.18783071211E+02 -0.13839693960E+03  0.14119219006E+03  0.00000000000E+00 0. -1.
</event>
<event>
 4    1  0.3752836E+003  0.2328740E+02  0.7546771E-02  0.1488920E+00
          2   -1    0    0  502    0  0.00000000000E+00  0.00000000000E+00  0.26407044913E+02  0.26407044913E+02  0.00000000000E+00 0.  1.
          1   -1    0    0  501    0 -0.00000000000E+00 -0.00000000000E+00 -0.37499013894E+03  0.37499013894E+03  0.00000000000E+00 0. -1.
          2    1    1    2  501    0 -0.60256993801E+01  0.22494306274E+02  0.20834050994E+02  0.31246768611E+02  0.00000000000E+00 0.  1.
          1    1    1    2  502    0  0.60256993801E+01 -0.22494306274E+02 -0.36941714502E+03  0.37015041524E+03  0.00000000000E+00 0. -1.
</event>
<event>
 4    1  0.3752836E+003  0.3003899E+02  0.7546771E-02  0.1419258E+00
          2   -1    0    0  502    0  0.00000000000E+00  0.00000000000E+00  0.13423060665E+02  0.13423060665E+02  0.00000000000E+00 0. -1.
          1   -1    0    0  501    0 -0.00000000000E+00 -0.00000000000E+00 -0.25379767864E+03  0.25379767864E+03  0.00000000000E+00 0. -1.
          2    1    1    2  501    0  0.26256124757E+02 -0.14593034509E+02 -0.56300822829E+01  0.30562044597E+02  0.00000000000E+00 0. -1.
          1    1    1    2  502    0 -0.26256124757E+02  0.14593034509E+02 -0.23474453569E+03  0.23665869470E+03  0.00000000000E+00 0. -1.
</event>
<event>
 4    1  0.3752836E+003  0.2594764E+02  0.7546771E-02  0.1458476E+00
          2   -1    0    0  502    0  0.00000000000E+00  0.00000000000E+00  0.12275396273E+04  0.12275396273E+04  0.00000000000E+00 0. -1.
          1   -1    0    0  501    0 -0.00000000000E+00 -0.00000000000E+00 -0.44569595417E+01  0.44569595417E+01  0.00000000000E+00 0.  1.
          2    1    1    2  501    0 -0.11274893269E+02  0.23369992831E+02  0.11883929806E+04  0.11886762200E+04  0.00000000000E+00 0. -1.
          1    1    1    2  502    0  0.11274893269E+02 -0.23369992831E+02  0.34689687139E+02  0.43320366768E+02  0.00000000000E+00 0.  1.
</event>
<event>
 4    1  0.3752836E+003  0.2100751E+02  0.7546771E-02  0.1519158E+00
          2   -1    0    0  502    0  0.00000000000E+00  0.00000000000E+00  0.14690284872E+02  0.14690284872E+02  0.00000000000E+00 0. -1.
          1   -1    0    0  501    0 -0.00000000000E+00 -0.00000000000E+00 -0.32198537474E+02  0.32198537474E+02  0.00000000000E+00 0. -1.
          2    1    1    2  501    0 -0.16369370492E+02 -0.13166589450E+02 -0.26857925356E+01  0.21178499702E+02  0.00000000000E+00 0. -1.
          1    1    1    2  502    0  0.16369370492E+02  0.13166589450E+02 -0.14822460066E+02  0.25710322644E+02  0.00000000000E+00 0. -1.
</event>
<event>
 4    1  0.3752836E+003  0.2660962E+02  0.7546771E-02  0.1451569E+00
          2   -1    0    0  502    0  0.00000000000E+00  0.00000000000E+00  0.14549334731E+04  0.14549334731E+04  0.00000000000E+00 0. -1.
          1   -1    0    0  501    0 -0.00000000000E+00 -0.00000000000E+00 -0.94307280100E+01  0.94307280100E+01  0.00000000000E+00 0.  1.
          2    1    1    2  501    0  0.25652982798E+02  0.70708157273E+01  0.14357912354E+04  0.14360377933E+04  0.00000000000E+00 0. -1.
          1    1    1    2  502    0 -0.25652982798E+02 -0.70708157273E+01  0.97115096665E+01  0.28326407847E+02  0.00000000000E+00 0.  1.
</event>
<event>
 4    1  0.3752836E+003  0.3397078E+02  0.7546771E-02  0.1387947E+00
          2   -1    0    0  502    0  0.00000000000E+00  0.00000000000E+00  0.11321708292E+04  0.11321708292E+04  0.00000000000E+00 0. -1.
          1   -1    0    0  501    0 -0.00000000000E+00 -0.00000000000E+00 -0.15205067115E+01  0.15205067115E+01  0.00000000000E+00 0. -1.
          2    1    1    2  501    0 -0.31952127683E+02  0.11535821798E+02  0.89077359916E+03  0.89142112304E+03  0.00000000000E+00 0. -1.
          1    1    1    2  502    0  0.31952127683E+02 -0.11535821798E+02  0.23987672331E+03  0.24227021285E+03  0.00000000000E+00 0. -1.
</event>
<event>
 4    1  0.3752836E+003  0.2970697E+02  0.7546771E-02  0.1422160E+00
          2   -1    0    0  502    0  0.00000000000E+00  0.00000000000E+00  0.89385308712E+03  0.89385308712E+03  0.00000000000E+00 0. -1.
          1   -1    0    0  501    0 -0.00000000000E+00 -0.00000000000E+00 -0.99677949803E+00  0.99677949803E+00  0.00000000000E+00 0. -1.
          2    1    1    2  501    0  0.80766765329E+01  0.28587957390E+02  0.49005361515E+03  0.49095320524E+03  0.00000000000E+00 0. -1.
          1    1    1    2  502    0 -0.80766765329E+01 -0.28587957390E+02  0.40280269247E+03  0.40389666138E+03  0.00000000000E+00 0. -1.
</event>
<event>
 4    1  0.3752836E+003  0.2424853E+02  0.7546771E-02  0.1477388E+00
          2   -1    0    0  502    0  0.00000000000E+00  0.00000000000E+00  0.21192269758E+03  0.21192269758E+03  0.00000000000E+00 0. -1.
          1   -1    0    0  501    0 -0.00000000000E+00 -0.00000000000E+00 -0.32660438891E+02  0.32660438891E+02  0.00000000000E+00 0. -1.
          2    1    1    2  501    0  0.20211748210E+02 -0.13396878347E+02  0.20661299969E+03  0.20803106200E+03  0.00000000000E+00 0. -1.
          1    1    1    2  502    0 -0.20211748210E+02  0.13396878347E+02 -0.27350740999E+02  0.36552074474E+02  0.00000000000E+00 0. -1.
</event>
<event>
 4    1  0.3752836E+003  0.2373856E+02  0.7546771E-02  0.1483427E+00
          2   -1    0    0  502    0  0.00000000000E+00  0.00000000000E+00  0.18593197809E+04  0.18593197809E+04  0.00000000000E+00 0.  1.
          1   -1    0    0  501    0 -0.00000000000E+00 -0.00000000000E+00 -0.11635067684E+01  0.11635067684E+01  0.00000000000E+00 0.  1.
          2    1    1    2  501    0 -0.44437875144E+01 -0.23318921128E+02  0.17290389742E+04  0.17292019239E+04  0.00000000000E+00 0.  1.
          1    1    1    2  502    0  0.44437875144E+01  0.23318921128E+02  0.12911729988E+03  0.13128136371E+03  0.00000000000E+00 0.  1.
</event>
<event>
 4    1  0.3752836E+003  0.2026249E+02  0.7546771E-02  0.1530060E+00
          2   -1    0    0  502    0  0.00000000000E+00  0.00000000000E+00  0.99302196738E+03  0.99302196738E+03  0.00000000000E+00 0. -1.
          1   -1    0    0  501    0 -0.00000000000E+00 -0.00000000000E+00 -0.56118455658E+02  0.56118455658E+02  0.00000000000E+00 0.  1.
          2    1    1    2  501    0  0.20037898625E+02  0.30084852110E+01  0.99108600604E+03  0.99129311494E+03  0.00000000000E+00 0. -1.
          1    1    1    2  502    0 -0.20037898625E+02 -0.30084852110E+01 -0.54182494313E+02  0.57847308101E+02  0.00000000000E+00 0.  1.
</event>
<event>
 4    1  0.3752836E+003  0.2003221E+02  0.7546771E-02  0.1533544E+00
          2   -1    0    0  502    0  0.00000000000E+00  0.00000000000E+00  0.10364439859E+03  0.10364439859E+03  0.00000000000E+00 0.  1.
          1   -1    0    0  501    0 -0.00000000000E+00 -0.00000000000E+00 -0.74586223282E+01  0.74586223282E+01  0.00000000000E+00 0. -1.
          2    1    1    2  501    0  0.20031189311E+02  0.20200719984E+00  0.86616065263E+02  0.88902374062E+02  0.00000000000E+00 0.  1.
          1    1    1    2  502    0 -0.20031189311E+02 -0.20200719984E+00  0.95697109941E+01  0.22200646852E+02  0.00000000000E+00 0. -1.
</event>
<event>
 4    1  0.3752836E+003  0.2601170E+02  0.7546771E-02  0.1457796E+00
          2   -1    0    0  502    0  0.00000000000E+00  0.00000000000E+00  0.46927689136E+03  0.46927689136E+03  0.00000000000E+00 0.  1.
          1   -1    0    0  501    0 -0.00000000000E+00 -0.00000000000E+00 -0.20896923409E+01  0.20896923409E+01  0.00000000000E+00 0.  1.
          2    1    1    2  501    0  0.14076447124E+02 -0.21873780493E+02  0.36482426116E+03  0.36575039326E+03  0.00000000000E+00 0.  1.
          1    1    1    2  502    0 -0.14076447124E+02  0.21873780493E+02  0.10236293785E+03  0.10561619044E+03  0.00000000000E+00 0.  1.
</event>
<event>
 4    1  0.3752836E+003  0.2652280E+02  0.7546771E-02  0.1452461E+00
          2   -1    0    0  502    0  0.00000000000E+00  0.00000000000E+00  0.18935004812E+04  0.18935004812E+04  0.00000000000E+00 0. -1.
          1   -1    0    0  501    0 -0.00000000000E+00 -0.00000000000E+00 -0.18954946719E+01  0.18954946719E+01  0.00000000000E+00 0. -1.
          2    1    1    2  501    0  0.24261832896E+02 -0.10715511439E+02  0.17955671150E+04  0.17957629920E+04  0.00000000000E+00 0. -1.
          1    1    1    2  502    0 -0.24261832896E+02  0.10715511439E+02  0.96037871476E+02  0.99632983889E+02  0.00000000000E+00 0. -1.
</event>
<event>
 4    1  0.3752836E+003  0.2458885E+02  0.7546771E-02  0.1473456E+00
          2   -1    0    0  502    0  0.00000000000E+00  0.00000000000E+00  0.93305837738E+03  0.93305837738E+03  0.00000000000E+00 0.  1.
          1   -1    0    0  501    0 -0.00000000000E+00 -0.00000000000E+00 -0.39500425791E+01  0.39500425791E+01  0.00000000000E+00 0.  1.
          2    1    1    2  501    0 -0.24474139877E+02  0.23723096962E+01  0.89290999582E+03  0.89324849399E+03  0.00000000000E+00 0.  1.
          1    1    1    2  502    0  0.24474139877E+02 -0.23723096962E+01  0.36198338979E+02  0.43759925969E+02  0.00000000000E+00 0.  1.
</event>
<event>
 4    1  0.3752836E+003  0.2233694E+02  0.7546771E-02  0.1500996E+00
          2   -1    0    0  502    0  0.00000000000E+00  0.00000000000E+00  0.11430862284E+04  0.11430862284E+04  0.00000000000E+00 0. -1.
          1   -1    0    0  501    0 -0.00000000000E+00 -0.00000000000E+00 -0.45366485049E+01  0.45366485049E+01  0.00000000000E+00 0. -1.
          2    1    1    2  501    0  0.62307807170E+00 -0.22328248014E+02  0.11147842350E+04  0.11150079953E+04  0.00000000000E+00 0. -1.
          1    1    1    2  502    0 -0.62307807170E+00  0.22328248014E+02  0.23765344829E+02  0.32614881580E+02  0.00000000000E+00 0. -1.
</event>
<event>
 4    1  0.3752836E+003  0.2307428E+02  0.7546771E-02  0.1491568E+00
          2   -1    0    0  502    0  0.00000000000E+00  0.00000000000E+00  0.10741034427E+04  0.10741034427E+04  0.00000000000E+00 0.  1.
          1   -1    0    0  501    0 -0.00000000000E+00 -0.00000000000E+00 -0.15031409855E+03  0.15031409855E+03  0.00000000000E+00 0. -1.
          2    1    1    2  501    0  0.10658222717E+02  0.20465203229E+02  0.10730931705E+04  0.10733412201E+04  0.00000000000E+00 0.  1.
          1    1    1    2  502    0 -0.10658222717E+02 -0.20465203229E+02 -0.14930382633E+03  0.15107632115E+03  0.00000000000E+00 0. -1.
</event>
<event>
 4    1  0.3752836E+003  0.2967610E+02  0.7546771E-02  0.1422432E+00
          2   -1    0    0  502    0  0.00000000000E+00  0.00000000000E+00  0.12174541724E+04  0.12174541724E+04  0.00000000000E+00 0.  1.
          1   -1    0    0  501    0 -0.00000000000E+00 -0.00000000000E+00 -0.13870059098E+02  0.13870059098E+02  0.00000000000E+00 0.  1.
          2    1    1    2  501    0  0.14058995186E+02  0.26134568360E+02  0.12011847643E+04  0.12015512927E+04  0.00000000000E+00 0.  1.
          1    1    1    2  502    0 -0.14058995186E+02 -0.26134568360E+02  0.23993490052E+01  0.29772938798E+02  0.00000000000E+00 0.  1.
</event>
<event>
 4    1  0.3752836E+003  0.2320686E+02  0.7546771E-02  0.1489917E+00
          2   -1    0    0  502    0  0.00000000000E+00  0.00000000000E+00  0.33352629615E+03  0.33352629615E+03  0.00000000000E+00 0.  1.
          1   -1    0    0  501    0 -0.00000000000E+00 -0.00000000000E+00 -0.55305784224E+02  0.55305784224E+02  0.00000000000E+00 0.  1.
          2    1    1    2  501    0  0.22059009293E+02 -0.72082377676E+01  0.33066712815E+03  0.33148047939E+03  0.00000000000E+00 0.  1.
          1    1    1    2  502    0 -0.22059009293E+02  0.72082377676E+01 -0.52446616217E+02  0.57351600983E+02  0.00000000000E+00 0.  1.
</event>
<event>
 4    1  0.3752836E+003  0.2038303E+02  0.7546771E-02  0.1528259E+00
          2   -1    0    0  502    0  0.00000000000E+00  0.00000000000E+00  0.77435822845E+03  0.77435822845E+03  0.00000000000E+00 0.  1.
          1   -1    0    0  501    0 -0.00000000000E+00 -0.00000000000E+00 -0.59852774588E+02  0.59852774588E+02  0.00000000000E+00 0. -1.
          2    1    1    2  501    0  0.17603016444E+02  0.10276275898E+02  0.77248451188E+03  0.77275338183E+03  0.00000000000E+00 0.  1.
          1    1    1    2  502    0 -0.17603016444E+02 -0.10276275898E+02 -0.57979058025E+02  0.61457621202E+02  0.00000000000E+00 0. -1.
</event>
<event>
 4    1  0.3752836E+003  0.3607275E+02  0.7546771E-02  0.1373174E+00
          2   -1    0    0  502    0  0.00000000000E+00  0.00000000000E+00  0.15106048595E+04  0.15106048595E+04  0.00000000000E+00 0. -1.
          1   -1    0    0  501    0 -0.00000000000E+00 -0.00000000000E+00 -0.27021939136E+03  0.27021939136E+03  0.00000000000E+00 0. -1.
          2    1    1    2  501    0 -0.25489033878E+02 -0.25525519604E+02  0.15091844989E+04  0.15096155454E+04  0.00000000000E+00 0. -1.
          1    1    1    2  502    0  0.25489033878E+02  0.25525519604E+02 -0.26879903077E+03  0.27120870551E+03  0.00000000000E+00 0. -1.
</event>
<event>
 4    1  0.3752836E+003  0.2174452E+02  0.7546771E-02  0.1508895E+00
          2   -1    0    0  502    0  0.00000000000E+00  0.00000000000E+00  0.76444025031E+03  0.76444025031E+03  0.00000000000E+00 0.  1.
          1   -1    0    0  501    0 -0.00000000000E+00 -0.00000000000E+00 -0.19001161137E+02  0.19001161137E+02  0.00000000000E+00 0. -1.
          2    1    1    2  501    0 -0.19337701255E+02  0.99437195999E+01  0.75801188124E+03  0.75832370156E+03  0.00000000000E+00 0.  1.
          1    1    1    2  502    0  0.19337701255E+02 -0.99437195999E+01 -0.12572792069E+02  0.25117709882E+02  0.00000000000E+00 0. -1.
</event>
<event>
 4    1  0.3752836E+003  0.2066223E+02  0.7546771E-02  0.1524142E+00
          2   -1    0    0  502    0  0.00000000000E+00  0.00000000000E+00  0.22076437192E+04  0.22076437192E+04  0.00000000000E+00 0. -1.
          1   -1    0    0  501    0 -0.00000000000E+00 -0.00000000000E+00 -0.19805497739E+00  0.19805497739E+00  0.00000000000E+00 0. -1.
          2    1    1    2  501    0  0.92603054786E+01  0.18470906496E+02  0.12732153614E+04  0.12733830076E+04  0.00000000000E+00 0. -1.
          1    1    1    2  502    0 -0.92603054786E+01 -0.18470906496E+02  0.93423030280E+03  0.93445876652E+03  0.00000000000E+00 0. -1.
</event>
<event>
 4    1  0.3752836E+003  0.2578032E+02  0.7546771E-02  0.1460260E+00
          2   -1    0    0  502    0  0.00000000000E+00  0.00000000000E+00  0.15422661670E+03  0.15422661670E+03  0.00000000000E+00 0. -1.
          1   -1    0    0  501    0 -0.00000000000E+00 -0.00000000000E+00 -0.87283239407E+01  0.87283239407E+01  0.00000000000E+00 0. -1.
          2    1    1    2  501    0  0.19421054478E+02  0.16954273408E+02  0.13072273613E+03  0.13324060374E+03  0.00000000000E+00 0. -1.
          1    1    1    2  502    0 -0.19421054478E+02 -0.16954273408E+02  0.14775556632E+02  0.29714336903E+02  0.00000000000E+00 0. -1.
</event>
<event>
 4    1  0.3752836E+003  0.2192455E+02  0.7546771E-02  0.1506463E+00
          2   -1    0    0  502    0  0.00000000000E+00  0.00000000000E+00  0.11407962713E+04  0.11407962713E+04  0.00000000000E+00 0. -1.
          1   -1    0    0  501    0 -0.00000000000E+00 -0.00000000000E+00 -0.57760171163E+00  0.57760171163E+00  0.00000000000E+00 0. -1.
          2    1    1    2  501    0  0.11468104655E+02  0.18686054489E+02  0.86692172006E+03  0.86719891303E+03  0.00000000000E+00 0. -1.
          1    1    1    2  502    0 -0.11468104655E+02 -0.18686054489E+02  0.27329694949E+03  0.27417495993E+03  0.00000000000E+00 0. -1.
</event>
<event>
 4    1  0.3752836E+003  0.2020015E+02  0.7546771E-02  0.1530998E+00
          2   -1    0    0  502    0  0.00000000000E+00  0.00000000000E+00  0.33628649406E+03  0.33628649406E+03  0.00000000000E+00 0. -1.
          1   -1    0    0  501    0 -0.00000000000E+00 -0.00000000000E+00 -0.99625077049E+02  0.99625077049E+02  0.00000000000E+00 0. -1.
          2    1    1    2  501    0  0.20115186567E+02  0.18507624707E+01  0.33495512656E+03  0.33556367930E+03  0.00000000000E+00 0. -1.
          1    1    1    2  502    0 -0.20115186567E+02 -0.18507624707E+01 -0.98293709556E+02  0.10034789181E+03  0.00000000000E+00 0. -1.
</event>
<event>
 4    1  0.3752836E+003  0.2138028E+02  0.7546771E-02  0.1513904E+00
          2   -1    0    0  502    0  0.00000000000E+00  0.00000000000E+00  0.87780961376E+02  0.87780961376E+02  0.00000000000E+00 0.  1.
          1   -1    0    0  501    0 -0.00000000000E+00 -0.00000000000E+00 -0.34334158106E+03  0.34334158106E+03  0.00000000000E+00 0.  1.
          2    1    1    2  501    0  0.18290093607E+02 -0.11071988364E+02  0.86140004987E+02  0.88753686738E+02  0.00000000000E+00 0.  1.
          1    1    1    2  502    0 -0.18290093607E+02  0.11071988364E+02 -0.34170062468E+03  0.34236885570E+03  0.00000000000E+00 0.  1.
</event>
<event>
 4    1  0.3752836E+003  0.2200027E+02  0.7546771E-02  0.1505448E+00
          2   -1    0    0  502    0  0.00000000000E+00  0.00000000000E+00  0.10853172003E+04  0.10853172003E+04  0.00000000000E+00 0.  1.
          1   -1    0    0  501    0 -0.00000000000E+00 -0.00000000000E+00 -0.15844152077E+01  0.15844152077E+01  0.00000000000E+00 0. -1.
          2    1    1    2  501    0  0.54157562939E+01  0.21323262957E+02  0.10025290685E+04  0.10027704349E+04  0.00000000000E+00 0.  1.
          1    1    1    2  502    0 -0.54157562939E+01 -0.21323262957E+02  0.81203716669E+02  0.84131180666E+02  0.00000000000E+00 0. -1.
</event>
<event>
 4    1  0.3752836E+003  0.2009414E+02  0.7546771E-02  0.1532602E+00
          2   -1    0    0  502    0  0.00000000000E+00  0.00000000000E+00  0.72727007778E+00  0.72727007778E+00  0.00000000000E+00 0. -1.
          1   -1    0    0  501    0 -0.00000000000E+00 -0.00000000000E+00 -0.71457210444E+03  0.71457210444E+03  0.00000000000E+00 0. -1.
          2    1    1    2  501    0  0.19130897228E+02  0.61467944925E+01 -0.18801361504E+03  0.18908435618E+03  0.00000000000E+00 0. -1.
          1    1    1    2  502    0 -0.19130897228E+02 -0.61467944925E+01 -0.52583121932E+03  0.52621501834E+03  0.00000000000E+00 0. -1.
</event>
<event>
 4    1  0.3752836E+003  0.4128470E+02  0.7546771E-02  0.1341118E+00
          2   -1    0    0  502    0  0.00000000000E+00  0.00000000000E+00  0.16225815840E+04  0.16225815840E+04  0.00000000000E+00 0. -1.
          1   -1    0    0  501    0 -0.00000000000E+00 -0.00000000000E+00 -0.15749448443E+03  0.15749448443E+03  0.00000000000E+00 0.  1.
          2    1    1    2  501    0 -0.80785224057E+01  0.40486590521E+02  0.16196084743E+04  0.16201345736E+04  0.00000000000E+00 0. -1.
          1    1    1    2  502    0  0.80785224057E+01 -0.40486590521E+02 -0.15452137470E+03  0.15994149486E+03  0.00000000000E+00 0.  1.
</event>
<event>
 4    1  0.3752836E+003  0.5895972E+02  0.7546771E-02  0.1263409E+00
          2   -1    0    0  502    0  0.00000000000E+00  0.00000000000E+00  0.20465169437E+04  0.20465169437E+04  0.00000000000E+00 0.  1.
          1   -1    0    0  501    0 -0.00000000000E+00 -0.00000000000E+00 -0.16337765340E+02  0.16337765340E+02  0.00000000000E+00 0. -1.
          2    1    1    2  501    0 -0.51007339253E+02  0.29571938404E+02  0.19914276637E+04  0.19923002755E+04  0.00000000000E+00 0.  1.
          1    1    1    2  502    0  0.51007339253E+02 -0.29571938404E+02  0.38751514686E+02  0.70554433518E+02  0.00000000000E+00 0. -1.
</event>
<event>
 4    1  0.3752836E+003  0.2022361E+02  0.7546771E-02  0.1530644E+00
          2   -1    0    0  502    0  0.00000000000E+00  0.00000000000E+00  0.11266361225E+04  0.11266361225E+04  0.00000000000E+00 0.  1.
          1   -1    0    0  501    0 -0.00000000000E+00 -0.00000000000E+00 -0.13657068751E+03  0.13657068751E+03  0.00000000000E+00 0.  1.
          2    1    1    2  501    0 -0.17877839147E+02 -0.94539639917E+01  0.11257961216E+04  0.11259777538E+04  0.00000000000E+00 0.  1.
          1    1    1    2  502    0  0.17877839147E+02  0.94539639917E+01 -0.13573068665E+03  0.13722905620E+03  0.00000000000E+00 0.  1.
</event>
<event>
 4    1  0.3752836E+003  0.6423083E+02  0.7546771E-02  0.1246098E+00
          2   -1    0    0  502    0  0.00000000000E+00  0.00000000000E+00  0.46661151672E+03  0.46661151672E+03  0.00000000000E+00 0. -1.
          1   -1    0    0  501    0 -0.00000000000E+00 -0.00000000000E+00 -0.11620693615E+02  0.11620693615E+02  0.00000000000E+00 0. -1.
          2    1    1    2  501    0 -0.26597797709E+02 -0.58464998778E+02  0.34443008197E+03  0.35036792132E+03  0.00000000000E+00 0. -1.
          1    1    1    2  502    0  0.26597797709E+02  0.58464998778E+02  0.11056074114E+03  0.12786428902E+03  0.00000000000E+00 0. -1.
</event>
<event>
 4    1  0.3752836E+003  0.2531014E+02  0.7546771E-02  0.1465364E+00
          2   -1    0    0  502    0  0.00000000000E+00  0.00000000000E+00  0.49210834507E+01  0.49210834507E+01  0.00000000000E+00 0. -1.
          1   -1    0    0  501    0 -0.00000000000E+00 -0.00000000000E+00 -0.65830754742E+03  0.65830754742E+03  0.00000000000E+00 0.  1.
          2    1    1    2  501    0 -0.19916942207E+02 -0.15617891146E+02 -0.29670129605E+02  0.38998970518E+02  0.00000000000E+00 0. -1.
          1    1    1    2  502    0  0.19916942207E+02  0.15617891146E+02 -0.62371633436E+03  0.62422966035E+03  0.00000000000E+00 0.  1.
</event>
<event>
 4    1  0.3752836E+003  0.4490499E+02  0.7546771E-02  0.1321915E+00
          2   -1    0    0  502    0  0.00000000000E+00  0.00000000000E+00  0.10257825246E+03  0.10257825246E+03  0.00000000000E+00 0.  1.
          1   -1    0    0  501    0 -0.00000000000E+00 -0.00000000000E+00 -0.16825860503E+03  0.16825860503E+03  0.00000000000E+00 0. -1.
          2    1    1    2  501    0 -0.39634587997E+02  0.21108243612E+02  0.94422124350E+02  0.10455618624E+03  0.00000000000E+00 0.  1.
          1    1    1    2  502    0  0.39634587997E+02 -0.21108243612E+02 -0.16010247692E+03  0.16628067125E+03  0.00000000000E+00 0. -1.
</event>
<event>
 4    1  0.3752836E+003  0.4933043E+02  0.7546771E-02  0.1301102E+00
          2   -1    0    0  502    0  0.00000000000E+00  0.00000000000E+00  0.31645070582E+03  0.31645070582E+03  0.00000000000E+00 0.  1.
          1   -1    0    0  501    0 -0.00000000000E+00 -0.00000000000E+00 -0.14292307451E+02  0.14292307451E+02  0.00000000000E+00 0.  1.
          2    1    1    2  501    0 -0.31459800917E+02  0.37997004996E+02  0.26347727687E+03  0.26805552949E+03  0.00000000000E+00 0.  1.
          1    1    1    2  502    0  0.31459800917E+02 -0.37997004996E+02  0.38681121496E+02  0.62687483779E+02  0.00000000000E+00 0.  1.
</event>
<event>
 4    1  0.3752836E+003  0.4063372E+02  0.7546771E-02  0.1344812E+00
          2   -1    0    0  502    0  0.00000000000E+00  0.00000000000E+00  0.15197939510E+02  0.15197939510E+02  0.00000000000E+00 0.  1.
          1   -1    0    0  501    0 -0.00000000000E+00 -0.00000000000E+00 -0.33042832500E+03  0.33042832500E+03  0.00000000000E+00 0.  1.
          2    1    1    2  501    0  0.24248425294E+02 -0.32605410133E+02 -0.16033276454E+02  0.43682546320E+02  0.00000000000E+00 0.  1.
          1    1    1    2  502    0 -0.24248425294E+02  0.32605410133E+02 -0.29919710904E+03  0.30194371819E+03  0.00000000000E+00 0.  1.
</event>
<event>
 4    1  0.3752836E+003  0.2057643E+02  0.7546771E-02  0.1525399E+00
          2   -1    0    0  502    0  0.00000000000E+00  0.00000000000E+00  0.94913165267E+02  0.94913165267E+02  0.00000000000E+00 0. -1.
          1   -1    0    0  501    0 -0.00000000000E+00 -0.00000000000E+00 -0.95648444894E+01  0.95648444894E+01  0.00000000000E+00 0. -1.
          2    1    1    2  501    0  0.19946076787E+02  0.50540539510E+01  0.80834550762E+02  0.83412313464E+02  0.00000000000E+00 0. -1.
          1    1    1    2  502    0 -0.19946076787E+02 -0.50540539510E+01  0.45137700154E+01  0.21065696292E+02  0.00000000000E+00 0. -1.
</event>
<event>
 4    1  0.3752836E+003  0.2743564E+02  0.7546771E-02  0.1443280E+00
          2   -1    0    0  502    0  0.00000000000E+00  0.00000000000E+00  0.21370575134E+02  0.21370575134E+02  0.00000000000E+00 0. -1.
          1   -1    0    0  501    0 -0.00000000000E+00 -0.00000000000E+00 -0.90693708815E+03  0.90693708815E+03  0.00000000000E+00 0. -1.
          2    1    1    2  501    0  0.64490457689E+01 -0.26666907420E+02  0.12268340996E+02  0.30053724120E+02  0.00000000000E+00 0. -1.
          1    1    1    2  502    0 -0.64490457689E+01  0.26666907420E+02 -0.89783485401E+03  0.89825393916E+03  0.00000000000E+00 0. -1.
</event>
<event>
 4    1  0.3752836E+003  0.2808234E+02  0.7546771E-02  0.1437029E+00
          2   -1    0    0  502    0  0.00000000000E+00  0.00000000000E+00  0.12717748767E+02  0.12717748767E+02  0.00000000000E+00 0. -1.
          1   -1    0    0  501    0 -0.00000000000E+00 -0.00000000000E+00 -0.62183552189E+02  0.62183552189E+02  0.00000000000E+00 0. -1.
          2    1    1    2  501    0 -0.27737510257E+02  0.43872040558E+01 -0.26716134548E+02  0.38760403505E+02  0.00000000000E+00 0. -1.
          1    1    1    2  502    0  0.27737510257E+02 -0.43872040558E+01 -0.22749668874E+02  0.36140897451E+02  0.00000000000E+00 0. -1.
</event>
<event>
 4    1  0.3752836E+003  0.2360549E+02  0.7546771E-02  0.1485032E+00
          2   -1    0    0  502    0  0.00000000000E+00  0.00000000000E+00  0.38759228240E+01  0.38759228240E+01  0.00000000000E+00 0.  1.
          1   -1    0    0  501    0 -0.00000000000E+00 -0.00000000000E+00 -0.26412218623E+03  0.26412218623E+03  0.00000000000E+00 0.  1.
          2    1    1    2  501    0  0.99041404647E+00  0.23584703683E+02 -0.39667284702E+02  0.46159643017E+02  0.00000000000E+00 0.  1.
          1    1    1    2  502    0 -0.99041404647E+00 -0.23584703683E+02 -0.22057897870E+03  0.22183846604E+03  0.00000000000E+00 0.  1.
</event>
<event>
 4    1  0.3752836E+003  0.2652097E+02  0.7546771E-02  0.1452480E+00
          2   -1    0    0  502    0  0.00000000000E+00  0.00000000000E+00  0.16733161926E+03  0.16733161926E+03  0.00000000000E+00 0.  1.
          1   -1    0    0  501    0 -0.00000000000E+00 -0.00000000000E+00 -0.14614202571E+02  0.14614202571E+02  0.00000000000E+00 0. -1.
          2    1    1    2  501    0  0.24522945896E+02 -0.10098858282E+02  0.15314198204E+03  0.15542145436E+03  0.00000000000E+00 0.  1.
          1    1    1    2  502    0 -0.24522945896E+02  0.10098858282E+02 -0.42456534514E+00  0.26524367471E+02  0.00000000000E+00 0. -1.
</event>
<event>
 4    1  0.3752836E+003  0.1026599E+03  0.7546771E-02  0.1159277E+00
          2   -1    0    0  502    0  0.00000000000E+00  0.00000000000E+00  0.45312326584E+03  0.45312326584E+03  0.00000000000E+00 0. -1.
          1   -1    0    0  501    0 -0.00000000000E+00 -0.00000000000E+00 -0.21316197904E+03  0.21316197904E+03  0.00000000000E+00 0.  1.
          2    1    1    2  501    0  0.17710782723E+02 -0.10112065281E+03  0.43442337455E+03  0.44638853771E+03  0.00000000000E+00 0. -1.
          1    1    1    2  502    0 -0.17710782723E+02  0.10112065281E+03 -0.19446208775E+03  0.21989670717E+03  0.00000000000E+00 0.  1.
</event>
<event>
 4    1  0.3752836E+003  0.2118361E+02  0.7546771E-02  0.1516659E+00
          2   -1    0    0  502    0  0.00000000000E+00  0.00000000000E+00  0.16579470620E+03  0.16579470620E+03  0.00000000000E+00 0.  1.
          1   -1    0    0  501    0 -0.00000000000E+00 -0.00000000000E+00 -0.22318165576E+03  0.22318165576E+03  0.00000000000E+00 0. -1.
          2    1    1    2  501    0 -0.19748669607E+02  0.76639105298E+01  0.16461178204E+03  0.16596922685E+03  0.00000000000E+00 0.  1.
          1    1    1    2  502    0  0.19748669607E+02 -0.76639105298E+01 -0.22199873160E+03  0.22300713510E+03  0.00000000000E+00 0. -1.
</event>
<event>
 4    1  0.3752836E+003  0.2141694E+02  0.7546771E-02  0.1513395E+00
          2   -1    0    0  502    0  0.00000000000E+00  0.00000000000E+00  0.12211446722E+04  0.12211446722E+04  0.00000000000E+00 0. -1.
          1   -1    0    0  501    0 -0.00000000000E+00 -0.00000000000E+00 -0.99433368491E+00  0.99433368491E+00  0.00000000000E+00 0. -1.
          2    1    1    2  501    0 -0.20517852829E+01  0.21318430037E+02  0.10921003264E+04  0.10923103076E+04  0.00000000000E+00 0. -1.
          1    1    1    2  502    0  0.20517852829E+01 -0.21318430037E+02  0.12805001216E+03  0.12982869828E+03  0.00000000000E+00 0. -1.
</event>
<event>
 4    1  0.3752836E+003  0.2488554E+02  0.7546771E-02  0.1470088E+00
          2   -1    0    0  502    0  0.00000000000E+00  0.00000000000E+00  0.18649167828E+04  0.18649167828E+04  0.00000000000E+00 0.  1.
          1   -1    0    0  501    0 -0.00000000000E+00 -0.00000000000E+00 -0.72570508766E+00  0.72570508766E+00  0.00000000000E+00 0. -1.
          2    1    1    2  501    0  0.22970589512E+02  0.95729834619E+01  0.16191056866E+04  0.16192969197E+04  0.00000000000E+00 0.  1.
          1    1    1    2  502    0 -0.22970589512E+02 -0.95729834619E+01  0.24508539118E+03  0.24634556819E+03  0.00000000000E+00 0. -1.
</event>
<event>
 4    1  0.3752836E+003  0.7364610E+02  0.7546771E-02  0.1219420E+00
          2   -1    0    0  502    0  0.00000000000E+00  0.00000000000E+00  0.18976813633E+03  0.18976813633E+03  0.00000000000E+00 0.  1.
          1   -1    0    0  501    0 -0.00000000000E+00 -0.00000000000E+00 -0.30430649415E+03  0.30430649415E+03  0.00000000000E+00 0.  1.
          2    1    1    2  501    0 -0.51841321468E+02  0.52308939295E+02  0.17788108697E+03  0.19252383968E+03  0.00000000000E+00 0.  1.
          1    1    1    2  502    0  0.51841321468E+02 -0.52308939295E+02 -0.29241944479E+03  0.30155079080E+03  0.00000000000E+00 0.  1.
</event>
<event>
 4    1  0.3752836E+003  0.2289756E+02  0.7546771E-02  0.1493789E+00
          2   -1    0    0  502    0  0.00000000000E+00  0.00000000000E+00  0.63847456458E+02  0.63847456458E+02  0.00000000000E+00 0.  1.
          1   -1    0    0  501    0 -0.00000000000E+00 -0.00000000000E+00 -0.18309441273E+03  0.18309441273E+03  0.00000000000E+00 0.  1.
          2    1    1    2  501    0 -0.14443291837E+02 -0.17767656340E+02  0.61046876431E+02  0.65199842124E+02  0.00000000000E+00 0.  1.
          1    1    1    2  502    0  0.14443291837E+02  0.17767656340E+02 -0.18029383270E+03  0.18174202706E+03  0.00000000000E+00 0.  1.
</event>
<event>
 4    1  0.3752836E+003  0.2459520E+02  0.7546771E-02  0.1473383E+00
          2   -1    0    0  502    0  0.00000000000E+00  0.00000000000E+00  0.20556098205E+03  0.20556098205E+03  0.00000000000E+00 0.  1.
          1   -1    0    0  501    0 -0.00000000000E+00 -0.00000000000E+00 -0.22882424984E+02  0.22882424984E+02  0.00000000000E+00 0.  1.
          2    1    1    2  501    0 -0.14825842193E+02 -0.19624428907E+02  0.19796356996E+03  0.19948558554E+03  0.00000000000E+00 0.  1.
          1    1    1    2  502    0  0.14825842193E+02  0.19624428907E+02 -0.15285012893E+02  0.28957821496E+02  0.00000000000E+00 0.  1.
</event>
<event>
 4    1  0.3752836E+003  0.2935488E+02  0.7546771E-02  0.1425287E+00
          2   -1    0    0  502    0  0.00000000000E+00  0.00000000000E+00  0.53390994179E+03  0.53390994179E+03  0.00000000000E+00 0.  1.
          1   -1    0    0  501    0 -0.00000000000E+00 -0.00000000000E+00 -0.34547962410E+01  0.34547962410E+01  0.00000000000E+00 0. -1.
          2    1    1    2  501    0 -0.20565761660E+02 -0.20946561570E+02  0.46135376330E+03  0.46228671180E+03  0.00000000000E+00 0.  1.
          1    1    1    2  502    0  0.20565761660E+02  0.20946561570E+02  0.69101382250E+02  0.75078026233E+02  0.00000000000E+00 0. -1.
</event>
<event>
 4    1  0.3752836E+003  0.2630756E+02  0.7546771E-02  0.1454691E+00
          2   -1    0    0  502    0  0.00000000000E+00  0.00000000000E+00  0.11796654275E+02  0.11796654275E+02  0.00000000000E+00 0.  1.
          1   -1    0    0  501    0 -0.00000000000E+00 -0.00000000000E+00 -0.17768538860E+03  0.17768538860E+03  0.00000000000E+00 0.  1.
          2    1    1    2  501    0 -0.23578591535E+02  0.11667809973E+02 -0.54059096967E+01  0.26857245353E+02  0.00000000000E+00 0.  1.
          1    1    1    2  502    0  0.23578591535E+02 -0.11667809973E+02 -0.16048282462E+03  0.16262479752E+03  0.00000000000E+00 0.  1.
</event>
<event>
 4    1  0.3752836E+003  0.2169372E+02  0.7546771E-02  0.1509586E+00
          2   -1    0    0  502    0  0.00000000000E+00  0.00000000000E+00  0.19998249093E+01  0.19998249093E+01  0.00000000000E+00 0. -1.
          1   -1    0    0  501    0 -0.00000000000E+00 -0.00000000000E+00 -0.49118192840E+03  0.49118192840E+03  0.00000000000E+00 0. -1.
          2    1    1    2  501    0  0.19286555647E+02  0.99320862938E+01 -0.66619460459E+02  0.70062615414E+02  0.00000000000E+00 0. -1.
          1    1    1    2  502    0 -0.19286555647E+02 -0.99320862938E+01 -0.42256264303E+03  0.42311913789E+03  0.00000000000E+00 0. -1.
</event>
<event>
 4    1  0.3752836E+003  0.4004698E+02  0.7546771E-02  0.1348211E+00
          2   -1    0    0  502    0  0.00000000000E+00  0.00000000000E+00  0.20028773509E+03  0.20028773509E+03  0.00000000000E+00 0.  1.
          1   -1    0    0  501    0 -0.00000000000E+00 -0.00000000000E+00 -0.12922283932E+02  0.12922283932E+02  0.00000000000E+00 0.  1.
          2    1    1    2  501    0  0.31989989877E+02  0.24091511612E+02  0.15942879868E+03  0.16438157510E+03  0.00000000000E+00 0.  1.
          1    1    1    2  502    0 -0.31989989877E+02 -0.24091511612E+02  0.27936652478E+02  0.48828443922E+02  0.00000000000E+00 0.  1.
</event>
<event>
 4    1  0.3752836E+003  0.4309154E+02  0.7546771E-02  0.1331263E+00
          2   -1    0    0  502    0  0.00000000000E+00  0.00000000000E+00  0.26219752833E+03  0.26219752833E+03  0.00000000000E+00 0.  1.
          1   -1    0    0  501    0 -0.00000000000E+00 -0.00000000000E+00 -0.32823098245E+02  0.32823098245E+02  0.00000000000E+00 0. -1.
          2    1    1    2  501    0  0.30308259856E+02 -0.30631528209E+02  0.24531819708E+03  0.24907408327E+03  0.00000000000E+00 0.  1.
          1    1    1    2  502    0 -0.30308259856E+02  0.30631528209E+02 -0.15943766997E+02  0.45946543308E+02  0.00000000000E+00 0. -1.
</event>
<event>
 4    1  0.3752836E+003  0.2118121E+02  0.7546771E-02  0.1516693E+00
          2   -1    0    0  502    0  0.00000000000E+00  0.00000000000E+00  0.16393854903E+03  0.16393854903E+03  0.00000000000E+00 0.  1.
          1   -1    0    0  501    0 -0.00000000000E+00 -0.00000000000E+00 -0.10568504224E+03  0.10568504224E+03  0.00000000000E+00 0.  1.
          2    1    1    2  501    0  0.16345291300E+02  0.13471274929E+02  0.16218166090E+03  0.16355896469E+03  0.00000000000E+00 0.  1.
          1    1    1    2  502    0 -0.16345291300E+02 -0.13471274929E+02 -0.10392815411E+03  0.10606462659E+03  0.00000000000E+00 0.  1.
</event>
<event>
 4    1  0.3752836E+003  0.3327586E+02  0.7546771E-02  0.1393107E+00
          2   -1    0    0  502    0  0.00000000000E+00  0.00000000000E+00  0.28529142424E+04  0.28529142424E+04  0.00000000000E+00 0. -1.
          1   -1    0    0  501    0 -0.00000000000E+00 -0.00000000000E+00 -0.38889996290E+00  0.38889996290E+00  0.00000000000E+00 0. -1.
          2    1    1    2  501    0  0.28223120226E+02 -0.17627779935E+02  0.14900084610E+04  0.14903799841E+04  0.00000000000E+00 0. -1.
          1    1    1    2  502    0 -0.28223120226E+02  0.17627779935E+02  0.13625168814E+04  0.13629231583E+04  0.00000000000E+00 0. -1.
</event>
<event>
 4    1  0.3752836E+003  0.2918756E+02  0.7546771E-02  0.1426790E+00
          2   -1    0    0  502    0  0.00000000000E+00  0.00000000000E+00  0.34983828928E+03  0.34983828928E+03  0.00000000000E+00 0. -1.
          1   -1    0    0  501    0 -0.00000000000E+00 -0.00000000000E+00 -0.16282320812E+04  0.16282320812E+04  0.00000000000E+00 0.  1.
          2    1    1    2  501    0  0.29029025251E+02  0.30380113553E+01  0.34909841789E+03  0.35031645578E+03  0.00000000000E+00 0. -1.
          1    1    1    2  502    0 -0.29029025251E+02 -0.30380113553E+01 -0.16274922098E+04  0.16277539147E+04  0.00000000000E+00 0.  1.
</event>
<event>
 4    1  0.3752836E+003  0.2779984E+02  0.7546771E-02  0.1439735E+00
          2   -1    0    0  502    0  0.00000000000E+00  0.00000000000E+00  0.12225964718E+04  0.12225964718E+04  0.00000000000E+00 0. -1.
          1   -1    0    0  501    0 -0.00000000000E+00 -0.00000000000E+00 -0.10990329012E+02  0.10990329012E+02  0.00000000000E+00 0.  1.
          2    1    1    2  501    0 -0.20621756788E+02  0.18643342966E+02  0.12045959793E+04  0.12049167209E+04  0.00000000000E+00 0. -1.
          1    1    1    2  502    0  0.20621756788E+02 -0.18643342966E+02  0.70101635582E+01  0.28670079928E+02  0.00000000000E+00 0.  1.
</event>
<event>
 4    1  0.3752836E+003  0.3259071E+02  0.7546771E-02  0.1398341E+00
          2   -1    0    0  502    0  0.00000000000E+00  0.00000000000E+00  0.97261234642E+03  0.97261234642E+03  0.00000000000E+00 0.  1.
          1   -1    0    0  501    0 -0.00000000000E+00 -0.00000000000E+00 -0.31470793311E+01  0.31470793311E+01  0.00000000000E+00 0. -1.
          2    1    1    2  501    0  0.17052044633E+02  0.27773772494E+02  0.87897788952E+03  0.87958188075E+03  0.00000000000E+00 0.  1.
          1    1    1    2  502    0 -0.17052044633E+02 -0.27773772494E+02  0.90487377570E+02  0.96177545010E+02  0.00000000000E+00 0. -1.
</event>
<event>
 4    1  0.3752836E+003  0.2023777E+02  0.7546771E-02  0.1530431E+00
          2   -1    0    0  502    0  0.00000000000E+00  0.00000000000E+00  0.61866150704E+02  0.61866150704E+02  0.00000000000E+00 0. -1.
          1   -1    0    0  501    0 -0.00000000000E+00 -0.00000000000E+00 -0.63631203978E+03  0.63631203978E+03  0.00000000000E+00 0.  1.
          2    1    1    2  501    0 -0.18349019183E+02 -0.85370376440E+01  0.60045433089E+02  0.63364197712E+02  0.00000000000E+00 0. -1.
          1    1    1    2  502    0  0.18349019183E+02  0.85370376440E+01 -0.63449132217E+03  0.63481399277E+03  0.00000000000E+00 0.  1.
</event>
<event>
 4    1  0.3752836E+003  0.2288434E+02  0.7546771E-02  0.1493956E+00
          2   -1    0    0  502    0  0.00000000000E+00  0.00000000000E+00  0.63187363202E+03  0.63187363202E+03  0.00000000000E+00 0.  1.
          1   -1    0    0  501    0 -0.00000000000E+00 -0.00000000000E+00 -0.11087703527E+02  0.11087703527E+02  0.00000000000E+00 0. -1.
          2    1    1    2  501    0  0.23261219313E+01  0.22765811671E+02  0.61962512917E+03  0.62004757376E+03  0.00000000000E+00 0.  1.
          1    1    1    2  502    0 -0.23261219313E+01 -0.22765811671E+02  0.11607993229E+01  0.22913761789E+02  0.00000000000E+00 0. -1.
</event>
<event>
 4    1  0.3752836E+003  0.2070712E+02  0.7546771E-02  0.1523488E+00
          2   -1    0    0  502    0  0.00000000000E+00  0.00000000000E+00  0.33603989268E+03  0.33603989268E+03  0.00000000000E+00 0.  1.
          1   -1    0    0  501    0 -0.00000000000E+00 -0.00000000000E+00 -0.65633709623E+03  0.65633709623E+03  0.00000000000E+00 0. -1.
          2    1    1    2  501    0 -0.20555239504E+02  0.25033652381E+01  0.33555733479E+03  0.33619564191E+03  0.00000000000E+00 0.  1.
          1    1    1    2  502    0  0.20555239504E+02 -0.25033652381E+01 -0.65585453833E+03  0.65618134701E+03  0.00000000000E+00 0. -1.
</event>
<event>
 4    1  0.3752836E+003  0.3569530E+02  0.7546771E-02  0.1375740E+00
          2   -1    0    0  502    0  0.00000000000E+00  0.00000000000E+00  0.11185777462E+03  0.11185777462E+03  0.00000000000E+00 0. -1.
          1   -1    0    0  501    0 -0.00000000000E+00 -0.00000000000E+00 -0.11672732845E+02  0.11672732845E+02  0.00000000000E+00 0. -1.
          2    1    1    2  501    0 -0.24826925619E+02  0.25647191224E+02  0.59690848643E+02  0.69549637419E+02  0.00000000000E+00 0. -1.
          1    1    1    2  502    0  0.24826925619E+02 -0.25647191224E+02  0.40494193128E+02  0.53980870041E+02  0.00000000000E+00 0. -1.
</event>
<event>
 4    1  0.3752836E+003  0.2006427E+02  0.7546771E-02  0.1533055E+00
          2   -1    0    0  502    0  0.00000000000E+00  0.00000000000E+00  0.25805832020E+03  0.25805832020E+03  0.00000000000E+00 0.  1.
          1   -1    0    0  501    0 -0.00000000000E+00 -0.00000000000E+00 -0.47866391519E+01  0.47866391519E+01  0.00000000000E+00 0. -1.
          2    1    1    2  501    0 -0.12164289297E+02 -0.15956352628E+02  0.23453757647E+03  0.23539424356E+03  0.00000000000E+00 0.  1.
          1    1    1    2  502    0  0.12164289297E+02  0.15956352628E+02  0.18734104576E+02  0.27450715793E+02  0.00000000000E+00 0. -1.
</event>
<event>
 4    1  0.3752836E+003  0.2821022E+02  0.7546771E-02  0.1435816E+00
          2   -1    0    0  502    0  0.00000000000E+00  0.00000000000E+00  0.13466427696E+02  0.13466427696E+02  0.00000000000E+00 0.  1.
          1   -1    0    0  501    0 -0.00000000000E+00 -0.00000000000E+00 -0.53944619623E+03  0.53944619623E+03  0.00000000000E+00 0. -1.
          2    1    1    2  501    0  0.21297437610E+02  0.18499617166E+02 -0.21155992110E+01  0.28289440504E+02  0.00000000000E+00 0.  1.
          1    1    1    2  502    0 -0.21297437610E+02 -0.18499617166E+02 -0.52386416932E+03  0.52462318342E+03  0.00000000000E+00 0. -1.
</event>
<event>
 4    1  0.3752836E+003  0.2200103E+02  0.7546771E-02  0.1505438E+00
          2   -1    0    0  502    0  0.00000000000E+00  0.00000000000E+00  0.33835227218E+00  0.33835227218E+00  0.00000000000E+00 0.  1.
          1   -1    0    0  501    0 -0.00000000000E+00 -0.00000000000E+00 -0.14711167090E+04  0.14711167090E+04  0.00000000000E+00 0. -1.
          2    1    1    2  501    0 -0.21986702227E+02  0.79390642873E+00 -0.61328439632E+03  0.61367890311E+03  0.00000000000E+00 0.  1.
          1    1    1    2  502    0  0.21986702227E+02 -0.79390642873E+00 -0.85749396041E+03  0.85777615815E+03  0.00000000000E+00 0. -1.
</event>
<event>
 4    1  0.5855024E+003  0.2713956E+02  0.7546771E-02  0.1446211E+00
          2   -1    0    0  502    0  0.00000000000E+00  0.00000000000E+00  0.90859298339E+03  0.90859298339E+03  0.00000000000E+00 0. -1.
          1   -1    0    0  501    0 -0.00000000000E+00 -0.00000000000E+00 -0.13417940118E+04  0.13417940118E+04  0.00000000000E+00 0.  1.
          2    1    1    2  501    0  0.19996579998E+02 -0.18349178296E+02  0.90825303491E+03  0.90865842371E+03  0.00000000000E+00 0. -1.
          1    1    1    2  502    0 -0.19996579998E+02  0.18349178296E+02 -0.13414540633E+04  0.13417285715E+04  0.00000000000E+00 0.  1.
</event>
<event>
 4    1  0.3752836E+003  0.2104543E+02  0.7546771E-02  0.1518617E+00
          2   -1    0    0  502    0  0.00000000000E+00  0.00000000000E+00  0.18776332091E+03  0.18776332091E+03  0.00000000000E+00 0. -1.
          1   -1    0    0  501    0 -0.00000000000E+00 -0.00000000000E+00 -0.31324698489E+03  0.31324698489E+03  0.00000000000E+00 0.  1.
          2    1    1    2  501    0 -0.73080798813E+01 -0.19735805011E+02  0.18681833693E+03  0.18800000277E+03  0.00000000000E+00 0. -1.
          1    1    1    2  502    0  0.73080798813E+01  0.19735805011E+02 -0.31230200090E+03  0.31301030302E+03  0.00000000000E+00 0.  1.
</event>
<event>
 4    1  0.3752836E+003  0.2072259E+02  0.7546771E-02  0.1523263E+00
          2   -1    0    0  502    0  0.00000000000E+00  0.00000000000E+00  0.18999926782E+03  0.18999926782E+03  0.00000000000E+00 0.  1.
          1   -1    0    0  501    0 -0.00000000000E+00 -0.00000000000E+00 -0.38112596238E+01  0.38112596238E+01  0.00000000000E+00 0. -1.
          2    1    1    2  501    0 -0.17789405744E+02  0.10628387015E+02  0.15491489916E+03  0.15629475854E+03  0.00000000000E+00 0.  1.
          1    1    1    2  502    0  0.17789405744E+02 -0.10628387015E+02  0.31273109043E+02  0.37515768905E+02  0.00000000000E+00 0. -1.
</event>
<event>
 4    1  0.3752836E+003  0.2017064E+02  0.7546771E-02  0.1531443E+00
          2   -1    0    0  502    0  0.00000000000E+00  0.00000000000E+00  0.60745658128E+03  0.60745658128E+03  0.00000000000E+00 0. -1.
          1   -1    0    0  501    0 -0.00000000000E+00 -0.00000000000E+00 -0.75221479406E+02  0.75221479406E+02  0.00000000000E+00 0. -1.
          2    1    1    2  501    0  0.19603379767E+02  0.47499783762E+01  0.60593355198E+03  0.60626918461E+03  0.00000000000E+00 0. -1.
          1    1    1    2  502    0 -0.19603379767E+02 -0.47499783762E+01 -0.73698450113E+02  0.76408876068E+02  0.00000000000E+00 0. -1.
</event>
<event>
 4    1  0.4303313E+003  0.2913007E+02  0.7546771E-02  0.1427310E+00
          2   -1    0    0  502    0  0.00000000000E+00  0.00000000000E+00  0.70963261368E+03  0.70963261368E+03  0.00000000000E+00 0.  1.
          1   -1    0    0  501    0 -0.00000000000E+00 -0.00000000000E+00 -0.15512908801E+04  0.15512908801E+04  0.00000000000E+00 0. -1.
          2    1    1    2  501    0 -0.23497780584E+02 -0.17216710231E+02  0.70919683523E+03  0.70979483789E+03  0.00000000000E+00 0.  1.
          1    1    1    2  502    0  0.23497780584E+02  0.17216710231E+02 -0.15508551016E+04  0.15511286559E+04  0.00000000000E+00 0. -1.
</event>
<event>
 4    1  0.3752836E+003  0.2396029E+02  0.7546771E-02  0.1480779E+00
          2   -1    0    0  502    0  0.00000000000E+00  0.00000000000E+00  0.64504480820E+03  0.64504480820E+03  0.00000000000E+00 0. -1.
          1   -1    0    0  501    0 -0.00000000000E+00 -0.00000000000E+00 -0.11735327634E+01  0.11735327634E+01  0.00000000000E+00 0. -1.
          2    1    1    2  501    0  0.16008278451E+02 -0.17827797446E+02  0.48075257466E+03  0.48134928419E+03  0.00000000000E+00 0. -1.
          1    1    1    2  502    0 -0.16008278451E+02  0.17827797446E+02  0.16311870077E+03  0.16486905677E+03  0.00000000000E+00 0. -1.
</event>
<event>
 4    1  0.3752836E+003  0.2286573E+02  0.7546771E-02  0.1494191E+00
          2   -1    0    0  502    0  0.00000000000E+00  0.00000000000E+00  0.14028290835E+02  0.14028290835E+02  0.00000000000E+00 0. -1.
          1   -1    0    0  501    0 -0.00000000000E+00 -0.00000000000E+00 -0.38541450544E+02  0.38541450544E+02  0.00000000000E+00 0. -1.
          2    1    1    2  501    0 -0.10298378502E+02 -0.20415315434E+02 -0.74834570833E+01  0.24059173592E+02  0.00000000000E+00 0. -1.
          1    1    1    2  502    0  0.10298378502E+02  0.20415315434E+02 -0.17029702626E+02  0.28510567787E+02  0.00000000000E+00 0. -1.
</event>
<event>
 4    1  0.3752836E+003  0.2295077E+02  0.7546771E-02  0.1493117E+00
          2   -1    0    0  502    0  0.00000000000E+00  0.00000000000E+00  0.22663431466E+02  0.22663431466E+02  0.00000000000E+00 0. -1.
          1   -1    0    0  501    0 -0.00000000000E+00 -0.00000000000E+00 -0.76788122381E+02  0.76788122381E+02  0.00000000000E+00 0. -1.
          2    1    1    2  501    0 -0.20988789412E+02  0.92848589068E+01  0.14461691243E+02  0.27127078713E+02  0.00000000000E+00 0. -1.
          1    1    1    2  502    0  0.20988789412E+02 -0.92848589068E+01 -0.68586382158E+02  0.72324475134E+02  0.00000000000E+00 0. -1.
</event>
<event>
 4    1  0.3752836E+003  0.2832559E+02  0.7546771E-02  0.1434728E+00
          2   -1    0    0  502    0  0.00000000000E+00  0.00000000000E+00  0.73569570399E+03  0.73569570399E+03  0.00000000000E+00 0.  1.
          1   -1    0    0  501    0 -0.00000000000E+00 -0.00000000000E+00 -0.10910683089E+01  0.10910683089E+01  0.00000000000E+00 0.  1.
          2    1    1    2  501    0 -0.16684233385E+02  0.22890493090E+02  0.35954464797E+03  0.36065869212E+03  0.00000000000E+00 0.  1.
          1    1    1    2  502    0  0.16684233385E+02 -0.22890493090E+02  0.37505998771E+03  0.37612808018E+03  0.00000000000E+00 0.  1.
</event>
<event>
 4    1  0.3752836E+003  0.2472724E+02  0.7546771E-02  0.1471878E+00
          2   -1    0    0  502    0  0.00000000000E+00  0.00000000000E+00  0.14819410222E+02  0.14819410222E+02  0.00000000000E+00 0. -1.
          1   -1    0    0  501    0 -0.00000000000E+00 -0.00000000000E+00 -0.41546555072E+03  0.41546555072E+03  0.00000000000E+00 0. -1.
          2    1    1    2  501    0 -0.12011475197E+02 -0.21613903365E+02  0.38574304408E+01  0.25026308651E+02  0.00000000000E+00 0. -1.
          1    1    1    2  502    0  0.12011475197E+02  0.21613903365E+02 -0.40450357094E+03  0.40525865229E+03  0.00000000000E+00 0. -1.
</event>
<event>
 4    1  0.3752836E+003  0.2748490E+02  0.7546771E-02  0.1442797E+00
          2   -1    0    0  502    0  0.00000000000E+00  0.00000000000E+00  0.11763542037E+02  0.11763542037E+02  0.00000000000E+00 0.  1.
          1   -1    0    0  501    0 -0.00000000000E+00 -0.00000000000E+00 -0.80763271547E+03  0.80763271547E+03  0.00000000000E+00 0. -1.
          2    1    1    2  501    0 -0.10964894264E+02  0.25202995787E+02 -0.48618841805E+01  0.27911607275E+02  0.00000000000E+00 0.  1.
          1    1    1    2  502    0  0.10964894264E+02 -0.25202995787E+02 -0.79100728925E+03  0.79148465023E+03  0.00000000000E+00 0. -1.
</event>
<event>
 4    1  0.3752836E+003  0.2067180E+02  0.7546771E-02  0.1524003E+00
          2   -1    0    0  502    0  0.00000000000E+00  0.00000000000E+00  0.10170840153E+01  0.10170840153E+01  0.00000000000E+00 0.  1.
          1   -1    0    0  501    0 -0.00000000000E+00 -0.00000000000E+00 -0.47978372297E+03  0.47978372297E+03  0.00000000000E+00 0. -1.
          2    1    1    2  501    0  0.20654991747E+02  0.83338028417E+00 -0.15462642835E+03  0.15600210111E+03  0.00000000000E+00 0.  1.
          1    1    1    2  502    0 -0.20654991747E+02 -0.83338028417E+00 -0.32414021061E+03  0.32479870588E+03  0.00000000000E+00 0. -1.
</event>
<event>
 4    1  0.3752836E+003  0.5322572E+02  0.7546771E-02  0.1284762E+00
          2   -1    0    0  502    0  0.00000000000E+00  0.00000000000E+00  0.10204757048E+03  0.10204757048E+03  0.00000000000E+00 0. -1.
          1   -1    0    0  501    0 -0.00000000000E+00 -0.00000000000E+00 -0.48373513128E+03  0.48373513128E+03  0.00000000000E+00 0. -1.
          2    1    1    2  501    0  0.48821522623E+02 -0.21199915261E+02  0.93518947678E+02  0.10760469810E+03  0.00000000000E+00 0. -1.
          1    1    1    2  502    0 -0.48821522623E+02  0.21199915261E+02 -0.47520650849E+03  0.47817800366E+03  0.00000000000E+00 0. -1.
</event>
<event>
 4    1  0.3752836E+003  0.2654905E+02  0.7546771E-02  0.1452191E+00
          2   -1    0    0  502    0  0.00000000000E+00  0.00000000000E+00  0.27005877231E+03  0.27005877231E+03  0.00000000000E+00 0.  1.
          1   -1    0    0  501    0 -0.00000000000E+00 -0.00000000000E+00 -0.42656790801E+03  0.42656790801E+03  0.00000000000E+00 0.  1.
          2    1    1    2  501    0 -0.16352121191E+01  0.26498646451E+02  0.26899154351E+03  0.27029854358E+03  0.00000000000E+00 0.  1.
          1    1    1    2  502    0  0.16352121191E+01 -0.26498646451E+02 -0.42550067920E+03  0.42632813675E+03  0.00000000000E+00 0.  1.
</event>
<event>
 4    1  0.3752836E+003  0.2511784E+02  0.7546771E-02  0.1467489E+00
          2   -1    0    0  502    0  0.00000000000E+00  0.00000000000E+00  0.78447700103E+02  0.78447700103E+02  0.00000000000E+00 0.  1.
          1   -1    0    0  501    0 -0.00000000000E+00 -0.00000000000E+00 -0.11926896767E+04  0.11926896767E+04  0.00000000000E+00 0.  1.
          2    1    1    2  501    0 -0.13257243246E+02  0.21334272444E+02  0.76301237952E+02  0.80329226264E+02  0.00000000000E+00 0.  1.
          1    1    1    2  502    0  0.13257243246E+02 -0.21334272444E+02 -0.11905432146E+04  0.11908081506E+04  0.00000000000E+00 0.  1.
</event>
<event>
 4    1  0.3752836E+003  0.1031173E+03  0.7546771E-02  0.1158513E+00
          2   -1    0    0  502    0  0.00000000000E+00  0.00000000000E+00  0.86883121329E+03  0.86883121329E+03  0.00000000000E+00 0.  1.
          1   -1    0    0  501    0 -0.00000000000E+00 -0.00000000000E+00 -0.26583711114E+02  0.26583711114E+02  0.00000000000E+00 0.  1.
          2    1    1    2  501    0 -0.78043026425E+02 -0.67397763330E+02  0.75000591405E+03  0.75706145297E+03  0.00000000000E+00 0.  1.
          1    1    1    2  502    0  0.78043026425E+02  0.67397763330E+02  0.92241588128E+02  0.13835347143E+03  0.00000000000E+00 0.  1.
</event>
<event>
 4    1  0.3752836E+003  0.3337051E+02  0.7546771E-02  0.1392396E+00
          2   -1    0    0  502    0  0.00000000000E+00  0.00000000000E+00  0.11396635678E+04  0.11396635678E+04  0.00000000000E+00 0.  1.
          1   -1    0    0  501    0 -0.00000000000E+00 -0.00000000000E+00 -0.27888316179E+01  0.27888316179E+01  0.00000000000E+00 0.  1.
          2    1    1    2  501    0 -0.81130038959E+01  0.32369274322E+02  0.10288436322E+04  0.10293846755E+04  0.00000000000E+00 0.  1.
          1    1    1    2  502    0  0.81130038959E+01 -0.32369274322E+02  0.10803110406E+03  0.11306772393E+03  0.00000000000E+00 0.  1.
</event>
<event>
 4    1  0.3752836E+003  0.2243211E+02  0.7546771E-02  0.1499755E+00
          2   -1    0    0  502    0  0.00000000000E+00  0.00000000000E+00  0.17005843671E+01  0.17005843671E+01  0.00000000000E+00 0. -1.
          1   -1    0    0  501    0 -0.00000000000E+00 -0.00000000000E+00 -0.76300948421E+03  0.76300948421E+03  0.00000000000E+00 0.  1.
          2    1    1    2  501    0 -0.75209556672E+01  0.21133731610E+02 -0.81488507101E+02  0.84519679220E+02  0.00000000000E+00 0. -1.
          1    1    1    2  502    0  0.75209556672E+01 -0.21133731610E+02 -0.67982039274E+03  0.68019038936E+03  0.00000000000E+00 0.  1.
</event>
<event>
 4    1  0.3752836E+003  0.3397052E+02  0.7546771E-02  0.1387949E+00
          2   -1    0    0  502    0  0.00000000000E+00  0.00000000000E+00  0.23699553340E+01  0.23699553340E+01  0.00000000000E+00 0.  1.
          1   -1    0    0  501    0 -0.00000000000E+00 -0.00000000000E+00 -0.82495969648E+03  0.82495969648E+03  0.00000000000E+00 0. -1.
          2    1    1    2  501    0 -0.88092481662E+01 -0.32808437768E+02 -0.14649896972E+03  0.15038598528E+03  0.00000000000E+00 0.  1.
          1    1    1    2  502    0  0.88092481662E+01  0.32808437768E+02 -0.67609077143E+03  0.67694366653E+03  0.00000000000E+00 0. -1.
</event>
<event>
 4    1  0.3752836E+003  0.4706235E+02  0.7546771E-02  0.1311437E+00
          2   -1    0    0  502    0  0.00000000000E+00  0.00000000000E+00  0.50558406331E+03  0.50558406331E+03  0.00000000000E+00 0.  1.
          1   -1    0    0  501    0 -0.00000000000E+00 -0.00000000000E+00 -0.59696623576E+02  0.59696623576E+02  0.00000000000E+00 0. -1.
          2    1    1    2  501    0  0.40877871372E+02  0.23320910922E+02  0.49501577637E+03  0.49724791011E+03  0.00000000000E+00 0.  1.
          1    1    1    2  502    0 -0.40877871372E+02 -0.23320910922E+02 -0.49128336641E+02  0.68032776771E+02  0.00000000000E+00 0. -1.
</event>
<event>
 4    1  0.3752836E+003  0.4169687E+02  0.7546771E-02  0.1338819E+00
          2   -1    0    0  502    0  0.00000000000E+00  0.00000000000E+00  0.13860324509E+03  0.13860324509E+03  0.00000000000E+00 0. -1.
          1   -1    0    0  501    0 -0.00000000000E+00 -0.00000000000E+00 -0.54253790033E+03  0.54253790033E+03  0.00000000000E+00 0.  1.
          2    1    1    2  501    0  0.41230067632E+02 -0.62217793001E+01  0.13464308331E+03  0.14095172542E+03  0.00000000000E+00 0. -1.
          1    1    1    2  502    0 -0.41230067632E+02  0.62217793001E+01 -0.53857773855E+03  0.54018942000E+03  0.00000000000E+00 0.  1.
</event>
<event>
 4    1  0.3752836E+003  0.2283574E+02  0.7546771E-02  0.1494571E+00
          2   -1    0    0  502    0  0.00000000000E+00  0.00000000000E+00  0.23125115939E+03  0.23125115939E+03  0.00000000000E+00 0. -1.
          1   -1    0    0  501    0 -0.00000000000E+00 -0.00000000000E+00 -0.26061420848E+01  0.26061420848E+01  0.00000000000E+00 0. -1.
          2    1    1    2  501    0 -0.22806550209E+02  0.11542645573E+01  0.15724294728E+03  0.15889246530E+03  0.00000000000E+00 0. -1.
          1    1    1    2  502    0  0.22806550209E+02 -0.11542645573E+01  0.71402070018E+02  0.74964836170E+02  0.00000000000E+00 0. -1.
</event>
<event>
 4    1  0.3752836E+003  0.2623737E+02  0.7546771E-02  0.1455423E+00
          2   -1    0    0  502    0  0.00000000000E+00  0.00000000000E+00  0.22766483661E+03  0.22766483661E+03  0.00000000000E+00 0.  1.
          1   -1    0    0  501    0 -0.00000000000E+00 -0.00000000000E+00 -0.67669377990E+01  0.67669377990E+01  0.00000000000E+00 0.  1.
          2    1    1    2  501    0 -0.20450626481E+02  0.16436894930E+02  0.19762790906E+03  0.19936195745E+03  0.00000000000E+00 0.  1.
          1    1    1    2  502    0  0.20450626481E+02 -0.16436894930E+02  0.23269989742E+02  0.35069816951E+02  0.00000000000E+00 0.  1.
</event>
<event>
 4    1  0.3752836E+003  0.2576865E+02  0.7546771E-02  0.1460385E+00
          2   -1    0    0  502    0  0.00000000000E+00  0.00000000000E+00  0.50351286550E+03  0.50351286550E+03  0.00000000000E+00 0. -1.
          1   -1    0    0  501    0 -0.00000000000E+00 -0.00000000000E+00 -0.17673787352E+01  0.17673787352E+01  0.00000000000E+00 0. -1.
          2    1    1    2  501    0  0.13893255596E+02 -0.21702556782E+02  0.37815437652E+03  0.37903133908E+03  0.00000000000E+00 0. -1.
          1    1    1    2  502    0 -0.13893255596E+02  0.21702556782E+02  0.12359111025E+03  0.12624890516E+03  0.00000000000E+00 0. -1.
</event>
<event>
 4    1  0.3752836E+003  0.2194602E+02  0.7546771E-02  0.1506175E+00
          2   -1    0    0  502    0  0.00000000000E+00  0.00000000000E+00  0.30925948977E+03  0.30925948977E+03  0.00000000000E+00 0. -1.
          1   -1    0    0  501    0 -0.00000000000E+00 -0.00000000000E+00 -0.71462263063E+02  0.71462263063E+02  0.00000000000E+00 0. -1.
          2    1    1    2  501    0 -0.25561902408E+01  0.21796647610E+02  0.30717382129E+03  0.30795678989E+03  0.00000000000E+00 0. -1.
          1    1    1    2  502    0  0.25561902408E+01 -0.21796647610E+02 -0.69376594583E+02  0.72764962939E+02  0.00000000000E+00 0. -1.
</event>
<event>
 4    1  0.3752836E+003  0.2623593E+02  0.7546771E-02  0.1455438E+00
          2   -1    0    0  502    0  0.00000000000E+00  0.00000000000E+00  0.27330811763E+01  0.27330811763E+01  0.00000000000E+00 0. -1.
          1   -1    0    0  501    0 -0.00000000000E+00 -0.00000000000E+00 -0.65457072393E+03  0.65457072393E+03  0.00000000000E+00 0. -1.
          2    1    1    2  501    0 -0.19724853738E+02 -0.17298967621E+02 -0.68132234273E+02  0.73009078084E+02  0.00000000000E+00 0. -1.
          1    1    1    2  502    0  0.19724853738E+02  0.17298967621E+02 -0.58370540848E+03  0.58429472702E+03  0.00000000000E+00 0. -1.
</event>
<event>
 4    1  0.3752836E+003  0.3564800E+02  0.7546771E-02  0.1376064E+00
          2   -1    0    0  502    0  0.00000000000E+00  0.00000000000E+00  0.72966772682E+01  0.72966772682E+01  0.00000000000E+00 0.  1.
          1   -1    0    0  501    0 -0.00000000000E+00 -0.00000000000E+00 -0.29238468153E+03  0.29238468153E+03  0.00000000000E+00 0.  1.
          2    1    1    2  501    0 -0.33662130209E+02 -0.11732042535E+02 -0.47262435631E+02  0.59198966664E+02  0.00000000000E+00 0.  1.
          1    1    1    2  502    0  0.33662130209E+02  0.11732042535E+02 -0.23782556863E+03  0.24048239213E+03  0.00000000000E+00 0.  1.
</event>
<event>
 4    1  0.3752836E+003  0.2591845E+02  0.7546771E-02  0.1458786E+00
          2   -1    0    0  502    0  0.00000000000E+00  0.00000000000E+00  0.26746445621E+02  0.26746445621E+02  0.00000000000E+00 0. -1.
          1   -1    0    0  501    0 -0.00000000000E+00 -0.00000000000E+00 -0.13936489723E+03  0.13936489723E+03  0.00000000000E+00 0. -1.
          2    1    1    2  501    0  0.22556448110E+02  0.12766070141E+02  0.18890879404E+02  0.32072281223E+02  0.00000000000E+00 0. -1.
          1    1    1    2  502    0 -0.22556448110E+02 -0.12766070141E+02 -0.13150933101E+03  0.13403906162E+03  0.00000000000E+00 0. -1.
</event>
<event>
 4    1  0.3752836E+003  0.2198333E+02  0.7546771E-02  0.1505675E+00
          2   -1    0    0  502    0  0.00000000000E+00  0.00000000000E+00  0.29486069214E+03  0.29486069214E+03  0.00000000000E+00 0.  1.
          1   -1    0    0  501    0 -0.00000000000E+00 -0.00000000000E+00 -0.12151820303E+02  0.12151820303E+02  0.00000000000E+00 0.  1.
          2    1    1    2  501    0  0.20720904923E+02  0.73423959850E+01  0.28413389469E+03  0.28498304650E+03  0.00000000000E+00 0.  1.
          1    1    1    2  502    0 -0.20720904923E+02 -0.73423959850E+01 -0.14250228543E+01  0.22029465944E+02  0.00000000000E+00 0.  1.
</event>
<event>
 4    1  0.3752836E+003  0.3937726E+02  0.7546771E-02  0.1352174E+00
          2   -1    0    0  502    0  0.00000000000E+00  0.00000000000E+00  0.11902944595E+01  0.11902944595E+01  0.00000000000E+00 0.  1.
          1   -1    0    0  501    0 -0.00000000000E+00 -0.00000000000E+00 -0.13852002754E+04  0.13852002754E+04  0.00000000000E+00 0.  1.
          2    1    1    2  501    0  0.14852125022E+02  0.36468905597E+02 -0.86120217047E+03  0.86210193430E+03  0.00000000000E+00 0.  1.
          1    1    1    2  502    0 -0.14852125022E+02 -0.36468905597E+02 -0.52280781047E+03  0.52428863556E+03  0.00000000000E+00 0.  1.
</event>
<event>
 4    1  0.3752836E+003  0.3543694E+02  0.7546771E-02  0.1377517E+00
          2   -1    0    0  502    0  0.00000000000E+00  0.00000000000E+00  0.19050585364E+01  0.19050585364E+01  0.00000000000E+00 0.  1.
          1   -1    0    0  501    0 -0.00000000000E+00 -0.00000000000E+00 -0.71460454395E+03  0.71460454395E+03  0.00000000000E+00 0.  1.
          2    1    1    2  501    0  0.29482964305E+02 -0.19660378923E+02 -0.45612247074E+03  0.45749697704E+03  0.00000000000E+00 0.  1.
          1    1    1    2  502    0 -0.29482964305E+02  0.19660378923E+02 -0.25657701467E+03  0.25901262544E+03  0.00000000000E+00 0.  1.
</event>
<event>
 4    1  0.3752836E+003  0.3950953E+02  0.7546771E-02  0.1351384E+00
          2   -1    0    0  502    0  0.00000000000E+00  0.00000000000E+00  0.35210991089E+03  0.35210991089E+03  0.00000000000E+00 0.  1.
          1   -1    0    0  501    0 -0.00000000000E+00 -0.00000000000E+00 -0.64086302107E+01  0.64086302107E+01  0.00000000000E+00 0. -1.
          2    1    1    2  501    0 -0.11483779304E+02 -0.37803776666E+02  0.27237302913E+03  0.27522367216E+03  0.00000000000E+00 0.  1.
          1    1    1    2  502    0  0.11483779304E+02  0.37803776666E+02  0.73328251550E+02  0.83294868946E+02  0.00000000000E+00 0. -1.
</event>
<event>
 4    1  0.3752836E+003  0.2321300E+02  0.7546771E-02  0.1489841E+00
          2   -1    0    0  502    0  0.00000000000E+00  0.00000000000E+00  0.14085509752E+04  0.14085509752E+04  0.00000000000E+00 0.  1.
          1   -1    0    0  501    0 -0.00000000000E+00 -0.00000000000E+00 -0.23294298699E+01  0.23294298699E+01  0.00000000000E+00 0.  1.
          2    1    1    2  501    0  0.40765450667E+00 -0.23209421772E+02  0.13480291967E+04  0.13482290453E+04  0.00000000000E+00 0.  1.
          1    1    1    2  502    0 -0.40765450667E+00  0.23209421772E+02  0.58192348583E+02  0.62651359720E+02  0.00000000000E+00 0.  1.
</event>
<event>
 4    1  0.3752836E+003  0.2013898E+02  0.7546771E-02  0.1531922E+00
          2   -1    0    0  502    0  0.00000000000E+00  0.00000000000E+00  0.16248829602E+01  0.16248829602E+01  0.00000000000E+00 0. -1.
          1   -1    0    0  501    0 -0.00000000000E+00 -0.00000000000E+00 -0.27230218651E+03  0.27230218651E+03  0.00000000000E+00 0. -1.
          2    1    1    2  501    0  0.20010015313E+02  0.22754799275E+01 -0.95795826278E+02  0.97889830187E+02  0.00000000000E+00 0. -1.
          1    1    1    2  502    0 -0.20010015313E+02 -0.22754799275E+01 -0.17488147727E+03  0.17603723929E+03  0.00000000000E+00 0. -1.
</event>
<event>
 4    1  0.3752836E+003  0.3362862E+02  0.7546771E-02  0.1390469E+00
          2   -1    0    0  502    0  0.00000000000E+00  0.00000000000E+00  0.36594642675E+03  0.36594642675E+03  0.00000000000E+00 0. -1.
          1   -1    0    0  501    0 -0.00000000000E+00 -0.00000000000E+00 -0.14835893716E+02  0.14835893716E+02  0.00000000000E+00 0.  1.
          2    1    1    2  501    0 -0.25890491154E+01  0.33528810347E+02  0.34496072823E+03  0.34659600160E+03  0.00000000000E+00 0. -1.
          1    1    1    2  502    0  0.25890491154E+01 -0.33528810347E+02  0.61498047961E+01  0.34186318867E+02  0.00000000000E+00 0.  1.
</event>
<event>
 4    1  0.3752836E+003  0.2637280E+02  0.7546771E-02  0.1454012E+00
          2   -1    0    0  502    0  0.00000000000E+00  0.00000000000E+00  0.17140266702E+03  0.17140266702E+03  0.00000000000E+00 0. -1.
          1   -1    0    0  501    0 -0.00000000000E+00 -0.00000000000E+00 -0.56646149016E+01  0.56646149016E+01  0.00000000000E+00 0. -1.
          2    1    1    2  501    0  0.22265483778E+02 -0.14134100132E+02  0.13002108746E+03  0.13266878961E+03  0.00000000000E+00 0. -1.
          1    1    1    2  502    0 -0.22265483778E+02  0.14134100132E+02  0.35716964657E+02  0.44398492302E+02  0.00000000000E+00 0. -1.
</event>
<event>
 4    1  0.3752836E+003  0.2920664E+02  0.7546771E-02  0.1426618E+00
          2   -1    0    0  502    0  0.00000000000E+00  0.00000000000E+00  0.65635345929E+03  0.65635345929E+03  0.00000000000E+00 0. -1.
          1   -1    0    0  501    0 -0.00000000000E+00 -0.00000000000E+00 -0.48220937913E+02  0.48220937913E+02  0.00000000000E+00 0.  1.
          2    1    1    2  501    0  0.25651264866E+02  0.13965688246E+02  0.65157362398E+03  0.65222788602E+03  0.00000000000E+00 0. -1.
          1    1    1    2  502    0 -0.25651264866E+02 -0.13965688246E+02 -0.43441102604E+02  0.52346511181E+02  0.00000000000E+00 0.  1.
</event>
<event>
 4    1  0.3752836E+003  0.2992691E+02  0.7546771E-02  0.1420233E+00
          2   -1    0    0  502    0  0.00000000000E+00  0.00000000000E+00  0.47387474553E+03  0.47387474553E+03  0.00000000000E+00 0. -1.
          1   -1    0    0  501    0 -0.00000000000E+00 -0.00000000000E+00 -0.32140264683E+01  0.32140264683E+01  0.00000000000E+00 0. -1.
          2    1    1    2  501    0  0.29812797832E+02 -0.26109827086E+01  0.38843695177E+03  0.38958809741E+03  0.00000000000E+00 0. -1.
          1    1    1    2  502    0 -0.29812797832E+02  0.26109827086E+01  0.82223767291E+02  0.87500674585E+02  0.00000000000E+00 0. -1.
</event>
<event>
 4    1  0.3752836E+003  0.2314537E+02  0.7546771E-02  0.1490681E+00
          2   -1    0    0  502    0  0.00000000000E+00  0.00000000000E+00  0.16779185950E+04  0.16779185950E+04  0.00000000000E+00 0. -1.
          1   -1    0    0  501    0 -0.00000000000E+00 -0.00000000000E+00 -0.39117254149E+00  0.39117254149E+00  0.00000000000E+00 0.  1.
          2    1    1    2  501    0 -0.62759675175E+01 -0.22278252886E+02  0.11985390709E+04  0.11987625339E+04  0.00000000000E+00 0. -1.
          1    1    1    2  502    0  0.62759675175E+01  0.22278252886E+02  0.47898835158E+03  0.47954723361E+03  0.00000000000E+00 0.  1.
</event>
<event>
 4    1  0.3752836E+003  0.2298925E+02  0.7546771E-02  0.1492633E+00
          2   -1    0    0  502    0  0.00000000000E+00  0.00000000000E+00  0.95187943787E+03  0.95187943787E+03  0.00000000000E+00 0. -1.
          1   -1    0    0  501    0 -0.00000000000E+00 -0.00000000000E+00 -0.16553700957E+01  0.16553700957E+01  0.00000000000E+00 0. -1.
          2    1    1    2  501    0 -0.66112641703E+01  0.22018105932E+02  0.86378495894E+03  0.86409082920E+03  0.00000000000E+00 0. -1.
          1    1    1    2  502    0  0.66112641703E+01 -0.22018105932E+02  0.86439108825E+02  0.89443978765E+02  0.00000000000E+00 0. -1.
</event>
<event>
 4    1  0.3752836E+003  0.2955086E+02  0.7546771E-02  0.1423540E+00
          2   -1    0    0  502    0  0.00000000000E+00  0.00000000000E+00  0.49154638621E+03  0.49154638621E+03  0.00000000000E+00 0. -1.
          1   -1    0    0  501    0 -0.00000000000E+00 -0.00000000000E+00 -0.37839085448E+01  0.37839085448E+01  0.00000000000E+00 0. -1.
          2    1    1    2  501    0  0.24618632827E+02  0.16345521982E+02  0.42426931986E+03  0.42529720073E+03  0.00000000000E+00 0. -1.
          1    1    1    2  502    0 -0.24618632827E+02 -0.16345521982E+02  0.63493157805E+02  0.70033094028E+02  0.00000000000E+00 0. -1.
</event>
<event>
 4    1  0.3752836E+003  0.2807817E+02  0.7546771E-02  0.1437068E+00
          2   -1    0    0  502    0  0.00000000000E+00  0.00000000000E+00  0.98552028905E+03  0.98552028905E+03  0.00000000000E+00 0. -1.
          1   -1    0    0  501    0 -0.00000000000E+00 -0.00000000000E+00 -0.22075719503E+01  0.22075719503E+01  0.00000000000E+00 0.  1.
          2    1    1    2  501    0  0.22230032247E+02  0.17152536861E+02  0.88601398577E+03  0.88645877898E+03  0.00000000000E+00 0. -1.
          1    1    1    2  502    0 -0.22230032247E+02 -0.17152536861E+02  0.97298731335E+02  0.10126908202E+03  0.00000000000E+00 0.  1.
</event>
<event>
 4    1  0.3752836E+003  0.4185630E+02  0.7546771E-02  0.1337938E+00
          2   -1    0    0  502    0  0.00000000000E+00  0.00000000000E+00  0.11403496981E+04  0.11403496981E+04  0.00000000000E+00 0. -1.
          1   -1    0    0  501    0 -0.00000000000E+00 -0.00000000000E+00 -0.16001844912E+01  0.16001844912E+01  0.00000000000E+00 0.  1.
          2    1    1    2  501    0 -0.17633351629E+01  0.41819140830E+02  0.68343606896E+03  0.68471659119E+03  0.00000000000E+00 0. -1.
          1    1    1    2  502    0  0.17633351629E+01 -0.41819140830E+02  0.45531344460E+03  0.45723329136E+03  0.00000000000E+00 0.  1.
</event>
<event>
 4    1  0.3752836E+003  0.2716920E+02  0.7546771E-02  0.1445916E+00
          2   -1    0    0  502    0  0.00000000000E+00  0.00000000000E+00  0.12372529024E+02  0.12372529024E+02  0.00000000000E+00 0.  1.
          1   -1    0    0  501    0 -0.00000000000E+00 -0.00000000000E+00 -0.45884861194E+03  0.45884861194E+03  0.00000000000E+00 0.  1.
          2    1    1    2  501    0 -0.18301899470E+02 -0.20079989967E+02 -0.34782508225E+01  0.27390942847E+02  0.00000000000E+00 0.  1.
          1    1    1    2  502    0  0.18301899470E+02  0.20079989967E+02 -0.44299783210E+03  0.44383019812E+03  0.00000000000E+00 0.  1.
</event>
<event>
 4    1  0.3752836E+003  0.2225375E+02  0.7546771E-02  0.1502088E+00
          2   -1    0    0  502    0  0.00000000000E+00  0.00000000000E+00  0.59003665586E+02  0.59003665586E+02  0.00000000000E+00 0. -1.
          1   -1    0    0  501    0 -0.00000000000E+00 -0.00000000000E+00 -0.49602575419E+03  0.49602575419E+03  0.00000000000E+00 0.  1.
          2    1    1    2  501    0  0.14290511980E+02  0.17059037439E+02  0.56645750161E+02  0.60860253880E+02  0.00000000000E+00 0. -1.
          1    1    1    2  502    0 -0.14290511980E+02 -0.17059037439E+02 -0.49366783877E+03  0.49416916590E+03  0.00000000000E+00 0.  1.
</event>
<event>
 4    1  0.3752836E+003  0.2049865E+02  0.7546771E-02  0.1526545E+00
          2   -1    0    0  502    0  0.00000000000E+00  0.00000000000E+00  0.64177841488E+02  0.64177841488E+02  0.00000000000E+00 0. -1.
          1   -1    0    0  501    0 -0.00000000000E+00 -0.00000000000E+00 -0.14460464081E+02  0.14460464081E+02  0.00000000000E+00 0. -1.
          2    1    1    2  501    0 -0.18811796948E+02  0.81431500736E+01  0.53944878377E+02  0.57708270644E+02  0.00000000000E+00 0. -1.
          1    1    1    2  502    0  0.18811796948E+02 -0.81431500736E+01 -0.42275009701E+01  0.20930034926E+02  0.00000000000E+00 0. -1.
</event>
<event>
 4    1  0.3752836E+003  0.2248436E+02  0.7546771E-02  0.1499077E+00
          2   -1    0    0  502    0  0.00000000000E+00  0.00000000000E+00  0.58093494406E+00  0.58093494406E+00  0.00000000000E+00 0.  1.
          1   -1    0    0  501    0 -0.00000000000E+00 -0.00000000000E+00 -0.13006047548E+04  0.13006047548E+04  0.00000000000E+00 0. -1.
          2    1    1    2  501    0  0.52189440931E+00  0.22478305734E+02 -0.27576315204E+03  0.27667826554E+03  0.00000000000E+00 0.  1.
          1    1    1    2  502    0 -0.52189440931E+00 -0.22478305734E+02 -0.10242606678E+04  0.10245074242E+04  0.00000000000E+00 0. -1.
</event>
<event>
 4    1  0.3752836E+003  0.2070199E+02  0.7546771E-02  0.1523563E+00
          2   -1    0    0  502    0  0.00000000000E+00  0.00000000000E+00  0.45320902361E+01  0.45320902361E+01  0.00000000000E+00 0. -1.
          1   -1    0    0  501    0 -0.00000000000E+00 -0.00000000000E+00 -0.96968815631E+02  0.96968815631E+02  0.00000000000E+00 0. -1.
          2    1    1    2  501    0 -0.10527987868E+02  0.17825087475E+02 -0.38226078336E+02  0.43471891344E+02  0.00000000000E+00 0. -1.
          1    1    1    2  502    0  0.10527987868E+02 -0.17825087475E+02 -0.54210647059E+02  0.58029014524E+02  0.00000000000E+00 0. -1.
</event>
<event>
 4    1  0.3752836E+003  0.2837377E+02  0.7546771E-02  0.1434276E+00
          2   -1    0    0  502    0  0.00000000000E+00  0.00000000000E+00  0.73148136228E+01  0.73148136228E+01  0.00000000000E+00 0. -1.
          1   -1    0    0  501    0 -0.00000000000E+00 -0.00000000000E+00 -0.13712999828E+04  0.13712999828E+04  0.00000000000E+00 0. -1.
          2    1    1    2  501    0 -0.24697208994E+01 -0.28266075597E+02 -0.20925523001E+02  0.35255468567E+02  0.00000000000E+00 0. -1.
          1    1    1    2  502    0  0.24697208994E+01  0.28266075597E+02 -0.13430596462E+04  0.13433593279E+04  0.00000000000E+00 0. -1.
</event>
<event>
 4    1  0.3752836E+003  0.2249825E+02  0.7546771E-02  0.1498897E+00
          2   -1    0    0  502    0  0.00000000000E+00  0.00000000000E+00  0.16570592710E+03  0.16570592710E+03  0.00000000000E+00 0. -1.
          1   -1    0    0  501    0 -0.00000000000E+00 -0.00000000000E+00 -0.20384110967E+02  0.20384110967E+02  0.00000000000E+00 0.  1.
          2    1    1    2  501    0 -0.68876400205E+01  0.21418020404E+02  0.15845155687E+03  0.16004082934E+03  0.00000000000E+00 0. -1.
          1    1    1    2  502    0  0.68876400205E+01 -0.21418020404E+02 -0.13129740739E+02  0.26049208720E+02  0.00000000000E+00 0.  1.
</event>
<event>
 4    1  0.3752836E+003  0.2458750E+02  0.7546771E-02  0.1473471E+00
          2   -1    0    0  502    0  0.00000000000E+00  0.00000000000E+00  0.33431538968E+03  0.33431538968E+03  0.00000000000E+00 0.  1.
          1   -1    0    0  501    0 -0.00000000000E+00 -0.00000000000E+00 -0.19921894331E+01  0.19921894331E+01  0.00000000000E+00 0.  1.
          2    1    1    2  501    0  0.23580238250E+02  0.69654523855E+01  0.21724859913E+03  0.21863553917E+03  0.00000000000E+00 0.  1.
          1    1    1    2  502    0 -0.23580238250E+02 -0.69654523855E+01  0.11507460111E+03  0.11767203994E+03  0.00000000000E+00 0.  1.
</event>
<event>
 4    1  0.3752836E+003  0.2105850E+02  0.7546771E-02  0.1518431E+00
          2   -1    0    0  502    0  0.00000000000E+00  0.00000000000E+00  0.22766686823E+00  0.22766686823E+00  0.00000000000E+00 0.  1.
          1   -1    0    0  501    0 -0.00000000000E+00 -0.00000000000E+00 -0.19649687361E+04  0.19649687361E+04  0.00000000000E+00 0.  1.
          2    1    1    2  501    0 -0.16593549528E+02  0.12965896408E+02 -0.89065036744E+03  0.89089928576E+03  0.00000000000E+00 0.  1.
          1    1    1    2  502    0  0.16593549528E+02 -0.12965896408E+02 -0.10740907018E+04  0.10742971172E+04  0.00000000000E+00 0.  1.
</event>
<event>
 4    1  0.3752836E+003  0.2919532E+02  0.7546771E-02  0.1426720E+00
          2   -1    0    0  502    0  0.00000000000E+00  0.00000000000E+00  0.10826405958E+02  0.10826405958E+02  0.00000000000E+00 0.  1.
          1   -1    0    0  501    0 -0.00000000000E+00 -0.00000000000E+00 -0.84727188200E+03  0.84727188200E+03  0.00000000000E+00 0.  1.
          2    1    1    2  501    0  0.53201924354E+01  0.28706482573E+02 -0.95936132848E+01  0.30731156912E+02  0.00000000000E+00 0.  1.
          1    1    1    2  502    0 -0.53201924354E+01 -0.28706482573E+02 -0.82685186276E+03  0.82736713105E+03  0.00000000000E+00 0.  1.
</event>
<event>
 4    1  0.3752836E+003  0.2905319E+02  0.7546771E-02  0.1428006E+00
          2   -1    0    0  502    0  0.00000000000E+00  0.00000000000E+00  0.16182886049E+03  0.16182886049E+03  0.00000000000E+00 0.  1.
          1   -1    0    0  501    0 -0.00000000000E+00 -0.00000000000E+00 -0.80726677524E+01  0.80726677524E+01  0.00000000000E+00 0. -1.
          2    1    1    2  501    0 -0.15609603618E+02  0.24503639527E+02  0.12741328674E+03  0.13068371633E+03  0.00000000000E+00 0.  1.
          1    1    1    2  502    0  0.15609603618E+02 -0.24503639527E+02  0.26342906003E+02  0.39217811921E+02  0.00000000000E+00 0. -1.
</event>
<event>
 4    1  0.3752836E+003  0.2124476E+02  0.7546771E-02  0.1515799E+00
          2   -1    0    0  502    0  0.00000000000E+00  0.00000000000E+00  0.63903392289E+02  0.63903392289E+02  0.00000000000E+00 0. -1.
          1   -1    0    0  501    0 -0.00000000000E+00 -0.00000000000E+00 -0.22110675348E+03  0.22110675348E+03  0.00000000000E+00 0.  1.
          2    1    1    2  501    0  0.70599214102E+01 -0.20037400734E+02  0.61608889259E+02  0.65168973862E+02  0.00000000000E+00 0. -1.
          1    1    1    2  502    0 -0.70599214102E+01  0.20037400734E+02 -0.21881225045E+03  0.21984117191E+03  0.00000000000E+00 0.  1.
</event>
<event>
 4    1  0.3752836E+003  0.3550373E+02  0.7546771E-02  0.1377056E+00
          2   -1    0    0  502    0  0.00000000000E+00  0.00000000000E+00  0.26299581287E+04  0.26299581287E+04  0.00000000000E+00 0. -1.
          1   -1    0    0  501    0 -0.00000000000E+00 -0.00000000000E+00 -0.49262877341E+00  0.49262877341E+00  0.00000000000E+00 0. -1.
          2    1    1    2  501    0  0.19496361613E+02  0.29671646123E+02  0.15311467926E+04  0.15315583617E+04  0.00000000000E+00 0. -1.
          1    1    1    2  502    0 -0.19496361613E+02 -0.29671646123E+02  0.10983187073E+04  0.10988923958E+04  0.00000000000E+00 0. -1.
</event>
<event>
 4    1  0.3752836E+003  0.2722041E+02  0.7546771E-02  0.1445407E+00
          2   -1    0    0  502    0  0.00000000000E+00  0.00000000000E+00  0.18904131533E+03  0.18904131533E+03  0.00000000000E+00 0. -1.
          1   -1    0    0  501    0 -0.00000000000E+00 -0.00000000000E+00 -0.60372349280E+01  0.60372349280E+01  0.00000000000E+00 0. -1.
          2    1    1    2  501    0 -0.71061808976E+01  0.26276469604E+02  0.14927099840E+03  0.15173259908E+03  0.00000000000E+00 0. -1.
          1    1    1    2  502    0  0.71061808976E+01 -0.26276469604E+02  0.33733082006E+02  0.43345951177E+02  0.00000000000E+00 0. -1.
</event>
<event>
 4    1  0.3752836E+003  0.2577378E+02  0.7546771E-02  0.1460330E+00
          2   -1    0    0  502    0  0.00000000000E+00  0.00000000000E+00  0.11758205416E+02  0.11758205416E+02  0.00000000000E+00 0.  1.
          1   -1    0    0  501    0 -0.00000000000E+00 -0.00000000000E+00 -0.73737700578E+02  0.73737700578E+02  0.00000000000E+00 0.  1.
          2    1    1    2  501    0 -0.24591036344E+02 -0.77180772421E+01 -0.10318597742E+02  0.27762587131E+02  0.00000000000E+00 0.  1.
          1    1    1    2  502    0  0.24591036344E+02  0.77180772421E+01 -0.51660897420E+02  0.57733318864E+02  0.00000000000E+00 0.  1.
</event>
<event>
 4    1  0.3752836E+003  0.3162576E+02  0.7546771E-02  0.1405976E+00
          2   -1    0    0  502    0  0.00000000000E+00  0.00000000000E+00  0.79004940236E+03  0.79004940236E+03  0.00000000000E+00 0.  1.
          1   -1    0    0  501    0 -0.00000000000E+00 -0.00000000000E+00 -0.12689707677E+01  0.12689707677E+01  0.00000000000E+00 0. -1.
          2    1    1    2  501    0  0.28438998476E+02 -0.13835128132E+02  0.37518470290E+03  0.37651527020E+03  0.00000000000E+00 0.  1.
          1    1    1    2  502    0 -0.28438998476E+02  0.13835128132E+02  0.41359572870E+03  0.41480310293E+03  0.00000000000E+00 0. -1.
</event>
<event>
 4    1  0.3752836E+003  0.4607627E+02  0.7546771E-02  0.1316144E+00
          2   -1    0    0  502    0  0.00000000000E+00  0.00000000000E+00  0.14036566653E+04  0.14036566653E+04  0.00000000000E+00 0.  1.
          1   -1    0    0  501    0 -0.00000000000E+00 -0.00000000000E+00 -0.75978141245E+01  0.75978141245E+01  0.00000000000E+00 0. -1.
          2    1    1    2  501    0  0.17675913013E+02 -0.42550961400E+02  0.13295285053E+04  0.13303266774E+04  0.00000000000E+00 0.  1.
          1    1    1    2  502    0 -0.17675913013E+02  0.42550961400E+02  0.66530345872E+02  0.80927802013E+02  0.00000000000E+00 0. -1.
</event>
<event>
 4    1  0.3752836E+003  0.1219642E+03  0.7546771E-02  0.1130402E+00
          2   -1    0    0  502    0  0.00000000000E+00  0.00000000000E+00  0.51703217855E+03  0.51703217855E+03  0.00000000000E+00 0. -1.
          1   -1    0    0  501    0 -0.00000000000E+00 -0.00000000000E+00 -0.39031164484E+02  0.39031164484E+02  0.00000000000E+00 0. -1.
          2    1    1    2  501    0 -0.10696291441E+03 -0.58602096115E+02  0.38155352159E+03  0.40057254095E+03  0.00000000000E+00 0. -1.
          1    1    1    2  502    0  0.10696291441E+03  0.58602096115E+02  0.96447492481E+02  0.15549080209E+03  0.00000000000E+00 0. -1.
</event>
<event>
 4    1  0.3752836E+003  0.3537844E+02  0.7546771E-02  0.1377922E+00
          2   -1    0    0  502    0  0.00000000000E+00  0.00000000000E+00  0.24169329644E+03  0.24169329644E+03  0.00000000000E+00 0.  1.
          1   -1    0    0  501    0 -0.00000000000E+00 -0.00000000000E+00 -0.36354468060E+03  0.36354468060E+03  0.00000000000E+00 0.  1.
          2    1    1    2  501    0 -0.25104037313E+02 -0.24928326545E+02  0.23953019883E+03  0.24212878868E+03  0.00000000000E+00 0.  1.
          1    1    1    2  502    0  0.25104037313E+02  0.24928326545E+02 -0.36138158299E+03  0.36310918837E+03  0.00000000000E+00 0.  1.
</event>
<event>
 4    1  0.3752836E+003  0.4131414E+02  0.7546771E-02  0.1340952E+00
          2   -1    0    0  502    0  0.00000000000E+00  0.00000000000E+00  0.20209260580E+01  0.20209260580E+01  0.00000000000E+00 0. -1.
          1   -1    0    0  501    0 -0.00000000000E+00 -0.00000000000E+00 -0.27476966394E+04  0.27476966394E+04  0.00000000000E+00 0.  1.
          2    1    1    2  501    0  0.41133839758E+02 -0.38555730772E+01 -0.22862974652E+03  0.23233256167E+03  0.00000000000E+00 0. -1.
          1    1    1    2  502    0 -0.41133839758E+02  0.38555730772E+01 -0.25170459668E+04  0.25173850038E+04  0.00000000000E+00 0.  1.
</event>
<event>
 4    1  0.3752836E+003  0.2607814E+02  0.7546771E-02  0.1457095E+00
          2   -1    0    0  502    0  0.00000000000E+00  0.00000000000E+00  0.11623745175E+04  0.11623745175E+04  0.00000000000E+00 0. -1.
          1   -1    0    0  501    0 -0.00000000000E+00 -0.00000000000E+00 -0.13214797222E+01  0.13214797222E+01  0.00000000000E+00 0.  1.
          2    1    1    2  501    0  0.19678752332E+02 -0.17111870173E+02  0.10148760130E+04  0.10152110082E+04  0.00000000000E+00 0. -1.
          1    1    1    2  502    0 -0.19678752332E+02  0.17111870173E+02  0.14617702481E+03  0.14848498906E+03  0.00000000000E+00 0.  1.
</event>
<event>
 4    1  0.3752836E+003  0.3430000E+02  0.7546771E-02  0.1385552E+00
          2   -1    0    0  502    0  0.00000000000E+00  0.00000000000E+00  0.44972093831E+03  0.44972093831E+03  0.00000000000E+00 0.  1.
          1   -1    0    0  501    0 -0.00000000000E+00 -0.00000000000E+00 -0.83879489046E+02  0.83879489046E+02  0.00000000000E+00 0.  1.
          2    1    1    2  501    0  0.29671858579E+02  0.17206701183E+02  0.44552748362E+03  0.44684586651E+03  0.00000000000E+00 0.  1.
          1    1    1    2  502    0 -0.29671858579E+02 -0.17206701183E+02 -0.79686034352E+02  0.86754560848E+02  0.00000000000E+00 0.  1.
</event>
<event>
 4    1  0.3752836E+003  0.4821143E+02  0.7546771E-02  0.1306119E+00
          2   -1    0    0  502    0  0.00000000000E+00  0.00000000000E+00  0.10332433628E+04  0.10332433628E+04  0.00000000000E+00 0.  1.
          1   -1    0    0  501    0 -0.00000000000E+00 -0.00000000000E+00 -0.24410428534E+02  0.24410428534E+02  0.00000000000E+00 0. -1.
          2    1    1    2  501    0  0.42144505614E+02  0.23413293081E+02  0.10082873168E+04  0.10094392774E+04  0.00000000000E+00 0.  1.
          1    1    1    2  502    0 -0.42144505614E+02 -0.23413293081E+02  0.54561742435E+00  0.48214513839E+02  0.00000000000E+00 0. -1.
</event>
<event>
 4    1  0.3752836E+003  0.3548897E+02  0.7546771E-02  0.1377158E+00
          2   -1    0    0  502    0  0.00000000000E+00  0.00000000000E+00  0.19072704394E+03  0.19072704394E+03  0.00000000000E+00 0. -1.
          1   -1    0    0  501    0 -0.00000000000E+00 -0.00000000000E+00 -0.60681954646E+02  0.60681954646E+02  0.00000000000E+00 0.  1.
          2    1    1    2  501    0 -0.78772876021E+01  0.34603687367E+02  0.18369041845E+03  0.18708724347E+03  0.00000000000E+00 0. -1.
          1    1    1    2  502    0  0.78772876021E+01 -0.34603687367E+02 -0.53645329162E+02  0.64321755109E+02  0.00000000000E+00 0.  1.
</event>
<event>
 4    1  0.3752836E+003  0.3549253E+02  0.7546771E-02  0.1377133E+00
          2   -1    0    0  502    0  0.00000000000E+00  0.00000000000E+00  0.30888714084E+02  0.30888714084E+02  0.00000000000E+00 0.  1.
          1   -1    0    0  501    0 -0.00000000000E+00 -0.00000000000E+00 -0.42859785842E+02  0.42859785842E+02  0.00000000000E+00 0.  1.
          2    1    1    2  501    0  0.19349854516E+02 -0.29754036257E+02  0.21323777814E+01  0.35556526524E+02  0.00000000000E+00 0.  1.
          1    1    1    2  502    0 -0.19349854516E+02  0.29754036257E+02 -0.14103449539E+02  0.38191973402E+02  0.00000000000E+00 0.  1.
</event>
<event>
 4    1  0.3752836E+003  0.2511910E+02  0.7546771E-02  0.1467475E+00
          2   -1    0    0  502    0  0.00000000000E+00  0.00000000000E+00  0.25765633408E+03  0.25765633408E+03  0.00000000000E+00 0. -1.
          1   -1    0    0  501    0 -0.00000000000E+00 -0.00000000000E+00 -0.41799467740E+01  0.41799467740E+01  0.00000000000E+00 0.  1.
          2    1    1    2  501    0  0.49467505453E+00 -0.25114233169E+02  0.21098847855E+03  0.21247848713E+03  0.00000000000E+00 0. -1.
          1    1    1    2  502    0 -0.49467505453E+00  0.25114233169E+02  0.42487908755E+02  0.49357793726E+02  0.00000000000E+00 0.  1.
</event>
<event>
 4    1  0.3752836E+003  0.2156845E+02  0.7546771E-02  0.1511301E+00
          2   -1    0    0  502    0  0.00000000000E+00  0.00000000000E+00  0.42070644325E+00  0.42070644325E+00  0.00000000000E+00 0.  1.
          1   -1    0    0  501    0 -0.00000000000E+00 -0.00000000000E+00 -0.17008390544E+04  0.17008390544E+04  0.00000000000E+00 0.  1.
          2    1    1    2  501    0  0.14818587975E+02  0.15671864916E+02 -0.34705800286E+03  0.34772755894E+03  0.00000000000E+00 0.  1.
          1    1    1    2  502    0 -0.14818587975E+02 -0.15671864916E+02 -0.13533603451E+04  0.13535322019E+04  0.00000000000E+00 0.  1.
</event>
<event>
 4    1  0.3752836E+003  0.2360584E+02  0.7546771E-02  0.1485027E+00
          2   -1    0    0  502    0  0.00000000000E+00  0.00000000000E+00  0.80567933068E+02  0.80567933068E+02  0.00000000000E+00 0. -1.
          1   -1    0    0  501    0 -0.00000000000E+00 -0.00000000000E+00 -0.66238604448E+02  0.66238604448E+02  0.00000000000E+00 0.  1.
          2    1    1    2  501    0 -0.13577724049E+01 -0.23566763552E+02  0.76630080638E+02  0.80183571565E+02  0.00000000000E+00 0. -1.
          1    1    1    2  502    0  0.13577724049E+01  0.23566763552E+02 -0.62300752018E+02  0.66622965951E+02  0.00000000000E+00 0.  1.
</event>
<event>
 4    1  0.3752836E+003  0.2363838E+02  0.7546771E-02  0.1484634E+00
          2   -1    0    0  502    0  0.00000000000E+00  0.00000000000E+00  0.91322160683E+00  0.91322160683E+00  0.00000000000E+00 0. -1.
          1   -1    0    0  501    0 -0.00000000000E+00 -0.00000000000E+00 -0.63498358373E+03  0.63498358373E+03  0.00000000000E+00 0.  1.
          2    1    1    2  501    0  0.22655804600E+02 -0.67444398880E+01 -0.25637432150E+03  0.25746177517E+03  0.00000000000E+00 0. -1.
          1    1    1    2  502    0 -0.22655804600E+02  0.67444398880E+01 -0.37769604063E+03  0.37843503017E+03  0.00000000000E+00 0.  1.
</event>
<event>
 4    1  0.3752836E+003  0.2998615E+02  0.7546771E-02  0.1419717E+00
          2   -1    0    0  502    0  0.00000000000E+00  0.00000000000E+00  0.54496018122E+00  0.54496018122E+00  0.00000000000E+00 0. -1.
          1   -1    0    0  501    0 -0.00000000000E+00 -0.00000000000E+00 -0.16578583676E+04  0.16578583676E+04  0.00000000000E+00 0. -1.
          2    1    1    2  501    0  0.10034285501E+02  0.28257431886E+02 -0.77146807351E+03  0.77205061867E+03  0.00000000000E+00 0. -1.
          1    1    1    2  502    0 -0.10034285501E+02 -0.28257431886E+02 -0.88584533395E+03  0.88635270916E+03  0.00000000000E+00 0. -1.
</event>
<event>
 4    1  0.3752836E+003  0.2900019E+02  0.7546771E-02  0.1428488E+00
          2   -1    0    0  502    0  0.00000000000E+00  0.00000000000E+00  0.69310295415E+02  0.69310295415E+02  0.00000000000E+00 0.  1.
          1   -1    0    0  501    0 -0.00000000000E+00 -0.00000000000E+00 -0.91340730480E+03  0.91340730480E+03  0.00000000000E+00 0. -1.
          2    1    1    2  501    0  0.62732896613E+01 -0.28313541613E+02  0.66035699982E+02  0.72122981594E+02  0.00000000000E+00 0.  1.
          1    1    1    2  502    0 -0.62732896613E+01  0.28313541613E+02 -0.91013270937E+03  0.91059461862E+03  0.00000000000E+00 0. -1.
</event>
<event>
 4    1  0.3752836E+003  0.2659050E+02  0.7546771E-02  0.1451766E+00
          2   -1    0    0  502    0  0.00000000000E+00  0.00000000000E+00  0.10209125656E+04  0.10209125656E+04  0.00000000000E+00 0. -1.
          1   -1    0    0  501    0 -0.00000000000E+00 -0.00000000000E+00 -0.24871957046E+01  0.24871957046E+01  0.00000000000E+00 0. -1.
          2    1    1    2  501    0 -0.19832210849E+02  0.17712658053E+02  0.94387011609E+03  0.94424459272E+03  0.00000000000E+00 0. -1.
          1    1    1    2  502    0  0.19832210849E+02 -0.17712658053E+02  0.74555253763E+02  0.79155168537E+02  0.00000000000E+00 0. -1.
</event>
<event>
 4    1  0.3752836E+003  0.3138647E+02  0.7546771E-02  0.1407919E+00
          2   -1    0    0  502    0  0.00000000000E+00  0.00000000000E+00  0.10447041759E+03  0.10447041759E+03  0.00000000000E+00 0.  1.
          1   -1    0    0  501    0 -0.00000000000E+00 -0.00000000000E+00 -0.51081457475E+03  0.51081457475E+03  0.00000000000E+00 0. -1.
          2    1    1    2  501    0  0.86998096419E+01  0.30156659091E+02  0.10161767188E+03  0.10635441699E+03  0.00000000000E+00 0.  1.
          1    1    1    2  502    0 -0.86998096419E+01 -0.30156659091E+02 -0.50796182903E+03  0.50893057535E+03  0.00000000000E+00 0. -1.
</event>
<event>
 4    1  0.3752836E+003  0.7950210E+02  0.7546771E-02  0.1205008E+00
          2   -1    0    0  502    0  0.00000000000E+00  0.00000000000E+00  0.41045207853E+02  0.41045207853E+02  0.00000000000E+00 0.  1.
          1   -1    0    0  501    0 -0.00000000000E+00 -0.00000000000E+00 -0.19329908177E+03  0.19329908177E+03  0.00000000000E+00 0. -1.
          2    1    1    2  501    0  0.11511309310E+02  0.78664312650E+02 -0.23288310036E+02  0.82842801202E+02  0.00000000000E+00 0.  1.
          1    1    1    2  502    0 -0.11511309310E+02 -0.78664312650E+02 -0.12896556388E+03  0.15150148842E+03  0.00000000000E+00 0. -1.
</event>
<event>
 4    1  0.3752836E+003  0.6468466E+02  0.7546771E-02  0.1244696E+00
          2   -1    0    0  502    0  0.00000000000E+00  0.00000000000E+00  0.30511388947E+03  0.30511388947E+03  0.00000000000E+00 0.  1.
          1   -1    0    0  501    0 -0.00000000000E+00 -0.00000000000E+00 -0.33496331782E+02  0.33496331782E+02  0.00000000000E+00 0. -1.
          2    1    1    2  501    0 -0.39023292034E+02 -0.51587675726E+02  0.26592106988E+03  0.27367521081E+03  0.00000000000E+00 0.  1.
          1    1    1    2  502    0  0.39023292034E+02  0.51587675726E+02  0.56964878144E+01  0.64935010444E+02  0.00000000000E+00 0. -1.
</event>
<event>
 4    1  0.3752836E+003  0.2602222E+02  0.7546771E-02  0.1457685E+00
          2   -1    0    0  502    0  0.00000000000E+00  0.00000000000E+00  0.15494688724E+03  0.15494688724E+03  0.00000000000E+00 0.  1.
          1   -1    0    0  501    0 -0.00000000000E+00 -0.00000000000E+00 -0.74254613461E+02  0.74254613461E+02  0.00000000000E+00 0.  1.
          2    1    1    2  501    0 -0.99443431423E+01  0.24047158239E+02  0.15152334515E+03  0.15374160109E+03  0.00000000000E+00 0.  1.
          1    1    1    2  502    0  0.99443431423E+01 -0.24047158239E+02 -0.70831071364E+02  0.75459899619E+02  0.00000000000E+00 0.  1.
</event>
<event>
 4    1  0.3752836E+003  0.2862107E+02  0.7546771E-02  0.1431970E+00
          2   -1    0    0  502    0  0.00000000000E+00  0.00000000000E+00  0.66009712555E+02  0.66009712555E+02  0.00000000000E+00 0.  1.
          1   -1    0    0  501    0 -0.00000000000E+00 -0.00000000000E+00 -0.26152028190E+02  0.26152028190E+02  0.00000000000E+00 0.  1.
          2    1    1    2  501    0  0.10579516953E+02  0.26593960615E+02 -0.13475055173E+02  0.31634506984E+02  0.00000000000E+00 0.  1.
          1    1    1    2  502    0 -0.10579516953E+02 -0.26593960615E+02  0.53332739538E+02  0.60527233761E+02  0.00000000000E+00 0.  1.
</event>
<event>
 4    1  0.3752836E+003  0.2504861E+02  0.7546771E-02  0.1468260E+00
          2   -1    0    0  502    0  0.00000000000E+00  0.00000000000E+00  0.15545448301E+04  0.15545448301E+04  0.00000000000E+00 0.  1.
          1   -1    0    0  501    0 -0.00000000000E+00 -0.00000000000E+00 -0.74779989180E+00  0.74779989180E+00  0.00000000000E+00 0.  1.
          2    1    1    2  501    0 -0.10126956523E+01  0.25028128058E+02  0.13044772659E+04  0.13047177358E+04  0.00000000000E+00 0.  1.
          1    1    1    2  502    0  0.10126956523E+01 -0.25028128058E+02  0.24931976432E+03  0.25057489424E+03  0.00000000000E+00 0.  1.
</event>
<event>
 4    1  0.3752836E+003  0.2952066E+02  0.7546771E-02  0.1423808E+00
          2   -1    0    0  502    0  0.00000000000E+00  0.00000000000E+00  0.23041976816E+03  0.23041976816E+03  0.00000000000E+00 0. -1.
          1   -1    0    0  501    0 -0.00000000000E+00 -0.00000000000E+00 -0.98023408162E+01  0.98023408162E+01  0.00000000000E+00 0.  1.
          2    1    1    2  501    0  0.58612898265E+00  0.29514845292E+02  0.20443808620E+03  0.20655846806E+03  0.00000000000E+00 0. -1.
          1    1    1    2  502    0 -0.58612898265E+00 -0.29514845292E+02  0.16179341149E+02  0.33663640918E+02  0.00000000000E+00 0.  1.
</event>
<event>
 4    1  0.3752836E+003  0.2261026E+02  0.7546771E-02  0.1497451E+00
          2   -1    0    0  502    0  0.00000000000E+00  0.00000000000E+00  0.14036472972E+04  0.14036472972E+04  0.00000000000E+00 0. -1.
          1   -1    0    0  501    0 -0.00000000000E+00 -0.00000000000E+00 -0.18047894336E+02  0.18047894336E+02  0.00000000000E+00 0. -1.
          2    1    1    2  501    0 -0.22049475987E+02  0.50044525753E+01  0.13964381987E+04  0.13966212324E+04  0.00000000000E+00 0. -1.
          1    1    1    2  502    0  0.22049475987E+02 -0.50044525753E+01 -0.10838795779E+02  0.25073959217E+02  0.00000000000E+00 0. -1.
</event>
<event>
 4    1  0.3752836E+003  0.3270008E+02  0.7546771E-02  0.1397496E+00
          2   -1    0    0  502    0  0.00000000000E+00  0.00000000000E+00  0.16720529658E+04  0.16720529658E+04  0.00000000000E+00 0. -1.
          1   -1    0    0  501    0 -0.00000000000E+00 -0.00000000000E+00 -0.99248093415E+00  0.99248093415E+00  0.00000000000E+00 0.  1.
          2    1    1    2  501    0 -0.29636946735E+02 -0.13818344216E+02  0.13343985182E+04  0.13347991237E+04  0.00000000000E+00 0. -1.
          1    1    1    2  502    0  0.29636946735E+02  0.13818344216E+02  0.33666196667E+03  0.33824632305E+03  0.00000000000E+00 0.  1.
</event>
<event>
 4    1  0.3752836E+003  0.2131026E+02  0.7546771E-02  0.1514881E+00
          2   -1    0    0  502    0  0.00000000000E+00  0.00000000000E+00  0.11104794465E+04  0.11104794465E+04  0.00000000000E+00 0.  1.
          1   -1    0    0  501    0 -0.00000000000E+00 -0.00000000000E+00 -0.95278061128E+00  0.95278061128E+00  0.00000000000E+00 0. -1.
          2    1    1    2  501    0  0.19533807860E+02 -0.85180636080E+01  0.97460894847E+03  0.97484189974E+03  0.00000000000E+00 0.  1.
          1    1    1    2  502    0 -0.19533807860E+02  0.85180636080E+01  0.13491771745E+03  0.13659032740E+03  0.00000000000E+00 0. -1.
</event>
<event>
 4    1  0.3752836E+003  0.2708445E+02  0.7546771E-02  0.1446762E+00
          2   -1    0    0  502    0  0.00000000000E+00  0.00000000000E+00  0.40061573115E+03  0.40061573115E+03  0.00000000000E+00 0. -1.
          1   -1    0    0  501    0 -0.00000000000E+00 -0.00000000000E+00 -0.24678144681E+01  0.24678144681E+01  0.00000000000E+00 0. -1.
          2    1    1    2  501    0  0.16085926008E+02  0.21790139323E+02  0.30144601240E+03  0.30266031385E+03  0.00000000000E+00 0. -1.
          1    1    1    2  502    0 -0.16085926008E+02 -0.21790139323E+02  0.96701904279E+02  0.10042323177E+03  0.00000000000E+00 0. -1.
</event>
<event>
 4    1  0.3752836E+003  0.2051100E+02  0.7546771E-02  0.1526362E+00
          2   -1    0    0  502    0  0.00000000000E+00  0.00000000000E+00  0.34930277462E+00  0.34930277462E+00  0.00000000000E+00 0. -1.
          1   -1    0    0  501    0 -0.00000000000E+00 -0.00000000000E+00 -0.12738567797E+04  0.12738567797E+04  0.00000000000E+00 0.  1.
          2    1    1    2  501    0 -0.16623704337E+02 -0.12014707417E+02 -0.78551930363E+03  0.78578704311E+03  0.00000000000E+00 0. -1.
          1    1    1    2  502    0  0.16623704337E+02  0.12014707417E+02 -0.48798817330E+03  0.48841903937E+03  0.00000000000E+00 0.  1.
</event>
<event>
 4    1  0.3752836E+003  0.2199935E+02  0.7546771E-02  0.1505461E+00
          2   -1    0    0  502    0  0.00000000000E+00  0.00000000000E+00  0.33508097363E+03  0.33508097363E+03  0.00000000000E+00 0. -1.
          1   -1    0    0  501    0 -0.00000000000E+00 -0.00000000000E+00 -0.21574478018E+02  0.21574478018E+02  0.00000000000E+00 0. -1.
          2    1    1    2  501    0 -0.47989357093E+01  0.21469551067E+02  0.32900834466E+03  0.32974302458E+03  0.00000000000E+00 0. -1.
          1    1    1    2  502    0  0.47989357093E+01 -0.21469551067E+02 -0.15501849043E+02  0.26912427068E+02  0.00000000000E+00 0. -1.
</event>
<event>
 4    1  0.3752836E+003  0.2592753E+02  0.7546771E-02  0.1458689E+00
          2   -1    0    0  502    0  0.00000000000E+00  0.00000000000E+00  0.13114613107E+04  0.13114613107E+04  0.00000000000E+00 0. -1.
          1   -1    0    0  501    0 -0.00000000000E+00 -0.00000000000E+00 -0.40835972170E+01  0.40835972170E+01  0.00000000000E+00 0. -1.
          2    1    1    2  501    0  0.14007486274E+02 -0.21818046425E+02  0.12687946744E+04  0.12690595583E+04  0.00000000000E+00 0. -1.
          1    1    1    2  502    0 -0.14007486274E+02  0.21818046425E+02  0.38583039137E+02  0.46485349633E+02  0.00000000000E+00 0. -1.
</event>
<event>
 4    1  0.3752836E+003  0.2176373E+02  0.7546771E-02  0.1508634E+00
          2   -1    0    0  502    0  0.00000000000E+00  0.00000000000E+00  0.75372565965E+02  0.75372565965E+02  0.00000000000E+00 0. -1.
          1   -1    0    0  501    0 -0.00000000000E+00 -0.00000000000E+00 -0.84151104393E+01  0.84151104393E+01  0.00000000000E+00 0. -1.
          2    1    1    2  501    0  0.23770047145E+01 -0.21633532528E+02  0.54560055967E+02  0.58740612767E+02  0.00000000000E+00 0. -1.
          1    1    1    2  502    0 -0.23770047145E+01  0.21633532528E+02  0.12397399558E+02  0.25047063637E+02  0.00000000000E+00 0. -1.
</event>
<event>
 4    1  0.3752836E+003  0.2092037E+02  0.7546771E-02  0.1520405E+00
          2   -1    0    0  502    0  0.00000000000E+00  0.00000000000E+00  0.99264560177E+01  0.99264560177E+01  0.00000000000E+00 0. -1.
          1   -1    0    0  501    0 -0.00000000000E+00 -0.00000000000E+00 -0.13474854448E+04  0.13474854448E+04  0.00000000000E+00 0.  1.
          2    1    1    2  501    0 -0.38685635410E+01  0.20559576003E+02 -0.12697049715E+01  0.20958866859E+02  0.00000000000E+00 0. -1.
          1    1    1    2  502    0  0.38685635410E+01 -0.20559576003E+02 -0.13362892838E+04  0.13364530340E+04  0.00000000000E+00 0.  1.
</event>
<event>
 4    1  0.3752836E+003  0.2007696E+02  0.7546771E-02  0.1532863E+00
          2   -1    0    0  502    0  0.00000000000E+00  0.00000000000E+00  0.66161099992E+02  0.66161099992E+02  0.00000000000E+00 0. -1.
          1   -1    0    0  501    0 -0.00000000000E+00 -0.00000000000E+00 -0.32424519945E+03  0.32424519945E+03  0.00000000000E+00 0. -1.
          2    1    1    2  501    0 -0.11678493540E+02  0.16330859677E+02  0.64318500669E+02  0.67379178664E+02  0.00000000000E+00 0. -1.
          1    1    1    2  502    0  0.11678493540E+02 -0.16330859677E+02 -0.32240260013E+03  0.32302712078E+03  0.00000000000E+00 0. -1.
</event>
<event>
 4    1  0.3752836E+003  0.2057637E+02  0.7546771E-02  0.1525400E+00
          2   -1    0    0  502    0  0.00000000000E+00  0.00000000000E+00  0.10103674667E+04  0.10103674667E+04  0.00000000000E+00 0.  1.
          1   -1    0    0  501    0 -0.00000000000E+00 -0.00000000000E+00 -0.74793582135E+00  0.74793582135E+00  0.00000000000E+00 0.  1.
          2    1    1    2  501    0  0.84622625977E+01  0.18755725442E+02  0.84005757572E+03  0.84030953681E+03  0.00000000000E+00 0.  1.
          1    1    1    2  502    0 -0.84622625977E+01 -0.18755725442E+02  0.16956195520E+03  0.17080586576E+03  0.00000000000E+00 0.  1.
</event>
<event>
 4    1  0.3752836E+003  0.4274835E+02  0.7546771E-02  0.1333092E+00
          2   -1    0    0  502    0  0.00000000000E+00  0.00000000000E+00  0.60123981248E+03  0.60123981248E+03  0.00000000000E+00 0. -1.
          1   -1    0    0  501    0 -0.00000000000E+00 -0.00000000000E+00 -0.44563808052E+01  0.44563808052E+01  0.00000000000E+00 0. -1.
          2    1    1    2  501    0  0.13668591208E+02  0.40504209191E+02  0.46916202136E+03  0.47110553344E+03  0.00000000000E+00 0. -1.
          1    1    1    2  502    0 -0.13668591208E+02 -0.40504209191E+02  0.12762141031E+03  0.13459065985E+03  0.00000000000E+00 0. -1.
</event>
<event>
 4    1  0.3752836E+003  0.2541694E+02  0.7546771E-02  0.1464193E+00
          2   -1    0    0  502    0  0.00000000000E+00  0.00000000000E+00  0.25511281252E+03  0.25511281252E+03  0.00000000000E+00 0.  1.
          1   -1    0    0  501    0 -0.00000000000E+00 -0.00000000000E+00 -0.24962744972E+03  0.24962744972E+03  0.00000000000E+00 0.  1.
          2    1    1    2  501    0 -0.14624038631E+02  0.20788418913E+02  0.25382949091E+03  0.25509886578E+03  0.00000000000E+00 0.  1.
          1    1    1    2  502    0  0.14624038631E+02 -0.20788418913E+02 -0.24834412811E+03  0.24964139647E+03  0.00000000000E+00 0.  1.
</event>
<event>
 4    1  0.3752836E+003  0.9317180E+02  0.7546771E-02  0.1176197E+00
          2   -1    0    0  502    0  0.00000000000E+00  0.00000000000E+00  0.56830399585E+02  0.56830399585E+02  0.00000000000E+00 0. -1.
          1   -1    0    0  501    0 -0.00000000000E+00 -0.00000000000E+00 -0.12812919599E+04  0.12812919599E+04  0.00000000000E+00 0. -1.
          2    1    1    2  501    0 -0.51067270224E+02 -0.77930211440E+02  0.15683213238E+02  0.94482522832E+02  0.00000000000E+00 0. -1.
          1    1    1    2  502    0  0.51067270224E+02  0.77930211440E+02 -0.12401447736E+04  0.12436398367E+04  0.00000000000E+00 0. -1.
</event>
<event>
 4    1  0.3752836E+003  0.3093304E+02  0.7546771E-02  0.1411658E+00
          2   -1    0    0  502    0  0.00000000000E+00  0.00000000000E+00  0.64023313603E+03  0.64023313603E+03  0.00000000000E+00 0.  1.
          1   -1    0    0  501    0 -0.00000000000E+00 -0.00000000000E+00 -0.21423213954E+01  0.21423213954E+01  0.00000000000E+00 0.  1.
          2    1    1    2  501    0 -0.13460248453E+02  0.27850936392E+02  0.49566197276E+03  0.49662626208E+03  0.00000000000E+00 0.  1.
          1    1    1    2  502    0  0.13460248453E+02 -0.27850936392E+02  0.14242884187E+03  0.14574919534E+03  0.00000000000E+00 0.  1.
</event>
<event>
 4    1  0.3752836E+003  0.2278895E+02  0.7546771E-02  0.1495165E+00
          2   -1    0    0  502    0  0.00000000000E+00  0.00000000000E+00  0.11185342224E+02  0.11185342224E+02  0.00000000000E+00 0.  1.
          1   -1    0    0  501    0 -0.00000000000E+00 -0.00000000000E+00 -0.31641253999E+03  0.31641253999E+03  0.00000000000E+00 0.  1.
          2    1    1    2  501    0  0.22673973358E+02  0.22862777685E+01 -0.13090322842E+01  0.22826513080E+02  0.00000000000E+00 0.  1.
          1    1    1    2  502    0 -0.22673973358E+02 -0.22862777685E+01 -0.30391816548E+03  0.30477136914E+03  0.00000000000E+00 0.  1.
</event>
<event>
 4    1  0.3752836E+003  0.2145578E+02  0.7546771E-02  0.1512856E+00
          2   -1    0    0  502    0  0.00000000000E+00  0.00000000000E+00  0.47414217078E+03  0.47414217078E+03  0.00000000000E+00 0.  1.
          1   -1    0    0  501    0 -0.00000000000E+00 -0.00000000000E+00 -0.98788637918E+00  0.98788637918E+00  0.00000000000E+00 0.  1.
          2    1    1    2  501    0 -0.21445332300E+02  0.66899950303E+00  0.20543567574E+03  0.20655306027E+03  0.00000000000E+00 0.  1.
          1    1    1    2  502    0  0.21445332300E+02 -0.66899950303E+00  0.26771860866E+03  0.26857699690E+03  0.00000000000E+00 0.  1.
</event>
<event>
 4    1  0.3752836E+003  0.2681448E+02  0.7546771E-02  0.1449481E+00
          2   -1    0    0  502    0  0.00000000000E+00  0.00000000000E+00  0.20309899627E+01  0.20309899627E+01  0.00000000000E+00 0.  1.
          1   -1    0    0  501    0 -0.00000000000E+00 -0.00000000000E+00 -0.49604894617E+03  0.49604894617E+03  0.00000000000E+00 0.  1.
          2    1    1    2  501    0 -0.24099902140E+02 -0.11756312188E+02 -0.11375156295E+03  0.11686930407E+03  0.00000000000E+00 0.  1.
          1    1    1    2  502    0  0.24099902140E+02  0.11756312188E+02 -0.38026639326E+03  0.38121063207E+03  0.00000000000E+00 0.  1.
</event>
<event>
 4    1  0.3752836E+003  0.2200515E+02  0.7546771E-02  0.1505383E+00
          2   -1    0    0  502    0  0.00000000000E+00  0.00000000000E+00  0.32000571801E+03  0.32000571801E+03  0.00000000000E+00 0. -1.
          1   -1    0    0  501    0 -0.00000000000E+00 -0.00000000000E+00 -0.38658598878E+01  0.38658598878E+01  0.00000000000E+00 0. -1.
          2    1    1    2  501    0 -0.19460695865E+02 -0.10271714614E+02  0.28439834409E+03  0.28524839163E+03  0.00000000000E+00 0. -1.
          1    1    1    2  502    0  0.19460695865E+02  0.10271714614E+02  0.31741514032E+02  0.38623186271E+02  0.00000000000E+00 0. -1.
</event>
<event>
 4    1  0.3752836E+003  0.2704183E+02  0.7546771E-02  0.1447188E+00
          2   -1    0    0  502    0  0.00000000000E+00  0.00000000000E+00  0.45472455344E+03  0.45472455344E+03  0.00000000000E+00 0. -1.
          1   -1    0    0  501    0 -0.00000000000E+00 -0.00000000000E+00 -0.17126103031E+01  0.17126103031E+01  0.00000000000E+00 0. -1.
          2    1    1    2  501    0  0.11352434907E+02  0.24543488140E+02  0.28287218513E+03  0.28416180903E+03  0.00000000000E+00 0. -1.
          1    1    1    2  502    0 -0.11352434907E+02 -0.24543488140E+02  0.17013975800E+03  0.17227535471E+03  0.00000000000E+00 0. -1.
</event>
<event>
 4    1  0.3752836E+003  0.2470304E+02  0.7546771E-02  0.1472153E+00
          2   -1    0    0  502    0  0.00000000000E+00  0.00000000000E+00  0.15117474776E+04  0.15117474776E+04  0.00000000000E+00 0.  1.
          1   -1    0    0  501    0 -0.00000000000E+00 -0.00000000000E+00 -0.44278748938E+03  0.44278748938E+03  0.00000000000E+00 0.  1.
          2    1    1    2  501    0  0.17640754450E+02  0.17292891690E+02  0.15113019150E+04  0.15115037938E+04  0.00000000000E+00 0.  1.
          1    1    1    2  502    0 -0.17640754450E+02 -0.17292891690E+02 -0.44234192673E+03  0.44303117324E+03  0.00000000000E+00 0.  1.
</event>
<event>
 4    1  0.3752836E+003  0.3138613E+02  0.7546771E-02  0.1407922E+00
          2   -1    0    0  502    0  0.00000000000E+00  0.00000000000E+00  0.14628613098E+04  0.14628613098E+04  0.00000000000E+00 0.  1.
          1   -1    0    0  501    0 -0.00000000000E+00 -0.00000000000E+00 -0.21261280604E+03  0.21261280604E+03  0.00000000000E+00 0.  1.
          2    1    1    2  501    0  0.30800645567E+02  0.60340328875E+01  0.14615335942E+04  0.14618705607E+04  0.00000000000E+00 0.  1.
          1    1    1    2  502    0 -0.30800645567E+02 -0.60340328875E+01 -0.21128509043E+03  0.21360355512E+03  0.00000000000E+00 0.  1.
</event>
<event>
 4    1  0.3752836E+003  0.4063354E+02  0.7546771E-02  0.1344813E+00
          2   -1    0    0  502    0  0.00000000000E+00  0.00000000000E+00  0.24059908912E+03  0.24059908912E+03  0.00000000000E+00 0. -1.
          1   -1    0    0  501    0 -0.00000000000E+00 -0.00000000000E+00 -0.30580373860E+03  0.30580373860E+03  0.00000000000E+00 0. -1.
          2    1    1    2  501    0 -0.17854757748E+01  0.40594293278E+02  0.23751630790E+03  0.24096697095E+03  0.00000000000E+00 0. -1.
          1    1    1    2  502    0  0.17854757748E+01 -0.40594293278E+02 -0.30272095738E+03  0.30543585678E+03  0.00000000000E+00 0. -1.
</event>
<event>
 4    1  0.3752836E+003  0.2913503E+02  0.7546771E-02  0.1427265E+00
          2   -1    0    0  502    0  0.00000000000E+00  0.00000000000E+00  0.18375830956E+01  0.18375830956E+01  0.00000000000E+00 0.  1.
          1   -1    0    0  501    0 -0.00000000000E+00 -0.00000000000E+00 -0.17359149863E+04  0.17359149863E+04  0.00000000000E+00 0.  1.
          2    1    1    2  501    0  0.62033032612E+01  0.28466980051E+02 -0.12269337546E+03  0.12610517160E+03  0.00000000000E+00 0.  1.
          1    1    1    2  502    0 -0.62033032612E+01 -0.28466980051E+02 -0.16113840277E+04  0.16116473978E+04  0.00000000000E+00 0.  1.
</event>
<event>
 4    1  0.3752836E+003  0.2380847E+02  0.7546771E-02  0.1482588E+00
          2   -1    0    0  502    0  0.00000000000E+00  0.00000000000E+00  0.33152697632E+02  0.33152697632E+02  0.00000000000E+00 0. -1.
          1   -1    0    0  501    0 -0.00000000000E+00 -0.00000000000E+00 -0.81373671718E+03  0.81373671718E+03  0.00000000000E+00 0.  1.
          2    1    1    2  501    0  0.20877561868E+02  0.11444243584E+02  0.28680443790E+02  0.37274805925E+02  0.00000000000E+00 0. -1.
          1    1    1    2  502    0 -0.20877561868E+02 -0.11444243584E+02 -0.80926446334E+03  0.80961460889E+03  0.00000000000E+00 0.  1.
</event>
<event>
 4    1  0.3752836E+003  0.2788740E+02  0.7546771E-02  0.1438892E+00
          2   -1    0    0  502    0  0.00000000000E+00  0.00000000000E+00  0.15187215459E+01  0.15187215459E+01  0.00000000000E+00 0. -1.
          1   -1    0    0  501    0 -0.00000000000E+00 -0.00000000000E+00 -0.81859523185E+03  0.81859523185E+03  0.00000000000E+00 0. -1.
          2    1    1    2  501    0 -0.14259747223E+02  0.23965943200E+02 -0.15761802369E+03  0.16006607453E+03  0.00000000000E+00 0. -1.
          1    1    1    2  502    0  0.14259747223E+02 -0.23965943200E+02 -0.65945848662E+03  0.66004787887E+03  0.00000000000E+00 0. -1.
</event>
<event>
 4    1  0.3752836E+003  0.2408902E+02  0.7546771E-02  0.1479258E+00
          2   -1    0    0  502    0  0.00000000000E+00  0.00000000000E+00  0.20696324447E+02  0.20696324447E+02  0.00000000000E+00 0. -1.
          1   -1    0    0  501    0 -0.00000000000E+00 -0.00000000000E+00 -0.37203345375E+02  0.37203345375E+02  0.00000000000E+00 0. -1.
          2    1    1    2  501    0 -0.24081880472E+02 -0.58652664516E+00  0.61156848298E+01  0.24853220747E+02  0.00000000000E+00 0. -1.
          1    1    1    2  502    0  0.24081880472E+02  0.58652664516E+00 -0.22622705758E+02  0.33046449074E+02  0.00000000000E+00 0. -1.
</event>
<event>
 4    1  0.3752836E+003  0.2959003E+02  0.7546771E-02  0.1423193E+00
          2   -1    0    0  502    0  0.00000000000E+00  0.00000000000E+00  0.28128965860E+01  0.28128965860E+01  0.00000000000E+00 0.  1.
          1   -1    0    0  501    0 -0.00000000000E+00 -0.00000000000E+00 -0.16896469514E+04  0.16896469514E+04  0.00000000000E+00 0.  1.
          2    1    1    2  501    0  0.29298439832E+02  0.41438559463E+01 -0.79098465923E+02  0.84451982985E+02  0.00000000000E+00 0.  1.
          1    1    1    2  502    0 -0.29298439832E+02 -0.41438559463E+01 -0.16077355889E+04  0.16080078650E+04  0.00000000000E+00 0.  1.
</event>
<event>
 4    1  0.3752836E+003  0.3095125E+02  0.7546771E-02  0.1411506E+00
          2   -1    0    0  502    0  0.00000000000E+00  0.00000000000E+00  0.13655490050E+04  0.13655490050E+04  0.00000000000E+00 0.  1.
          1   -1    0    0  501    0 -0.00000000000E+00 -0.00000000000E+00 -0.73470939318E+00  0.73470939318E+00  0.00000000000E+00 0.  1.
          2    1    1    2  501    0 -0.25813329195E+02  0.17077794443E+02  0.53724236265E+03  0.53813319471E+03  0.00000000000E+00 0.  1.
          1    1    1    2  502    0  0.25813329195E+02 -0.17077794443E+02  0.82757193292E+03  0.82815051964E+03  0.00000000000E+00 0.  1.
</event>
<event>
 4    1  0.3752836E+003  0.5899517E+02  0.7546771E-02  0.1263285E+00
          2   -1    0    0  502    0  0.00000000000E+00  0.00000000000E+00  0.53425156421E+03  0.53425156421E+03  0.00000000000E+00 0.  1.
          1   -1    0    0  501    0 -0.00000000000E+00 -0.00000000000E+00 -0.11340908517E+03  0.11340908517E+03  0.00000000000E+00 0.  1.
          2    1    1    2  501    0  0.53568723816E+02 -0.24714813499E+02  0.52481307625E+03  0.52811854274E+03  0.00000000000E+00 0.  1.
          1    1    1    2  502    0 -0.53568723816E+02  0.24714813499E+02 -0.10397059721E+03  0.11954210665E+03  0.00000000000E+00 0.  1.
</event>
<event>
 4    1  0.3752836E+003  0.2039359E+02  0.7546771E-02  0.1528102E+00
          2   -1    0    0  502    0  0.00000000000E+00  0.00000000000E+00  0.50647864523E+01  0.50647864523E+01  0.00000000000E+00 0.  1.
          1   -1    0    0  501    0 -0.00000000000E+00 -0.00000000000E+00 -0.75841836050E+03  0.75841836050E+03  0.00000000000E+00 0. -1.
          2    1    1    2  501    0  0.20381467668E+02 -0.70298458886E+00 -0.16193119623E+02  0.26040651581E+02  0.00000000000E+00 0.  1.
          1    1    1    2  502    0 -0.20381467668E+02  0.70298458886E+00 -0.73716045442E+03  0.73744249537E+03  0.00000000000E+00 0. -1.
</event>
<event>
 4    1  0.3752836E+003  0.3935200E+02  0.7546771E-02  0.1352325E+00
          2   -1    0    0  502    0  0.00000000000E+00  0.00000000000E+00  0.72852542664E+02  0.72852542664E+02  0.00000000000E+00 0.  1.
          1   -1    0    0  501    0 -0.00000000000E+00 -0.00000000000E+00 -0.83290201810E+03  0.83290201810E+03  0.00000000000E+00 0.  1.
          2    1    1    2  501    0  0.15064324986E+02  0.36354451672E+02  0.67036288730E+02  0.77733159272E+02  0.00000000000E+00 0.  1.
          1    1    1    2  502    0 -0.15064324986E+02 -0.36354451672E+02 -0.82708576417E+03  0.82802140149E+03  0.00000000000E+00 0.  1.
</event>
<event>
 4    1  0.3752836E+003  0.2792145E+02  0.7546771E-02  0.1438565E+00
          2   -1    0    0  502    0  0.00000000000E+00  0.00000000000E+00  0.48060345296E+03  0.48060345296E+03  0.00000000000E+00 0.  1.
          1   -1    0    0  501    0 -0.00000000000E+00 -0.00000000000E+00 -0.22548920001E+01  0.22548920001E+01  0.00000000000E+00 0. -1.
          2    1    1    2  501    0 -0.19982010646E+02 -0.19501958905E+02  0.36706613218E+03  0.36812654420E+03  0.00000000000E+00 0.  1.
          1    1    1    2  502    0  0.19982010646E+02  0.19501958905E+02  0.11128242878E+03  0.11473180076E+03  0.00000000000E+00 0. -1.
</event>
<event>
 4    1  0.3752836E+003  0.7450326E+02  0.7546771E-02  0.1217218E+00
          2   -1    0    0  502    0  0.00000000000E+00  0.00000000000E+00  0.33841188609E+03  0.33841188609E+03  0.00000000000E+00 0. -1.
          1   -1    0    0  501    0 -0.00000000000E+00 -0.00000000000E+00 -0.15325592248E+04  0.15325592248E+04  0.00000000000E+00 0.  1.
          2    1    1    2  501    0 -0.19223251092E+02  0.71980566966E+02  0.33339237465E+03  0.34161558934E+03  0.00000000000E+00 0. -1.
          1    1    1    2  502    0  0.19223251092E+02 -0.71980566966E+02 -0.15275397133E+04  0.15293555215E+04  0.00000000000E+00 0.  1.
</event>
<event>
 4    1  0.3752836E+003  0.3669995E+02  0.7546771E-02  0.1368990E+00
          2   -1    0    0  502    0  0.00000000000E+00  0.00000000000E+00  0.11419995715E+02  0.11419995715E+02  0.00000000000E+00 0.  1.
          1   -1    0    0  501    0 -0.00000000000E+00 -0.00000000000E+00 -0.24836070893E+03  0.24836070893E+03  0.00000000000E+00 0.  1.
          2    1    1    2  501    0  0.25503862134E+02 -0.26390134994E+02 -0.24344922832E+02  0.44040452728E+02  0.00000000000E+00 0.  1.
          1    1    1    2  502    0 -0.25503862134E+02  0.26390134994E+02 -0.21259579038E+03  0.21574025192E+03  0.00000000000E+00 0.  1.
</event>
<event>
 4    1  0.3752836E+003  0.4001106E+02  0.7546771E-02  0.1348421E+00
          2   -1    0    0  502    0  0.00000000000E+00  0.00000000000E+00  0.33690264177E+03  0.33690264177E+03  0.00000000000E+00 0. -1.
          1   -1    0    0  501    0 -0.00000000000E+00 -0.00000000000E+00 -0.21669502337E+02  0.21669502337E+02  0.00000000000E+00 0. -1.
          2    1    1    2  501    0  0.23721405572E+02 -0.32220797113E+02  0.31603040954E+03  0.31855314251E+03  0.00000000000E+00 0. -1.
          1    1    1    2  502    0 -0.23721405572E+02  0.32220797113E+02 -0.79727010961E+00  0.40019001594E+02  0.00000000000E+00 0. -1.
</event>
<event>
 4    1  0.3752836E+003  0.2427021E+02  0.7546771E-02  0.1477136E+00
          2   -1    0    0  502    0  0.00000000000E+00  0.00000000000E+00  0.31038813666E+03  0.31038813666E+03  0.00000000000E+00 0. -1.
          1   -1    0    0  501    0 -0.00000000000E+00 -0.00000000000E+00 -0.79616546846E+03  0.79616546846E+03  0.00000000000E+00 0. -1.
          2    1    1    2  501    0 -0.45281013075E+01 -0.23844063055E+02  0.30972834005E+03  0.31067778755E+03  0.00000000000E+00 0. -1.
          1    1    1    2  502    0  0.45281013075E+01  0.23844063055E+02 -0.79550567185E+03  0.79587581757E+03  0.00000000000E+00 0. -1.
</event>
<event>
 4    1  0.3752836E+003  0.4795700E+02  0.7546771E-02  0.1307282E+00
          2   -1    0    0  502    0  0.00000000000E+00  0.00000000000E+00  0.67870141588E+03  0.67870141588E+03  0.00000000000E+00 0. -1.
          1   -1    0    0  501    0 -0.00000000000E+00 -0.00000000000E+00 -0.78901397350E+01  0.78901397350E+01  0.00000000000E+00 0.  1.
          2    1    1    2  501    0  0.38118031138E+02  0.29101368607E+02  0.59470699354E+03  0.59663747964E+03  0.00000000000E+00 0. -1.
          1    1    1    2  502    0 -0.38118031138E+02 -0.29101368607E+02  0.76104282603E+02  0.89954075968E+02  0.00000000000E+00 0.  1.
</event>
<event>
 4    1  0.3752836E+003  0.2139409E+02  0.7546771E-02  0.1513712E+00
          2   -1    0    0  502    0  0.00000000000E+00  0.00000000000E+00  0.60451929060E+03  0.60451929060E+03  0.00000000000E+00 0.  1.
          1   -1    0    0  501    0 -0.00000000000E+00 -0.00000000000E+00 -0.67575447001E+01  0.67575447001E+01  0.00000000000E+00 0. -1.
          2    1    1    2  501    0 -0.20000331066E+02  0.75956585459E+01  0.58688828076E+03  0.58727809542E+03  0.00000000000E+00 0.  1.
          1    1    1    2  502    0  0.20000331066E+02 -0.75956585459E+01  0.10873465140E+02  0.23998739876E+02  0.00000000000E+00 0. -1.
</event>
<event>
 4    1  0.3752836E+003  0.3143864E+02  0.7546771E-02  0.1407493E+00
          2   -1    0    0  502    0  0.00000000000E+00  0.00000000000E+00  0.17903130974E+01  0.17903130974E+01  0.00000000000E+00 0. -1.
          1   -1    0    0  501    0 -0.00000000000E+00 -0.00000000000E+00 -0.11986531249E+04  0.11986531249E+04  0.00000000000E+00 0.  1.
          2    1    1    2  501    0 -0.17079837342E+02 -0.26394457248E+02 -0.15759724618E+03  0.16070245866E+03  0.00000000000E+00 0. -1.
          1    1    1    2  502    0  0.17079837342E+02  0.26394457248E+02 -0.10392655656E+04  0.10397409793E+04  0.00000000000E+00 0.  1.
</event>
<event>
 4    1  0.3752836E+003  0.2511891E+02  0.7546771E-02  0.1467478E+00
          2   -1    0    0  502    0  0.00000000000E+00  0.00000000000E+00  0.11575659053E+04  0.11575659053E+04  0.00000000000E+00 0. -1.
          1   -1    0    0  501    0 -0.00000000000E+00 -0.00000000000E+00 -0.57522539963E+01  0.57522539963E+01  0.00000000000E+00 0.  1.
          2    1    1    2  501    0  0.97954535218E+01 -0.23130251813E+02  0.11293216213E+04  0.11296009401E+04  0.00000000000E+00 0. -1.
          1    1    1    2  502    0 -0.97954535218E+01  0.23130251813E+02  0.22492029984E+02  0.33717219212E+02  0.00000000000E+00 0.  1.
</event>
<event>
 4    1  0.3752836E+003  0.5428644E+02  0.7546771E-02  0.1280586E+00
          2   -1    0    0  502    0  0.00000000000E+00  0.00000000000E+00  0.47145175269E+01  0.47145175269E+01  0.00000000000E+00 0.  1.
          1   -1    0    0  501    0 -0.00000000000E+00 -0.00000000000E+00 -0.28442624149E+04  0.28442624149E+04  0.00000000000E+00 0.  1.
          2    1    1    2  501    0  0.50910880991E+02  0.18844099128E+02 -0.16151736585E+03  0.17039623630E+03  0.00000000000E+00 0.  1.
          1    1    1    2  502    0 -0.50910880991E+02 -0.18844099128E+02 -0.26780305316E+04  0.26785806962E+04  0.00000000000E+00 0.  1.
</event>
<event>
 4    1  0.3752836E+003  0.2088460E+02  0.7546771E-02  0.1520919E+00
          2   -1    0    0  502    0  0.00000000000E+00  0.00000000000E+00  0.13383248336E+03  0.13383248336E+03  0.00000000000E+00 0.  1.
          1   -1    0    0  501    0 -0.00000000000E+00 -0.00000000000E+00 -0.25376199289E+02  0.25376199289E+02  0.00000000000E+00 0. -1.
          2    1    1    2  501    0 -0.88905078283E+00  0.20865668948E+02  0.12854512231E+03  0.13023062244E+03  0.00000000000E+00 0.  1.
          1    1    1    2  502    0  0.88905078283E+00 -0.20865668948E+02 -0.20088838235E+02  0.28978060211E+02  0.00000000000E+00 0. -1.
</event>
<event>
 4    1  0.3752836E+003  0.2372789E+02  0.7546771E-02  0.1483555E+00
          2   -1    0    0  502    0  0.00000000000E+00  0.00000000000E+00  0.11405970782E+04  0.11405970782E+04  0.00000000000E+00 0. -1.
          1   -1    0    0  501    0 -0.00000000000E+00 -0.00000000000E+00 -0.32614584281E+02  0.32614584281E+02  0.00000000000E+00 0.  1.
          2    1    1    2  501    0 -0.18792258693E+02 -0.14486670621E+02  0.11361411002E+04  0.11363888472E+04  0.00000000000E+00 0. -1.
          1    1    1    2  502    0  0.18792258693E+02  0.14486670621E+02 -0.28158606286E+02  0.36822815216E+02  0.00000000000E+00 0.  1.
</event>
<event>
 4    1  0.3752836E+003  0.4943709E+02  0.7546771E-02  0.1300632E+00
          2   -1    0    0  502    0  0.00000000000E+00  0.00000000000E+00  0.30189835756E+01  0.30189835756E+01  0.00000000000E+00 0. -1.
          1   -1    0    0  501    0 -0.00000000000E+00 -0.00000000000E+00 -0.98554144846E+03  0.98554144846E+03  0.00000000000E+00 0. -1.
          2    1    1    2  501    0  0.23553733835E+02  0.43465469010E+02 -0.28239000793E+03  0.28668474315E+03  0.00000000000E+00 0. -1.
          1    1    1    2  502    0 -0.23553733835E+02 -0.43465469010E+02 -0.70013245695E+03  0.70187568889E+03  0.00000000000E+00 0. -1.
</event>
<event>
 4    1  0.3752836E+003  0.2267258E+02  0.7546771E-02  0.1496651E+00
          2   -1    0    0  502    0  0.00000000000E+00  0.00000000000E+00  0.32082935052E+01  0.32082935052E+01  0.00000000000E+00 0.  1.
          1   -1    0    0  501    0 -0.00000000000E+00 -0.00000000000E+00 -0.11287286201E+04  0.11287286201E+04  0.00000000000E+00 0. -1.
          2    1    1    2  501    0 -0.65355561936E+01 -0.21710191413E+02 -0.38498275517E+02  0.44678441376E+02  0.00000000000E+00 0.  1.
          1    1    1    2  502    0  0.65355561936E+01  0.21710191413E+02 -0.10870220510E+04  0.10872584722E+04  0.00000000000E+00 0. -1.
</event>
<event>
 4    1  0.3752836E+003  0.2056933E+02  0.7546771E-02  0.1525503E+00
          2   -1    0    0  502    0  0.00000000000E+00  0.00000000000E+00  0.92731322816E+01  0.92731322816E+01  0.00000000000E+00 0. -1.
          1   -1    0    0  501    0 -0.00000000000E+00 -0.00000000000E+00 -0.56373840634E+02  0.56373840634E+02  0.00000000000E+00 0. -1.
          2    1    1    2  501    0 -0.14907769812E+02  0.14172354574E+02 -0.92184574170E+01  0.22540567697E+02  0.00000000000E+00 0. -1.
          1    1    1    2  502    0  0.14907769812E+02 -0.14172354574E+02 -0.37882250936E+02  0.43106405219E+02  0.00000000000E+00 0. -1.
</event>
<event>
 4    1  0.3752836E+003  0.2406065E+02  0.7546771E-02  0.1479592E+00
          2   -1    0    0  502    0  0.00000000000E+00  0.00000000000E+00  0.35490059131E+03  0.35490059131E+03  0.00000000000E+00 0. -1.
          1   -1    0    0  501    0 -0.00000000000E+00 -0.00000000000E+00 -0.22378623459E+01  0.22378623459E+01  0.00000000000E+00 0. -1.
          2    1    1    2  501    0  0.14087867037E+00 -0.24060238551E+02  0.26930554586E+03  0.27037823869E+03  0.00000000000E+00 0. -1.
          1    1    1    2  502    0 -0.14087867037E+00  0.24060238551E+02  0.83357183103E+02  0.86760214965E+02  0.00000000000E+00 0. -1.
</event>
<event>
 4    1  0.3752836E+003  0.3199734E+02  0.7546771E-02  0.1402998E+00
          2   -1    0    0  502    0  0.00000000000E+00  0.00000000000E+00  0.16553355357E+03  0.16553355357E+03  0.00000000000E+00 0.  1.
          1   -1    0    0  501    0 -0.00000000000E+00 -0.00000000000E+00 -0.65135280618E+02  0.65135280618E+02  0.00000000000E+00 0. -1.
          2    1    1    2  501    0 -0.31943517724E+02  0.18551205104E+01  0.15992111065E+03  0.16309074600E+03  0.00000000000E+00 0.  1.
          1    1    1    2  502    0  0.31943517724E+02 -0.18551205104E+01 -0.59522837698E+02  0.67578088197E+02  0.00000000000E+00 0. -1.
</event>
<event>
 4    1  0.3752836E+003  0.2441094E+02  0.7546771E-02  0.1475502E+00
          2   -1    0    0  502    0  0.00000000000E+00  0.00000000000E+00  0.15768297175E+02  0.15768297175E+02  0.00000000000E+00 0. -1.
          1   -1    0    0  501    0 -0.00000000000E+00 -0.00000000000E+00 -0.39223008626E+03  0.39223008626E+03  0.00000000000E+00 0. -1.
          2    1    1    2  501    0 -0.31754455013E+01  0.24203525598E+02  0.56919697486E+01  0.25065765999E+02  0.00000000000E+00 0. -1.
          1    1    1    2  502    0  0.31754455013E+01 -0.24203525598E+02 -0.38215375883E+03  0.38293261743E+03  0.00000000000E+00 0. -1.
</event>
<event>
 4    1  0.3752836E+003  0.2156962E+02  0.7546771E-02  0.1511285E+00
          2   -1    0    0  502    0  0.00000000000E+00  0.00000000000E+00  0.75985070853E+01  0.75985070853E+01  0.00000000000E+00 0. -1.
          1   -1    0    0  501    0 -0.00000000000E+00 -0.00000000000E+00 -0.32283651655E+03  0.32283651655E+03  0.00000000000E+00 0.  1.
          2    1    1    2  501    0 -0.21279805139E+02 -0.35239802548E+01 -0.88919735225E+01  0.23330575147E+02  0.00000000000E+00 0. -1.
          1    1    1    2  502    0  0.21279805139E+02  0.35239802548E+01 -0.30634603595E+03  0.30710444849E+03  0.00000000000E+00 0.  1.
</event>
<event>
 4    1  0.3752836E+003  0.4792523E+02  0.7546771E-02  0.1307428E+00
          2   -1    0    0  502    0  0.00000000000E+00  0.00000000000E+00  0.41634032230E+01  0.41634032230E+01  0.00000000000E+00 0. -1.
          1   -1    0    0  501    0 -0.00000000000E+00 -0.00000000000E+00 -0.56999513355E+03  0.56999513355E+03  0.00000000000E+00 0. -1.
          2    1    1    2  501    0 -0.77342701245E+01 -0.47296997902E+02 -0.33438999444E+03  0.33780688762E+03  0.00000000000E+00 0. -1.
          1    1    1    2  502    0  0.77342701245E+01  0.47296997902E+02 -0.23144173589E+03  0.23635164915E+03  0.00000000000E+00 0. -1.
</event>
<event>
 4    1  0.3752836E+003  0.3680620E+02  0.7546771E-02  0.1368291E+00
          2   -1    0    0  502    0  0.00000000000E+00  0.00000000000E+00  0.22323840264E+04  0.22323840264E+04  0.00000000000E+00 0. -1.
          1   -1    0    0  501    0 -0.00000000000E+00 -0.00000000000E+00 -0.94052590204E+00  0.94052590204E+00  0.00000000000E+00 0. -1.
          2    1    1    2  501    0 -0.30940077493E+02 -0.19935091869E+02  0.17808516246E+04  0.17812319347E+04  0.00000000000E+00 0. -1.
          1    1    1    2  502    0  0.30940077493E+02  0.19935091869E+02  0.45059187586E+03  0.45209261758E+03  0.00000000000E+00 0. -1.
</event>
<event>
 4    1  0.3752836E+003  0.6750581E+02  0.7546771E-02  0.1236263E+00
          2   -1    0    0  502    0  0.00000000000E+00  0.00000000000E+00  0.68353405629E+02  0.68353405629E+02  0.00000000000E+00 0. -1.
          1   -1    0    0  501    0 -0.00000000000E+00 -0.00000000000E+00 -0.51695700445E+03  0.51695700445E+03  0.00000000000E+00 0. -1.
          2    1    1    2  501    0  0.28044900825E+02  0.61404539383E+02  0.48831320455E+02  0.83315855493E+02  0.00000000000E+00 0. -1.
          1    1    1    2  502    0 -0.28044900825E+02 -0.61404539383E+02 -0.49743491927E+03  0.50199455458E+03  0.00000000000E+00 0. -1.
</event>
<event>
 4    1  0.3752836E+003  0.2133901E+02  0.7546771E-02  0.1514479E+00
          2   -1    0    0  502    0  0.00000000000E+00  0.00000000000E+00  0.37923349086E+02  0.37923349086E+02  0.00000000000E+00 0.  1.
          1   -1    0    0  501    0 -0.00000000000E+00 -0.00000000000E+00 -0.65221395512E+03  0.65221395512E+03  0.00000000000E+00 0. -1.
          2    1    1    2  501    0 -0.17316789837E+02 -0.12469243191E+02  0.34732252560E+02  0.40763741290E+02  0.00000000000E+00 0.  1.
          1    1    1    2  502    0  0.17316789837E+02  0.12469243191E+02 -0.64902285859E+03  0.64937356291E+03  0.00000000000E+00 0. -1.
</event>
<event>
 4    1  0.3752836E+003  0.2263259E+02  0.7546771E-02  0.1497164E+00
          2   -1    0    0  502    0  0.00000000000E+00  0.00000000000E+00  0.72091347904E+01  0.72091347904E+01  0.00000000000E+00 0. -1.
          1   -1    0    0  501    0 -0.00000000000E+00 -0.00000000000E+00 -0.15449625361E+03  0.15449625361E+03  0.00000000000E+00 0. -1.
          2    1    1    2  501    0  0.20010665387E+02  0.10573909187E+02 -0.14223945687E+02  0.26731160013E+02  0.00000000000E+00 0. -1.
          1    1    1    2  502    0 -0.20010665387E+02 -0.10573909187E+02 -0.13306317314E+03  0.13497422839E+03  0.00000000000E+00 0. -1.
</event>
<event>
 4    1  0.3752836E+003  0.3090692E+02  0.7546771E-02  0.1411875E+00
          2   -1    0    0  502    0  0.00000000000E+00  0.00000000000E+00  0.52168190826E+03  0.52168190826E+03  0.00000000000E+00 0. -1.
          1   -1    0    0  501    0 -0.00000000000E+00 -0.00000000000E+00 -0.17642160793E+02  0.17642160793E+02  0.00000000000E+00 0.  1.
          2    1    1    2  501    0 -0.18632864791E+02 -0.24658754384E+02  0.50730457531E+03  0.50824518685E+03  0.00000000000E+00 0. -1.
          1    1    1    2  502    0  0.18632864791E+02  0.24658754384E+02 -0.32648278499E+01  0.31078882203E+02  0.00000000000E+00 0.  1.
</event>
<event>
 4    1  0.3752836E+003  0.2645043E+02  0.7546771E-02  0.1453208E+00
          2   -1    0    0  502    0  0.00000000000E+00  0.00000000000E+00  0.14331918907E+04  0.14331918907E+04  0.00000000000E+00 0.  1.
          1   -1    0    0  501    0 -0.00000000000E+00 -0.00000000000E+00 -0.18169640422E+03  0.18169640422E+03  0.00000000000E+00 0.  1.
          2    1    1    2  501    0 -0.26427568826E+02  0.10995777531E+01  0.14321064917E+04  0.14323507354E+04  0.00000000000E+00 0.  1.
          1    1    1    2  502    0  0.26427568826E+02 -0.10995777531E+01 -0.18061100520E+03  0.18253755960E+03  0.00000000000E+00 0.  1.
</event>
<event>
 4    1  0.3752836E+003  0.4820498E+02  0.7546771E-02  0.1306148E+00
          2   -1    0    0  502    0  0.00000000000E+00  0.00000000000E+00  0.86453201197E+03  0.86453201197E+03  0.00000000000E+00 0. -1.
          1   -1    0    0  501    0 -0.00000000000E+00 -0.00000000000E+00 -0.10566288259E+02  0.10566288259E+02  0.00000000000E+00 0. -1.
          2    1    1    2  501    0  0.46461819461E+02 -0.12845996368E+02  0.80480384205E+03  0.80624620586E+03  0.00000000000E+00 0. -1.
          1    1    1    2  502    0 -0.46461819461E+02  0.12845996368E+02  0.49161881665E+02  0.68852094370E+02  0.00000000000E+00 0. -1.
</event>
<event>
 4    1  0.3752836E+003  0.2053196E+02  0.7546771E-02  0.1526053E+00
          2   -1    0    0  502    0  0.00000000000E+00  0.00000000000E+00  0.10429088675E+03  0.10429088675E+03  0.00000000000E+00 0.  1.
          1   -1    0    0  501    0 -0.00000000000E+00 -0.00000000000E+00 -0.40481571408E+01  0.40481571408E+01  0.00000000000E+00 0.  1.
          2    1    1    2  501    0 -0.14933339153E+02 -0.14091018049E+02  0.52204732350E+02  0.56097196789E+02  0.00000000000E+00 0.  1.
          1    1    1    2  502    0  0.14933339153E+02  0.14091018049E+02  0.48037997261E+02  0.52241847103E+02  0.00000000000E+00 0.  1.
</event>
<event>
 4    1  0.3752836E+003  0.2134517E+02  0.7546771E-02  0.1514393E+00
          2   -1    0    0  502    0  0.00000000000E+00  0.00000000000E+00  0.34588866453E+03  0.34588866453E+03  0.00000000000E+00 0.  1.
          1   -1    0    0  501    0 -0.00000000000E+00 -0.00000000000E+00 -0.16216058032E+03  0.16216058032E+03  0.00000000000E+00 0. -1.
          2    1    1    2  501    0  0.18610352094E+02 -0.10453282172E+02  0.34485483696E+03  0.34551479692E+03  0.00000000000E+00 0.  1.
          1    1    1    2  502    0 -0.18610352094E+02  0.10453282172E+02 -0.16112675275E+03  0.16253444794E+03  0.00000000000E+00 0. -1.
</event>
<event>
 4    1  0.3752836E+003  0.4602363E+02  0.7546771E-02  0.1316399E+00
          2   -1    0    0  502    0  0.00000000000E+00  0.00000000000E+00  0.19502714209E+04  0.19502714209E+04  0.00000000000E+00 0.  1.
          1   -1    0    0  501    0 -0.00000000000E+00 -0.00000000000E+00 -0.20323672082E+01  0.20323672082E+01  0.00000000000E+00 0.  1.
          2    1    1    2  501    0  0.14916495939E+02  0.43539320807E+02  0.16401974336E+04  0.16408430136E+04  0.00000000000E+00 0.  1.
          1    1    1    2  502    0 -0.14916495939E+02 -0.43539320807E+02  0.30804162008E+03  0.31146077443E+03  0.00000000000E+00 0.  1.
</event>
<event>
 4    1  0.3752836E+003  0.4883573E+02  0.7546771E-02  0.1303301E+00
          2   -1    0    0  502    0  0.00000000000E+00  0.00000000000E+00  0.98303613053E+03  0.98303613053E+03  0.00000000000E+00 0.  1.
          1   -1    0    0  501    0 -0.00000000000E+00 -0.00000000000E+00 -0.52845842064E+02  0.52845842064E+02  0.00000000000E+00 0. -1.
          2    1    1    2  501    0 -0.44928059655E+02  0.19141520867E+02  0.97100745355E+03  0.97223474696E+03  0.00000000000E+00 0.  1.
          1    1    1    2  502    0  0.44928059655E+02 -0.19141520867E+02 -0.40817165078E+02  0.63647225631E+02  0.00000000000E+00 0. -1.
</event>
<event>
 4    1  0.3752836E+003  0.2717955E+02  0.7546771E-02  0.1445813E+00
          2   -1    0    0  502    0  0.00000000000E+00  0.00000000000E+00  0.37378423501E+03  0.37378423501E+03  0.00000000000E+00 0. -1.
          1   -1    0    0  501    0 -0.00000000000E+00 -0.00000000000E+00 -0.11257979875E+02  0.11257979875E+02  0.00000000000E+00 0.  1.
          2    1    1    2  501    0 -0.13240530789E+02 -0.23736396098E+02  0.35607070738E+03  0.35710653426E+03  0.00000000000E+00 0. -1.
          1    1    1    2  502    0  0.13240530789E+02  0.23736396098E+02  0.64555477541E+01  0.27935680627E+02  0.00000000000E+00 0.  1.
</event>
<event>
 4    1  0.3752836E+003  0.2936772E+02  0.7546771E-02  0.1425172E+00
          2   -1    0    0  502    0  0.00000000000E+00  0.00000000000E+00  0.38104433292E+03  0.38104433292E+03  0.00000000000E+00 0. -1.
          1   -1    0    0  501    0 -0.00000000000E+00 -0.00000000000E+00 -0.27018471081E+02  0.27018471081E+02  0.00000000000E+00 0.  1.
          2    1    1    2  501    0  0.29300692686E+02  0.19829901548E+01  0.37231127208E+03  0.37346773108E+03  0.00000000000E+00 0. -1.
          1    1    1    2  502    0 -0.29300692686E+02 -0.19829901548E+01 -0.18285410248E+02  0.34595072912E+02  0.00000000000E+00 0.  1.
</event>
<event>
 4    1  0.3752836E+003  0.2606206E+02  0.7546771E-02  0.1457264E+00
          2   -1    0    0  502    0  0.00000000000E+00  0.00000000000E+00  0.21941339537E+03  0.21941339537E+03  0.00000000000E+00 0. -1.
          1   -1    0    0  501    0 -0.00000000000E+00 -0.00000000000E+00 -0.70804239833E+01  0.70804239833E+01  0.00000000000E+00 0.  1.
          2    1    1    2  501    0  0.26028816500E+02 -0.13160327344E+01  0.19112316768E+03  0.19289192947E+03  0.00000000000E+00 0. -1.
          1    1    1    2  502    0 -0.26028816500E+02  0.13160327344E+01  0.21209803709E+02  0.33601889886E+02  0.00000000000E+00 0.  1.
</event>
<event>
 4    1  0.3752836E+003  0.2683698E+02  0.7546771E-02  0.1449253E+00
          2   -1    0    0  502    0  0.00000000000E+00  0.00000000000E+00  0.17654192117E+03  0.17654192117E+03  0.00000000000E+00 0.  1.
          1   -1    0    0  501    0 -0.00000000000E+00 -0.00000000000E+00 -0.89513019553E+01  0.89513019553E+01  0.00000000000E+00 0. -1.
          2    1    1    2  501    0  0.22432182068E+02 -0.14731618724E+02  0.15221711919E+03  0.15456479145E+03  0.00000000000E+00 0.  1.
          1    1    1    2  502    0 -0.22432182068E+02  0.14731618724E+02  0.15373500022E+02  0.30928431669E+02  0.00000000000E+00 0. -1.
</event>
<event>
 4    1  0.3752836E+003  0.3430981E+02  0.7546771E-02  0.1385481E+00
          2   -1    0    0  502    0  0.00000000000E+00  0.00000000000E+00  0.17239833822E+01  0.17239833822E+01  0.00000000000E+00 0. -1.
          1   -1    0    0  501    0 -0.00000000000E+00 -0.00000000000E+00 -0.95177828458E+03  0.95177828458E+03  0.00000000000E+00 0. -1.
          2    1    1    2  501    0  0.21149592704E+02 -0.27015881155E+02 -0.22159034480E+03  0.22423078294E+03  0.00000000000E+00 0. -1.
          1    1    1    2  502    0 -0.21149592704E+02  0.27015881155E+02 -0.72846395639E+03  0.72927148502E+03  0.00000000000E+00 0. -1.
</event>
<event>
 4    1  0.3752836E+003  0.2283054E+02  0.7546771E-02  0.1494637E+00
          2   -1    0    0  502    0  0.00000000000E+00  0.00000000000E+00  0.27955932019E+02  0.27955932019E+02  0.00000000000E+00 0.  1.
          1   -1    0    0  501    0 -0.00000000000E+00 -0.00000000000E+00 -0.22502775133E+02  0.22502775133E+02  0.00000000000E+00 0.  1.
          2    1    1    2  501    0  0.13254202547E+02 -0.18589239886E+02  0.13172959300E+02  0.26358311429E+02  0.00000000000E+00 0.  1.
          1    1    1    2  502    0 -0.13254202547E+02  0.18589239886E+02 -0.77198024143E+01  0.24100395723E+02  0.00000000000E+00 0.  1.
</event>
<event>
 4    1  0.3752836E+003  0.2095981E+02  0.7546771E-02  0.1519839E+00
          2   -1    0    0  502    0  0.00000000000E+00  0.00000000000E+00  0.75811280920E+03  0.75811280920E+03  0.00000000000E+00 0.  1.
          1   -1    0    0  501    0 -0.00000000000E+00 -0.00000000000E+00 -0.93209681093E+00  0.93209681093E+00  0.00000000000E+00 0. -1.
          2    1    1    2  501    0 -0.12146303486E+02 -0.17081594148E+02  0.61202030360E+03  0.61237910281E+03  0.00000000000E+00 0.  1.
          1    1    1    2  502    0  0.12146303486E+02  0.17081594148E+02  0.14516040879E+03  0.14666580320E+03  0.00000000000E+00 0. -1.
</event>
<event>
 4    1  0.3752836E+003  0.2818041E+02  0.7546771E-02  0.1436098E+00
          2   -1    0    0  502    0  0.00000000000E+00  0.00000000000E+00  0.79600226427E+03  0.79600226427E+03  0.00000000000E+00 0.  1.
          1   -1    0    0  501    0 -0.00000000000E+00 -0.00000000000E+00 -0.10264705090E+02  0.10264705090E+02  0.00000000000E+00 0.  1.
          2    1    1    2  501    0 -0.25355977815E+02  0.12296749094E+02  0.77591077340E+03  0.77642234894E+03  0.00000000000E+00 0.  1.
          1    1    1    2  502    0  0.25355977815E+02 -0.12296749094E+02  0.98267857741E+01  0.29844620418E+02  0.00000000000E+00 0.  1.
</event>
<event>
 4    1  0.3752836E+003  0.4662904E+02  0.7546771E-02  0.1313489E+00
          2   -1    0    0  502    0  0.00000000000E+00  0.00000000000E+00  0.19633936451E+04  0.19633936451E+04  0.00000000000E+00 0. -1.
          1   -1    0    0  501    0 -0.00000000000E+00 -0.00000000000E+00 -0.30312025847E+03  0.30312025847E+03  0.00000000000E+00 0.  1.
          2    1    1    2  501    0 -0.26863139132E+01  0.46551596069E+02  0.19613216620E+04  0.19618758700E+04  0.00000000000E+00 0. -1.
          1    1    1    2  502    0  0.26863139132E+01 -0.46551596069E+02 -0.30104827539E+03  0.30463803357E+03  0.00000000000E+00 0.  1.
</event>
<event>
 4    1  0.3752836E+003  0.2061376E+02  0.7546771E-02  0.1524851E+00
          2   -1    0    0  502    0  0.00000000000E+00  0.00000000000E+00  0.14114381286E+04  0.14114381286E+04  0.00000000000E+00 0. -1.
          1   -1    0    0  501    0 -0.00000000000E+00 -0.00000000000E+00 -0.11823280354E+01  0.11823280354E+01  0.00000000000E+00 0.  1.
          2    1    1    2  501    0 -0.61210909301E+01  0.19683983687E+02  0.13149183446E+04  0.13150799139E+04  0.00000000000E+00 0. -1.
          1    1    1    2  502    0  0.61210909301E+01 -0.19683983687E+02  0.95337455947E+02  0.97540542722E+02  0.00000000000E+00 0.  1.
</event>
<event>
 4    1  0.3752836E+003  0.2054240E+02  0.7546771E-02  0.1525900E+00
          2   -1    0    0  502    0  0.00000000000E+00  0.00000000000E+00  0.13401152558E+03  0.13401152558E+03  0.00000000000E+00 0. -1.
          1   -1    0    0  501    0 -0.00000000000E+00 -0.00000000000E+00 -0.31874095473E+03  0.31874095473E+03  0.00000000000E+00 0. -1.
          2    1    1    2  501    0 -0.20493948523E+02 -0.14100319146E+01  0.13289054078E+03  0.13446890326E+03  0.00000000000E+00 0. -1.
          1    1    1    2  502    0  0.20493948523E+02  0.14100319146E+01 -0.31761996993E+03  0.31828357704E+03  0.00000000000E+00 0. -1.
</event>
<event>
 4    1  0.3752836E+003  0.2558072E+02  0.7546771E-02  0.1462411E+00
          2   -1    0    0  502    0  0.00000000000E+00  0.00000000000E+00  0.88497617046E+03  0.88497617046E+03  0.00000000000E+00 0. -1.
          1   -1    0    0  501    0 -0.00000000000E+00 -0.00000000000E+00 -0.84123126841E+00  0.84123126841E+00  0.00000000000E+00 0. -1.
          2    1    1    2  501    0 -0.19666315482E+02 -0.16358770909E+02  0.59614671420E+03  0.59669529762E+03  0.00000000000E+00 0. -1.
          1    1    1    2  502    0  0.19666315482E+02  0.16358770909E+02  0.28798822500E+03  0.28912210411E+03  0.00000000000E+00 0. -1.
</event>
<event>
 4    1  0.3752836E+003  0.3474350E+02  0.7546771E-02  0.1382375E+00
          2   -1    0    0  502    0  0.00000000000E+00  0.00000000000E+00  0.11036687918E+04  0.11036687918E+04  0.00000000000E+00 0.  1.
          1   -1    0    0  501    0 -0.00000000000E+00 -0.00000000000E+00 -0.19052812300E+03  0.19052812300E+03  0.00000000000E+00 0. -1.
          2    1    1    2  501    0 -0.34617498876E+02  0.29562251378E+01  0.11018087866E+04  0.11023564363E+04  0.00000000000E+00 0.  1.
          1    1    1    2  502    0  0.34617498876E+02 -0.29562251378E+01 -0.18866811781E+03  0.19184047846E+03  0.00000000000E+00 0. -1.
</event>
<event>
 4    1  0.3752836E+003  0.2199210E+02  0.7546771E-02  0.1505558E+00
          2   -1    0    0  502    0  0.00000000000E+00  0.00000000000E+00  0.21870063894E+04  0.21870063894E+04  0.00000000000E+00 0.  1.
          1   -1    0    0  501    0 -0.00000000000E+00 -0.00000000000E+00 -0.29134780317E+00  0.29134780317E+00  0.00000000000E+00 0.  1.
          2    1    1    2  501    0  0.21349982452E+02 -0.52754779072E+01  0.16301909057E+04  0.16303392412E+04  0.00000000000E+00 0.  1.
          1    1    1    2  502    0 -0.21349982452E+02  0.52754779072E+01  0.55652413585E+03  0.55695849594E+03  0.00000000000E+00 0.  1.
</event>
<event>
 4    1  0.3752836E+003  0.2116484E+02  0.7546771E-02  0.1516924E+00
          2   -1    0    0  502    0  0.00000000000E+00  0.00000000000E+00  0.91329915050E+02  0.91329915050E+02  0.00000000000E+00 0. -1.
          1   -1    0    0  501    0 -0.00000000000E+00 -0.00000000000E+00 -0.22896359649E+02  0.22896359649E+02  0.00000000000E+00 0.  1.
          2    1    1    2  501    0  0.21153558666E+02  0.69107597868E+00  0.84844428755E+02  0.87444426472E+02  0.00000000000E+00 0. -1.
          1    1    1    2  502    0 -0.21153558666E+02 -0.69107597868E+00 -0.16410873354E+02  0.26781848227E+02  0.00000000000E+00 0.  1.
</event>
<event>
 4    1  0.3752836E+003  0.3941576E+02  0.7546771E-02  0.1351944E+00
          2   -1    0    0  502    0  0.00000000000E+00  0.00000000000E+00  0.20448761072E+02  0.20448761072E+02  0.00000000000E+00 0. -1.
          1   -1    0    0  501    0 -0.00000000000E+00 -0.00000000000E+00 -0.20281718592E+03  0.20281718592E+03  0.00000000000E+00 0.  1.
          2    1    1    2  501    0  0.20963845164E+02  0.33378429348E+02 -0.29023821223E+01  0.39522476792E+02  0.00000000000E+00 0. -1.
          1    1    1    2  502    0 -0.20963845164E+02 -0.33378429348E+02 -0.17946604272E+03  0.18374347020E+03  0.00000000000E+00 0.  1.
</event>
<event>
 4    1  0.3752836E+003  0.2035859E+02  0.7546771E-02  0.1528623E+00
          2   -1    0    0  502    0  0.00000000000E+00  0.00000000000E+00  0.26177974555E+01  0.26177974555E+01  0.00000000000E+00 0. -1.
          1   -1    0    0  501    0 -0.00000000000E+00 -0.00000000000E+00 -0.89022571838E+03  0.89022571838E+03  0.00000000000E+00 0.  1.
          2    1    1    2  501    0  0.37027714191E-01  0.20358553009E+02 -0.39022772118E+02  0.44014188570E+02  0.00000000000E+00 0. -1.
          1    1    1    2  502    0 -0.37027714191E-01 -0.20358553009E+02 -0.84858514881E+03  0.84882932727E+03  0.00000000000E+00 0.  1.
</event>
<event>
 4    1  0.3752836E+003  0.2131405E+02  0.7546771E-02  0.1514828E+00
          2   -1    0    0  502    0  0.00000000000E+00  0.00000000000E+00  0.23709016716E+02  0.23709016716E+02  0.00000000000E+00 0.  1.
          1   -1    0    0  501    0 -0.00000000000E+00 -0.00000000000E+00 -0.11580345134E+03  0.11580345134E+03  0.00000000000E+00 0.  1.
          2    1    1    2  501    0 -0.93911117037E+01 -0.19133632074E+02  0.17677248944E+02  0.27690684094E+02  0.00000000000E+00 0.  1.
          1    1    1    2  502    0  0.93911117037E+01  0.19133632074E+02 -0.10977168356E+03  0.11182178396E+03  0.00000000000E+00 0.  1.
</event>
<event>
 4    1  0.3752836E+003  0.4967937E+02  0.7546771E-02  0.1299569E+00
          2   -1    0    0  502    0  0.00000000000E+00  0.00000000000E+00  0.29225286595E+02  0.29225286595E+02  0.00000000000E+00 0. -1.
          1   -1    0    0  501    0 -0.00000000000E+00 -0.00000000000E+00 -0.77249171389E+03  0.77249171389E+03  0.00000000000E+00 0. -1.
          2    1    1    2  501    0 -0.28717159251E+02  0.40538431139E+02  0.66803861040E+01  0.50126511879E+02  0.00000000000E+00 0. -1.
          1    1    1    2  502    0  0.28717159251E+02 -0.40538431139E+02 -0.74994681340E+03  0.75159048861E+03  0.00000000000E+00 0. -1.
</event>
<event>
 4    1  0.3752836E+003  0.2272497E+02  0.7546771E-02  0.1495981E+00
          2   -1    0    0  502    0  0.00000000000E+00  0.00000000000E+00  0.12289615531E+04  0.12289615531E+04  0.00000000000E+00 0. -1.
          1   -1    0    0  501    0 -0.00000000000E+00 -0.00000000000E+00 -0.46529881325E+00  0.46529881325E+00  0.00000000000E+00 0. -1.
          2    1    1    2  501    0  0.22680507124E+02 -0.14206534891E+01  0.42289552758E+03  0.42350566809E+03  0.00000000000E+00 0. -1.
          1    1    1    2  502    0 -0.22680507124E+02  0.14206534891E+01  0.80560072670E+03  0.80592118382E+03  0.00000000000E+00 0. -1.
</event>
<event>
 4    1  0.3752836E+003  0.3878251E+02  0.7546771E-02  0.1355772E+00
          2   -1    0    0  502    0  0.00000000000E+00  0.00000000000E+00  0.17345873115E+04  0.17345873115E+04  0.00000000000E+00 0.  1.
          1   -1    0    0  501    0 -0.00000000000E+00 -0.00000000000E+00 -0.55238342545E+02  0.55238342545E+02  0.00000000000E+00 0. -1.
          2    1    1    2  501    0 -0.28552880376E+02 -0.26245302908E+02  0.17275355084E+04  0.17279707797E+04  0.00000000000E+00 0.  1.
          1    1    1    2  502    0  0.28552880376E+02  0.26245302908E+02 -0.48186539387E+02  0.61854874348E+02  0.00000000000E+00 0. -1.
</event>
<event>
 4    1  0.3752836E+003  0.2438357E+02  0.7546771E-02  0.1475819E+00
          2   -1    0    0  502    0  0.00000000000E+00  0.00000000000E+00  0.43201007118E+03  0.43201007118E+03  0.00000000000E+00 0.  1.
          1   -1    0    0  501    0 -0.00000000000E+00 -0.00000000000E+00 -0.79596957425E+01  0.79596957425E+01  0.00000000000E+00 0. -1.
          2    1    1    2  501    0  0.29868741843E+01  0.24199936271E+02  0.41209008432E+03  0.41281084764E+03  0.00000000000E+00 0.  1.
          1    1    1    2  502    0 -0.29868741843E+01 -0.24199936271E+02  0.11960291113E+02  0.27158919279E+02  0.00000000000E+00 0. -1.
</event>
<event>
 4    1  0.3752836E+003  0.2247714E+02  0.7546771E-02  0.1499170E+00
          2   -1    0    0  502    0  0.00000000000E+00  0.00000000000E+00  0.40208435123E+00  0.40208435123E+00  0.00000000000E+00 0.  1.
          1   -1    0    0  501    0 -0.00000000000E+00 -0.00000000000E+00 -0.16640748586E+04  0.16640748586E+04  0.00000000000E+00 0.  1.
          2    1    1    2  501    0 -0.13731069988E+02 -0.17795491093E+02 -0.41996526516E+03  0.42056633927E+03  0.00000000000E+00 0.  1.
          1    1    1    2  502    0  0.13731069988E+02  0.17795491093E+02 -0.12437075091E+04  0.12439106037E+04  0.00000000000E+00 0.  1.
</event>
<event>
 4    1  0.3752836E+003  0.2246142E+02  0.7546771E-02  0.1499374E+00
          2   -1    0    0  502    0  0.00000000000E+00  0.00000000000E+00  0.35153480854E+03  0.35153480854E+03  0.00000000000E+00 0. -1.
          1   -1    0    0  501    0 -0.00000000000E+00 -0.00000000000E+00 -0.15903468910E+04  0.15903468910E+04  0.00000000000E+00 0. -1.
          2    1    1    2  501    0 -0.76661017164E+01  0.21112700204E+02  0.35109660602E+03  0.35181435727E+03  0.00000000000E+00 0. -1.
          1    1    1    2  502    0  0.76661017164E+01 -0.21112700204E+02 -0.15899086885E+04  0.15900673423E+04  0.00000000000E+00 0. -1.
</event>
<event>
 4    1  0.3752836E+003  0.2734028E+02  0.7546771E-02  0.1444220E+00
          2   -1    0    0  502    0  0.00000000000E+00  0.00000000000E+00  0.35850518486E+03  0.35850518486E+03  0.00000000000E+00 0. -1.
          1   -1    0    0  501    0 -0.00000000000E+00 -0.00000000000E+00 -0.13877693895E+02  0.13877693895E+02  0.00000000000E+00 0.  1.
          2    1    1    2  501    0 -0.70478918617E+00 -0.27331192551E+02  0.34394927127E+03  0.34503418964E+03  0.00000000000E+00 0. -1.
          1    1    1    2  502    0  0.70478918617E+00  0.27331192551E+02  0.67821969008E+00  0.27348689109E+02  0.00000000000E+00 0.  1.
</event>
<event>
 4    1  0.3752836E+003  0.3684655E+02  0.7546771E-02  0.1368026E+00
          2   -1    0    0  502    0  0.00000000000E+00  0.00000000000E+00  0.14372603474E+04  0.14372603474E+04  0.00000000000E+00 0.  1.
          1   -1    0    0  501    0 -0.00000000000E+00 -0.00000000000E+00 -0.55552575365E+01  0.55552575365E+01  0.00000000000E+00 0. -1.
          2    1    1    2  501    0 -0.32738341725E+02 -0.16907672395E+02  0.13730700335E+04  0.13735643361E+04  0.00000000000E+00 0.  1.
          1    1    1    2  502    0  0.32738341725E+02  0.16907672395E+02  0.58635056300E+02  0.69251268812E+02  0.00000000000E+00 0. -1.
</event>
<event>
 4    1  0.3752836E+003  0.2112855E+02  0.7546771E-02  0.1517437E+00
          2   -1    0    0  502    0  0.00000000000E+00  0.00000000000E+00  0.91126869741E+03  0.91126869741E+03  0.00000000000E+00 0. -1.
          1   -1    0    0  501    0 -0.00000000000E+00 -0.00000000000E+00 -0.81850302729E+00  0.81850302729E+00  0.00000000000E+00 0.  1.
          2    1    1    2  501    0  0.64503184371E+01  0.20119869029E+02  0.74418842536E+03  0.74448829956E+03  0.00000000000E+00 0. -1.
          1    1    1    2  502    0 -0.64503184371E+01 -0.20119869029E+02  0.16626176902E+03  0.16759890088E+03  0.00000000000E+00 0.  1.
</event>
<event>
 4    1  0.3752836E+003  0.2292490E+02  0.7546771E-02  0.1493443E+00
          2   -1    0    0  502    0  0.00000000000E+00  0.00000000000E+00  0.66248027480E+01  0.66248027480E+01  0.00000000000E+00 0.  1.
          1   -1    0    0  501    0 -0.00000000000E+00 -0.00000000000E+00 -0.30611952277E+03  0.30611952277E+03  0.00000000000E+00 0.  1.
          2    1    1    2  501    0 -0.22825561475E+02  0.21318335309E+01 -0.15153686490E+02  0.27480632909E+02  0.00000000000E+00 0.  1.
          1    1    1    2  502    0  0.22825561475E+02 -0.21318335309E+01 -0.28434103353E+03  0.28526369260E+03  0.00000000000E+00 0.  1.
</event>
<event>
 4    1  0.3752836E+003  0.2329094E+02  0.7546771E-02  0.1488877E+00
          2   -1    0    0  502    0  0.00000000000E+00  0.00000000000E+00  0.14842531428E+04  0.14842531428E+04  0.00000000000E+00 0. -1.
          1   -1    0    0  501    0 -0.00000000000E+00 -0.00000000000E+00 -0.26993208994E+01  0.26993208994E+01  0.00000000000E+00 0.  1.
          2    1    1    2  501    0  0.10657211105E+02  0.20709702621E+02  0.14320907643E+04  0.14322801490E+04  0.00000000000E+00 0. -1.
          1    1    1    2  502    0 -0.10657211105E+02 -0.20709702621E+02  0.49463057614E+02  0.54672314746E+02  0.00000000000E+00 0.  1.
</event>
<event>
 4    1  0.3752836E+003  0.2425025E+02  0.7546771E-02  0.1477368E+00
          2   -1    0    0  502    0  0.00000000000E+00  0.00000000000E+00  0.35167815165E+02  0.35167815165E+02  0.00000000000E+00 0.  1.
          1   -1    0    0  501    0 -0.00000000000E+00 -0.00000000000E+00 -0.22713455119E+03  0.22713455119E+03  0.00000000000E+00 0. -1.
          2    1    1    2  501    0 -0.14169303353E+02  0.19680078398E+02  0.30247764391E+02  0.38768568376E+02  0.00000000000E+00 0.  1.
          1    1    1    2  502    0  0.14169303353E+02 -0.19680078398E+02 -0.22221450041E+03  0.22353379797E+03  0.00000000000E+00 0. -1.
</event>
<event>
 4    1  0.3752836E+003  0.3099988E+02  0.7546771E-02  0.1411102E+00
          2   -1    0    0  502    0  0.00000000000E+00  0.00000000000E+00  0.19636036695E+04  0.19636036695E+04  0.00000000000E+00 0. -1.
          1   -1    0    0  501    0 -0.00000000000E+00 -0.00000000000E+00 -0.16635629110E+03  0.16635629110E+03  0.00000000000E+00 0.  1.
          2    1    1    2  501    0  0.73260902130E+01 -0.30121767591E+02  0.19620359869E+04  0.19622808683E+04  0.00000000000E+00 0. -1.
          1    1    1    2  502    0 -0.73260902130E+01  0.30121767591E+02 -0.16478860850E+03  0.16767909223E+03  0.00000000000E+00 0.  1.
</event>
<event>
 4    1  0.3752836E+003  0.2257941E+02  0.7546771E-02  0.1497848E+00
          2   -1    0    0  502    0  0.00000000000E+00  0.00000000000E+00  0.58376910114E+01  0.58376910114E+01  0.00000000000E+00 0. -1.
          1   -1    0    0  501    0 -0.00000000000E+00 -0.00000000000E+00 -0.12296915448E+03  0.12296915448E+03  0.00000000000E+00 0. -1.
          2    1    1    2  501    0  0.17128514082E+02 -0.14712024208E+02 -0.23896086201E+02  0.32876322585E+02  0.00000000000E+00 0. -1.
          1    1    1    2  502    0 -0.17128514082E+02  0.14712024208E+02 -0.93235377273E+02  0.95930522912E+02  0.00000000000E+00 0. -1.
</event>
<event>
 4    1  0.3752836E+003  0.2131164E+02  0.7546771E-02  0.1514862E+00
          2   -1    0    0  502    0  0.00000000000E+00  0.00000000000E+00  0.21616388317E+03  0.21616388317E+03  0.00000000000E+00 0.  1.
          1   -1    0    0  501    0 -0.00000000000E+00 -0.00000000000E+00 -0.18419429702E+02  0.18419429702E+02  0.00000000000E+00 0.  1.
          2    1    1    2  501    0 -0.21284338524E+02 -0.10783111109E+01  0.20927160875E+03  0.21035396847E+03  0.00000000000E+00 0.  1.
          1    1    1    2  502    0  0.21284338524E+02  0.10783111109E+01 -0.11527155283E+02  0.24229344403E+02  0.00000000000E+00 0.  1.
</event>
<event>
 4    1  0.3752836E+003  0.2138619E+02  0.7546771E-02  0.1513822E+00
          2   -1    0    0  502    0  0.00000000000E+00  0.00000000000E+00  0.37609521579E+03  0.37609521579E+03  0.00000000000E+00 0.  1.
          1   -1    0    0  501    0 -0.00000000000E+00 -0.00000000000E+00 -0.12218390860E+01  0.12218390860E+01  0.00000000000E+00 0.  1.
          2    1    1    2  501    0 -0.21159999043E+02  0.31021673221E+01  0.20036762745E+03  0.20150571985E+03  0.00000000000E+00 0.  1.
          1    1    1    2  502    0  0.21159999043E+02 -0.31021673221E+01  0.17450574925E+03  0.17581133503E+03  0.00000000000E+00 0.  1.
</event>
<event>
 4    1  0.3752836E+003  0.2624252E+02  0.7546771E-02  0.1455369E+00
          2   -1    0    0  502    0  0.00000000000E+00  0.00000000000E+00  0.99466998091E+03  0.99466998091E+03  0.00000000000E+00 0.  1.
          1   -1    0    0  501    0 -0.00000000000E+00 -0.00000000000E+00 -0.18706204532E+01  0.18706204532E+01  0.00000000000E+00 0. -1.
          2    1    1    2  501    0 -0.16620475301E+02 -0.20308358624E+02  0.89185081662E+03  0.89223682323E+03  0.00000000000E+00 0.  1.
          1    1    1    2  502    0  0.16620475301E+02  0.20308358624E+02  0.10094854384E+03  0.10430377813E+03  0.00000000000E+00 0. -1.
</event>
<event>
 4    1  0.3752836E+003  0.2931819E+02  0.7546771E-02  0.1425615E+00
          2   -1    0    0  502    0  0.00000000000E+00  0.00000000000E+00  0.21442436591E+01  0.21442436591E+01  0.00000000000E+00 0. -1.
          1   -1    0    0  501    0 -0.00000000000E+00 -0.00000000000E+00 -0.46372327732E+03  0.46372327732E+03  0.00000000000E+00 0. -1.
          2    1    1    2  501    0 -0.27481644591E+02  0.10213486911E+02 -0.14503085567E+03  0.14796454035E+03  0.00000000000E+00 0. -1.
          1    1    1    2  502    0  0.27481644591E+02 -0.10213486911E+02 -0.31654817799E+03  0.31790298063E+03  0.00000000000E+00 0. -1.
</event>
<event>
 4    1  0.3752836E+003  0.8657109E+02  0.7546771E-02  0.1189362E+00
          2   -1    0    0  502    0  0.00000000000E+00  0.00000000000E+00  0.27923489224E+03  0.27923489224E+03  0.00000000000E+00 0.  1.
          1   -1    0    0  501    0 -0.00000000000E+00 -0.00000000000E+00 -0.42119512477E+03  0.42119512477E+03  0.00000000000E+00 0. -1.
          2    1    1    2  501    0  0.55363303783E+02  0.66554175136E+02  0.26789294753E+03  0.28153363026E+03  0.00000000000E+00 0.  1.
          1    1    1    2  502    0 -0.55363303783E+02 -0.66554175136E+02 -0.40985318005E+03  0.41889638675E+03  0.00000000000E+00 0. -1.
</event>
<event>
 4    1  0.3752836E+003  0.2086522E+02  0.7546771E-02  0.1521198E+00
          2   -1    0    0  502    0  0.00000000000E+00  0.00000000000E+00  0.88697268706E+03  0.88697268706E+03  0.00000000000E+00 0. -1.
          1   -1    0    0  501    0 -0.00000000000E+00 -0.00000000000E+00 -0.10827826364E+01  0.10827826364E+01  0.00000000000E+00 0. -1.
          2    1    1    2  501    0  0.22419972717E+01  0.20744414859E+02  0.77125265835E+03  0.77153484712E+03  0.00000000000E+00 0. -1.
          1    1    1    2  502    0 -0.22419972717E+01 -0.20744414859E+02  0.11463724607E+03  0.11652062258E+03  0.00000000000E+00 0. -1.
</event>
<event>
 4    1  0.3752836E+003  0.2831750E+02  0.7546771E-02  0.1434804E+00
          2   -1    0    0  502    0  0.00000000000E+00  0.00000000000E+00  0.98197732106E+02  0.98197732106E+02  0.00000000000E+00 0. -1.
          1   -1    0    0  501    0 -0.00000000000E+00 -0.00000000000E+00 -0.12982978757E+02  0.12982978757E+02  0.00000000000E+00 0.  1.
          2    1    1    2  501    0 -0.26199615265E+02 -0.10745263620E+02  0.76468442977E+02  0.81543260308E+02  0.00000000000E+00 0. -1.
          1    1    1    2  502    0  0.26199615265E+02  0.10745263620E+02  0.87463103712E+01  0.29637450555E+02  0.00000000000E+00 0.  1.
</event>
<event>
 4    1  0.3752836E+003  0.2536541E+02  0.7546771E-02  0.1464757E+00
          2   -1    0    0  502    0  0.00000000000E+00  0.00000000000E+00  0.18468953524E+03  0.18468953524E+03  0.00000000000E+00 0. -1.
          1   -1    0    0  501    0 -0.00000000000E+00 -0.00000000000E+00 -0.48568272285E+01  0.48568272285E+01  0.00000000000E+00 0. -1.
          2    1    1    2  501    0  0.14258521226E+02 -0.20978522986E+02  0.14030860204E+03  0.14258298517E+03  0.00000000000E+00 0. -1.
          1    1    1    2  502    0 -0.14258521226E+02  0.20978522986E+02  0.39524105973E+02  0.46963377298E+02  0.00000000000E+00 0. -1.
</event>
<event>
 4    1  0.3752836E+003  0.2768842E+02  0.7546771E-02  0.1440813E+00
          2   -1    0    0  502    0  0.00000000000E+00  0.00000000000E+00  0.14534831943E+04  0.14534831943E+04  0.00000000000E+00 0. -1.
          1   -1    0    0  501    0 -0.00000000000E+00 -0.00000000000E+00 -0.13069425649E+03  0.13069425649E+03  0.00000000000E+00 0. -1.
          2    1    1    2  501    0 -0.48772628665E+01  0.27255470374E+02  0.14518832224E+04  0.14521472170E+04  0.00000000000E+00 0. -1.
          1    1    1    2  502    0  0.48772628665E+01 -0.27255470374E+02 -0.12909428452E+03  0.13203023386E+03  0.00000000000E+00 0. -1.
</event>
<event>
 4    1  0.3752836E+003  0.2027834E+02  0.7546771E-02  0.1529823E+00
          2   -1    0    0  502    0  0.00000000000E+00  0.00000000000E+00  0.56487525469E+01  0.56487525469E+01  0.00000000000E+00 0.  1.
          1   -1    0    0  501    0 -0.00000000000E+00 -0.00000000000E+00 -0.14952057781E+03  0.14952057781E+03  0.00000000000E+00 0. -1.
          2    1    1    2  501    0  0.26824022417E+01 -0.20100141850E+02 -0.16359506551E+02  0.26054643325E+02  0.00000000000E+00 0.  1.
          1    1    1    2  502    0 -0.26824022417E+01  0.20100141850E+02 -0.12751231871E+03  0.12911468703E+03  0.00000000000E+00 0. -1.
</event>
<event>
 4    1  0.3752836E+003  0.3000136E+02  0.7546771E-02  0.1419585E+00
          2   -1    0    0  502    0  0.00000000000E+00  0.00000000000E+00  0.11051986023E+02  0.11051986023E+02  0.00000000000E+00 0. -1.
          1   -1    0    0  501    0 -0.00000000000E+00 -0.00000000000E+00 -0.15187556666E+03  0.15187556666E+03  0.00000000000E+00 0.  1.
          2    1    1    2  501    0  0.10864657793E+02  0.27964997130E+02 -0.14934616784E+02  0.33513051666E+02  0.00000000000E+00 0. -1.
          1    1    1    2  502    0 -0.10864657793E+02 -0.27964997130E+02 -0.12588896386E+03  0.12941450102E+03  0.00000000000E+00 0.  1.
</event>
<event>
 4    1  0.3752836E+003  0.2857678E+02  0.7546771E-02  0.1432381E+00
          2   -1    0    0  502    0  0.00000000000E+00  0.00000000000E+00  0.14092722788E+04  0.14092722788E+04  0.00000000000E+00 0.  1.
          1   -1    0    0  501    0 -0.00000000000E+00 -0.00000000000E+00 -0.86335883174E+00  0.86335883174E+00  0.00000000000E+00 0.  1.
          2    1    1    2  501    0  0.22109065856E+02 -0.18105836014E+02  0.11085091605E+04  0.11088774464E+04  0.00000000000E+00 0.  1.
          1    1    1    2  502    0 -0.22109065856E+02  0.18105836014E+02  0.29989975948E+03  0.30125819130E+03  0.00000000000E+00 0.  1.
</event>
<event>
 4    1  0.3752836E+003  0.2118885E+02  0.7546771E-02  0.1516586E+00
          2   -1    0    0  502    0  0.00000000000E+00  0.00000000000E+00  0.24104266436E+03  0.24104266436E+03  0.00000000000E+00 0.  1.
          1   -1    0    0  501    0 -0.00000000000E+00 -0.00000000000E+00 -0.15341465505E+02  0.15341465505E+02  0.00000000000E+00 0. -1.
          2    1    1    2  501    0 -0.44561862166E+01  0.20714966210E+02  0.23300904425E+03  0.23397047276E+03  0.00000000000E+00 0.  1.
          1    1    1    2  502    0  0.44561862166E+01 -0.20714966210E+02 -0.73078453921E+01  0.22413657108E+02  0.00000000000E+00 0. -1.
</event>
<event>
 4    1  0.3752836E+003  0.3997491E+02  0.7546771E-02  0.1348633E+00
          2   -1    0    0  502    0  0.00000000000E+00  0.00000000000E+00  0.45006070554E+03  0.45006070554E+03  0.00000000000E+00 0. -1.
          1   -1    0    0  501    0 -0.00000000000E+00 -0.00000000000E+00 -0.58173202360E+02  0.58173202360E+02  0.00000000000E+00 0. -1.
          2    1    1    2  501    0 -0.18326513259E+02  0.35526505258E+02  0.44218356695E+03  0.44398682474E+03  0.00000000000E+00 0. -1.
          1    1    1    2  502    0  0.18326513259E+02 -0.35526505258E+02 -0.50296063767E+02  0.64247083160E+02  0.00000000000E+00 0. -1.
</event>
<event>
 4    1  0.3752836E+003  0.2019537E+02  0.7546771E-02  0.1531070E+00
          2   -1    0    0  502    0  0.00000000000E+00  0.00000000000E+00  0.84985147622E+02  0.84985147622E+02  0.00000000000E+00 0.  1.
          1   -1    0    0  501    0 -0.00000000000E+00 -0.00000000000E+00 -0.81332647560E+01  0.81332647560E+01  0.00000000000E+00 0.  1.
          2    1    1    2  501    0 -0.73183662606E+01 -0.18822709434E+02  0.68236227246E+02  0.71162037519E+02  0.00000000000E+00 0.  1.
          1    1    1    2  502    0  0.73183662606E+01  0.18822709434E+02  0.86156556198E+01  0.21956374858E+02  0.00000000000E+00 0.  1.
</event>
<event>
 4    1  0.3752836E+003  0.2270190E+02  0.7546771E-02  0.1496276E+00
          2   -1    0    0  502    0  0.00000000000E+00  0.00000000000E+00  0.65421436650E+01  0.65421436650E+01  0.00000000000E+00 0. -1.
          1   -1    0    0  501    0 -0.00000000000E+00 -0.00000000000E+00 -0.38211252314E+03  0.38211252314E+03  0.00000000000E+00 0.  1.
          2    1    1    2  501    0 -0.17674296677E+02 -0.14247645236E+02 -0.14644450425E+02  0.27015478638E+02  0.00000000000E+00 0. -1.
          1    1    1    2  502    0  0.17674296677E+02  0.14247645236E+02 -0.36092592905E+03  0.36163918816E+03  0.00000000000E+00 0.  1.
</event>
<event>
 4    1  0.3752836E+003  0.4911765E+02  0.7546771E-02  0.1302044E+00
          2   -1    0    0  502    0  0.00000000000E+00  0.00000000000E+00  0.41749985554E+02  0.41749985554E+02  0.00000000000E+00 0.  1.
          1   -1    0    0  501    0 -0.00000000000E+00 -0.00000000000E+00 -0.82619560777E+03  0.82619560777E+03  0.00000000000E+00 0.  1.
          2    1    1    2  501    0  0.43922502514E+02  0.21985392353E+02  0.26298522986E+02  0.55714953246E+02  0.00000000000E+00 0.  1.
          1    1    1    2  502    0 -0.43922502514E+02 -0.21985392353E+02 -0.81074414520E+03  0.81223064008E+03  0.00000000000E+00 0.  1.
</event>
<event>
 4    1  0.3752836E+003  0.2048500E+02  0.7546771E-02  0.1526746E+00
          2   -1    0    0  502    0  0.00000000000E+00  0.00000000000E+00  0.17856771034E+02  0.17856771034E+02  0.00000000000E+00 0. -1.
          1   -1    0    0  501    0 -0.00000000000E+00 -0.00000000000E+00 -0.24106867800E+03  0.24106867800E+03  0.00000000000E+00 0. -1.
          2    1    1    2  501    0 -0.19105029917E+01 -0.20395711217E+02  0.11384805981E+02  0.23436059075E+02  0.00000000000E+00 0. -1.
          1    1    1    2  502    0  0.19105029917E+01  0.20395711217E+02 -0.23459671295E+03  0.23548938996E+03  0.00000000000E+00 0. -1.
</event>
<event>
 4    1  0.3752836E+003  0.2063944E+02  0.7546771E-02  0.1524475E+00
          2   -1    0    0  502    0  0.00000000000E+00  0.00000000000E+00  0.51652810494E+01  0.51652810494E+01  0.00000000000E+00 0. -1.
          1   -1    0    0  501    0 -0.00000000000E+00 -0.00000000000E+00 -0.14932165851E+03  0.14932165851E+03  0.00000000000E+00 0. -1.
          2    1    1    2  501    0  0.18717231887E+02  0.86978061805E+01 -0.20394587035E+02  0.29015957371E+02  0.00000000000E+00 0. -1.
          1    1    1    2  502    0 -0.18717231887E+02 -0.86978061805E+01 -0.12376179043E+03  0.12547098219E+03  0.00000000000E+00 0. -1.
</event>
<event>
 4    1  0.3752836E+003  0.3375026E+02  0.7546771E-02  0.1389569E+00
          2   -1    0    0  502    0  0.00000000000E+00  0.00000000000E+00  0.79369002681E+01  0.79369002681E+01  0.00000000000E+00 0.  1.
          1   -1    0    0  501    0 -0.00000000000E+00 -0.00000000000E+00 -0.16278858076E+03  0.16278858076E+03  0.00000000000E+00 0.  1.
          2    1    1    2  501    0  0.12882937489E+02  0.31194713693E+02 -0.48055101301E+02  0.58722849060E+02  0.00000000000E+00 0.  1.
          1    1    1    2  502    0 -0.12882937489E+02 -0.31194713693E+02 -0.10679657919E+03  0.11200263197E+03  0.00000000000E+00 0.  1.
</event>
<event>
 4    1  0.3752836E+003  0.2123155E+02  0.7546771E-02  0.1515984E+00
          2   -1    0    0  502    0  0.00000000000E+00  0.00000000000E+00  0.22908491166E+02  0.22908491166E+02  0.00000000000E+00 0. -1.
          1   -1    0    0  501    0 -0.00000000000E+00 -0.00000000000E+00 -0.23104842909E+03  0.23104842909E+03  0.00000000000E+00 0.  1.
          2    1    1    2  501    0 -0.20073745277E+02 -0.69154492272E+01  0.17381092651E+02  0.27438678343E+02  0.00000000000E+00 0. -1.
          1    1    1    2  502    0  0.20073745277E+02  0.69154492272E+01 -0.22552103058E+03  0.22651824191E+03  0.00000000000E+00 0.  1.
</event>
<event>
 4    1  0.3752836E+003  0.2483865E+02  0.7546771E-02  0.1470617E+00
          2   -1    0    0  502    0  0.00000000000E+00  0.00000000000E+00  0.69305186991E+03  0.69305186991E+03  0.00000000000E+00 0. -1.
          1   -1    0    0  501    0 -0.00000000000E+00 -0.00000000000E+00 -0.17673398184E+02  0.17673398184E+02  0.00000000000E+00 0. -1.
          2    1    1    2  501    0 -0.19396232409E+02 -0.15515947166E+02  0.68398646938E+03  0.68443732272E+03  0.00000000000E+00 0. -1.
          1    1    1    2  502    0  0.19396232409E+02  0.15515947166E+02 -0.86079976527E+01  0.26287945368E+02  0.00000000000E+00 0. -1.
</event>
<event>
 4    1  0.3752836E+003  0.2663113E+02  0.7546771E-02  0.1451349E+00
          2   -1    0    0  502    0  0.00000000000E+00  0.00000000000E+00  0.48235731640E+00  0.48235731640E+00  0.00000000000E+00 0. -1.
          1   -1    0    0  501    0 -0.00000000000E+00 -0.00000000000E+00 -0.22623992571E+04  0.22623992571E+04  0.00000000000E+00 0. -1.
          2    1    1    2  501    0 -0.25028911579E+02 -0.90978337539E+01 -0.46148552138E+03  0.46225328926E+03  0.00000000000E+00 0. -1.
          1    1    1    2  502    0  0.25028911579E+02  0.90978337539E+01 -0.18004313784E+04  0.18006283252E+04  0.00000000000E+00 0. -1.
</event>
<event>
 4    1  0.3752836E+003  0.3853856E+02  0.7546771E-02  0.1357269E+00
          2   -1    0    0  502    0  0.00000000000E+00  0.00000000000E+00  0.21248332796E+01  0.21248332796E+01  0.00000000000E+00 0. -1.
          1   -1    0    0  501    0 -0.00000000000E+00 -0.00000000000E+00 -0.97925935659E+03  0.97925935659E+03  0.00000000000E+00 0.  1.
          2    1    1    2  501    0 -0.38266209938E+02  0.45736170922E+01 -0.22605234182E+03  0.22931393774E+03  0.00000000000E+00 0. -1.
          1    1    1    2  502    0  0.38266209938E+02 -0.45736170922E+01 -0.75108218148E+03  0.75207025213E+03  0.00000000000E+00 0.  1.
</event>
<event>
 4    1  0.3752836E+003  0.2637574E+02  0.7546771E-02  0.1453982E+00
          2   -1    0    0  502    0  0.00000000000E+00  0.00000000000E+00  0.13803067593E+02  0.13803067593E+02  0.00000000000E+00 0. -1.
          1   -1    0    0  501    0 -0.00000000000E+00 -0.00000000000E+00 -0.53575755585E+03  0.53575755585E+03  0.00000000000E+00 0. -1.
          2    1    1    2  501    0 -0.12598973357E+02  0.23172089255E+02  0.55918333263E+00  0.26381670457E+02  0.00000000000E+00 0. -1.
          1    1    1    2  502    0  0.12598973357E+02 -0.23172089255E+02 -0.52251367159E+03  0.52317895299E+03  0.00000000000E+00 0. -1.
</event>
<event>
 4    1  0.3752836E+003  0.2109984E+02  0.7546771E-02  0.1517844E+00
          2   -1    0    0  502    0  0.00000000000E+00  0.00000000000E+00  0.28231114067E+02  0.28231114067E+02  0.00000000000E+00 0.  1.
          1   -1    0    0  501    0 -0.00000000000E+00 -0.00000000000E+00 -0.96116288641E+02  0.96116288641E+02  0.00000000000E+00 0.  1.
          2    1    1    2  501    0  0.13316482160E+02 -0.16366877064E+02  0.22902280630E+02  0.31140292548E+02  0.00000000000E+00 0.  1.
          1    1    1    2  502    0 -0.13316482160E+02  0.16366877064E+02 -0.90787455204E+02  0.93207110160E+02  0.00000000000E+00 0.  1.
</event>
<event>
 4    1  0.3752836E+003  0.2185057E+02  0.7546771E-02  0.1507459E+00
          2   -1    0    0  502    0  0.00000000000E+00  0.00000000000E+00  0.76477020805E+02  0.76477020805E+02  0.00000000000E+00 0.  1.
          1   -1    0    0  501    0 -0.00000000000E+00 -0.00000000000E+00 -0.34708032916E+02  0.34708032916E+02  0.00000000000E+00 0. -1.
          2    1    1    2  501    0 -0.11993166429E+02 -0.18265028393E+02  0.71229585329E+02  0.74505712059E+02  0.00000000000E+00 0.  1.
          1    1    1    2  502    0  0.11993166429E+02  0.18265028393E+02 -0.29460597441E+02  0.36679341662E+02  0.00000000000E+00 0. -1.
</event>
<event>
 4    1  0.3752836E+003  0.2092582E+02  0.7546771E-02  0.1520327E+00
          2   -1    0    0  502    0  0.00000000000E+00  0.00000000000E+00  0.55343616183E+02  0.55343616183E+02  0.00000000000E+00 0.  1.
          1   -1    0    0  501    0 -0.00000000000E+00 -0.00000000000E+00 -0.34528494078E+02  0.34528494078E+02  0.00000000000E+00 0.  1.
          2    1    1    2  501    0 -0.12445107587E+02 -0.16822877182E+02  0.49860548793E+02  0.54073692545E+02  0.00000000000E+00 0.  1.
          1    1    1    2  502    0  0.12445107587E+02  0.16822877182E+02 -0.29045426688E+02  0.35798417716E+02  0.00000000000E+00 0.  1.
</event>
<event>
 4    1  0.3752836E+003  0.3377114E+02  0.7546771E-02  0.1389414E+00
          2   -1    0    0  502    0  0.00000000000E+00  0.00000000000E+00  0.25037071482E+03  0.25037071482E+03  0.00000000000E+00 0. -1.
          1   -1    0    0  501    0 -0.00000000000E+00 -0.00000000000E+00 -0.13294757508E+02  0.13294757508E+02  0.00000000000E+00 0. -1.
          2    1    1    2  501    0 -0.32426181974E+02  0.94357259158E+01  0.22542565280E+03  0.22794125371E+03  0.00000000000E+00 0. -1.
          1    1    1    2  502    0  0.32426181974E+02 -0.94357259158E+01  0.11650304513E+02  0.35724218623E+02  0.00000000000E+00 0. -1.
</event>
<event>
 4    1  0.3752836E+003  0.2428783E+02  0.7546771E-02  0.1476930E+00
          2   -1    0    0  502    0  0.00000000000E+00  0.00000000000E+00  0.21217652610E+02  0.21217652610E+02  0.00000000000E+00 0. -1.
          1   -1    0    0  501    0 -0.00000000000E+00 -0.00000000000E+00 -0.10147832245E+04  0.10147832245E+04  0.00000000000E+00 0.  1.
          2    1    1    2  501    0  0.49080377258E+01  0.23786758809E+02  0.14072481543E+02  0.28070152577E+02  0.00000000000E+00 0. -1.
          1    1    1    2  502    0 -0.49080377258E+01 -0.23786758809E+02 -0.10076380534E+04  0.10079307245E+04  0.00000000000E+00 0.  1.
</event>
<event>
 4    1  0.3752836E+003  0.2028774E+02  0.7546771E-02  0.1529682E+00
          2   -1    0    0  502    0  0.00000000000E+00  0.00000000000E+00  0.17094704689E+02  0.17094704689E+02  0.00000000000E+00 0.  1.
          1   -1    0    0  501    0 -0.00000000000E+00 -0.00000000000E+00 -0.36652178863E+02  0.36652178863E+02  0.00000000000E+00 0.  1.
          2    1    1    2  501    0 -0.19905645215E+02 -0.39188655362E+01  0.59620858681E+01  0.21145654078E+02  0.00000000000E+00 0.  1.
          1    1    1    2  502    0  0.19905645215E+02  0.39188655362E+01 -0.25519560042E+02  0.32601229474E+02  0.00000000000E+00 0.  1.
</event>
<event>
 4    1  0.3752836E+003  0.5727833E+02  0.7546771E-02  0.1269371E+00
          2   -1    0    0  502    0  0.00000000000E+00  0.00000000000E+00  0.67980067712E+03  0.67980067712E+03  0.00000000000E+00 0. -1.
          1   -1    0    0  501    0 -0.00000000000E+00 -0.00000000000E+00 -0.24708275066E+02  0.24708275066E+02  0.00000000000E+00 0. -1.
          2    1    1    2  501    0 -0.29351548363E+02  0.49186312687E+02  0.64353153132E+03  0.64607556722E+03  0.00000000000E+00 0. -1.
          1    1    1    2  502    0  0.29351548363E+02 -0.49186312687E+02  0.11560870732E+02  0.58433384971E+02  0.00000000000E+00 0. -1.
</event>
<event>
 4    1  0.3752836E+003  0.2074156E+02  0.7546771E-02  0.1522987E+00
          2   -1    0    0  502    0  0.00000000000E+00  0.00000000000E+00  0.18528585253E+03  0.18528585253E+03  0.00000000000E+00 0. -1.
          1   -1    0    0  501    0 -0.00000000000E+00 -0.00000000000E+00 -0.53307783324E+03  0.53307783324E+03  0.00000000000E+00 0. -1.
          2    1    1    2  501    0 -0.20679223775E+02 -0.16068738930E+01  0.18450276910E+03  0.18566497824E+03  0.00000000000E+00 0. -1.
          1    1    1    2  502    0  0.20679223775E+02  0.16068738930E+01 -0.53229474980E+03  0.53269870753E+03  0.00000000000E+00 0. -1.
</event>
<event>
 4    1  0.3752836E+003  0.2543210E+02  0.7546771E-02  0.1464027E+00
          2   -1    0    0  502    0  0.00000000000E+00  0.00000000000E+00  0.22942585638E+03  0.22942585638E+03  0.00000000000E+00 0. -1.
          1   -1    0    0  501    0 -0.00000000000E+00 -0.00000000000E+00 -0.21383984208E+03  0.21383984208E+03  0.00000000000E+00 0.  1.
          2    1    1    2  501    0 -0.11203575285E+02 -0.22831377136E+02  0.22796005129E+03  0.22937431605E+03  0.00000000000E+00 0. -1.
          1    1    1    2  502    0  0.11203575285E+02  0.22831377136E+02 -0.21237403699E+03  0.21389138241E+03  0.00000000000E+00 0.  1.
</event>
<event>
 4    1  0.3752836E+003  0.3230217E+02  0.7546771E-02  0.1400591E+00
          2   -1    0    0  502    0  0.00000000000E+00  0.00000000000E+00  0.50124262160E+03  0.50124262160E+03  0.00000000000E+00 0.  1.
          1   -1    0    0  501    0 -0.00000000000E+00 -0.00000000000E+00 -0.45439910177E+01  0.45439910177E+01  0.00000000000E+00 0.  1.
          2    1    1    2  501    0 -0.12750367013E+02 -0.29679260023E+02  0.43451062434E+03  0.43570966595E+03  0.00000000000E+00 0.  1.
          1    1    1    2  502    0  0.12750367013E+02  0.29679260023E+02  0.62188006246E+02  0.70076946675E+02  0.00000000000E+00 0.  1.
</event>
<event>
 4    1  0.3752836E+003  0.2473143E+02  0.7546771E-02  0.1471830E+00
          2   -1    0    0  502    0  0.00000000000E+00  0.00000000000E+00  0.37844348831E+03  0.37844348831E+03  0.00000000000E+00 0. -1.
          1   -1    0    0  501    0 -0.00000000000E+00 -0.00000000000E+00 -0.61697877650E+01  0.61697877650E+01  0.00000000000E+00 0.  1.
          2    1    1    2  501    0  0.14174407164E+02  0.20266475317E+02  0.35134656486E+03  0.35221591741E+03  0.00000000000E+00 0. -1.
          1    1    1    2  502    0 -0.14174407164E+02 -0.20266475317E+02  0.20927135682E+02  0.32397358659E+02  0.00000000000E+00 0.  1.
</event>
<event>
 4    1  0.3752836E+003  0.2360869E+02  0.7546771E-02  0.1484993E+00
          2   -1    0    0  502    0  0.00000000000E+00  0.00000000000E+00  0.58097025641E+03  0.58097025641E+03  0.00000000000E+00 0.  1.
          1   -1    0    0  501    0 -0.00000000000E+00 -0.00000000000E+00 -0.14301549076E+01  0.14301549076E+01  0.00000000000E+00 0.  1.
          2    1    1    2  501    0  0.21750318595E+02  0.91811623374E+01  0.45684359991E+03  0.45745321605E+03  0.00000000000E+00 0.  1.
          1    1    1    2  502    0 -0.21750318595E+02 -0.91811623374E+01  0.12269650159E+03  0.12494719526E+03  0.00000000000E+00 0.  1.
</event>
<event>
 4    1  0.3752836E+003  0.2139175E+02  0.7546771E-02  0.1513745E+00
          2   -1    0    0  502    0  0.00000000000E+00  0.00000000000E+00  0.88044302917E+02  0.88044302917E+02  0.00000000000E+00 0. -1.
          1   -1    0    0  501    0 -0.00000000000E+00 -0.00000000000E+00 -0.18252188607E+03  0.18252188607E+03  0.00000000000E+00 0.  1.
          2    1    1    2  501    0  0.38143940501E+01 -0.21048931432E+02  0.86104241995E+02  0.88721742577E+02  0.00000000000E+00 0. -1.
          1    1    1    2  502    0 -0.38143940501E+01  0.21048931432E+02 -0.18058182514E+03  0.18184444641E+03  0.00000000000E+00 0.  1.
</event>
<event>
 4    1  0.3752836E+003  0.2081301E+02  0.7546771E-02  0.1521951E+00
          2   -1    0    0  502    0  0.00000000000E+00  0.00000000000E+00  0.13973713644E+04  0.13973713644E+04  0.00000000000E+00 0. -1.
          1   -1    0    0  501    0 -0.00000000000E+00 -0.00000000000E+00 -0.95830105132E+00  0.95830105132E+00  0.00000000000E+00 0. -1.
          2    1    1    2  501    0 -0.45746421944E+01  0.20304040623E+02  0.12732727346E+04  0.12734428288E+04  0.00000000000E+00 0. -1.
          1    1    1    2  502    0  0.45746421944E+01 -0.20304040623E+02  0.12314032866E+03  0.12488683661E+03  0.00000000000E+00 0. -1.
</event>
<event>
 4    1  0.3752836E+003  0.2286753E+02  0.7546771E-02  0.1494168E+00
          2   -1    0    0  502    0  0.00000000000E+00  0.00000000000E+00  0.39088448347E+03  0.39088448347E+03  0.00000000000E+00 0. -1.
          1   -1    0    0  501    0 -0.00000000000E+00 -0.00000000000E+00 -0.18545594903E+03  0.18545594903E+03  0.00000000000E+00 0.  1.
          2    1    1    2  501    0 -0.94680079984E+01 -0.20815399033E+02  0.38984323635E+03  0.39051334541E+03  0.00000000000E+00 0. -1.
          1    1    1    2  502    0  0.94680079984E+01  0.20815399033E+02 -0.18441470191E+03  0.18582708708E+03  0.00000000000E+00 0.  1.
</event>
<event>
 4    1  0.3752836E+003  0.5612587E+02  0.7546771E-02  0.1273596E+00
          2   -1    0    0  502    0  0.00000000000E+00  0.00000000000E+00  0.65608262431E+02  0.65608262431E+02  0.00000000000E+00 0.  1.
          1   -1    0    0  501    0 -0.00000000000E+00 -0.00000000000E+00 -0.42442890897E+03  0.42442890897E+03  0.00000000000E+00 0. -1.
          2    1    1    2  501    0 -0.28777086023E+02 -0.48187064152E+02  0.51333439071E+02  0.76060737562E+02  0.00000000000E+00 0.  1.
          1    1    1    2  502    0  0.28777086023E+02  0.48187064152E+02 -0.41015408561E+03  0.41397643384E+03  0.00000000000E+00 0. -1.
</event>
<event>
 4    1  0.3752836E+003  0.3415051E+02  0.7546771E-02  0.1386636E+00
          2   -1    0    0  502    0  0.00000000000E+00  0.00000000000E+00  0.57112662082E+03  0.57112662082E+03  0.00000000000E+00 0.  1.
          1   -1    0    0  501    0 -0.00000000000E+00 -0.00000000000E+00 -0.20948755315E+01  0.20948755315E+01  0.00000000000E+00 0.  1.
          2    1    1    2  501    0 -0.12795723982E+02 -0.31662681505E+02  0.23899296190E+03  0.24142057035E+03  0.00000000000E+00 0.  1.
          1    1    1    2  502    0  0.12795723982E+02  0.31662681505E+02  0.33003878338E+03  0.33180092599E+03  0.00000000000E+00 0.  1.
</event>
<event>
 4    1  0.3752836E+003  0.2032469E+02  0.7546771E-02  0.1529129E+00
          2   -1    0    0  502    0  0.00000000000E+00  0.00000000000E+00  0.10940796629E+03  0.10940796629E+03  0.00000000000E+00 0.  1.
          1   -1    0    0  501    0 -0.00000000000E+00 -0.00000000000E+00 -0.58709576759E+01  0.58709576759E+01  0.00000000000E+00 0.  1.
          2    1    1    2  501    0 -0.19319427300E+02  0.63128902877E+01  0.86202151891E+02  0.88565816462E+02  0.00000000000E+00 0.  1.
          1    1    1    2  502    0  0.19319427300E+02 -0.63128902877E+01  0.17334856728E+02  0.26713107509E+02  0.00000000000E+00 0.  1.
</event>
<event>
 4    1  0.3752836E+003  0.2427067E+02  0.7546771E-02  0.1477130E+00
          2   -1    0    0  502    0  0.00000000000E+00  0.00000000000E+00  0.15431252972E+01  0.15431252972E+01  0.00000000000E+00 0. -1.
          1   -1    0    0  501    0 -0.00000000000E+00 -0.00000000000E+00 -0.48067576808E+03  0.48067576808E+03  0.00000000000E+00 0.  1.
          2    1    1    2  501    0 -0.46530489497E+01 -0.23820463910E+02 -0.13017694690E+03  0.13242017546E+03  0.00000000000E+00 0. -1.
          1    1    1    2  502    0  0.46530489497E+01  0.23820463910E+02 -0.34895569589E+03  0.34979871792E+03  0.00000000000E+00 0.  1.
</event>
<event>
 4    1  0.3752836E+003  0.2883335E+02  0.7546771E-02  0.1430013E+00
          2   -1    0    0  502    0  0.00000000000E+00  0.00000000000E+00  0.13621162166E+04  0.13621162166E+04  0.00000000000E+00 0.  1.
          1   -1    0    0  501    0 -0.00000000000E+00 -0.00000000000E+00 -0.10962022670E+02  0.10962022670E+02  0.00000000000E+00 0.  1.
          2    1    1    2  501    0 -0.27346544171E+02 -0.91393886255E+01  0.13427298683E+04  0.13430394116E+04  0.00000000000E+00 0.  1.
          1    1    1    2  502    0  0.27346544171E+02  0.91393886255E+01  0.84243255725E+01  0.30038827606E+02  0.00000000000E+00 0.  1.
</event>
<event>
 4    1  0.3752836E+003  0.2171800E+02  0.7546771E-02  0.1509256E+00
          2   -1    0    0  502    0  0.00000000000E+00  0.00000000000E+00  0.22888921747E+03  0.22888921747E+03  0.00000000000E+00 0. -1.
          1   -1    0    0  501    0 -0.00000000000E+00 -0.00000000000E+00 -0.45918023102E+01  0.45918023102E+01  0.00000000000E+00 0.  1.
          2    1    1    2  501    0 -0.19975703927E+02 -0.85230672718E+01  0.19882195426E+03  0.20000460224E+03  0.00000000000E+00 0. -1.
          1    1    1    2  502    0  0.19975703927E+02  0.85230672718E+01  0.25475460906E+02  0.33476417542E+02  0.00000000000E+00 0.  1.
</event>
<event>
 4    1  0.3752836E+003  0.4120799E+02  0.7546771E-02  0.1341549E+00
          2   -1    0    0  502    0  0.00000000000E+00  0.00000000000E+00  0.60972379838E+01  0.60972379838E+01  0.00000000000E+00 0. -1.
          1   -1    0    0  501    0 -0.00000000000E+00 -0.00000000000E+00 -0.66355478482E+03  0.66355478482E+03  0.00000000000E+00 0. -1.
          2    1    1    2  501    0 -0.10693681824E+02  0.39796278883E+02 -0.73669917897E+02  0.84411820540E+02  0.00000000000E+00 0. -1.
          1    1    1    2  502    0  0.10693681824E+02 -0.39796278883E+02 -0.58378762894E+03  0.58524020227E+03  0.00000000000E+00 0. -1.
</event>
<event>
 4    1  0.3752836E+003  0.2313833E+02  0.7546771E-02  0.1490768E+00
          2   -1    0    0  502    0  0.00000000000E+00  0.00000000000E+00  0.15382657177E+04  0.15382657177E+04  0.00000000000E+00 0. -1.
          1   -1    0    0  501    0 -0.00000000000E+00 -0.00000000000E+00 -0.74345060181E+00  0.74345060181E+00  0.00000000000E+00 0.  1.
          2    1    1    2  501    0  0.11641363981E+02 -0.19996527367E+02  0.13299482791E+04  0.13301495433E+04  0.00000000000E+00 0. -1.
          1    1    1    2  502    0 -0.11641363981E+02  0.19996527367E+02  0.20757398798E+03  0.20885962498E+03  0.00000000000E+00 0.  1.
</event>
<event>
 4    1  0.3752836E+003  0.2005177E+02  0.7546771E-02  0.1533246E+00
          2   -1    0    0  502    0  0.00000000000E+00  0.00000000000E+00  0.10763567442E+03  0.10763567442E+03  0.00000000000E+00 0.  1.
          1   -1    0    0  501    0 -0.00000000000E+00 -0.00000000000E+00 -0.86938923617E+01  0.86938923617E+01  0.00000000000E+00 0.  1.
          2    1    1    2  501    0 -0.20047461439E+02 -0.41554967840E+00  0.93397056811E+02  0.95525303521E+02  0.00000000000E+00 0.  1.
          1    1    1    2  502    0  0.20047461439E+02  0.41554967840E+00  0.55447252439E+01  0.20804263258E+02  0.00000000000E+00 0.  1.
</event>
<event>
 4    1  0.3752836E+003  0.6432205E+02  0.7546771E-02  0.1245815E+00
          2   -1    0    0  502    0  0.00000000000E+00  0.00000000000E+00  0.10172590497E+04  0.10172590497E+04  0.00000000000E+00 0.  1.
          1   -1    0    0  501    0 -0.00000000000E+00 -0.00000000000E+00 -0.12012475064E+04  0.12012475064E+04  0.00000000000E+00 0. -1.
          2    1    1    2  501    0 -0.62657413963E+02 -0.14538709865E+02  0.10153796271E+04  0.10174149167E+04  0.00000000000E+00 0.  1.
          1    1    1    2  502    0  0.62657413963E+02  0.14538709865E+02 -0.11993680839E+04  0.12010916394E+04  0.00000000000E+00 0. -1.
</event>
<event>
 4    1  0.3752836E+003  0.2562819E+02  0.7546771E-02  0.1461897E+00
          2   -1    0    0  502    0  0.00000000000E+00  0.00000000000E+00  0.50998914857E+03  0.50998914857E+03  0.00000000000E+00 0.  1.
          1   -1    0    0  501    0 -0.00000000000E+00 -0.00000000000E+00 -0.28125634112E+01  0.28125634112E+01  0.00000000000E+00 0.  1.
          2    1    1    2  501    0 -0.29826282079E+01 -0.25454036459E+02  0.44236932862E+03  0.44311107744E+03  0.00000000000E+00 0.  1.
          1    1    1    2  502    0  0.29826282079E+01  0.25454036459E+02  0.64807256530E+02  0.69690634536E+02  0.00000000000E+00 0.  1.
</event>
<event>
 4    1  0.3752836E+003  0.1914550E+03  0.7546771E-02  0.1061366E+00
          2   -1    0    0  502    0  0.00000000000E+00  0.00000000000E+00  0.10819742875E+04  0.10819742875E+04  0.00000000000E+00 0.  1.
          1   -1    0    0  501    0 -0.00000000000E+00 -0.00000000000E+00 -0.60602083210E+02  0.60602083210E+02  0.00000000000E+00 0. -1.
          2    1    1    2  501    0  0.19144157049E+03  0.22647469058E+01  0.89005679850E+03  0.91041534947E+03  0.00000000000E+00 0.  1.
          1    1    1    2  502    0 -0.19144157049E+03 -0.22647469058E+01  0.13131540581E+03  0.23216102126E+03  0.00000000000E+00 0. -1.
</event>
<event>
 4    1  0.3752836E+003  0.2222985E+02  0.7546771E-02  0.1502402E+00
          2   -1    0    0  502    0  0.00000000000E+00  0.00000000000E+00  0.27294529441E+03  0.27294529441E+03  0.00000000000E+00 0.  1.
          1   -1    0    0  501    0 -0.00000000000E+00 -0.00000000000E+00 -0.63388931179E+02  0.63388931179E+02  0.00000000000E+00 0. -1.
          2    1    1    2  501    0 -0.82881620268E+01  0.20626981842E+02  0.27052632878E+03  0.27143813397E+03  0.00000000000E+00 0.  1.
          1    1    1    2  502    0  0.82881620268E+01 -0.20626981842E+02 -0.60969965544E+02  0.64896091625E+02  0.00000000000E+00 0. -1.
</event>
<event>
 4    1  0.3752836E+003  0.2057928E+02  0.7546771E-02  0.1525357E+00
          2   -1    0    0  502    0  0.00000000000E+00  0.00000000000E+00  0.68958011181E+02  0.68958011181E+02  0.00000000000E+00 0. -1.
          1   -1    0    0  501    0 -0.00000000000E+00 -0.00000000000E+00 -0.19947678114E+02  0.19947678114E+02  0.00000000000E+00 0. -1.
          2    1    1    2  501    0 -0.53884098028E+01 -0.19861315193E+02  0.61487120169E+02  0.64839592442E+02  0.00000000000E+00 0. -1.
          1    1    1    2  502    0  0.53884098028E+01  0.19861315193E+02 -0.12476787102E+02  0.24066096854E+02  0.00000000000E+00 0. -1.
</event>
<event>
 4    1  0.3752836E+003  0.4165525E+02  0.7546771E-02  0.1339050E+00
          2   -1    0    0  502    0  0.00000000000E+00  0.00000000000E+00  0.29218101524E+02  0.29218101524E+02  0.00000000000E+00 0. -1.
          1   -1    0    0  501    0 -0.00000000000E+00 -0.00000000000E+00 -0.45455321167E+03  0.45455321167E+03  0.00000000000E+00 0. -1.
          2    1    1    2  501    0 -0.41348212225E+02 -0.50483058919E+01  0.12864325545E+02  0.43596455341E+02  0.00000000000E+00 0. -1.
          1    1    1    2  502    0  0.41348212225E+02  0.50483058919E+01 -0.43819943569E+03  0.44017485786E+03  0.00000000000E+00 0. -1.
</event>
<event>
 4    1  0.3752836E+003  0.2139087E+02  0.7546771E-02  0.1513757E+00
          2   -1    0    0  502    0  0.00000000000E+00  0.00000000000E+00  0.12662014597E+04  0.12662014597E+04  0.00000000000E+00 0.  1.
          1   -1    0    0  501    0 -0.00000000000E+00 -0.00000000000E+00 -0.96235196320E+01  0.96235196320E+01  0.00000000000E+00 0.  1.
          2    1    1    2  501    0 -0.20041348795E+02 -0.74775541782E+01  0.12541097674E+04  0.12542921822E+04  0.00000000000E+00 0.  1.
          1    1    1    2  502    0  0.20041348795E+02  0.74775541782E+01  0.24681726476E+01  0.21532797176E+02  0.00000000000E+00 0.  1.
</event>
<event>
 4    1  0.3752836E+003  0.2686096E+02  0.7546771E-02  0.1449010E+00
          2   -1    0    0  502    0  0.00000000000E+00  0.00000000000E+00  0.38041702565E+02  0.38041702565E+02  0.00000000000E+00 0.  1.
          1   -1    0    0  501    0 -0.00000000000E+00 -0.00000000000E+00 -0.19441486120E+02  0.19441486120E+02  0.00000000000E+00 0.  1.
          2    1    1    2  501    0  0.15643979892E+02  0.21835213202E+02  0.48067151998E+01  0.27287637373E+02  0.00000000000E+00 0.  1.
          1    1    1    2  502    0 -0.15643979892E+02 -0.21835213202E+02  0.13793501245E+02  0.30195551312E+02  0.00000000000E+00 0.  1.
</event>
<event>
 4    1  0.3752836E+003  0.4131916E+02  0.7546771E-02  0.1340924E+00
          2   -1    0    0  502    0  0.00000000000E+00  0.00000000000E+00  0.22629882764E+02  0.22629882764E+02  0.00000000000E+00 0.  1.
          1   -1    0    0  501    0 -0.00000000000E+00 -0.00000000000E+00 -0.11621928376E+03  0.11621928376E+03  0.00000000000E+00 0.  1.
          2    1    1    2  501    0 -0.60438617381E+00 -0.41314740664E+02 -0.56724951444E+01  0.41706717444E+02  0.00000000000E+00 0.  1.
          1    1    1    2  502    0  0.60438617381E+00  0.41314740664E+02 -0.87916905852E+02  0.97142449081E+02  0.00000000000E+00 0.  1.
</event>
<event>
 4    1  0.3752836E+003  0.2242693E+02  0.7546771E-02  0.1499822E+00
          2   -1    0    0  502    0  0.00000000000E+00  0.00000000000E+00  0.60722848493E+02  0.60722848493E+02  0.00000000000E+00 0.  1.
          1   -1    0    0  501    0 -0.00000000000E+00 -0.00000000000E+00 -0.38174598772E+02  0.38174598772E+02  0.00000000000E+00 0. -1.
          2    1    1    2  501    0  0.58478943114E+01  0.21651078069E+02  0.55030612542E+02  0.59425039892E+02  0.00000000000E+00 0.  1.
          1    1    1    2  502    0 -0.58478943114E+01 -0.21651078069E+02 -0.32482362821E+02  0.39472407373E+02  0.00000000000E+00 0. -1.
</event>
<event>
 4    1  0.3752836E+003  0.4120342E+02  0.7546771E-02  0.1341575E+00
          2   -1    0    0  502    0  0.00000000000E+00  0.00000000000E+00  0.18370392246E+04  0.18370392246E+04  0.00000000000E+00 0.  1.
          1   -1    0    0  501    0 -0.00000000000E+00 -0.00000000000E+00 -0.10451412016E+01  0.10451412016E+01  0.00000000000E+00 0.  1.
          2    1    1    2  501    0  0.37855865677E+02 -0.16268226412E+02  0.12306794175E+04  0.12313689741E+04  0.00000000000E+00 0.  1.
          1    1    1    2  502    0 -0.37855865677E+02  0.16268226412E+02  0.60531466589E+03  0.60671539168E+03  0.00000000000E+00 0.  1.
</event>
<event>
 4    1  0.3752836E+003  0.2189501E+02  0.7546771E-02  0.1506860E+00
          2   -1    0    0  502    0  0.00000000000E+00  0.00000000000E+00  0.13743536519E+03  0.13743536519E+03  0.00000000000E+00 0. -1.
          1   -1    0    0  501    0 -0.00000000000E+00 -0.00000000000E+00 -0.81808397863E+02  0.81808397863E+02  0.00000000000E+00 0. -1.
          2    1    1    2  501    0 -0.21884207449E+02 -0.68771484983E+00  0.13507289498E+03  0.13683595451E+03  0.00000000000E+00 0. -1.
          1    1    1    2  502    0  0.21884207449E+02  0.68771484983E+00 -0.79445927657E+02  0.82407808542E+02  0.00000000000E+00 0. -1.
</event>
<event>
 4    1  0.3752836E+003  0.2252534E+02  0.7546771E-02  0.1498546E+00
          2   -1    0    0  502    0  0.00000000000E+00  0.00000000000E+00  0.77888242730E+02  0.77888242730E+02  0.00000000000E+00 0.  1.
          1   -1    0    0  501    0 -0.00000000000E+00 -0.00000000000E+00 -0.56520749595E+02  0.56520749595E+02  0.00000000000E+00 0. -1.
          2    1    1    2  501    0  0.62637576070E+01  0.21636924590E+02  0.73896858753E+02  0.77253717701E+02  0.00000000000E+00 0.  1.
          1    1    1    2  502    0 -0.62637576070E+01 -0.21636924590E+02 -0.52529365618E+02  0.57155274623E+02  0.00000000000E+00 0. -1.
</event>
<event>
 4    1  0.3752836E+003  0.2659040E+02  0.7546771E-02  0.1451767E+00
          2   -1    0    0  502    0  0.00000000000E+00  0.00000000000E+00  0.17040663841E+04  0.17040663841E+04  0.00000000000E+00 0. -1.
          1   -1    0    0  501    0 -0.00000000000E+00 -0.00000000000E+00 -0.18784952396E+01  0.18784952396E+01  0.00000000000E+00 0. -1.
          2    1    1    2  501    0 -0.94512890561E+01 -0.24854023675E+02  0.16039945368E+04  0.16042149243E+04  0.00000000000E+00 0. -1.
          1    1    1    2  502    0  0.94512890561E+01  0.24854023675E+02  0.98193352088E+02  0.10172995504E+03  0.00000000000E+00 0. -1.
</event>
<event>
 4    1  0.3752836E+003  0.2233354E+02  0.7546771E-02  0.1501041E+00
          2   -1    0    0  502    0  0.00000000000E+00  0.00000000000E+00  0.82108114746E+02  0.82108114746E+02  0.00000000000E+00 0.  1.
          1   -1    0    0  501    0 -0.00000000000E+00 -0.00000000000E+00 -0.11037252805E+02  0.11037252805E+02  0.00000000000E+00 0.  1.
          2    1    1    2  501    0  0.21991968169E+02  0.38910549964E+01  0.66763906082E+02  0.70400327615E+02  0.00000000000E+00 0.  1.
          1    1    1    2  502    0 -0.21991968169E+02 -0.38910549964E+01  0.43069558596E+01  0.22745039937E+02  0.00000000000E+00 0.  1.
</event>
<event>
 4    1  0.3752836E+003  0.2343462E+02  0.7546771E-02  0.1487112E+00
          2   -1    0    0  502    0  0.00000000000E+00  0.00000000000E+00  0.10508325275E+01  0.10508325275E+01  0.00000000000E+00 0. -1.
          1   -1    0    0  501    0 -0.00000000000E+00 -0.00000000000E+00 -0.96775944790E+03  0.96775944790E+03  0.00000000000E+00 0. -1.
          2    1    1    2  501    0 -0.22230009479E+02 -0.74167361111E+01 -0.15482410435E+03  0.15658762590E+03  0.00000000000E+00 0. -1.
          1    1    1    2  502    0  0.22230009479E+02  0.74167361111E+01 -0.81188451102E+03  0.81222265453E+03  0.00000000000E+00 0. -1.
</event>
<event>
 4    1  0.3752836E+003  0.2461697E+02  0.7546771E-02  0.1473134E+00
          2   -1    0    0  502    0  0.00000000000E+00  0.00000000000E+00  0.15504307525E+04  0.15504307525E+04  0.00000000000E+00 0. -1.
          1   -1    0    0  501    0 -0.00000000000E+00 -0.00000000000E+00 -0.48732020882E+00  0.48732020882E+00  0.00000000000E+00 0. -1.
          2    1    1    2  501    0 -0.51502895133E+01  0.24072173925E+02  0.11199842969E+04  0.11202548015E+04  0.00000000000E+00 0. -1.
          1    1    1    2  502    0  0.51502895133E+01 -0.24072173925E+02  0.42995913542E+03  0.43066327121E+03  0.00000000000E+00 0. -1.
</event>
<event>
 4    1  0.3752836E+003  0.2049233E+02  0.7546771E-02  0.1526638E+00
          2   -1    0    0  502    0  0.00000000000E+00  0.00000000000E+00  0.81054875650E+02  0.81054875650E+02  0.00000000000E+00 0.  1.
          1   -1    0    0  501    0 -0.00000000000E+00 -0.00000000000E+00 -0.62763628846E+01  0.62763628846E+01  0.00000000000E+00 0.  1.
          2    1    1    2  501    0  0.15261230115E+02 -0.13675914419E+02  0.55631906166E+02  0.59286126231E+02  0.00000000000E+00 0.  1.
          1    1    1    2  502    0 -0.15261230115E+02  0.13675914419E+02  0.19146606599E+02  0.28045112303E+02  0.00000000000E+00 0.  1.
</event>
<event>
 4    1  0.3752836E+003  0.3341561E+02  0.7546771E-02  0.1392058E+00
          2   -1    0    0  502    0  0.00000000000E+00  0.00000000000E+00  0.40923560277E+01  0.40923560277E+01  0.00000000000E+00 0. -1.
          1   -1    0    0  501    0 -0.00000000000E+00 -0.00000000000E+00 -0.29027292242E+03  0.29027292242E+03  0.00000000000E+00 0. -1.
          2    1    1    2  501    0  0.18333231415E+02  0.27937356333E+02 -0.10703225995E+03  0.11212719529E+03  0.00000000000E+00 0. -1.
          1    1    1    2  502    0 -0.18333231415E+02 -0.27937356333E+02 -0.17914830644E+03  0.18223808316E+03  0.00000000000E+00 0. -1.
</event>
<event>
 4    1  0.3752836E+003  0.3538817E+02  0.7546771E-02  0.1377855E+00
          2   -1    0    0  502    0  0.00000000000E+00  0.00000000000E+00  0.94783561072E+02  0.94783561072E+02  0.00000000000E+00 0. -1.
          1   -1    0    0  501    0 -0.00000000000E+00 -0.00000000000E+00 -0.11697347599E+04  0.11697347599E+04  0.00000000000E+00 0. -1.
          2    1    1    2  501    0  0.35370059129E+02  0.11319725125E+01  0.91202658746E+02  0.97827641323E+02  0.00000000000E+00 0. -1.
          1    1    1    2  502    0 -0.35370059129E+02 -0.11319725125E+01 -0.11661538576E+04  0.11666906797E+04  0.00000000000E+00 0. -1.
</event>
<event>
 4    1  0.3752836E+003  0.5368334E+02  0.7546771E-02  0.1282947E+00
          2   -1    0    0  502    0  0.00000000000E+00  0.00000000000E+00  0.15001155963E+02  0.15001155963E+02  0.00000000000E+00 0. -1.
          1   -1    0    0  501    0 -0.00000000000E+00 -0.00000000000E+00 -0.90854493930E+03  0.90854493930E+03  0.00000000000E+00 0. -1.
          2    1    1    2  501    0 -0.94432199281E+01  0.52846257572E+02 -0.36715900751E+02  0.65038132737E+02  0.00000000000E+00 0. -1.
          1    1    1    2  502    0  0.94432199281E+01 -0.52846257572E+02 -0.85682788259E+03  0.85850796253E+03  0.00000000000E+00 0. -1.
</event>
<event>
 4    1  0.3752836E+003  0.2120811E+02  0.7546771E-02  0.1516314E+00
          2   -1    0    0  502    0  0.00000000000E+00  0.00000000000E+00  0.40706493203E+01  0.40706493203E+01  0.00000000000E+00 0.  1.
          1   -1    0    0  501    0 -0.00000000000E+00 -0.00000000000E+00 -0.23598252647E+03  0.23598252647E+03  0.00000000000E+00 0.  1.
          2    1    1    2  501    0 -0.16232372005E+02 -0.13648964642E+02 -0.28429596823E+02  0.35468663806E+02  0.00000000000E+00 0.  1.
          1    1    1    2  502    0  0.16232372005E+02  0.13648964642E+02 -0.20348228033E+03  0.20458451199E+03  0.00000000000E+00 0.  1.
</event>
<event>
 4    1  0.3752836E+003  0.2339174E+02  0.7546771E-02  0.1487637E+00
          2   -1    0    0  502    0  0.00000000000E+00  0.00000000000E+00  0.16158426649E+02  0.16158426649E+02  0.00000000000E+00 0.  1.
          1   -1    0    0  501    0 -0.00000000000E+00 -0.00000000000E+00 -0.11176195969E+04  0.11176195969E+04  0.00000000000E+00 0.  1.
          2    1    1    2  501    0 -0.23231635939E+02  0.27321175256E+01  0.75042124554E+01  0.24565963835E+02  0.00000000000E+00 0.  1.
          1    1    1    2  502    0  0.23231635939E+02 -0.27321175256E+01 -0.11089653827E+04  0.11092120597E+04  0.00000000000E+00 0.  1.
</event>
<event>
 4    1  0.3752836E+003  0.4787991E+02  0.7546771E-02  0.1307636E+00
          2   -1    0    0  502    0  0.00000000000E+00  0.00000000000E+00  0.49672505530E+03  0.49672505530E+03  0.00000000000E+00 0.  1.
          1   -1    0    0  501    0 -0.00000000000E+00 -0.00000000000E+00 -0.17694230744E+03  0.17694230744E+03  0.00000000000E+00 0.  1.
          2    1    1    2  501    0  0.47377456634E+02  0.69182540472E+01  0.49230320100E+03  0.49462604799E+03  0.00000000000E+00 0.  1.
          1    1    1    2  502    0 -0.47377456634E+02 -0.69182540472E+01 -0.17252045314E+03  0.17904131475E+03  0.00000000000E+00 0.  1.
</event>
<event>
 4    1  0.3752836E+003  0.2082805E+02  0.7546771E-02  0.1521734E+00
          2   -1    0    0  502    0  0.00000000000E+00  0.00000000000E+00  0.92793225924E+00  0.92793225924E+00  0.00000000000E+00 0.  1.
          1   -1    0    0  501    0 -0.00000000000E+00 -0.00000000000E+00 -0.59428704800E+03  0.59428704800E+03  0.00000000000E+00 0. -1.
          2    1    1    2  501    0 -0.67139760391E+01  0.19716245272E+02 -0.15921708680E+03  0.16057362340E+03  0.00000000000E+00 0.  1.
          1    1    1    2  502    0  0.67139760391E+01 -0.19716245272E+02 -0.43414202894E+03  0.43464135686E+03  0.00000000000E+00 0. -1.
</event>
<event>
 4    1  0.3752836E+003  0.3460945E+02  0.7546771E-02  0.1383330E+00
          2   -1    0    0  502    0  0.00000000000E+00  0.00000000000E+00  0.12412504288E+03  0.12412504288E+03  0.00000000000E+00 0. -1.
          1   -1    0    0  501    0 -0.00000000000E+00 -0.00000000000E+00 -0.18076953536E+02  0.18076953536E+02  0.00000000000E+00 0. -1.
          2    1    1    2  501    0  0.33952469189E+01  0.34442504525E+02  0.10156931135E+03  0.10730395532E+03  0.00000000000E+00 0. -1.
          1    1    1    2  502    0 -0.33952469189E+01 -0.34442504525E+02  0.44787779889E+01  0.34898041090E+02  0.00000000000E+00 0. -1.
</event>
<event>
 4    1  0.3752836E+003  0.7455463E+02  0.7546771E-02  0.1217087E+00
          2   -1    0    0  502    0  0.00000000000E+00  0.00000000000E+00  0.10807390963E+02  0.10807390963E+02  0.00000000000E+00 0. -1.
          1   -1    0    0  501    0 -0.00000000000E+00 -0.00000000000E+00 -0.14299996418E+04  0.14299996418E+04  0.00000000000E+00 0.  1.
          2    1    1    2  501    0 -0.67981003693E+02  0.30610061312E+02 -0.13312035741E+03  0.15257595575E+03  0.00000000000E+00 0. -1.
          1    1    1    2  502    0  0.67981003693E+02 -0.30610061312E+02 -0.12860718934E+04  0.12882310770E+04  0.00000000000E+00 0.  1.
</event>
<event>
 4    1  0.3752836E+003  0.2557880E+02  0.7546771E-02  0.1462431E+00
          2   -1    0    0  502    0  0.00000000000E+00  0.00000000000E+00  0.84762612445E+01  0.84762612445E+01  0.00000000000E+00 0.  1.
          1   -1    0    0  501    0 -0.00000000000E+00 -0.00000000000E+00 -0.12881478210E+03  0.12881478210E+03  0.00000000000E+00 0.  1.
          2    1    1    2  501    0  0.25268596298E+02  0.39715598848E+01 -0.16712021918E+02  0.30554327408E+02  0.00000000000E+00 0.  1.
          1    1    1    2  502    0 -0.25268596298E+02 -0.39715598848E+01 -0.10362649894E+03  0.10673671594E+03  0.00000000000E+00 0.  1.
</event>
<event>
 4    1  0.3752836E+003  0.3109525E+02  0.7546771E-02  0.1410311E+00
          2   -1    0    0  502    0  0.00000000000E+00  0.00000000000E+00  0.41197462361E+01  0.41197462361E+01  0.00000000000E+00 0. -1.
          1   -1    0    0  501    0 -0.00000000000E+00 -0.00000000000E+00 -0.10619192111E+04  0.10619192111E+04  0.00000000000E+00 0.  1.
          2    1    1    2  501    0  0.24725183224E+02  0.18856826810E+02 -0.58456744347E+02  0.66212578582E+02  0.00000000000E+00 0. -1.
          1    1    1    2  502    0 -0.24725183224E+02 -0.18856826810E+02 -0.99934272049E+03  0.99982637873E+03  0.00000000000E+00 0.  1.
</event>
<event>
 4    1  0.3752836E+003  0.2149532E+02  0.7546771E-02  0.1512309E+00
          2   -1    0    0  502    0  0.00000000000E+00  0.00000000000E+00  0.11495991596E+02  0.11495991596E+02  0.00000000000E+00 0. -1.
          1   -1    0    0  501    0 -0.00000000000E+00 -0.00000000000E+00 -0.41909303455E+03  0.41909303455E+03  0.00000000000E+00 0.  1.
          2    1    1    2  501    0  0.78922493493E+01  0.19994027181E+02  0.91217914532E+00  0.21514664615E+02  0.00000000000E+00 0. -1.
          1    1    1    2  502    0 -0.78922493493E+01 -0.19994027181E+02 -0.40850922210E+03  0.40907436153E+03  0.00000000000E+00 0.  1.
</event>
<event>
 4    1  0.3752836E+003  0.2037957E+02  0.7546771E-02  0.1528310E+00
          2   -1    0    0  502    0  0.00000000000E+00  0.00000000000E+00  0.26528490552E+03  0.26528490552E+03  0.00000000000E+00 0.  1.
          1   -1    0    0  501    0 -0.00000000000E+00 -0.00000000000E+00 -0.60532343125E+03  0.60532343125E+03  0.00000000000E+00 0. -1.
          2    1    1    2  501    0 -0.16912442485E+02 -0.11370847749E+02  0.26472161306E+03  0.26550491391E+03  0.00000000000E+00 0.  1.
          1    1    1    2  502    0  0.16912442485E+02  0.11370847749E+02 -0.60476013879E+03  0.60510342286E+03  0.00000000000E+00 0. -1.
</event>
<event>
 4    1  0.3752836E+003  0.2451088E+02  0.7546771E-02  0.1474350E+00
          2   -1    0    0  502    0  0.00000000000E+00  0.00000000000E+00  0.53365985734E+03  0.53365985734E+03  0.00000000000E+00 0. -1.
          1   -1    0    0  501    0 -0.00000000000E+00 -0.00000000000E+00 -0.36194758140E+01  0.36194758140E+01  0.00000000000E+00 0. -1.
          2    1    1    2  501    0  0.21794795666E+02  0.11214738353E+02  0.48800180645E+03  0.48861697328E+03  0.00000000000E+00 0. -1.
          1    1    1    2  502    0 -0.21794795666E+02 -0.11214738353E+02  0.42038575072E+02  0.48662359875E+02  0.00000000000E+00 0. -1.
</event>
<event>
 4    1  0.3752836E+003  0.2242088E+02  0.7546771E-02  0.1499901E+00
          2   -1    0    0  502    0  0.00000000000E+00  0.00000000000E+00  0.21214602123E+03  0.21214602123E+03  0.00000000000E+00 0.  1.
          1   -1    0    0  501    0 -0.00000000000E+00 -0.00000000000E+00 -0.54833696866E+01  0.54833696866E+01  0.00000000000E+00 0. -1.
          2    1    1    2  501    0 -0.36208232967E+01 -0.22126575862E+02  0.18533037858E+03  0.18668166741E+03  0.00000000000E+00 0.  1.
          1    1    1    2  502    0  0.36208232967E+01  0.22126575862E+02  0.21332272963E+02  0.30947723511E+02  0.00000000000E+00 0. -1.
</event>
<event>
 4    1  0.3752836E+003  0.1156753E+03  0.7546771E-02  0.1139114E+00
          2   -1    0    0  502    0  0.00000000000E+00  0.00000000000E+00  0.10342595822E+04  0.10342595822E+04  0.00000000000E+00 0.  1.
          1   -1    0    0  501    0 -0.00000000000E+00 -0.00000000000E+00 -0.43804408437E+02  0.43804408437E+02  0.00000000000E+00 0. -1.
          2    1    1    2  501    0  0.94595711185E+02  0.66576427396E+02  0.94771026374E+03  0.95474368982E+03  0.00000000000E+00 0.  1.
          1    1    1    2  502    0 -0.94595711185E+02 -0.66576427396E+02  0.42744910021E+02  0.12332030081E+03  0.00000000000E+00 0. -1.
</event>
<event>
 4    1  0.3752836E+003  0.3047273E+02  0.7546771E-02  0.1415532E+00
          2   -1    0    0  502    0  0.00000000000E+00  0.00000000000E+00  0.25843886801E+02  0.25843886801E+02  0.00000000000E+00 0. -1.
          1   -1    0    0  501    0 -0.00000000000E+00 -0.00000000000E+00 -0.52599859983E+02  0.52599859983E+02  0.00000000000E+00 0. -1.
          2    1    1    2  501    0 -0.14212203329E+02 -0.26955525602E+02  0.87017472588E+01  0.31690810802E+02  0.00000000000E+00 0. -1.
          1    1    1    2  502    0  0.14212203329E+02  0.26955525602E+02 -0.35457720441E+02  0.46752935981E+02  0.00000000000E+00 0. -1.
</event>
<event>
 4    1  0.3752836E+003  0.2209148E+02  0.7546771E-02  0.1504233E+00
          2   -1    0    0  502    0  0.00000000000E+00  0.00000000000E+00  0.32391102725E+02  0.32391102725E+02  0.00000000000E+00 0.  1.
          1   -1    0    0  501    0 -0.00000000000E+00 -0.00000000000E+00 -0.19315142482E+03  0.19315142482E+03  0.00000000000E+00 0. -1.
          2    1    1    2  501    0 -0.17355374433E+02 -0.13668366902E+02  0.27903414760E+02  0.35589799532E+02  0.00000000000E+00 0.  1.
          1    1    1    2  502    0  0.17355374433E+02  0.13668366902E+02 -0.18866373685E+03  0.18995272801E+03  0.00000000000E+00 0. -1.
</event>
<event>
 4    1  0.3752836E+003  0.3277438E+02  0.7546771E-02  0.1396923E+00
          2   -1    0    0  502    0  0.00000000000E+00  0.00000000000E+00  0.89073422941E+01  0.89073422941E+01  0.00000000000E+00 0. -1.
          1   -1    0    0  501    0 -0.00000000000E+00 -0.00000000000E+00 -0.26586055583E+03  0.26586055583E+03  0.00000000000E+00 0.  1.
          2    1    1    2  501    0  0.31931614980E+02 -0.73845657524E+01 -0.26923337905E+02  0.42414926270E+02  0.00000000000E+00 0. -1.
          1    1    1    2  502    0 -0.31931614980E+02  0.73845657524E+01 -0.23002987563E+03  0.23235297185E+03  0.00000000000E+00 0.  1.
</event>
<event>
 4    1  0.3752836E+003  0.2679000E+02  0.7546771E-02  0.1449729E+00
          2   -1    0    0  502    0  0.00000000000E+00  0.00000000000E+00  0.17590489441E+03  0.17590489441E+03  0.00000000000E+00 0. -1.
          1   -1    0    0  501    0 -0.00000000000E+00 -0.00000000000E+00 -0.19708052319E+02  0.19708052319E+02  0.00000000000E+00 0.  1.
          2    1    1    2  501    0 -0.25672196164E+02  0.76578491359E+01  0.16519421850E+03  0.16735242495E+03  0.00000000000E+00 0. -1.
          1    1    1    2  502    0  0.25672196164E+02 -0.76578491359E+01 -0.89973764092E+01  0.28260521784E+02  0.00000000000E+00 0.  1.
</event>
<event>
 4    1  0.3752836E+003  0.6634515E+02  0.7546771E-02  0.1239675E+00
          2   -1    0    0  502    0  0.00000000000E+00  0.00000000000E+00  0.24256672864E+04  0.24256672864E+04  0.00000000000E+00 0.  1.
          1   -1    0    0  501    0 -0.00000000000E+00 -0.00000000000E+00 -0.10177359421E+03  0.10177359421E+03  0.00000000000E+00 0.  1.
          2    1    1    2  501    0  0.65460481285E+01  0.66021425682E+02  0.24143505286E+04  0.24152619225E+04  0.00000000000E+00 0.  1.
          1    1    1    2  502    0 -0.65460481285E+01 -0.66021425682E+02 -0.90456836389E+02  0.11217895812E+03  0.00000000000E+00 0.  1.
</event>
<event>
 4    1  0.3752836E+003  0.3207920E+02  0.7546771E-02  0.1402349E+00
          2   -1    0    0  502    0  0.00000000000E+00  0.00000000000E+00  0.37178967232E+01  0.37178967232E+01  0.00000000000E+00 0. -1.
          1   -1    0    0  501    0 -0.00000000000E+00 -0.00000000000E+00 -0.10406347158E+04  0.10406347158E+04  0.00000000000E+00 0. -1.
          2    1    1    2  501    0  0.98558203655E+00 -0.32064051367E+02 -0.71084462444E+02  0.77987662889E+02  0.00000000000E+00 0. -1.
          1    1    1    2  502    0 -0.98558203655E+00  0.32064051367E+02 -0.96583235665E+03  0.96636494966E+03  0.00000000000E+00 0. -1.
</event>
<event>
 4    1  0.3752836E+003  0.3708247E+02  0.7546771E-02  0.1366486E+00
          2   -1    0    0  502    0  0.00000000000E+00  0.00000000000E+00  0.22053388597E+04  0.22053388597E+04  0.00000000000E+00 0. -1.
          1   -1    0    0  501    0 -0.00000000000E+00 -0.00000000000E+00 -0.12692171191E+01  0.12692171191E+01  0.00000000000E+00 0.  1.
          2    1    1    2  501    0 -0.27665089272E+02  0.24693164479E+02  0.18889647857E+04  0.18893287356E+04  0.00000000000E+00 0. -1.
          1    1    1    2  502    0  0.27665089272E+02 -0.24693164479E+02  0.31510485684E+03  0.31727934118E+03  0.00000000000E+00 0.  1.
</event>
<event>
 4    1  0.3752836E+003  0.2204040E+02  0.7546771E-02  0.1504913E+00
          2   -1    0    0  502    0  0.00000000000E+00  0.00000000000E+00  0.33721194216E+02  0.33721194216E+02  0.00000000000E+00 0.  1.
          1   -1    0    0  501    0 -0.00000000000E+00 -0.00000000000E+00 -0.25191675681E+03  0.25191675681E+03  0.00000000000E+00 0. -1.
          2    1    1    2  501    0  0.21663920566E+02 -0.40563198209E+01  0.29577563062E+02  0.36886466644E+02  0.00000000000E+00 0.  1.
          1    1    1    2  502    0 -0.21663920566E+02  0.40563198209E+01 -0.24777312566E+03  0.24875148438E+03  0.00000000000E+00 0. -1.
</event>
<event>
 4    1  0.3752836E+003  0.2987833E+02  0.7546771E-02  0.1420657E+00
          2   -1    0    0  502    0  0.00000000000E+00  0.00000000000E+00  0.52317654532E+01  0.52317654532E+01  0.00000000000E+00 0.  1.
          1   -1    0    0  501    0 -0.00000000000E+00 -0.00000000000E+00 -0.14430850463E+04  0.14430850463E+04  0.00000000000E+00 0. -1.
          2    1    1    2  501    0  0.29869224681E+02  0.73744916992E+00 -0.38927691960E+02  0.49072187802E+02  0.00000000000E+00 0.  1.
          1    1    1    2  502    0 -0.29869224681E+02 -0.73744916992E+00 -0.13989255888E+04  0.13992446239E+04  0.00000000000E+00 0. -1.
</event>
<event>
 4    1  0.3752836E+003  0.2233089E+02  0.7546771E-02  0.1501076E+00
          2   -1    0    0  502    0  0.00000000000E+00  0.00000000000E+00  0.34472493855E+01  0.34472493855E+01  0.00000000000E+00 0. -1.
          1   -1    0    0  501    0 -0.00000000000E+00 -0.00000000000E+00 -0.71901341498E+03  0.71901341498E+03  0.00000000000E+00 0.  1.
          2    1    1    2  501    0  0.21962837782E+02  0.40376045258E+01 -0.34928853101E+02  0.41457125716E+02  0.00000000000E+00 0. -1.
          1    1    1    2  502    0 -0.21962837782E+02 -0.40376045258E+01 -0.68063731250E+03  0.68100353865E+03  0.00000000000E+00 0.  1.
</event>
<event>
 4    1  0.3752836E+003  0.2578811E+02  0.7546771E-02  0.1460177E+00
          2   -1    0    0  502    0  0.00000000000E+00  0.00000000000E+00  0.32464237153E+01  0.32464237153E+01  0.00000000000E+00 0.  1.
          1   -1    0    0  501    0 -0.00000000000E+00 -0.00000000000E+00 -0.32800495970E+03  0.32800495970E+03  0.00000000000E+00 0.  1.
          2    1    1    2  501    0 -0.24971363419E+02 -0.64387709864E+01 -0.60891160094E+02  0.66126848862E+02  0.00000000000E+00 0.  1.
          1    1    1    2  502    0  0.24971363419E+02  0.64387709864E+01 -0.26386737589E+03  0.26512453455E+03  0.00000000000E+00 0.  1.
</event>
<event>
 4    1  0.3752836E+003  0.3064611E+02  0.7546771E-02  0.1414063E+00
          2   -1    0    0  502    0  0.00000000000E+00  0.00000000000E+00  0.14234900006E+04  0.14234900006E+04  0.00000000000E+00 0.  1.
          1   -1    0    0  501    0 -0.00000000000E+00 -0.00000000000E+00 -0.79763224331E+01  0.79763224331E+01  0.00000000000E+00 0.  1.
          2    1    1    2  501    0 -0.20512313979E+02  0.22769035119E+02  0.13932495906E+04  0.13935865978E+04  0.00000000000E+00 0.  1.
          1    1    1    2  502    0  0.20512313979E+02 -0.22769035119E+02  0.22264087562E+02  0.37879725183E+02  0.00000000000E+00 0.  1.
</event>
<event>
 4    1  0.3752836E+003  0.1077488E+03  0.7546771E-02  0.1151018E+00
          2   -1    0    0  502    0  0.00000000000E+00  0.00000000000E+00  0.12372141512E+03  0.12372141512E+03  0.00000000000E+00 0. -1.
          1   -1    0    0  501    0 -0.00000000000E+00 -0.00000000000E+00 -0.51143073330E+03  0.51143073330E+03  0.00000000000E+00 0.  1.
          2    1    1    2  501    0  0.10509481253E+03 -0.23767515250E+02  0.93111473579E+02  0.14240632329E+03  0.00000000000E+00 0. -1.
          1    1    1    2  502    0 -0.10509481253E+03  0.23767515250E+02 -0.48082079176E+03  0.49274582513E+03  0.00000000000E+00 0.  1.
</event>
<event>
 4    1  0.3752836E+003  0.2276995E+02  0.7546771E-02  0.1495407E+00
          2   -1    0    0  502    0  0.00000000000E+00  0.00000000000E+00  0.14031413963E+02  0.14031413963E+02  0.00000000000E+00 0.  1.
          1   -1    0    0  501    0 -0.00000000000E+00 -0.00000000000E+00 -0.10530292137E+04  0.10530292137E+04  0.00000000000E+00 0.  1.
          2    1    1    2  501    0  0.16777929755E+02 -0.15393883194E+02  0.45870584868E+01  0.23227390560E+02  0.00000000000E+00 0.  1.
          1    1    1    2  502    0 -0.16777929755E+02  0.15393883194E+02 -0.10435848582E+04  0.10438332371E+04  0.00000000000E+00 0.  1.
</event>
<event>
 4    1  0.3752836E+003  0.2396050E+02  0.7546771E-02  0.1480777E+00
          2   -1    0    0  502    0  0.00000000000E+00  0.00000000000E+00  0.73615806080E+03  0.73615806080E+03  0.00000000000E+00 0.  1.
          1   -1    0    0  501    0 -0.00000000000E+00 -0.00000000000E+00 -0.32338686676E+01  0.32338686676E+01  0.00000000000E+00 0.  1.
          2    1    1    2  501    0  0.97161761166E+00 -0.23940787412E+02  0.68851035233E+03  0.68892714463E+03  0.00000000000E+00 0.  1.
          1    1    1    2  502    0 -0.97161761166E+00  0.23940787412E+02  0.44413839803E+02  0.50464784838E+02  0.00000000000E+00 0.  1.
</event>
<event>
 4    1  0.3752836E+003  0.3678723E+02  0.7546771E-02  0.1368416E+00
          2   -1    0    0  502    0  0.00000000000E+00  0.00000000000E+00  0.31786408765E+03  0.31786408765E+03  0.00000000000E+00 0. -1.
          1   -1    0    0  501    0 -0.00000000000E+00 -0.00000000000E+00 -0.23645370869E+03  0.23645370869E+03  0.00000000000E+00 0.  1.
          2    1    1    2  501    0 -0.36103738778E+02 -0.70583316529E+01  0.31535755377E+03  0.31749596331E+03  0.00000000000E+00 0. -1.
          1    1    1    2  502    0  0.36103738778E+02  0.70583316529E+01 -0.23394717480E+03  0.23682183303E+03  0.00000000000E+00 0.  1.
</event>
<event>
 4    1  0.3752836E+003  0.3369101E+02  0.7546771E-02  0.1390007E+00
          2   -1    0    0  502    0  0.00000000000E+00  0.00000000000E+00  0.29054282220E+03  0.29054282220E+03  0.00000000000E+00 0. -1.
          1   -1    0    0  501    0 -0.00000000000E+00 -0.00000000000E+00 -0.13967181927E+02  0.13967181927E+02  0.00000000000E+00 0. -1.
          2    1    1    2  501    0  0.22494025287E+02  0.25081929037E+02  0.26750641963E+03  0.26961967451E+03  0.00000000000E+00 0. -1.
          1    1    1    2  502    0 -0.22494025287E+02 -0.25081929037E+02  0.90692206409E+01  0.34890329618E+02  0.00000000000E+00 0. -1.
</event>
<event>
 4    1  0.3752836E+003  0.2059564E+02  0.7546771E-02  0.1525117E+00
          2   -1    0    0  502    0  0.00000000000E+00  0.00000000000E+00  0.53900007414E+01  0.53900007414E+01  0.00000000000E+00 0. -1.
          1   -1    0    0  501    0 -0.00000000000E+00 -0.00000000000E+00 -0.56543522782E+03  0.56543522782E+03  0.00000000000E+00 0.  1.
          2    1    1    2  501    0 -0.18345669249E+02  0.93603871126E+01 -0.15215792507E+02  0.25606654774E+02  0.00000000000E+00 0. -1.
          1    1    1    2  502    0  0.18345669249E+02 -0.93603871126E+01 -0.54482943458E+03  0.54521857379E+03  0.00000000000E+00 0.  1.
</event>
<event>
 4    1  0.3752836E+003  0.3955860E+02  0.7546771E-02  0.1351092E+00
          2   -1    0    0  502    0  0.00000000000E+00  0.00000000000E+00  0.45227064655E+01  0.45227064655E+01  0.00000000000E+00 0. -1.
          1   -1    0    0  501    0 -0.00000000000E+00 -0.00000000000E+00 -0.91296730843E+03  0.91296730843E+03  0.00000000000E+00 0.  1.
          2    1    1    2  501    0 -0.34044848307E+02  0.20145243264E+02 -0.92712115853E+02  0.10079890351E+03  0.00000000000E+00 0. -1.
          1    1    1    2  502    0  0.34044848307E+02 -0.20145243264E+02 -0.81573248611E+03  0.81669111139E+03  0.00000000000E+00 0.  1.
</event>
<event>
 4    1  0.3752836E+003  0.3652232E+02  0.7546771E-02  0.1370165E+00
          2   -1    0    0  502    0  0.00000000000E+00  0.00000000000E+00  0.69426580765E+03  0.69426580765E+03  0.00000000000E+00 0.  1.
          1   -1    0    0  501    0 -0.00000000000E+00 -0.00000000000E+00 -0.25295714425E+01  0.25295714425E+01  0.00000000000E+00 0. -1.
          2    1    1    2  501    0 -0.81809778734E+01  0.35594263813E+02  0.51671502808E+03  0.51800415082E+03  0.00000000000E+00 0.  1.
          1    1    1    2  502    0  0.81809778734E+01 -0.35594263813E+02  0.17502120812E+03  0.17879122828E+03  0.00000000000E+00 0. -1.
</event>
<event>
 4    1  0.3752836E+003  0.3499474E+02  0.7546771E-02  0.1380600E+00
          2   -1    0    0  502    0  0.00000000000E+00  0.00000000000E+00  0.88115656330E+03  0.88115656330E+03  0.00000000000E+00 0.  1.
          1   -1    0    0  501    0 -0.00000000000E+00 -0.00000000000E+00 -0.10134665977E+02  0.10134665977E+02  0.00000000000E+00 0. -1.
          2    1    1    2  501    0  0.21777407359E+02 -0.27393002603E+02  0.84947390275E+03  0.85019441513E+03  0.00000000000E+00 0.  1.
          1    1    1    2  502    0 -0.21777407359E+02  0.27393002603E+02  0.21547994570E+02  0.41096814145E+02  0.00000000000E+00 0. -1.
</event>
<event>
 4    1  0.3752836E+003  0.2080351E+02  0.7546771E-02  0.1522089E+00
          2   -1    0    0  502    0  0.00000000000E+00  0.00000000000E+00  0.12315754672E+03  0.12315754672E+03  0.00000000000E+00 0. -1.
          1   -1    0    0  501    0 -0.00000000000E+00 -0.00000000000E+00 -0.47750702799E+01  0.47750702799E+01  0.00000000000E+00 0. -1.
          2    1    1    2  501    0  0.75827644203E+01 -0.19372345134E+02  0.92062504472E+02  0.94383742254E+02  0.00000000000E+00 0. -1.
          1    1    1    2  502    0 -0.75827644203E+01  0.19372345134E+02  0.26319971965E+02  0.33548874742E+02  0.00000000000E+00 0. -1.
</event>
<event>
 4    1  0.3752836E+003  0.2083948E+02  0.7546771E-02  0.1521569E+00
          2   -1    0    0  502    0  0.00000000000E+00  0.00000000000E+00  0.13790318609E+03  0.13790318609E+03  0.00000000000E+00 0. -1.
          1   -1    0    0  501    0 -0.00000000000E+00 -0.00000000000E+00 -0.17840287652E+03  0.17840287652E+03  0.00000000000E+00 0. -1.
          2    1    1    2  501    0  0.78881976314E+01 -0.19288866518E+02  0.13650110024E+03  0.13808270855E+03  0.00000000000E+00 0. -1.
          1    1    1    2  502    0 -0.78881976314E+01  0.19288866518E+02 -0.17700079067E+03  0.17822335406E+03  0.00000000000E+00 0. -1.
</event>
<event>
 4    1  0.3752836E+003  0.2597975E+02  0.7546771E-02  0.1458135E+00
          2   -1    0    0  502    0  0.00000000000E+00  0.00000000000E+00  0.63760796585E+02  0.63760796585E+02  0.00000000000E+00 0.  1.
          1   -1    0    0  501    0 -0.00000000000E+00 -0.00000000000E+00 -0.16573606582E+02  0.16573606582E+02  0.00000000000E+00 0. -1.
          2    1    1    2  501    0 -0.32068925994E+01 -0.25781066235E+02  0.47737276194E+02  0.54348827722E+02  0.00000000000E+00 0.  1.
          1    1    1    2  502    0  0.32068925994E+01  0.25781066235E+02 -0.55008619107E+00  0.25985575444E+02  0.00000000000E+00 0. -1.
</event>
<event>
 4    1  0.3752836E+003  0.2062004E+02  0.7546771E-02  0.1524759E+00
          2   -1    0    0  502    0  0.00000000000E+00  0.00000000000E+00  0.14877366139E+04  0.14877366139E+04  0.00000000000E+00 0.  1.
          1   -1    0    0  501    0 -0.00000000000E+00 -0.00000000000E+00 -0.38523699496E+00  0.38523699496E+00  0.00000000000E+00 0.  1.
          2    1    1    2  501    0  0.20527586448E+02 -0.19504298390E+01  0.11217106093E+04  0.11219001190E+04  0.00000000000E+00 0.  1.
          1    1    1    2  502    0 -0.20527586448E+02  0.19504298390E+01  0.36564076761E+03  0.36622173191E+03  0.00000000000E+00 0.  1.
</event>
<event>
 4    1  0.3752836E+003  0.2362598E+02  0.7546771E-02  0.1484784E+00
          2   -1    0    0  502    0  0.00000000000E+00  0.00000000000E+00  0.40625684939E+03  0.40625684939E+03  0.00000000000E+00 0. -1.
          1   -1    0    0  501    0 -0.00000000000E+00 -0.00000000000E+00 -0.15388961804E+02  0.15388961804E+02  0.00000000000E+00 0. -1.
          2    1    1    2  501    0 -0.16375324431E+02  0.17030434847E+02  0.39662537145E+03  0.39732841861E+03  0.00000000000E+00 0. -1.
          1    1    1    2  502    0  0.16375324431E+02 -0.17030434847E+02 -0.57574838657E+01  0.24317392577E+02  0.00000000000E+00 0. -1.
</event>
<event>
 4    1  0.3752836E+003  0.5188613E+02  0.7546771E-02  0.1290196E+00
          2   -1    0    0  502    0  0.00000000000E+00  0.00000000000E+00  0.11642541621E+03  0.11642541621E+03  0.00000000000E+00 0. -1.
          1   -1    0    0  501    0 -0.00000000000E+00 -0.00000000000E+00 -0.27473116357E+02  0.27473116357E+02  0.00000000000E+00 0. -1.
          2    1    1    2  501    0 -0.38819674436E+02 -0.34426789516E+02  0.73104381267E+02  0.89646090378E+02  0.00000000000E+00 0. -1.
          1    1    1    2  502    0  0.38819674436E+02  0.34426789516E+02  0.15847918582E+02  0.54252442185E+02  0.00000000000E+00 0. -1.
</event>
<event>
 4    1  0.3752836E+003  0.7226918E+02  0.7546771E-02  0.1223030E+00
          2   -1    0    0  502    0  0.00000000000E+00  0.00000000000E+00  0.21375518984E+03  0.21375518984E+03  0.00000000000E+00 0. -1.
          1   -1    0    0  501    0 -0.00000000000E+00 -0.00000000000E+00 -0.62456853210E+02  0.62456853210E+02  0.00000000000E+00 0. -1.
          2    1    1    2  501    0  0.29625058589E+02 -0.65918057216E+02  0.18340642290E+03  0.19713130224E+03  0.00000000000E+00 0. -1.
          1    1    1    2  502    0 -0.29625058589E+02  0.65918057216E+02 -0.32108086264E+02  0.79080740810E+02  0.00000000000E+00 0. -1.
</event>
<event>
 4    1  0.3752836E+003  0.2204951E+02  0.7546771E-02  0.1504791E+00
          2   -1    0    0  502    0  0.00000000000E+00  0.00000000000E+00  0.62600148661E+03  0.62600148661E+03  0.00000000000E+00 0.  1.
          1   -1    0    0  501    0 -0.00000000000E+00 -0.00000000000E+00 -0.14047679039E+01  0.14047679039E+01  0.00000000000E+00 0. -1.
          2    1    1    2  501    0  0.11827303201E+02 -0.18609024437E+02  0.52206619312E+03  0.52253161712E+03  0.00000000000E+00 0.  1.
          1    1    1    2  502    0 -0.11827303201E+02  0.18609024437E+02  0.10253052559E+03  0.10487463740E+03  0.00000000000E+00 0. -1.
</event>
<event>
 4    1  0.3752836E+003  0.2633328E+02  0.7546771E-02  0.1454423E+00
          2   -1    0    0  502    0  0.00000000000E+00  0.00000000000E+00  0.24148900096E+04  0.24148900096E+04  0.00000000000E+00 0. -1.
          1   -1    0    0  501    0 -0.00000000000E+00 -0.00000000000E+00 -0.43707416378E+00  0.43707416378E+00  0.00000000000E+00 0. -1.
          2    1    1    2  501    0  0.26326456279E+02  0.59943523180E+00  0.19145215409E+04  0.19147026328E+04  0.00000000000E+00 0. -1.
          1    1    1    2  502    0 -0.26326456279E+02 -0.59943523180E+00  0.49993139455E+03  0.50062445094E+03  0.00000000000E+00 0. -1.
</event>
<event>
 4    1  0.3752836E+003  0.2321179E+02  0.7546771E-02  0.1489856E+00
          2   -1    0    0  502    0  0.00000000000E+00  0.00000000000E+00  0.23429967795E+03  0.23429967795E+03  0.00000000000E+00 0. -1.
          1   -1    0    0  501    0 -0.00000000000E+00 -0.00000000000E+00 -0.67532388444E+01  0.67532388444E+01  0.00000000000E+00 0.  1.
          2    1    1    2  501    0 -0.17123514026E+02  0.15670749046E+02  0.21165133367E+03  0.21292034697E+03  0.00000000000E+00 0. -1.
          1    1    1    2  502    0  0.17123514026E+02 -0.15670749046E+02  0.15895105435E+02  0.28132569827E+02  0.00000000000E+00 0.  1.
</event>
<event>
 4    1  0.3752836E+003  0.2544269E+02  0.7546771E-02  0.1463911E+00
          2   -1    0    0  502    0  0.00000000000E+00  0.00000000000E+00  0.10776342686E+04  0.10776342686E+04  0.00000000000E+00 0.  1.
          1   -1    0    0  501    0 -0.00000000000E+00 -0.00000000000E+00 -0.45899189499E+01  0.45899189499E+01  0.00000000000E+00 0. -1.
          2    1    1    2  501    0  0.97621350605E+01  0.23495342803E+02  0.10409846839E+04  0.10412955596E+04  0.00000000000E+00 0.  1.
          1    1    1    2  502    0 -0.97621350605E+01 -0.23495342803E+02  0.32059665744E+02  0.40928627903E+02  0.00000000000E+00 0. -1.
</event>
<event>
 4    1  0.3752836E+003  0.6261519E+02  0.7546771E-02  0.1251197E+00
          2   -1    0    0  502    0  0.00000000000E+00  0.00000000000E+00  0.16876385504E+04  0.16876385504E+04  0.00000000000E+00 0.  1.
          1   -1    0    0  501    0 -0.00000000000E+00 -0.00000000000E+00 -0.24952669310E+02  0.24952669310E+02  0.00000000000E+00 0. -1.
          2    1    1    2  501    0 -0.57007535817E+02  0.25899868702E+02  0.16468030762E+04  0.16479930322E+04  0.00000000000E+00 0.  1.
          1    1    1    2  502    0  0.57007535817E+02 -0.25899868702E+02  0.15882804869E+02  0.64598187507E+02  0.00000000000E+00 0. -1.
</event>
<event>
 4    1  0.3752836E+003  0.2104051E+02  0.7546771E-02  0.1518687E+00
          2   -1    0    0  502    0  0.00000000000E+00  0.00000000000E+00  0.15252343558E+04  0.15252343558E+04  0.00000000000E+00 0.  1.
          1   -1    0    0  501    0 -0.00000000000E+00 -0.00000000000E+00 -0.76659790422E+01  0.76659790422E+01  0.00000000000E+00 0.  1.
          2    1    1    2  501    0 -0.17645941099E+02 -0.11459656915E+02  0.15105845238E+04  0.15107310503E+04  0.00000000000E+00 0.  1.
          1    1    1    2  502    0  0.17645941099E+02  0.11459656915E+02  0.69838530065E+01  0.22169284532E+02  0.00000000000E+00 0.  1.
</event>
<event>
 4    1  0.3752836E+003  0.2006971E+02  0.7546771E-02  0.1532973E+00
          2   -1    0    0  502    0  0.00000000000E+00  0.00000000000E+00  0.86823222989E+00  0.86823222989E+00  0.00000000000E+00 0. -1.
          1   -1    0    0  501    0 -0.00000000000E+00 -0.00000000000E+00 -0.84622921293E+03  0.84622921293E+03  0.00000000000E+00 0. -1.
          2    1    1    2  501    0  0.13358969313E+02 -0.14977694942E+02 -0.13799540420E+03  0.13944721219E+03  0.00000000000E+00 0. -1.
          1    1    1    2  502    0 -0.13358969313E+02  0.14977694942E+02 -0.70736557650E+03  0.70765023297E+03  0.00000000000E+00 0. -1.
</event>
<event>
 4    1  0.3752836E+003  0.2341989E+02  0.7546771E-02  0.1487292E+00
          2   -1    0    0  502    0  0.00000000000E+00  0.00000000000E+00  0.70046733935E+02  0.70046733935E+02  0.00000000000E+00 0. -1.
          1   -1    0    0  501    0 -0.00000000000E+00 -0.00000000000E+00 -0.90512576360E+03  0.90512576360E+03  0.00000000000E+00 0.  1.
          2    1    1    2  501    0 -0.22723293471E+02  0.56694752164E+01  0.67933067260E+02  0.71856750850E+02  0.00000000000E+00 0. -1.
          1    1    1    2  502    0  0.22723293471E+02 -0.56694752164E+01 -0.90301209693E+03  0.90331574669E+03  0.00000000000E+00 0.  1.
</event>
<event>
 4    1  0.3752836E+003  0.2323837E+02  0.7546771E-02  0.1489526E+00
          2   -1    0    0  502    0  0.00000000000E+00  0.00000000000E+00  0.18361398466E+04  0.18361398466E+04  0.00000000000E+00 0. -1.
          1   -1    0    0  501    0 -0.00000000000E+00 -0.00000000000E+00 -0.11510017735E+01  0.11510017735E+01  0.00000000000E+00 0.  1.
          2    1    1    2  501    0  0.17875338972E+02  0.14849051226E+02  0.17101300696E+04  0.17102879514E+04  0.00000000000E+00 0. -1.
          1    1    1    2  502    0 -0.17875338972E+02 -0.14849051226E+02  0.12485877528E+03  0.12700289694E+03  0.00000000000E+00 0.  1.
</event>
<event>
 4    1  0.3752836E+003  0.3949196E+02  0.7546771E-02  0.1351489E+00
          2   -1    0    0  502    0  0.00000000000E+00  0.00000000000E+00  0.63737122271E+03  0.63737122271E+03  0.00000000000E+00 0.  1.
          1   -1    0    0  501    0 -0.00000000000E+00 -0.00000000000E+00 -0.14277027278E+02  0.14277027278E+02  0.00000000000E+00 0. -1.
          2    1    1    2  501    0 -0.13444281596E+02 -0.37133086929E+02  0.60813822372E+03  0.60941916117E+03  0.00000000000E+00 0.  1.
          1    1    1    2  502    0  0.13444281596E+02  0.37133086929E+02  0.14955971712E+02  0.42229088817E+02  0.00000000000E+00 0. -1.
</event>
<event>
 4    1  0.3752836E+003  0.2999645E+02  0.7546771E-02  0.1419627E+00
          2   -1    0    0  502    0  0.00000000000E+00  0.00000000000E+00  0.75096217996E+02  0.75096217996E+02  0.00000000000E+00 0. -1.
          1   -1    0    0  501    0 -0.00000000000E+00 -0.00000000000E+00 -0.28552332573E+02  0.28552332573E+02  0.00000000000E+00 0.  1.
          2    1    1    2  501    0 -0.91209001022E+01  0.28576152390E+02  0.62752272523E+02  0.69553109283E+02  0.00000000000E+00 0. -1.
          1    1    1    2  502    0  0.91209001022E+01 -0.28576152390E+02 -0.16208387100E+02  0.34095441286E+02  0.00000000000E+00 0.  1.
</event>
<event>
 4    1  0.3752836E+003  0.2552784E+02  0.7546771E-02  0.1462984E+00
          2   -1    0    0  502    0  0.00000000000E+00  0.00000000000E+00  0.23275989003E+03  0.23275989003E+03  0.00000000000E+00 0.  1.
          1   -1    0    0  501    0 -0.00000000000E+00 -0.00000000000E+00 -0.18178014064E+02  0.18178014064E+02  0.00000000000E+00 0. -1.
          2    1    1    2  501    0 -0.47716723764E+01  0.25077913187E+02  0.22269381720E+03  0.22415219563E+03  0.00000000000E+00 0.  1.
          1    1    1    2  502    0  0.47716723764E+01 -0.25077913187E+02 -0.81119412374E+01  0.26785708460E+02  0.00000000000E+00 0. -1.
</event>
<event>
 4    1  0.3752836E+003  0.3019115E+02  0.7546771E-02  0.1417942E+00
          2   -1    0    0  502    0  0.00000000000E+00  0.00000000000E+00  0.62653286875E+03  0.62653286875E+03  0.00000000000E+00 0.  1.
          1   -1    0    0  501    0 -0.00000000000E+00 -0.00000000000E+00 -0.43984243913E+01  0.43984243913E+01  0.00000000000E+00 0.  1.
          2    1    1    2  501    0  0.23531248054E+01 -0.30099311051E+02  0.56913969135E+03  0.56993990385E+03  0.00000000000E+00 0.  1.
          1    1    1    2  502    0 -0.23531248054E+01  0.30099311051E+02  0.52994753006E+02  0.60991389296E+02  0.00000000000E+00 0.  1.
</event>
<event>
 4    1  0.3752836E+003  0.2165297E+02  0.7546771E-02  0.1510143E+00
          2   -1    0    0  502    0  0.00000000000E+00  0.00000000000E+00  0.14542740849E+03  0.14542740849E+03  0.00000000000E+00 0. -1.
          1   -1    0    0  501    0 -0.00000000000E+00 -0.00000000000E+00 -0.59097574130E+03  0.59097574130E+03  0.00000000000E+00 0. -1.
          2    1    1    2  501    0 -0.14431171445E+02 -0.16142871159E+02  0.14442170933E+03  0.14603588985E+03  0.00000000000E+00 0. -1.
          1    1    1    2  502    0  0.14431171445E+02  0.16142871159E+02 -0.58997004213E+03  0.59036725994E+03  0.00000000000E+00 0. -1.
</event>
<event>
 4    1  0.3752836E+003  0.2432241E+02  0.7546771E-02  0.1476528E+00
          2   -1    0    0  502    0  0.00000000000E+00  0.00000000000E+00  0.50525484812E+02  0.50525484812E+02  0.00000000000E+00 0.  1.
          1   -1    0    0  501    0 -0.00000000000E+00 -0.00000000000E+00 -0.23262450431E+03  0.23262450431E+03  0.00000000000E+00 0. -1.
          2    1    1    2  501    0  0.13432754914E+02 -0.20276610414E+02  0.46916584665E+02  0.52846435557E+02  0.00000000000E+00 0.  1.
          1    1    1    2  502    0 -0.13432754914E+02  0.20276610414E+02 -0.22901560416E+03  0.23030355356E+03  0.00000000000E+00 0. -1.
</event>
<event>
 4    1  0.3752836E+003  0.2005745E+02  0.7546771E-02  0.1533159E+00
          2   -1    0    0  502    0  0.00000000000E+00  0.00000000000E+00  0.89789687707E+03  0.89789687707E+03  0.00000000000E+00 0.  1.
          1   -1    0    0  501    0 -0.00000000000E+00 -0.00000000000E+00 -0.95127557839E+02  0.95127557839E+02  0.00000000000E+00 0. -1.
          2    1    1    2  501    0  0.98450140800E+01 -0.17475039625E+02  0.89672621683E+03  0.89695050547E+03  0.00000000000E+00 0.  1.
          1    1    1    2  502    0 -0.98450140800E+01  0.17475039625E+02 -0.93956897597E+02  0.96073929441E+02  0.00000000000E+00 0. -1.
</event>
<event>
 4    1  0.3752836E+003  0.2660114E+02  0.7546771E-02  0.1451656E+00
          2   -1    0    0  502    0  0.00000000000E+00  0.00000000000E+00  0.25876640059E+03  0.25876640059E+03  0.00000000000E+00 0. -1.
          1   -1    0    0  501    0 -0.00000000000E+00 -0.00000000000E+00 -0.13379498273E+04  0.13379498273E+04  0.00000000000E+00 0.  1.
          2    1    1    2  501    0 -0.24557068476E+02  0.10226004208E+02  0.25795011394E+03  0.25931810978E+03  0.00000000000E+00 0. -1.
          1    1    1    2  502    0  0.24557068476E+02 -0.10226004208E+02 -0.13371335407E+04  0.13373981181E+04  0.00000000000E+00 0.  1.
</event>
<event>
 4    1  0.3752836E+003  0.2172822E+02  0.7546771E-02  0.1509117E+00
          2   -1    0    0  502    0  0.00000000000E+00  0.00000000000E+00  0.71009292800E+03  0.71009292800E+03  0.00000000000E+00 0.  1.
          1   -1    0    0  501    0 -0.00000000000E+00 -0.00000000000E+00 -0.86618765815E+00  0.86618765815E+00  0.00000000000E+00 0.  1.
          2    1    1    2  501    0 -0.21727082895E+02 -0.22141804462E+00  0.18323494625E+03  0.18451872719E+03  0.00000000000E+00 0.  1.
          1    1    1    2  502    0  0.21727082895E+02  0.22141804462E+00  0.52599179409E+03  0.52644038847E+03  0.00000000000E+00 0.  1.
</event>
<event>
 4    1  0.3752836E+003  0.2914351E+02  0.7546771E-02  0.1427188E+00
          2   -1    0    0  502    0  0.00000000000E+00  0.00000000000E+00  0.18580514320E+03  0.18580514320E+03  0.00000000000E+00 0.  1.
          1   -1    0    0  501    0 -0.00000000000E+00 -0.00000000000E+00 -0.69355227108E+01  0.69355227108E+01  0.00000000000E+00 0. -1.
          2    1    1    2  501    0 -0.64831210276E+01  0.28413256278E+02  0.14570279083E+03  0.14858885304E+03  0.00000000000E+00 0.  1.
          1    1    1    2  502    0  0.64831210276E+01 -0.28413256278E+02  0.33166829659E+02  0.44151812876E+02  0.00000000000E+00 0. -1.
</event>
<event>
 4    1  0.3752836E+003  0.2354306E+02  0.7546771E-02  0.1485789E+00
          2   -1    0    0  502    0  0.00000000000E+00  0.00000000000E+00  0.14563788536E+02  0.14563788536E+02  0.00000000000E+00 0.  1.
          1   -1    0    0  501    0 -0.00000000000E+00 -0.00000000000E+00 -0.42423488435E+02  0.42423488435E+02  0.00000000000E+00 0.  1.
          2    1    1    2  501    0 -0.20752090243E+02 -0.11118746500E+02 -0.47900464193E+01  0.24025409838E+02  0.00000000000E+00 0.  1.
          1    1    1    2  502    0  0.20752090243E+02  0.11118746500E+02 -0.23069653480E+02  0.32961867133E+02  0.00000000000E+00 0.  1.
</event>
<event>
 4    1  0.3752836E+003  0.3054563E+02  0.7546771E-02  0.1414913E+00
          2   -1    0    0  502    0  0.00000000000E+00  0.00000000000E+00  0.11896772804E+04  0.11896772804E+04  0.00000000000E+00 0. -1.
          1   -1    0    0  501    0 -0.00000000000E+00 -0.00000000000E+00 -0.91129996319E+00  0.91129996319E+00  0.00000000000E+00 0. -1.
          2    1    1    2  501    0 -0.17416863909E+02 -0.25093591294E+02  0.81663396677E+03  0.81720503618E+03  0.00000000000E+00 0. -1.
          1    1    1    2  502    0  0.17416863909E+02  0.25093591294E+02  0.37213201365E+03  0.37338354416E+03  0.00000000000E+00 0. -1.
</event>
<event>
 4    1  0.3752836E+003  0.2439738E+02  0.7546771E-02  0.1475659E+00
          2   -1    0    0  502    0  0.00000000000E+00  0.00000000000E+00  0.77679569537E+02  0.77679569537E+02  0.00000000000E+00 0.  1.
          1   -1    0    0  501    0 -0.00000000000E+00 -0.00000000000E+00 -0.35764543342E+02  0.35764543342E+02  0.00000000000E+00 0.  1.
          2    1    1    2  501    0 -0.22016116886E+02  0.10512985298E+02  0.71237288115E+02  0.75299292697E+02  0.00000000000E+00 0.  1.
          1    1    1    2  502    0  0.22016116886E+02 -0.10512985298E+02 -0.29322261920E+02  0.38144820182E+02  0.00000000000E+00 0.  1.
</event>
<event>
 4    1  0.3752836E+003  0.2012855E+02  0.7546771E-02  0.1532080E+00
          2   -1    0    0  502    0  0.00000000000E+00  0.00000000000E+00  0.97008075846E+02  0.97008075846E+02  0.00000000000E+00 0.  1.
          1   -1    0    0  501    0 -0.00000000000E+00 -0.00000000000E+00 -0.20164658564E+03  0.20164658564E+03  0.00000000000E+00 0. -1.
          2    1    1    2  501    0  0.84664536429E+01 -0.18261368848E+02  0.95453535885E+02  0.97552734162E+02  0.00000000000E+00 0.  1.
          1    1    1    2  502    0 -0.84664536429E+01  0.18261368848E+02 -0.20009204568E+03  0.20110192733E+03  0.00000000000E+00 0. -1.
</event>
<event>
 4    1  0.3752836E+003  0.2631771E+02  0.7546771E-02  0.1454585E+00
          2   -1    0    0  502    0  0.00000000000E+00  0.00000000000E+00  0.89775483136E+03  0.89775483136E+03  0.00000000000E+00 0. -1.
          1   -1    0    0  501    0 -0.00000000000E+00 -0.00000000000E+00 -0.28428153890E+02  0.28428153890E+02  0.00000000000E+00 0. -1.
          2    1    1    2  501    0 -0.18593361164E+02 -0.18625486184E+02  0.89142774790E+03  0.89181615344E+03  0.00000000000E+00 0. -1.
          1    1    1    2  502    0  0.18593361164E+02  0.18625486184E+02 -0.22101070424E+02  0.34366831813E+02  0.00000000000E+00 0. -1.
</event>
<event>
 4    1  0.3752836E+003  0.1398728E+03  0.7546771E-02  0.1108475E+00
          2   -1    0    0  502    0  0.00000000000E+00  0.00000000000E+00  0.54870164944E+03  0.54870164944E+03  0.00000000000E+00 0.  1.
          1   -1    0    0  501    0 -0.00000000000E+00 -0.00000000000E+00 -0.85441890411E+02  0.85441890411E+02  0.00000000000E+00 0. -1.
          2    1    1    2  501    0  0.13960854169E+03  0.85933512395E+01  0.47366378542E+03  0.49388437130E+03  0.00000000000E+00 0.  1.
          1    1    1    2  502    0 -0.13960854169E+03 -0.85933512395E+01 -0.10404026385E+02  0.14025916855E+03  0.00000000000E+00 0. -1.
</event>
<event>
 4    1  0.3752836E+003  0.2372092E+02  0.7546771E-02  0.1483639E+00
          2   -1    0    0  502    0  0.00000000000E+00  0.00000000000E+00  0.14402036267E+04  0.14402036267E+04  0.00000000000E+00 0.  1.
          1   -1    0    0  501    0 -0.00000000000E+00 -0.00000000000E+00 -0.39836336989E+01  0.39836336989E+01  0.00000000000E+00 0.  1.
          2    1    1    2  501    0 -0.35982566151E+01 -0.23446419589E+02  0.14038802584E+04  0.14040806465E+04  0.00000000000E+00 0.  1.
          1    1    1    2  502    0  0.35982566151E+01  0.23446419589E+02  0.32339734630E+02  0.40106613896E+02  0.00000000000E+00 0.  1.
</event>
<event>
 4    1  0.3752836E+003  0.2138215E+02  0.7546771E-02  0.1513878E+00
          2   -1    0    0  502    0  0.00000000000E+00  0.00000000000E+00  0.89416923007E+03  0.89416923007E+03  0.00000000000E+00 0.  1.
          1   -1    0    0  501    0 -0.00000000000E+00 -0.00000000000E+00 -0.15370682025E+01  0.15370682025E+01  0.00000000000E+00 0. -1.
          2    1    1    2  501    0 -0.24774935906E+00  0.21380718368E+02  0.81217347761E+03  0.81245489366E+03  0.00000000000E+00 0.  1.
          1    1    1    2  502    0  0.24774935906E+00 -0.21380718368E+02  0.80458684259E+02  0.83251404615E+02  0.00000000000E+00 0. -1.
</event>
<event>
 4    1  0.3752836E+003  0.2233429E+02  0.7546771E-02  0.1501031E+00
          2   -1    0    0  502    0  0.00000000000E+00  0.00000000000E+00  0.29165370750E+01  0.29165370750E+01  0.00000000000E+00 0. -1.
          1   -1    0    0  501    0 -0.00000000000E+00 -0.00000000000E+00 -0.79072946658E+03  0.79072946658E+03  0.00000000000E+00 0. -1.
          2    1    1    2  501    0  0.13275462343E+02  0.17960587084E+02 -0.42610786848E+02  0.48109248015E+02  0.00000000000E+00 0. -1.
          1    1    1    2  502    0 -0.13275462343E+02 -0.17960587084E+02 -0.74520214265E+03  0.74553675564E+03  0.00000000000E+00 0. -1.
</event>
<event>
 4    1  0.3752836E+003  0.2100891E+02  0.7546771E-02  0.1519138E+00
          2   -1    0    0  502    0  0.00000000000E+00  0.00000000000E+00  0.50457095593E+01  0.50457095593E+01  0.00000000000E+00 0. -1.
          1   -1    0    0  501    0 -0.00000000000E+00 -0.00000000000E+00 -0.91227733475E+02  0.91227733475E+02  0.00000000000E+00 0. -1.
          2    1    1    2  501    0  0.42563069300E+01 -0.20573243642E+02 -0.33328203195E+02  0.39397254103E+02  0.00000000000E+00 0. -1.
          1    1    1    2  502    0 -0.42563069300E+01  0.20573243642E+02 -0.52853820720E+02  0.56876188932E+02  0.00000000000E+00 0. -1.
</event>
<event>
 4    1  0.3752836E+003  0.2116184E+02  0.7546771E-02  0.1516967E+00
          2   -1    0    0  502    0  0.00000000000E+00  0.00000000000E+00  0.15522211735E+03  0.15522211735E+03  0.00000000000E+00 0.  1.
          1   -1    0    0  501    0 -0.00000000000E+00 -0.00000000000E+00 -0.56976755535E+02  0.56976755535E+02  0.00000000000E+00 0.  1.
          2    1    1    2  501    0 -0.19420346985E+02  0.84067674072E+01  0.15250102130E+03  0.15396228471E+03  0.00000000000E+00 0.  1.
          1    1    1    2  502    0  0.19420346985E+02 -0.84067674072E+01 -0.54255659489E+02  0.58236588171E+02  0.00000000000E+00 0.  1.
</event>
<event>
 4    1  0.3752836E+003  0.3341323E+02  0.7546771E-02  0.1392075E+00
          2   -1    0    0  502    0  0.00000000000E+00  0.00000000000E+00  0.15263004965E+03  0.15263004965E+03  0.00000000000E+00 0. -1.
          1   -1    0    0  501    0 -0.00000000000E+00 -0.00000000000E+00 -0.33251403072E+03  0.33251403072E+03  0.00000000000E+00 0. -1.
          2    1    1    2  501    0 -0.37801442614E+00 -0.33411093356E+02  0.14994713993E+03  0.15362483141E+03  0.00000000000E+00 0. -1.
          1    1    1    2  502    0  0.37801442614E+00  0.33411093356E+02 -0.32983112100E+03  0.33151924896E+03  0.00000000000E+00 0. -1.
</event>
<event>
 4    1  0.3752836E+003  0.2158350E+02  0.7546771E-02  0.1511095E+00
          2   -1    0    0  502    0  0.00000000000E+00  0.00000000000E+00  0.29623842049E+03  0.29623842049E+03  0.00000000000E+00 0. -1.
          1   -1    0    0  501    0 -0.00000000000E+00 -0.00000000000E+00 -0.42733471177E+01  0.42733471177E+01  0.00000000000E+00 0. -1.
          2    1    1    2  501    0 -0.21580214296E+02 -0.37682673478E+00  0.26543468013E+03  0.26631075281E+03  0.00000000000E+00 0. -1.
          1    1    1    2  502    0  0.21580214296E+02  0.37682673478E+00  0.26530393240E+02  0.34201014793E+02  0.00000000000E+00 0. -1.
</event>
<event>
 4    1  0.3752836E+003  0.3754695E+02  0.7546771E-02  0.1363493E+00
          2   -1    0    0  502    0  0.00000000000E+00  0.00000000000E+00  0.65125873597E+01  0.65125873597E+01  0.00000000000E+00 0. -1.
          1   -1    0    0  501    0 -0.00000000000E+00 -0.00000000000E+00 -0.52535358764E+03  0.52535358764E+03  0.00000000000E+00 0.  1.
          2    1    1    2  501    0  0.36030832865E+02  0.10561848421E+02 -0.55507641425E+02  0.67013967318E+02  0.00000000000E+00 0. -1.
          1    1    1    2  502    0 -0.36030832865E+02 -0.10561848421E+02 -0.46333335886E+03  0.46485220768E+03  0.00000000000E+00 0.  1.
</event>
<event>
 4    1  0.3752836E+003  0.2749987E+02  0.7546771E-02  0.1442650E+00
          2   -1    0    0  502    0  0.00000000000E+00  0.00000000000E+00  0.15215881937E+04  0.15215881937E+04  0.00000000000E+00 0. -1.
          1   -1    0    0  501    0 -0.00000000000E+00 -0.00000000000E+00 -0.24819463464E+02  0.24819463464E+02  0.00000000000E+00 0. -1.
          2    1    1    2  501    0 -0.25618404394E+02  0.99970231026E+01  0.15138073515E+04  0.15140571127E+04  0.00000000000E+00 0. -1.
          1    1    1    2  502    0  0.25618404394E+02 -0.99970231026E+01 -0.17038621232E+02  0.32350544479E+02  0.00000000000E+00 0. -1.
</event>
<event>
 4    1  0.3752836E+003  0.2116554E+02  0.7546771E-02  0.1516914E+00
          2   -1    0    0  502    0  0.00000000000E+00  0.00000000000E+00  0.21091387978E+02  0.21091387978E+02  0.00000000000E+00 0.  1.
          1   -1    0    0  501    0 -0.00000000000E+00 -0.00000000000E+00 -0.59212264117E+02  0.59212264117E+02  0.00000000000E+00 0.  1.
          2    1    1    2  501    0  0.11916598538E+00 -0.21165208491E+02  0.13093408772E+02  0.24888101661E+02  0.00000000000E+00 0.  1.
          1    1    1    2  502    0 -0.11916598538E+00  0.21165208491E+02 -0.51214284911E+02  0.55415550435E+02  0.00000000000E+00 0.  1.
</event>
<event>
 4    1  0.3752836E+003  0.2560854E+02  0.7546771E-02  0.1462109E+00
          2   -1    0    0  502    0  0.00000000000E+00  0.00000000000E+00  0.13665745459E+03  0.13665745459E+03  0.00000000000E+00 0.  1.
          1   -1    0    0  501    0 -0.00000000000E+00 -0.00000000000E+00 -0.22554689034E+02  0.22554689034E+02  0.00000000000E+00 0. -1.
          2    1    1    2  501    0 -0.22616994181E+02 -0.12011205986E+02  0.12768288986E+03  0.13022564209E+03  0.00000000000E+00 0.  1.
          1    1    1    2  502    0  0.22616994181E+02  0.12011205986E+02 -0.13580124304E+02  0.28986501533E+02  0.00000000000E+00 0. -1.
</event>
<event>
 4    1  0.3752836E+003  0.2850878E+02  0.7546771E-02  0.1433014E+00
          2   -1    0    0  502    0  0.00000000000E+00  0.00000000000E+00  0.31939290100E+01  0.31939290100E+01  0.00000000000E+00 0. -1.
          1   -1    0    0  501    0 -0.00000000000E+00 -0.00000000000E+00 -0.29438596434E+03  0.29438596434E+03  0.00000000000E+00 0.  1.
          2    1    1    2  501    0 -0.13341034077E+02  0.25194588220E+02 -0.90805792812E+02  0.95175850267E+02  0.00000000000E+00 0. -1.
          1    1    1    2  502    0  0.13341034077E+02 -0.25194588220E+02 -0.20038624252E+03  0.20240404308E+03  0.00000000000E+00 0.  1.
</event>
<event>
 4    1  0.3752836E+003  0.2114195E+02  0.7546771E-02  0.1517248E+00
          2   -1    0    0  502    0  0.00000000000E+00  0.00000000000E+00  0.20396283923E+03  0.20396283923E+03  0.00000000000E+00 0. -1.
          1   -1    0    0  501    0 -0.00000000000E+00 -0.00000000000E+00 -0.95742848777E+03  0.95742848777E+03  0.00000000000E+00 0. -1.
          2    1    1    2  501    0 -0.20942837736E+01  0.21037966609E+02  0.20329787234E+03  0.20439424395E+03  0.00000000000E+00 0. -1.
          1    1    1    2  502    0  0.20942837736E+01 -0.21037966609E+02 -0.95676352089E+03  0.95699708305E+03  0.00000000000E+00 0. -1.
</event>
<event>
 4    1  0.3752836E+003  0.2188694E+02  0.7546771E-02  0.1506969E+00
          2   -1    0    0  502    0  0.00000000000E+00  0.00000000000E+00  0.24386350605E+02  0.24386350605E+02  0.00000000000E+00 0. -1.
          1   -1    0    0  501    0 -0.00000000000E+00 -0.00000000000E+00 -0.34126354106E+03  0.34126354106E+03  0.00000000000E+00 0. -1.
          2    1    1    2  501    0  0.18930747422E+02  0.10984755588E+02  0.19046515694E+02  0.29013924474E+02  0.00000000000E+00 0. -1.
          1    1    1    2  502    0 -0.18930747422E+02 -0.10984755588E+02 -0.33592370615E+03  0.33663596719E+03  0.00000000000E+00 0. -1.
</event>
<event>
 4    1  0.3752836E+003  0.3015494E+02  0.7546771E-02  0.1418255E+00
          2   -1    0    0  502    0  0.00000000000E+00  0.00000000000E+00  0.20338240118E+01  0.20338240118E+01  0.00000000000E+00 0.  1.
          1   -1    0    0  501    0 -0.00000000000E+00 -0.00000000000E+00 -0.12170867515E+04  0.12170867515E+04  0.00000000000E+00 0.  1.
          2    1    1    2  501    0 -0.21351399739E+02  0.21294091933E+02 -0.12268716481E+03  0.12633867591E+03  0.00000000000E+00 0.  1.
          1    1    1    2  502    0  0.21351399739E+02 -0.21294091933E+02 -0.10923657626E+04  0.10927818996E+04  0.00000000000E+00 0.  1.
</event>
<event>
 4    1  0.3752836E+003  0.2260215E+02  0.7546771E-02  0.1497555E+00
          2   -1    0    0  502    0  0.00000000000E+00  0.00000000000E+00  0.22985727136E+03  0.22985727136E+03  0.00000000000E+00 0. -1.
          1   -1    0    0  501    0 -0.00000000000E+00 -0.00000000000E+00 -0.24504212711E+02  0.24504212711E+02  0.00000000000E+00 0.  1.
          2    1    1    2  501    0  0.89885609948E+01  0.20737959474E+02  0.22395264763E+03  0.22509030537E+03  0.00000000000E+00 0. -1.
          1    1    1    2  502    0 -0.89885609948E+01 -0.20737959474E+02 -0.18599588983E+02  0.29271178696E+02  0.00000000000E+00 0.  1.
</event>
<event>
 4    1  0.3752836E+003  0.2009964E+02  0.7546771E-02  0.1532518E+00
          2   -1    0    0  502    0  0.00000000000E+00  0.00000000000E+00  0.76259281344E+03  0.76259281344E+03  0.00000000000E+00 0. -1.
          1   -1    0    0  501    0 -0.00000000000E+00 -0.00000000000E+00 -0.97033491068E+03  0.97033491068E+03  0.00000000000E+00 0. -1.
          2    1    1    2  501    0  0.17453215636E+02  0.99689906842E+01  0.76235625310E+03  0.76262117211E+03  0.00000000000E+00 0. -1.
          1    1    1    2  502    0 -0.17453215636E+02 -0.99689906842E+01 -0.97009835034E+03  0.97030655200E+03  0.00000000000E+00 0. -1.
</event>
<event>
 4    1  0.3752836E+003  0.2240276E+02  0.7546771E-02  0.1500137E+00
          2   -1    0    0  502    0  0.00000000000E+00  0.00000000000E+00  0.18803972091E+03  0.18803972091E+03  0.00000000000E+00 0.  1.
          1   -1    0    0  501    0 -0.00000000000E+00 -0.00000000000E+00 -0.39849422273E+02  0.39849422273E+02  0.00000000000E+00 0. -1.
          2    1    1    2  501    0 -0.22243252419E+02 -0.26685679062E+01  0.18415770999E+03  0.18551535161E+03  0.00000000000E+00 0.  1.
          1    1    1    2  502    0  0.22243252419E+02  0.26685679062E+01 -0.35967411355E+02  0.42373791575E+02  0.00000000000E+00 0. -1.
</event>
<event>
 4    1  0.3752836E+003  0.2577376E+02  0.7546771E-02  0.1460330E+00
          2   -1    0    0  502    0  0.00000000000E+00  0.00000000000E+00  0.21974050939E+02  0.21974050939E+02  0.00000000000E+00 0. -1.
          1   -1    0    0  501    0 -0.00000000000E+00 -0.00000000000E+00 -0.10559735522E+04  0.10559735522E+04  0.00000000000E+00 0.  1.
          2    1    1    2  501    0 -0.34084070316E+01 -0.25547399813E+02  0.14203132871E+02  0.29428147394E+02  0.00000000000E+00 0. -1.
          1    1    1    2  502    0  0.34084070316E+01  0.25547399813E+02 -0.10482026342E+04  0.10485194558E+04  0.00000000000E+00 0.  1.
</event>
<event>
 4    1  0.3752836E+003  0.2060828E+02  0.7546771E-02  0.1524932E+00
          2   -1    0    0  502    0  0.00000000000E+00  0.00000000000E+00  0.25142699600E+03  0.25142699600E+03  0.00000000000E+00 0. -1.
          1   -1    0    0  501    0 -0.00000000000E+00 -0.00000000000E+00 -0.30443717675E+02  0.30443717675E+02  0.00000000000E+00 0.  1.
          2    1    1    2  501    0  0.88235254466E+01  0.18623817242E+02  0.24746131875E+03  0.24831795232E+03  0.00000000000E+00 0. -1.
          1    1    1    2  502    0 -0.88235254466E+01 -0.18623817242E+02 -0.26478040420E+02  0.33552761354E+02  0.00000000000E+00 0.  1.
</event>
<event>
 4    1  0.3752836E+003  0.2622548E+02  0.7546771E-02  0.1455547E+00
          2   -1    0    0  502    0  0.00000000000E+00  0.00000000000E+00  0.19330493021E+04  0.19330493021E+04  0.00000000000E+00 0. -1.
          1   -1    0    0  501    0 -0.00000000000E+00 -0.00000000000E+00 -0.23495019375E+01  0.23495019375E+01  0.00000000000E+00 0.  1.
          2    1    1    2  501    0 -0.26222048587E+02 -0.42421301936E+00  0.18567709024E+04  0.18569561006E+04  0.00000000000E+00 0. -1.
          1    1    1    2  502    0  0.26222048587E+02  0.42421301936E+00  0.73928897807E+02  0.78442703419E+02  0.00000000000E+00 0.  1.
</event>
<event>
 4    1  0.3752836E+003  0.4721489E+02  0.7546771E-02  0.1310721E+00
          2   -1    0    0  502    0  0.00000000000E+00  0.00000000000E+00  0.17373426021E+04  0.17373426021E+04  0.00000000000E+00 0.  1.
          1   -1    0    0  501    0 -0.00000000000E+00 -0.00000000000E+00 -0.26602667178E+01  0.26602667178E+01  0.00000000000E+00 0.  1.
          2    1    1    2  501    0  0.45322905467E+02 -0.13231769430E+02  0.14932990086E+04  0.14940452384E+04  0.00000000000E+00 0.  1.
          1    1    1    2  502    0 -0.45322905467E+02  0.13231769430E+02  0.24138332678E+03  0.24595763035E+03  0.00000000000E+00 0.  1.
</event>
<event>
 4    1  0.3752836E+003  0.2896545E+02  0.7546771E-02  0.1428805E+00
          2   -1    0    0  502    0  0.00000000000E+00  0.00000000000E+00  0.40691661793E+01  0.40691661793E+01  0.00000000000E+00 0.  1.
          1   -1    0    0  501    0 -0.00000000000E+00 -0.00000000000E+00 -0.47756611055E+03  0.47756611055E+03  0.00000000000E+00 0.  1.
          2    1    1    2  501    0 -0.14631167605E+02  0.24998526203E+02 -0.55212762051E+02  0.62349390302E+02  0.00000000000E+00 0.  1.
          1    1    1    2  502    0  0.14631167605E+02 -0.24998526203E+02 -0.41828418232E+03  0.41928588643E+03  0.00000000000E+00 0.  1.
</event>
<event>
 4    1  0.3752836E+003  0.2176483E+02  0.7546771E-02  0.1508619E+00
          2   -1    0    0  502    0  0.00000000000E+00  0.00000000000E+00  0.15234370569E+03  0.15234370569E+03  0.00000000000E+00 0. -1.
          1   -1    0    0  501    0 -0.00000000000E+00 -0.00000000000E+00 -0.10860789703E+02  0.10860789703E+02  0.00000000000E+00 0. -1.
          2    1    1    2  501    0 -0.15539566290E+02 -0.15239079719E+02  0.13967956248E+03  0.14136508709E+03  0.00000000000E+00 0. -1.
          1    1    1    2  502    0  0.15539566290E+02  0.15239079719E+02  0.18033534986E+01  0.21839408303E+02  0.00000000000E+00 0. -1.
</event>
<event>
 4    1  0.3752836E+003  0.2683905E+02  0.7546771E-02  0.1449232E+00
          2   -1    0    0  502    0  0.00000000000E+00  0.00000000000E+00  0.56217284967E+02  0.56217284967E+02  0.00000000000E+00 0. -1.
          1   -1    0    0  501    0 -0.00000000000E+00 -0.00000000000E+00 -0.74467898043E+02  0.74467898043E+02  0.00000000000E+00 0.  1.
          2    1    1    2  501    0  0.59306388559E+01  0.26175600428E+02  0.50330488613E+02  0.57039395325E+02  0.00000000000E+00 0. -1.
          1    1    1    2  502    0 -0.59306388559E+01 -0.26175600428E+02 -0.68581101688E+02  0.73645787686E+02  0.00000000000E+00 0.  1.
</event>
<event>
 4    1  0.3752836E+003  0.3181924E+02  0.7546771E-02  0.1404419E+00
          2   -1    0    0  502    0  0.00000000000E+00  0.00000000000E+00  0.31878475971E+03  0.31878475971E+03  0.00000000000E+00 0. -1.
          1   -1    0    0  501    0 -0.00000000000E+00 -0.00000000000E+00 -0.62553690115E+02  0.62553690115E+02  0.00000000000E+00 0. -1.
          2    1    1    2  501    0 -0.28343510569E+02 -0.14460626777E+02  0.31388132462E+03  0.31549001611E+03  0.00000000000E+00 0. -1.
          1    1    1    2  502    0  0.28343510569E+02  0.14460626777E+02 -0.57650255027E+02  0.65848433716E+02  0.00000000000E+00 0. -1.
</event>
<event>
 4    1  0.3752836E+003  0.2010427E+02  0.7546771E-02  0.1532448E+00
          2   -1    0    0  502    0  0.00000000000E+00  0.00000000000E+00  0.10156056203E+04  0.10156056203E+04  0.00000000000E+00 0. -1.
          1   -1    0    0  501    0 -0.00000000000E+00 -0.00000000000E+00 -0.14219774200E+01  0.14219774200E+01  0.00000000000E+00 0.  1.
          2    1    1    2  501    0 -0.12370444524E+02  0.15847833328E+02  0.93861855290E+03  0.93883383491E+03  0.00000000000E+00 0. -1.
          1    1    1    2  502    0  0.12370444524E+02 -0.15847833328E+02  0.75565089939E+02  0.78193762772E+02  0.00000000000E+00 0.  1.
</event>
<event>
 4    1  0.3752836E+003  0.3369617E+02  0.7546771E-02  0.1389969E+00
          2   -1    0    0  502    0  0.00000000000E+00  0.00000000000E+00  0.11840584641E+04  0.11840584641E+04  0.00000000000E+00 0.  1.
          1   -1    0    0  501    0 -0.00000000000E+00 -0.00000000000E+00 -0.20357485490E+02  0.20357485490E+02  0.00000000000E+00 0.  1.
          2    1    1    2  501    0  0.23973779704E+02 -0.23678889639E+02  0.11697039852E+04  0.11701892346E+04  0.00000000000E+00 0.  1.
          1    1    1    2  502    0 -0.23973779704E+02  0.23678889639E+02 -0.60030065735E+01  0.34226714943E+02  0.00000000000E+00 0.  1.
</event>
<event>
 4    1  0.3752836E+003  0.2772658E+02  0.7546771E-02  0.1440443E+00
          2   -1    0    0  502    0  0.00000000000E+00  0.00000000000E+00  0.28538452479E+02  0.28538452479E+02  0.00000000000E+00 0.  1.
          1   -1    0    0  501    0 -0.00000000000E+00 -0.00000000000E+00 -0.54870053723E+03  0.54870053723E+03  0.00000000000E+00 0.  1.
          2    1    1    2  501    0 -0.16687127222E+02  0.22142781599E+02  0.21364582201E+02  0.35002976509E+02  0.00000000000E+00 0.  1.
          1    1    1    2  502    0  0.16687127222E+02 -0.22142781599E+02 -0.54152666696E+03  0.54223601321E+03  0.00000000000E+00 0.  1.
</event>
<event>
 4    1  0.3752836E+003  0.2582526E+02  0.7546771E-02  0.1459779E+00
          2   -1    0    0  502    0  0.00000000000E+00  0.00000000000E+00  0.28276369458E+03  0.28276369458E+03  0.00000000000E+00 0.  1.
          1   -1    0    0  501    0 -0.00000000000E+00 -0.00000000000E+00 -0.17416465424E+02  0.17416465424E+02  0.00000000000E+00 0. -1.
          2    1    1    2  501    0  0.25262814438E+02  0.53604550500E+01  0.27223098409E+03  0.27345320069E+03  0.00000000000E+00 0.  1.
          1    1    1    2  502    0 -0.25262814438E+02 -0.53604550500E+01 -0.68837549372E+01  0.26726959305E+02  0.00000000000E+00 0. -1.
</event>
<event>
 4    1  0.3752836E+003  0.3036166E+02  0.7546771E-02  0.1416479E+00
          2   -1    0    0  502    0  0.00000000000E+00  0.00000000000E+00  0.86139207682E+03  0.86139207682E+03  0.00000000000E+00 0. -1.
          1   -1    0    0  501    0 -0.00000000000E+00 -0.00000000000E+00 -0.14817513035E+02  0.14817513035E+02  0.00000000000E+00 0.  1.
          2    1    1    2  501    0 -0.21580721625E+02 -0.21356557549E+02  0.84527502791E+03  0.84582013626E+03  0.00000000000E+00 0. -1.
          1    1    1    2  502    0  0.21580721625E+02  0.21356557549E+02  0.12995358750E+01  0.30389453594E+02  0.00000000000E+00 0.  1.
</event>
<event>
 4    1  0.3752836E+003  0.2800794E+02  0.7546771E-02  0.1437738E+00
          2   -1    0    0  502    0  0.00000000000E+00  0.00000000000E+00  0.13624523968E+03  0.13624523968E+03  0.00000000000E+00 0.  1.
          1   -1    0    0  501    0 -0.00000000000E+00 -0.00000000000E+00 -0.50072665102E+03  0.50072665102E+03  0.00000000000E+00 0. -1.
          2    1    1    2  501    0 -0.27517177643E+02  0.52201305109E+01  0.13440889380E+03  0.13729601436E+03  0.00000000000E+00 0.  1.
          1    1    1    2  502    0  0.27517177643E+02 -0.52201305109E+01 -0.49889030514E+03  0.49967587633E+03  0.00000000000E+00 0. -1.
</event>
<event>
 4    1  0.3752836E+003  0.2164080E+02  0.7546771E-02  0.1510309E+00
          2   -1    0    0  502    0  0.00000000000E+00  0.00000000000E+00  0.14467197261E+03  0.14467197261E+03  0.00000000000E+00 0.  1.
          1   -1    0    0  501    0 -0.00000000000E+00 -0.00000000000E+00 -0.86517669993E+02  0.86517669993E+02  0.00000000000E+00 0.  1.
          2    1    1    2  501    0  0.35192065302E+01  0.21352735444E+02  0.14248880893E+03  0.14412281150E+03  0.00000000000E+00 0.  1.
          1    1    1    2  502    0 -0.35192065302E+01 -0.21352735444E+02 -0.84334506304E+02  0.87066831107E+02  0.00000000000E+00 0.  1.
</event>
<event>
 4    1  0.3752836E+003  0.3390703E+02  0.7546771E-02  0.1388414E+00
          2   -1    0    0  502    0  0.00000000000E+00  0.00000000000E+00  0.42781028291E+03  0.42781028291E+03  0.00000000000E+00 0. -1.
          1   -1    0    0  501    0 -0.00000000000E+00 -0.00000000000E+00 -0.75977393193E+01  0.75977393193E+01  0.00000000000E+00 0. -1.
          2    1    1    2  501    0 -0.30007631184E+02 -0.15786985325E+02  0.38512361060E+03  0.38661334984E+03  0.00000000000E+00 0. -1.
          1    1    1    2  502    0  0.30007631184E+02  0.15786985325E+02  0.35088932991E+02  0.48794672387E+02  0.00000000000E+00 0. -1.
</event>
<event>
 4    1  0.3752836E+003  0.2650469E+02  0.7546771E-02  0.1452648E+00
          2   -1    0    0  502    0  0.00000000000E+00  0.00000000000E+00  0.11077373605E+03  0.11077373605E+03  0.00000000000E+00 0. -1.
          1   -1    0    0  501    0 -0.00000000000E+00 -0.00000000000E+00 -0.12445481148E+03  0.12445481148E+03  0.00000000000E+00 0.  1.
          2    1    1    2  501    0  0.50529501927E+01  0.26018575670E+02  0.10773796994E+03  0.11095029857E+03  0.00000000000E+00 0. -1.
          1    1    1    2  502    0 -0.50529501927E+01 -0.26018575670E+02 -0.12141904537E+03  0.12427824896E+03  0.00000000000E+00 0.  1.
</event>
<event>
 4    1  0.3752836E+003  0.2629124E+02  0.7546771E-02  0.1454861E+00
          2   -1    0    0  502    0  0.00000000000E+00  0.00000000000E+00  0.71656157701E+01  0.71656157701E+01  0.00000000000E+00 0. -1.
          1   -1    0    0  501    0 -0.00000000000E+00 -0.00000000000E+00 -0.11288292671E+04  0.11288292671E+04  0.00000000000E+00 0.  1.
          2    1    1    2  501    0 -0.25746163756E+02  0.53258236784E+01 -0.17645556405E+02  0.31663780679E+02  0.00000000000E+00 0. -1.
          1    1    1    2  502    0  0.25746163756E+02 -0.53258236784E+01 -0.11040180950E+04  0.11043311022E+04  0.00000000000E+00 0.  1.
</event>
<event>
 4    1  0.3752836E+003  0.3079334E+02  0.7546771E-02  0.1412825E+00
          2   -1    0    0  502    0  0.00000000000E+00  0.00000000000E+00  0.11657754618E+04  0.11657754618E+04  0.00000000000E+00 0. -1.
          1   -1    0    0  501    0 -0.00000000000E+00 -0.00000000000E+00 -0.20150815061E+02  0.20150815061E+02  0.00000000000E+00 0. -1.
          2    1    1    2  501    0  0.25033874804E+02  0.17931400572E+02  0.11536846816E+04  0.11540955657E+04  0.00000000000E+00 0. -1.
          1    1    1    2  502    0 -0.25033874804E+02 -0.17931400572E+02 -0.80600348899E+01  0.31830711217E+02  0.00000000000E+00 0. -1.
</event>
<event>
 4    1  0.3752836E+003  0.2214561E+02  0.7546771E-02  0.1503515E+00
          2   -1    0    0  502    0  0.00000000000E+00  0.00000000000E+00  0.74597913272E+02  0.74597913272E+02  0.00000000000E+00 0. -1.
          1   -1    0    0  501    0 -0.00000000000E+00 -0.00000000000E+00 -0.89713606150E+02  0.89713606150E+02  0.00000000000E+00 0.  1.
          2    1    1    2  501    0 -0.16022833347E+02 -0.15287147558E+02  0.71530426445E+02  0.74880104009E+02  0.00000000000E+00 0. -1.
          1    1    1    2  502    0  0.16022833347E+02  0.15287147558E+02 -0.86646119324E+02  0.89431415413E+02  0.00000000000E+00 0.  1.
</event>
<event>
 4    1  0.3752836E+003  0.2652117E+02  0.7546771E-02  0.1452478E+00
          2   -1    0    0  502    0  0.00000000000E+00  0.00000000000E+00  0.51866149952E+03  0.51866149952E+03  0.00000000000E+00 0. -1.
          1   -1    0    0  501    0 -0.00000000000E+00 -0.00000000000E+00 -0.36660943776E+01  0.36660943776E+01  0.00000000000E+00 0. -1.
          2    1    1    2  501    0 -0.85756646691E+01  0.25096426950E+02  0.46480459874E+03  0.46556061655E+03  0.00000000000E+00 0. -1.
          1    1    1    2  502    0  0.85756646691E+01 -0.25096426950E+02  0.50190806403E+02  0.56766977351E+02  0.00000000000E+00 0. -1.
</event>
<event>
 4    1  0.3752836E+003  0.2339714E+02  0.7546771E-02  0.1487571E+00
          2   -1    0    0  502    0  0.00000000000E+00  0.00000000000E+00  0.95248577915E+03  0.95248577915E+03  0.00000000000E+00 0. -1.
          1   -1    0    0  501    0 -0.00000000000E+00 -0.00000000000E+00 -0.18192499966E+01  0.18192499966E+01  0.00000000000E+00 0.  1.
          2    1    1    2  501    0 -0.22711745547E+02  0.56216431475E+01  0.86998245202E+03  0.87029701428E+03  0.00000000000E+00 0. -1.
          1    1    1    2  502    0  0.22711745547E+02 -0.56216431475E+01  0.80684077133E+02  0.84008014858E+02  0.00000000000E+00 0.  1.
</event>
<event>
 4    1  0.3752836E+003  0.2668153E+02  0.7546771E-02  0.1450834E+00
          2   -1    0    0  502    0  0.00000000000E+00  0.00000000000E+00  0.17619045678E+04  0.17619045678E+04  0.00000000000E+00 0.  1.
          1   -1    0    0  501    0 -0.00000000000E+00 -0.00000000000E+00 -0.24748353817E+01  0.24748353817E+01  0.00000000000E+00 0.  1.
          2    1    1    2  501    0  0.11192154787E+02 -0.24220642153E+02  0.16866822769E+04  0.16868933004E+04  0.00000000000E+00 0.  1.
          1    1    1    2  502    0 -0.11192154787E+02  0.24220642153E+02  0.72747455540E+02  0.77486102771E+02  0.00000000000E+00 0.  1.
</event>
<event>
 4    1  0.3752836E+003  0.2658303E+02  0.7546771E-02  0.1451842E+00
          2   -1    0    0  502    0  0.00000000000E+00  0.00000000000E+00  0.23262666853E+03  0.23262666853E+03  0.00000000000E+00 0. -1.
          1   -1    0    0  501    0 -0.00000000000E+00 -0.00000000000E+00 -0.14654311435E+02  0.14654311435E+02  0.00000000000E+00 0.  1.
          2    1    1    2  501    0 -0.15384843340E+01  0.26538476099E+02  0.21906838564E+03  0.22067536164E+03  0.00000000000E+00 0. -1.
          1    1    1    2  502    0  0.15384843340E+01 -0.26538476099E+02 -0.10960285494E+01  0.26605618322E+02  0.00000000000E+00 0.  1.
</event>
<event>
 4    1  0.3752836E+003  0.6031143E+02  0.7546771E-02  0.1258778E+00
          2   -1    0    0  502    0  0.00000000000E+00  0.00000000000E+00  0.24415838851E+04  0.24415838851E+04  0.00000000000E+00 0. -1.
          1   -1    0    0  501    0 -0.00000000000E+00 -0.00000000000E+00 -0.23575624407E+01  0.23575624407E+01  0.00000000000E+00 0. -1.
          2    1    1    2  501    0  0.59666974935E+02 -0.87932477890E+01  0.19609744187E+04  0.19619016642E+04  0.00000000000E+00 0. -1.
          1    1    1    2  502    0 -0.59666974935E+02  0.87932477890E+01  0.47825190394E+03  0.48203978334E+03  0.00000000000E+00 0. -1.
</event>
<event>
 4    1  0.3752836E+003  0.2056913E+02  0.7546771E-02  0.1525506E+00
          2   -1    0    0  502    0  0.00000000000E+00  0.00000000000E+00  0.40696847831E+02  0.40696847831E+02  0.00000000000E+00 0. -1.
          1   -1    0    0  501    0 -0.00000000000E+00 -0.00000000000E+00 -0.29738184950E+02  0.29738184950E+02  0.00000000000E+00 0.  1.
          2    1    1    2  501    0  0.13981311655E+02 -0.15086822520E+02  0.33881592944E+02  0.39636493661E+02  0.00000000000E+00 0. -1.
          1    1    1    2  502    0 -0.13981311655E+02  0.15086822520E+02 -0.22922930062E+02  0.30798539120E+02  0.00000000000E+00 0.  1.
</event>
<event>
 4    1  0.3752836E+003  0.3366953E+02  0.7546771E-02  0.1390166E+00
          2   -1    0    0  502    0  0.00000000000E+00  0.00000000000E+00  0.82483834426E+02  0.82483834426E+02  0.00000000000E+00 0.  1.
          1   -1    0    0  501    0 -0.00000000000E+00 -0.00000000000E+00 -0.13706267675E+04  0.13706267675E+04  0.00000000000E+00 0. -1.
          2    1    1    2  501    0 -0.73219958178E+00  0.33661564433E+02  0.78831946194E+02  0.85721133783E+02  0.00000000000E+00 0.  1.
          1    1    1    2  502    0  0.73219958178E+00 -0.33661564433E+02 -0.13669748793E+04  0.13673894682E+04  0.00000000000E+00 0. -1.
</event>
<event>
 4    1  0.3752836E+003  0.2982564E+02  0.7546771E-02  0.1421118E+00
          2   -1    0    0  502    0  0.00000000000E+00  0.00000000000E+00  0.86320804853E+01  0.86320804853E+01  0.00000000000E+00 0. -1.
          1   -1    0    0  501    0 -0.00000000000E+00 -0.00000000000E+00 -0.83530910126E+03  0.83530910126E+03  0.00000000000E+00 0. -1.
          2    1    1    2  501    0 -0.11619244850E+02 -0.27469288592E+02 -0.18254147912E+02  0.34968308261E+02  0.00000000000E+00 0. -1.
          1    1    1    2  502    0  0.11619244850E+02  0.27469288592E+02 -0.80842287286E+03  0.80897287348E+03  0.00000000000E+00 0. -1.
</event>
<event>
 4    1  0.3752836E+003  0.2254880E+02  0.7546771E-02  0.1498243E+00
          2   -1    0    0  502    0  0.00000000000E+00  0.00000000000E+00  0.13583748768E+02  0.13583748768E+02  0.00000000000E+00 0.  1.
          1   -1    0    0  501    0 -0.00000000000E+00 -0.00000000000E+00 -0.12449501545E+03  0.12449501545E+03  0.00000000000E+00 0. -1.
          2    1    1    2  501    0 -0.15049071226E+01 -0.22498524198E+02  0.22796328019E+01  0.22663738929E+02  0.00000000000E+00 0.  1.
          1    1    1    2  502    0  0.15049071226E+01  0.22498524198E+02 -0.11319089948E+03  0.11541502529E+03  0.00000000000E+00 0. -1.
</event>
<event>
 4    1  0.3752836E+003  0.2249037E+02  0.7546771E-02  0.1498999E+00
          2   -1    0    0  502    0  0.00000000000E+00  0.00000000000E+00  0.21956172723E+02  0.21956172723E+02  0.00000000000E+00 0.  1.
          1   -1    0    0  501    0 -0.00000000000E+00 -0.00000000000E+00 -0.58964400576E+02  0.58964400576E+02  0.00000000000E+00 0. -1.
          2    1    1    2  501    0 -0.18700888350E+02 -0.12493734791E+02  0.13078169608E+02  0.26016440079E+02  0.00000000000E+00 0.  1.
          1    1    1    2  502    0  0.18700888350E+02  0.12493734791E+02 -0.50086397460E+02  0.54904133220E+02  0.00000000000E+00 0. -1.
</event>
<event>
 4    1  0.3752836E+003  0.2068212E+02  0.7546771E-02  0.1523852E+00
          2   -1    0    0  502    0  0.00000000000E+00  0.00000000000E+00  0.31410898481E+03  0.31410898481E+03  0.00000000000E+00 0.  1.
          1   -1    0    0  501    0 -0.00000000000E+00 -0.00000000000E+00 -0.29719150735E+02  0.29719150735E+02  0.00000000000E+00 0. -1.
          2    1    1    2  501    0 -0.20541637131E+02  0.24064927003E+01  0.31012408384E+03  0.31081296215E+03  0.00000000000E+00 0.  1.
          1    1    1    2  502    0  0.20541637131E+02 -0.24064927003E+01 -0.25734249766E+02  0.33015173393E+02  0.00000000000E+00 0. -1.
</event>
<event>
 4    1  0.3752836E+003  0.2664812E+02  0.7546771E-02  0.1451175E+00
          2   -1    0    0  502    0  0.00000000000E+00  0.00000000000E+00  0.63700055992E+01  0.63700055992E+01  0.00000000000E+00 0. -1.
          1   -1    0    0  501    0 -0.00000000000E+00 -0.00000000000E+00 -0.11370114714E+03  0.11370114714E+03  0.00000000000E+00 0. -1.
          2    1    1    2  501    0 -0.10331139695E+02  0.24563981132E+02 -0.62058553203E+02  0.67538031080E+02  0.00000000000E+00 0. -1.
          1    1    1    2  502    0  0.10331139695E+02 -0.24563981132E+02 -0.45272588336E+02  0.52533121658E+02  0.00000000000E+00 0. -1.
</event>
<event>
 4    1  0.3752836E+003  0.3312598E+02  0.7546771E-02  0.1394239E+00
          2   -1    0    0  502    0  0.00000000000E+00  0.00000000000E+00  0.51493082675E+02  0.51493082675E+02  0.00000000000E+00 0.  1.
          1   -1    0    0  501    0 -0.00000000000E+00 -0.00000000000E+00 -0.32385126943E+02  0.32385126943E+02  0.00000000000E+00 0.  1.
          2    1    1    2  501    0 -0.10907094496E+02  0.31278838892E+02  0.34079361307E+02  0.47526133231E+02  0.00000000000E+00 0.  1.
          1    1    1    2  502    0  0.10907094496E+02 -0.31278838892E+02 -0.14971405575E+02  0.36352076387E+02  0.00000000000E+00 0.  1.
</event>
<event>
 4    1  0.3752836E+003  0.2569924E+02  0.7546771E-02  0.1461131E+00
          2   -1    0    0  502    0  0.00000000000E+00  0.00000000000E+00  0.34517094400E+01  0.34517094400E+01  0.00000000000E+00 0.  1.
          1   -1    0    0  501    0 -0.00000000000E+00 -0.00000000000E+00 -0.21463572336E+03  0.21463572336E+03  0.00000000000E+00 0.  1.
          2    1    1    2  501    0  0.25627765983E+02 -0.19153410322E+01 -0.69667941167E+02  0.74256804045E+02  0.00000000000E+00 0.  1.
          1    1    1    2  502    0 -0.25627765983E+02  0.19153410322E+01 -0.14151607275E+03  0.14383062875E+03  0.00000000000E+00 0.  1.
</event>
<event>
 4    1  0.3752836E+003  0.2311022E+02  0.7546771E-02  0.1491119E+00
          2   -1    0    0  502    0  0.00000000000E+00  0.00000000000E+00  0.75001118679E+03  0.75001118679E+03  0.00000000000E+00 0.  1.
          1   -1    0    0  501    0 -0.00000000000E+00 -0.00000000000E+00 -0.10058317519E+03  0.10058317519E+03  0.00000000000E+00 0.  1.
          2    1    1    2  501    0  0.14225283254E+02  0.18213278394E+02  0.74850302393E+03  0.74885970583E+03  0.00000000000E+00 0.  1.
          1    1    1    2  502    0 -0.14225283254E+02 -0.18213278394E+02 -0.99075012323E+02  0.10173465614E+03  0.00000000000E+00 0.  1.
</event>
<event>
 4    1  0.3921492E+003  0.3118322E+02  0.7546771E-02  0.1409585E+00
          2   -1    0    0  502    0  0.00000000000E+00  0.00000000000E+00  0.74112739894E+03  0.74112739894E+03  0.00000000000E+00 0.  1.
          1   -1    0    0  501    0 -0.00000000000E+00 -0.00000000000E+00 -0.69709872255E+03  0.69709872255E+03  0.00000000000E+00 0.  1.
          2    1    1    2  501    0 -0.10705576851E+02  0.29287949551E+02  0.74045033995E+03  0.74110667201E+03  0.00000000000E+00 0.  1.
          1    1    1    2  502    0  0.10705576851E+02 -0.29287949551E+02 -0.69642166356E+03  0.69711944948E+03  0.00000000000E+00 0.  1.
</event>
<event>
 4    1  0.3752836E+003  0.6726503E+02  0.7546771E-02  0.1236964E+00
          2   -1    0    0  502    0  0.00000000000E+00  0.00000000000E+00  0.92887721328E+02  0.92887721328E+02  0.00000000000E+00 0. -1.
          1   -1    0    0  501    0 -0.00000000000E+00 -0.00000000000E+00 -0.18042047285E+03  0.18042047285E+03  0.00000000000E+00 0.  1.
          2    1    1    2  501    0  0.53362432615E+02 -0.40951616252E+02  0.72992388969E+02  0.99259623894E+02  0.00000000000E+00 0. -1.
          1    1    1    2  502    0 -0.53362432615E+02  0.40951616252E+02 -0.16052514049E+03  0.17404857029E+03  0.00000000000E+00 0.  1.
</event>
<event>
 4    1  0.3752836E+003  0.3373371E+02  0.7546771E-02  0.1389691E+00
          2   -1    0    0  502    0  0.00000000000E+00  0.00000000000E+00  0.30016710193E+04  0.30016710193E+04  0.00000000000E+00 0.  1.
          1   -1    0    0  501    0 -0.00000000000E+00 -0.00000000000E+00 -0.50473341324E+00  0.50473341324E+00  0.00000000000E+00 0.  1.
          2    1    1    2  501    0  0.30079040778E+02 -0.15271367573E+02  0.22494600934E+04  0.22497130206E+04  0.00000000000E+00 0.  1.
          1    1    1    2  502    0 -0.30079040778E+02  0.15271367573E+02  0.75170619247E+03  0.75246273208E+03  0.00000000000E+00 0.  1.
</event>
<event>
 4    1  0.3752836E+003  0.2152746E+02  0.7546771E-02  0.1511866E+00
          2   -1    0    0  502    0  0.00000000000E+00  0.00000000000E+00  0.15307146640E+02  0.15307146640E+02  0.00000000000E+00 0. -1.
          1   -1    0    0  501    0 -0.00000000000E+00 -0.00000000000E+00 -0.17075314142E+03  0.17075314142E+03  0.00000000000E+00 0. -1.
          2    1    1    2  501    0 -0.18476396222E+02  0.11047816913E+02  0.66576688130E+01  0.22533442478E+02  0.00000000000E+00 0. -1.
          1    1    1    2  502    0  0.18476396222E+02 -0.11047816913E+02 -0.16210366360E+03  0.16352684559E+03  0.00000000000E+00 0. -1.
</event>
<event>
 4    1  0.3752836E+003  0.2309682E+02  0.7546771E-02  0.1491286E+00
          2   -1    0    0  502    0  0.00000000000E+00  0.00000000000E+00  0.64627562292E+03  0.64627562292E+03  0.00000000000E+00 0.  1.
          1   -1    0    0  501    0 -0.00000000000E+00 -0.00000000000E+00 -0.82565882739E+00  0.82565882739E+00  0.00000000000E+00 0.  1.
          2    1    1    2  501    0 -0.16277264069E+02  0.16386369731E+02  0.31747045909E+03  0.31830952677E+03  0.00000000000E+00 0.  1.
          1    1    1    2  502    0  0.16277264069E+02 -0.16386369731E+02  0.32797950500E+03  0.32879175498E+03  0.00000000000E+00 0.  1.
</event>
<event>
 4    1  0.3752836E+003  0.2896136E+02  0.7546771E-02  0.1428842E+00
          2   -1    0    0  502    0  0.00000000000E+00  0.00000000000E+00  0.12263566103E+02  0.12263566103E+02  0.00000000000E+00 0.  1.
          1   -1    0    0  501    0 -0.00000000000E+00 -0.00000000000E+00 -0.10871788017E+03  0.10871788017E+03  0.00000000000E+00 0.  1.
          2    1    1    2  501    0  0.76646793079E+01  0.27928713175E+02 -0.11387394970E+02  0.31119657657E+02  0.00000000000E+00 0.  1.
          1    1    1    2  502    0 -0.76646793079E+01 -0.27928713175E+02 -0.85066919093E+02  0.89861788612E+02  0.00000000000E+00 0.  1.
</event>
<event>
 4    1  0.3752836E+003  0.2043773E+02  0.7546771E-02  0.1527446E+00
          2   -1    0    0  502    0  0.00000000000E+00  0.00000000000E+00  0.88042201675E+03  0.88042201675E+03  0.00000000000E+00 0.  1.
          1   -1    0    0  501    0 -0.00000000000E+00 -0.00000000000E+00 -0.49430226925E+03  0.49430226925E+03  0.00000000000E+00 0. -1.
          2    1    1    2  501    0 -0.20030304097E+02  0.40605222074E+01  0.88009207157E+03  0.88032934483E+03  0.00000000000E+00 0.  1.
          1    1    1    2  502    0  0.20030304097E+02 -0.40605222074E+01 -0.49397232407E+03  0.49439494118E+03  0.00000000000E+00 0. -1.
</event>
<event>
 4    1  0.3752836E+003  0.2637577E+02  0.7546771E-02  0.1453981E+00
          2   -1    0    0  502    0  0.00000000000E+00  0.00000000000E+00  0.84607334234E+03  0.84607334234E+03  0.00000000000E+00 0.  1.
          1   -1    0    0  501    0 -0.00000000000E+00 -0.00000000000E+00 -0.18928964888E+01  0.18928964888E+01  0.00000000000E+00 0.  1.
          2    1    1    2  501    0  0.26325610672E+02  0.16259326706E+01  0.74095661660E+03  0.74142591613E+03  0.00000000000E+00 0.  1.
          1    1    1    2  502    0 -0.26325610672E+02 -0.16259326706E+01  0.10322382926E+03  0.10654032270E+03  0.00000000000E+00 0.  1.
</event>
<event>
 4    1  0.3752836E+003  0.2924817E+02  0.7546771E-02  0.1426244E+00
          2   -1    0    0  502    0  0.00000000000E+00  0.00000000000E+00  0.41990458349E+03  0.41990458349E+03  0.00000000000E+00 0.  1.
          1   -1    0    0  501    0 -0.00000000000E+00 -0.00000000000E+00 -0.18528534949E+03  0.18528534949E+03  0.00000000000E+00 0. -1.
          2    1    1    2  501    0  0.12321331901E+01  0.29222203668E+02  0.41823642966E+03  0.41925787582E+03  0.00000000000E+00 0.  1.
          1    1    1    2  502    0 -0.12321331901E+01 -0.29222203668E+02 -0.18361719566E+03  0.18593205717E+03  0.00000000000E+00 0. -1.
</event>
<event>
 4    1  0.3752836E+003  0.2377041E+02  0.7546771E-02  0.1483044E+00
          2   -1    0    0  502    0  0.00000000000E+00  0.00000000000E+00  0.22726718037E+01  0.22726718037E+01  0.00000000000E+00 0. -1.
          1   -1    0    0  501    0 -0.00000000000E+00 -0.00000000000E+00 -0.42247575035E+03  0.42247575035E+03  0.00000000000E+00 0.  1.
          2    1    1    2  501    0  0.22208783427E+02 -0.84736383378E+01 -0.73864594212E+02  0.77595173085E+02  0.00000000000E+00 0. -1.
          1    1    1    2  502    0 -0.22208783427E+02  0.84736383378E+01 -0.34633848434E+03  0.34715324907E+03  0.00000000000E+00 0.  1.
</event>
<event>
 4    1  0.3752836E+003  0.2521085E+02  0.7546771E-02  0.1466458E+00
          2   -1    0    0  502    0  0.00000000000E+00  0.00000000000E+00  0.37175212848E+02  0.37175212848E+02  0.00000000000E+00 0.  1.
          1   -1    0    0  501    0 -0.00000000000E+00 -0.00000000000E+00 -0.40050434296E+02  0.40050434296E+02  0.00000000000E+00 0. -1.
          2    1    1    2  501    0  0.22286273792E+02 -0.11785972151E+02  0.27793891877E+02  0.37524492864E+02  0.00000000000E+00 0.  1.
          1    1    1    2  502    0 -0.22286273792E+02  0.11785972151E+02 -0.30669113325E+02  0.39701154280E+02  0.00000000000E+00 0. -1.
</event>
<event>
 4    1  0.3752836E+003  0.2841782E+02  0.7546771E-02  0.1433863E+00
          2   -1    0    0  502    0  0.00000000000E+00  0.00000000000E+00  0.62223448260E+02  0.62223448260E+02  0.00000000000E+00 0.  1.
          1   -1    0    0  501    0 -0.00000000000E+00 -0.00000000000E+00 -0.27276905477E+03  0.27276905477E+03  0.00000000000E+00 0.  1.
          2    1    1    2  501    0 -0.78604967076E+01 -0.27309068391E+02  0.58190076703E+02  0.64758456217E+02  0.00000000000E+00 0.  1.
          1    1    1    2  502    0  0.78604967076E+01  0.27309068391E+02 -0.26873568321E+03  0.27023404681E+03  0.00000000000E+00 0.  1.
</event>
<event>
 4    1  0.3752836E+003  0.2557577E+02  0.7546771E-02  0.1462464E+00
          2   -1    0    0  502    0  0.00000000000E+00  0.00000000000E+00  0.18410394447E+01  0.18410394447E+01  0.00000000000E+00 0. -1.
          1   -1    0    0  501    0 -0.00000000000E+00 -0.00000000000E+00 -0.12161697672E+04  0.12161697672E+04  0.00000000000E+00 0. -1.
          2    1    1    2  501    0 -0.80172633067E+01 -0.24286695381E+02 -0.94783453374E+02  0.98173433865E+02  0.00000000000E+00 0. -1.
          1    1    1    2  502    0  0.80172633067E+01  0.24286695381E+02 -0.11195452744E+04  0.11198373728E+04  0.00000000000E+00 0. -1.
</event>
<event>
 4    1  0.3752836E+003  0.2294536E+02  0.7546771E-02  0.1493185E+00
          2   -1    0    0  502    0  0.00000000000E+00  0.00000000000E+00  0.30676292340E+01  0.30676292340E+01  0.00000000000E+00 0. -1.
          1   -1    0    0  501    0 -0.00000000000E+00 -0.00000000000E+00 -0.18804904923E+03  0.18804904923E+03  0.00000000000E+00 0.  1.
          2    1    1    2  501    0 -0.18294619730E+02  0.13849055689E+02 -0.64252287073E+02  0.68226430719E+02  0.00000000000E+00 0. -1.
          1    1    1    2  502    0  0.18294619730E+02 -0.13849055689E+02 -0.12072913292E+03  0.12289024775E+03  0.00000000000E+00 0.  1.
</event>
<event>
 4    1  0.3752836E+003  0.2119412E+02  0.7546771E-02  0.1516511E+00
          2   -1    0    0  502    0  0.00000000000E+00  0.00000000000E+00  0.50934607485E+02  0.50934607485E+02  0.00000000000E+00 0. -1.
          1   -1    0    0  501    0 -0.00000000000E+00 -0.00000000000E+00 -0.48468953021E+02  0.48468953021E+02  0.00000000000E+00 0. -1.
          2    1    1    2  501    0  0.12341877995E+02 -0.17229884695E+02  0.46186131234E+02  0.50816823960E+02  0.00000000000E+00 0. -1.
          1    1    1    2  502    0 -0.12341877995E+02  0.17229884695E+02 -0.43720476770E+02  0.48586736545E+02  0.00000000000E+00 0. -1.
</event>
<event>
 4    1  0.3752836E+003  0.2221546E+02  0.7546771E-02  0.1502592E+00
          2   -1    0    0  502    0  0.00000000000E+00  0.00000000000E+00  0.15274419746E+04  0.15274419746E+04  0.00000000000E+00 0.  1.
          1   -1    0    0  501    0 -0.00000000000E+00 -0.00000000000E+00 -0.32674630512E+00  0.32674630512E+00  0.00000000000E+00 0.  1.
          2    1    1    2  501    0  0.22108355116E+02  0.21788588180E+01  0.84417843721E+03  0.84447069851E+03  0.00000000000E+00 0.  1.
          1    1    1    2  502    0 -0.22108355116E+02 -0.21788588180E+01  0.68293679105E+03  0.68329802236E+03  0.00000000000E+00 0.  1.
</event>
<event>
 4    1  0.3752836E+003  0.3869547E+02  0.7546771E-02  0.1356305E+00
          2   -1    0    0  502    0  0.00000000000E+00  0.00000000000E+00  0.14875850568E+01  0.14875850568E+01  0.00000000000E+00 0.  1.
          1   -1    0    0  501    0 -0.00000000000E+00 -0.00000000000E+00 -0.10285348362E+04  0.10285348362E+04  0.00000000000E+00 0. -1.
          2    1    1    2  501    0  0.38335398007E+02  0.52664215557E+01 -0.58880849815E+03  0.59007862648E+03  0.00000000000E+00 0.  1.
          1    1    1    2  502    0 -0.38335398007E+02 -0.52664215557E+01 -0.43823875297E+03  0.43994379476E+03  0.00000000000E+00 0. -1.
</event>
<event>
 4    1  0.3752836E+003  0.2175461E+02  0.7546771E-02  0.1508758E+00
          2   -1    0    0  502    0  0.00000000000E+00  0.00000000000E+00  0.60788888099E+01  0.60788888099E+01  0.00000000000E+00 0. -1.
          1   -1    0    0  501    0 -0.00000000000E+00 -0.00000000000E+00 -0.55759341700E+03  0.55759341700E+03  0.00000000000E+00 0. -1.
          2    1    1    2  501    0 -0.13053534249E+02 -0.17403114174E+02 -0.14336076369E+02  0.26053526153E+02  0.00000000000E+00 0. -1.
          1    1    1    2  502    0  0.13053534249E+02  0.17403114174E+02 -0.53717845183E+03  0.53761877966E+03  0.00000000000E+00 0. -1.
</event>
<event>
 4    1  0.3752836E+003  0.4384541E+02  0.7546771E-02  0.1327315E+00
          2   -1    0    0  502    0  0.00000000000E+00  0.00000000000E+00  0.51666166910E+03  0.51666166910E+03  0.00000000000E+00 0.  1.
          1   -1    0    0  501    0 -0.00000000000E+00 -0.00000000000E+00 -0.40203221548E+01  0.40203221548E+01  0.00000000000E+00 0. -1.
          2    1    1    2  501    0  0.43302584557E+02 -0.68779742198E+01  0.32737502107E+03  0.33029808473E+03  0.00000000000E+00 0.  1.
          1    1    1    2  502    0 -0.43302584557E+02  0.68779742198E+01  0.18526632588E+03  0.19038390652E+03  0.00000000000E+00 0. -1.
</event>
<event>
 4    1  0.3752836E+003  0.2066078E+02  0.7546771E-02  0.1524164E+00
          2   -1    0    0  502    0  0.00000000000E+00  0.00000000000E+00  0.13295597596E+04  0.13295597596E+04  0.00000000000E+00 0.  1.
          1   -1    0    0  501    0 -0.00000000000E+00 -0.00000000000E+00 -0.10461475565E+02  0.10461475565E+02  0.00000000000E+00 0.  1.
          2    1    1    2  501    0 -0.95369368846E+01  0.18327975795E+02  0.13191984310E+04  0.13193602117E+04  0.00000000000E+00 0.  1.
          1    1    1    2  502    0  0.95369368846E+01 -0.18327975795E+02 -0.10014695003E+00  0.20661023481E+02  0.00000000000E+00 0.  1.
</event>
<event>
 4    1  0.3752836E+003  0.2907660E+02  0.7546771E-02  0.1427794E+00
          2   -1    0    0  502    0  0.00000000000E+00  0.00000000000E+00  0.53283761580E+01  0.53283761580E+01  0.00000000000E+00 0.  1.
          1   -1    0    0  501    0 -0.00000000000E+00 -0.00000000000E+00 -0.87869347275E+03  0.87869347275E+03  0.00000000000E+00 0.  1.
          2    1    1    2  501    0 -0.14346546303E+02  0.25290816112E+02 -0.36564727343E+02  0.46716464508E+02  0.00000000000E+00 0.  1.
          1    1    1    2  502    0  0.14346546303E+02 -0.25290816112E+02 -0.83680036925E+03  0.83730538440E+03  0.00000000000E+00 0.  1.
</event>
<event>
 4    1  0.3752836E+003  0.2220064E+02  0.7546771E-02  0.1502787E+00
          2   -1    0    0  502    0  0.00000000000E+00  0.00000000000E+00  0.44688701921E+03  0.44688701921E+03  0.00000000000E+00 0. -1.
          1   -1    0    0  501    0 -0.00000000000E+00 -0.00000000000E+00 -0.15848779599E+02  0.15848779599E+02  0.00000000000E+00 0.  1.
          2    1    1    2  501    0 -0.81316589117E+01  0.20657795831E+02  0.43869160045E+03  0.43925298941E+03  0.00000000000E+00 0. -1.
          1    1    1    2  502    0  0.81316589117E+01 -0.20657795831E+02 -0.76533608325E+01  0.23482809400E+02  0.00000000000E+00 0.  1.
</event>
<event>
 4    1  0.3752836E+003  0.2072706E+02  0.7546771E-02  0.1523198E+00
          2   -1    0    0  502    0  0.00000000000E+00  0.00000000000E+00  0.40703360386E+03  0.40703360386E+03  0.00000000000E+00 0. -1.
          1   -1    0    0  501    0 -0.00000000000E+00 -0.00000000000E+00 -0.75500411652E+01  0.75500411652E+01  0.00000000000E+00 0.  1.
          2    1    1    2  501    0  0.10271692242E+02 -0.18002865059E+02  0.39199907643E+03  0.39254666822E+03  0.00000000000E+00 0. -1.
          1    1    1    2  502    0 -0.10271692242E+02  0.18002865059E+02  0.74844862633E+01  0.22036976800E+02  0.00000000000E+00 0.  1.
</event>
<event>
 4    1  0.3752836E+003  0.2761098E+02  0.7546771E-02  0.1441565E+00
          2   -1    0    0  502    0  0.00000000000E+00  0.00000000000E+00  0.40643775579E+02  0.40643775579E+02  0.00000000000E+00 0. -1.
          1   -1    0    0  501    0 -0.00000000000E+00 -0.00000000000E+00 -0.14557359296E+04  0.14557359296E+04  0.00000000000E+00 0. -1.
          2    1    1    2  501    0  0.69146459697E+01 -0.26731135694E+02  0.35807907473E+02  0.45216945739E+02  0.00000000000E+00 0. -1.
          1    1    1    2  502    0 -0.69146459697E+01  0.26731135694E+02 -0.14509000614E+04  0.14511627594E+04  0.00000000000E+00 0. -1.
</event>
<event>
 4    1  0.3752836E+003  0.2988663E+02  0.7546771E-02  0.1420584E+00
          2   -1    0    0  502    0  0.00000000000E+00  0.00000000000E+00  0.79102285780E+03  0.79102285780E+03  0.00000000000E+00 0. -1.
          1   -1    0    0  501    0 -0.00000000000E+00 -0.00000000000E+00 -0.75952133095E+01  0.75952133095E+01  0.00000000000E+00 0. -1.
          2    1    1    2  501    0 -0.17610523705E+02 -0.24147048167E+02  0.76014636119E+03  0.76073365964E+03  0.00000000000E+00 0. -1.
          1    1    1    2  502    0  0.17610523705E+02  0.24147048167E+02  0.23281283306E+02  0.37884411474E+02  0.00000000000E+00 0. -1.
</event>
<event>
 4    1  0.3752836E+003  0.2138084E+02  0.7546771E-02  0.1513896E+00
          2   -1    0    0  502    0  0.00000000000E+00  0.00000000000E+00  0.15134556413E+02  0.15134556413E+02  0.00000000000E+00 0. -1.
          1   -1    0    0  501    0 -0.00000000000E+00 -0.00000000000E+00 -0.36711507013E+02  0.36711507013E+02  0.00000000000E+00 0.  1.
          2    1    1    2  501    0  0.16204783765E+02  0.13947943509E+02  0.12484044998E+00  0.21381200390E+02  0.00000000000E+00 0. -1.
          1    1    1    2  502    0 -0.16204783765E+02 -0.13947943509E+02 -0.21701791049E+02  0.30464863035E+02  0.00000000000E+00 0.  1.
</event>
<event>
 4    1  0.3752836E+003  0.2132438E+02  0.7546771E-02  0.1514684E+00
          2   -1    0    0  502    0  0.00000000000E+00  0.00000000000E+00  0.20851709824E+03  0.20851709824E+03  0.00000000000E+00 0. -1.
          1   -1    0    0  501    0 -0.00000000000E+00 -0.00000000000E+00 -0.57337947444E+02  0.57337947444E+02  0.00000000000E+00 0. -1.
          2    1    1    2  501    0  0.14590101160E+02  0.15551795085E+02  0.20596472752E+03  0.20706568611E+03  0.00000000000E+00 0. -1.
          1    1    1    2  502    0 -0.14590101160E+02 -0.15551795085E+02 -0.54785576723E+02  0.58789359574E+02  0.00000000000E+00 0. -1.
</event>
<event>
 4    1  0.3752836E+003  0.2600166E+02  0.7546771E-02  0.1457903E+00
          2   -1    0    0  502    0  0.00000000000E+00  0.00000000000E+00  0.19084049321E+03  0.19084049321E+03  0.00000000000E+00 0. -1.
          1   -1    0    0  501    0 -0.00000000000E+00 -0.00000000000E+00 -0.17082319563E+02  0.17082319563E+02  0.00000000000E+00 0.  1.
          2    1    1    2  501    0  0.10219965910E+02  0.23908968554E+02  0.17943460217E+03  0.18130875030E+03  0.00000000000E+00 0. -1.
          1    1    1    2  502    0 -0.10219965910E+02 -0.23908968554E+02 -0.56764285205E+01  0.26614062472E+02  0.00000000000E+00 0.  1.
</event>
<event>
 4    1  0.3752836E+003  0.5153931E+02  0.7546771E-02  0.1291633E+00
          2   -1    0    0  502    0  0.00000000000E+00  0.00000000000E+00  0.10203764479E+04  0.10203764479E+04  0.00000000000E+00 0. -1.
          1   -1    0    0  501    0 -0.00000000000E+00 -0.00000000000E+00 -0.10687662506E+04  0.10687662506E+04  0.00000000000E+00 0.  1.
          2    1    1    2  501    0  0.13315671679E+02 -0.49789486715E+02  0.10191035113E+04  0.10204059324E+04  0.00000000000E+00 0. -1.
          1    1    1    2  502    0 -0.13315671679E+02  0.49789486715E+02 -0.10674933140E+04  0.10687367662E+04  0.00000000000E+00 0.  1.
</event>
<event>
 4    1  0.3752836E+003  0.2754193E+02  0.7546771E-02  0.1442239E+00
          2   -1    0    0  502    0  0.00000000000E+00  0.00000000000E+00  0.11468408053E+04  0.11468408053E+04  0.00000000000E+00 0. -1.
          1   -1    0    0  501    0 -0.00000000000E+00 -0.00000000000E+00 -0.28987262157E+01  0.28987262157E+01  0.00000000000E+00 0.  1.
          2    1    1    2  501    0 -0.51248602653E+00 -0.27537164848E+02  0.10770128631E+04  0.10773649639E+04  0.00000000000E+00 0. -1.
          1    1    1    2  502    0  0.51248602653E+00  0.27537164848E+02  0.66929215988E+02  0.72374567650E+02  0.00000000000E+00 0.  1.
</event>
<event>
 4    1  0.3752836E+003  0.3825318E+02  0.7546771E-02  0.1359038E+00
          2   -1    0    0  502    0  0.00000000000E+00  0.00000000000E+00  0.12367345121E+04  0.12367345121E+04  0.00000000000E+00 0.  1.
          1   -1    0    0  501    0 -0.00000000000E+00 -0.00000000000E+00 -0.39530519881E+01  0.39530519881E+01  0.00000000000E+00 0. -1.
          2    1    1    2  501    0  0.33691664111E+02 -0.18115674328E+02  0.11356620654E+04  0.11363061351E+04  0.00000000000E+00 0.  1.
          1    1    1    2  502    0 -0.33691664111E+02  0.18115674328E+02  0.97119394672E+02  0.10438142894E+03  0.00000000000E+00 0. -1.
</event>
<event>
 4    1  0.3752836E+003  0.3698697E+02  0.7546771E-02  0.1367108E+00
          2   -1    0    0  502    0  0.00000000000E+00  0.00000000000E+00  0.41521633114E+02  0.41521633114E+02  0.00000000000E+00 0.  1.
          1   -1    0    0  501    0 -0.00000000000E+00 -0.00000000000E+00 -0.20532765664E+03  0.20532765664E+03  0.00000000000E+00 0. -1.
          2    1    1    2  501    0  0.24571436561E+02  0.27645619447E+02  0.31186347385E+02  0.48379996203E+02  0.00000000000E+00 0.  1.
          1    1    1    2  502    0 -0.24571436561E+02 -0.27645619447E+02 -0.19499237091E+03  0.19846929355E+03  0.00000000000E+00 0. -1.
</event>
<event>
 4    1  0.3752836E+003  0.5675940E+02  0.7546771E-02  0.1271259E+00
          2   -1    0    0  502    0  0.00000000000E+00  0.00000000000E+00  0.19069667492E+04  0.19069667492E+04  0.00000000000E+00 0. -1.
          1   -1    0    0  501    0 -0.00000000000E+00 -0.00000000000E+00 -0.93507201084E+01  0.93507201084E+01  0.00000000000E+00 0.  1.
          2    1    1    2  501    0  0.49237376908E+02 -0.28236678344E+02  0.18161028166E+04  0.18169895623E+04  0.00000000000E+00 0. -1.
          1    1    1    2  502    0 -0.49237376908E+02  0.28236678344E+02  0.81513212550E+02  0.99327907000E+02  0.00000000000E+00 0.  1.
</event>
<event>
 4    1  0.3752836E+003  0.2084634E+02  0.7546771E-02  0.1521470E+00
          2   -1    0    0  502    0  0.00000000000E+00  0.00000000000E+00  0.27695546980E+01  0.27695546980E+01  0.00000000000E+00 0. -1.
          1   -1    0    0  501    0 -0.00000000000E+00 -0.00000000000E+00 -0.42432057354E+03  0.42432057354E+03  0.00000000000E+00 0. -1.
          2    1    1    2  501    0 -0.77158625056E+01  0.19365825056E+02 -0.41251151924E+02  0.46219338478E+02  0.00000000000E+00 0. -1.
          1    1    1    2  502    0  0.77158625056E+01 -0.19365825056E+02 -0.38029986692E+03  0.38087078976E+03  0.00000000000E+00 0. -1.
</event>
<event>
 4    1  0.3752836E+003  0.2976998E+02  0.7546771E-02  0.1421606E+00
          2   -1    0    0  502    0  0.00000000000E+00  0.00000000000E+00  0.12332950714E+02  0.12332950714E+02  0.00000000000E+00 0.  1.
          1   -1    0    0  501    0 -0.00000000000E+00 -0.00000000000E+00 -0.85847010845E+02  0.85847010845E+02  0.00000000000E+00 0. -1.
          2    1    1    2  501    0 -0.26774897788E+02  0.13013712888E+02 -0.16942438254E+02  0.34253439078E+02  0.00000000000E+00 0.  1.
          1    1    1    2  502    0  0.26774897788E+02 -0.13013712888E+02 -0.56571621877E+02  0.63926522481E+02  0.00000000000E+00 0. -1.
</event>
<event>
 4    1  0.3752836E+003  0.2321590E+02  0.7546771E-02  0.1489805E+00
          2   -1    0    0  502    0  0.00000000000E+00  0.00000000000E+00  0.27277339700E+04  0.27277339700E+04  0.00000000000E+00 0. -1.
          1   -1    0    0  501    0 -0.00000000000E+00 -0.00000000000E+00 -0.20739619509E+00  0.20739619509E+00  0.00000000000E+00 0. -1.
          2    1    1    2  501    0 -0.83457928566E+01  0.21663930012E+02  0.16603235507E+04  0.16604858539E+04  0.00000000000E+00 0. -1.
          1    1    1    2  502    0  0.83457928566E+01 -0.21663930012E+02  0.10672030231E+04  0.10674555123E+04  0.00000000000E+00 0. -1.
</event>
<event>
 4    1  0.3752836E+003  0.2965746E+02  0.7546771E-02  0.1422597E+00
          2   -1    0    0  502    0  0.00000000000E+00  0.00000000000E+00  0.86434684349E+03  0.86434684349E+03  0.00000000000E+00 0.  1.
          1   -1    0    0  501    0 -0.00000000000E+00 -0.00000000000E+00 -0.30939555754E+02  0.30939555754E+02  0.00000000000E+00 0. -1.
          2    1    1    2  501    0 -0.79380574317E+01  0.28575382215E+02  0.85692376946E+03  0.85743682676E+03  0.00000000000E+00 0.  1.
          1    1    1    2  502    0  0.79380574317E+01 -0.28575382215E+02 -0.23516481723E+02  0.37849572483E+02  0.00000000000E+00 0. -1.
</event>
<event>
 4    1  0.3752836E+003  0.2634502E+02  0.7546771E-02  0.1454301E+00
          2   -1    0    0  502    0  0.00000000000E+00  0.00000000000E+00  0.70210610996E+03  0.70210610996E+03  0.00000000000E+00 0. -1.
          1   -1    0    0  501    0 -0.00000000000E+00 -0.00000000000E+00 -0.12978645931E+01  0.12978645931E+01  0.00000000000E+00 0.  1.
          2    1    1    2  501    0  0.26031888473E+02  0.40497677547E+01  0.52210301473E+03  0.52276726927E+03  0.00000000000E+00 0. -1.
          1    1    1    2  502    0 -0.26031888473E+02 -0.40497677547E+01  0.17870523064E+03  0.18063670528E+03  0.00000000000E+00 0.  1.
</event>
<event>
 4    1  0.3752836E+003  0.2808826E+02  0.7546771E-02  0.1436972E+00
          2   -1    0    0  502    0  0.00000000000E+00  0.00000000000E+00  0.12921633405E+04  0.12921633405E+04  0.00000000000E+00 0.  1.
          1   -1    0    0  501    0 -0.00000000000E+00 -0.00000000000E+00 -0.18930475642E+03  0.18930475642E+03  0.00000000000E+00 0.  1.
          2    1    1    2  501    0  0.21860398746E+02 -0.17637263464E+02  0.12909678297E+04  0.12912733589E+04  0.00000000000E+00 0.  1.
          1    1    1    2  502    0 -0.21860398746E+02  0.17637263464E+02 -0.18810924560E+03  0.19019473803E+03  0.00000000000E+00 0.  1.
</event>
<event>
 4    1  0.3752836E+003  0.2142890E+02  0.7546771E-02  0.1513229E+00
          2   -1    0    0  502    0  0.00000000000E+00  0.00000000000E+00  0.11821076018E+02  0.11821076018E+02  0.00000000000E+00 0. -1.
          1   -1    0    0  501    0 -0.00000000000E+00 -0.00000000000E+00 -0.81831131078E+02  0.81831131078E+02  0.00000000000E+00 0. -1.
          2    1    1    2  501    0 -0.20264956448E+02 -0.69662941261E+01 -0.10667733505E+01  0.21455435654E+02  0.00000000000E+00 0. -1.
          1    1    1    2  502    0  0.20264956448E+02  0.69662941261E+01 -0.68943281710E+02  0.72196771442E+02  0.00000000000E+00 0. -1.
</event>
<event>
 4    1  0.3752836E+003  0.4565577E+02  0.7546771E-02  0.1318192E+00
          2   -1    0    0  502    0  0.00000000000E+00  0.00000000000E+00  0.18293126073E+03  0.18293126073E+03  0.00000000000E+00 0. -1.
          1   -1    0    0  501    0 -0.00000000000E+00 -0.00000000000E+00 -0.32644867721E+02  0.32644867721E+02  0.00000000000E+00 0.  1.
          2    1    1    2  501    0  0.44416843093E+02  0.10563796771E+02  0.16210814299E+03  0.16841466616E+03  0.00000000000E+00 0. -1.
          1    1    1    2  502    0 -0.44416843093E+02 -0.10563796771E+02 -0.11821749986E+02  0.47161462290E+02  0.00000000000E+00 0.  1.
</event>
<event>
 4    1  0.3752836E+003  0.2200462E+02  0.7546771E-02  0.1505390E+00
          2   -1    0    0  502    0  0.00000000000E+00  0.00000000000E+00  0.69474188754E+03  0.69474188754E+03  0.00000000000E+00 0. -1.
          1   -1    0    0  501    0 -0.00000000000E+00 -0.00000000000E+00 -0.69886202782E+00  0.69886202782E+00  0.00000000000E+00 0.  1.
          2    1    1    2  501    0 -0.17119597597E+02 -0.13824695110E+02  0.32885049303E+03  0.32958587588E+03  0.00000000000E+00 0. -1.
          1    1    1    2  502    0  0.17119597597E+02  0.13824695110E+02  0.36519253249E+03  0.36585487369E+03  0.00000000000E+00 0.  1.
</event>
<event>
 4    1  0.3752836E+003  0.4063610E+02  0.7546771E-02  0.1344798E+00
          2   -1    0    0  502    0  0.00000000000E+00  0.00000000000E+00  0.55667241659E+02  0.55667241659E+02  0.00000000000E+00 0. -1.
          1   -1    0    0  501    0 -0.00000000000E+00 -0.00000000000E+00 -0.92484745342E+02  0.92484745342E+02  0.00000000000E+00 0.  1.
          2    1    1    2  501    0 -0.39461435334E+02  0.96998806454E+01  0.42642594724E+02  0.58904018946E+02  0.00000000000E+00 0. -1.
          1    1    1    2  502    0  0.39461435334E+02 -0.96998806454E+01 -0.79460098407E+02  0.89247968055E+02  0.00000000000E+00 0.  1.
</event>
<event>
 4    1  0.3752836E+003  0.2184450E+02  0.7546771E-02  0.1507541E+00
          2   -1    0    0  502    0  0.00000000000E+00  0.00000000000E+00  0.14400709815E+03  0.14400709815E+03  0.00000000000E+00 0. -1.
          1   -1    0    0  501    0 -0.00000000000E+00 -0.00000000000E+00 -0.10379503372E+02  0.10379503372E+02  0.00000000000E+00 0.  1.
          2    1    1    2  501    0 -0.21838367607E+02  0.51774375655E+00  0.13050435895E+03  0.13231995338E+03  0.00000000000E+00 0. -1.
          1    1    1    2  502    0  0.21838367607E+02 -0.51774375655E+00  0.31232358357E+01  0.22066648147E+02  0.00000000000E+00 0.  1.
</event>
<event>
 4    1  0.3752836E+003  0.2966871E+02  0.7546771E-02  0.1422497E+00
          2   -1    0    0  502    0  0.00000000000E+00  0.00000000000E+00  0.23300443363E+02  0.23300443363E+02  0.00000000000E+00 0.  1.
          1   -1    0    0  501    0 -0.00000000000E+00 -0.00000000000E+00 -0.71868169715E+02  0.71868169715E+02  0.00000000000E+00 0.  1.
          2    1    1    2  501    0  0.24396895399E+02  0.16882656498E+02  0.84889100164E+01  0.30859264230E+02  0.00000000000E+00 0.  1.
          1    1    1    2  502    0 -0.24396895399E+02 -0.16882656498E+02 -0.57056636369E+02  0.64309348848E+02  0.00000000000E+00 0.  1.
</event>
<event>
 4    1  0.3752836E+003  0.2049469E+02  0.7546771E-02  0.1526603E+00
          2   -1    0    0  502    0  0.00000000000E+00  0.00000000000E+00  0.71826774735E+01  0.71826774735E+01  0.00000000000E+00 0. -1.
          1   -1    0    0  501    0 -0.00000000000E+00 -0.00000000000E+00 -0.18002999512E+03  0.18002999512E+03  0.00000000000E+00 0. -1.
          2    1    1    2  501    0 -0.39339972891E+01  0.20113572641E+02 -0.95083157425E+01  0.22592923833E+02  0.00000000000E+00 0. -1.
          1    1    1    2  502    0  0.39339972891E+01 -0.20113572641E+02 -0.16333900190E+03  0.16461974876E+03  0.00000000000E+00 0. -1.
</event>
<event>
 4    1  0.3752836E+003  0.2427063E+02  0.7546771E-02  0.1477131E+00
          2   -1    0    0  502    0  0.00000000000E+00  0.00000000000E+00  0.30091777399E+03  0.30091777399E+03  0.00000000000E+00 0. -1.
          1   -1    0    0  501    0 -0.00000000000E+00 -0.00000000000E+00 -0.35351532829E+03  0.35351532829E+03  0.00000000000E+00 0. -1.
          2    1    1    2  501    0  0.18430303763E+02  0.15792006861E+02  0.30001055148E+03  0.30099068852E+03  0.00000000000E+00 0. -1.
          1    1    1    2  502    0 -0.18430303763E+02 -0.15792006861E+02 -0.35260810578E+03  0.35344241375E+03  0.00000000000E+00 0. -1.
</event>
<event>
 4    1  0.3752836E+003  0.2093933E+02  0.7546771E-02  0.1520133E+00
          2   -1    0    0  502    0  0.00000000000E+00  0.00000000000E+00  0.12943572761E+04  0.12943572761E+04  0.00000000000E+00 0.  1.
          1   -1    0    0  501    0 -0.00000000000E+00 -0.00000000000E+00 -0.33364176086E+01  0.33364176086E+01  0.00000000000E+00 0. -1.
          2    1    1    2  501    0 -0.75954149918E+01  0.19513204012E+02  0.12605374340E+04  0.12607113381E+04  0.00000000000E+00 0.  1.
          1    1    1    2  502    0  0.75954149918E+01 -0.19513204012E+02  0.30483424563E+02  0.36982355695E+02  0.00000000000E+00 0. -1.
</event>
<event>
 4    1  0.3752836E+003  0.3022475E+02  0.7546771E-02  0.1417653E+00
          2   -1    0    0  502    0  0.00000000000E+00  0.00000000000E+00  0.62742911219E+03  0.62742911219E+03  0.00000000000E+00 0. -1.
          1   -1    0    0  501    0 -0.00000000000E+00 -0.00000000000E+00 -0.86957396239E+02  0.86957396239E+02  0.00000000000E+00 0.  1.
          2    1    1    2  501    0  0.24463853221E+02  0.17749805491E+02  0.62442610034E+03  0.62515717263E+03  0.00000000000E+00 0. -1.
          1    1    1    2  502    0 -0.24463853221E+02 -0.17749805491E+02 -0.83954384386E+02  0.89229335798E+02  0.00000000000E+00 0.  1.
</event>
<event>
 4    1  0.3752836E+003  0.2262438E+02  0.7546771E-02  0.1497269E+00
          2   -1    0    0  502    0  0.00000000000E+00  0.00000000000E+00  0.11072108011E+01  0.11072108011E+01  0.00000000000E+00 0. -1.
          1   -1    0    0  501    0 -0.00000000000E+00 -0.00000000000E+00 -0.66386893676E+03  0.66386893676E+03  0.00000000000E+00 0. -1.
          2    1    1    2  501    0 -0.20909927043E+02 -0.86392686754E+01 -0.51459045176E+03  0.51508756057E+03  0.00000000000E+00 0. -1.
          1    1    1    2  502    0  0.20909927043E+02  0.86392686754E+01 -0.14817127420E+03  0.14988858699E+03  0.00000000000E+00 0. -1.
</event>
<event>
 4    1  0.3752836E+003  0.3726619E+02  0.7546771E-02  0.1365296E+00
          2   -1    0    0  502    0  0.00000000000E+00  0.00000000000E+00  0.34274936496E+01  0.34274936496E+01  0.00000000000E+00 0.  1.
          1   -1    0    0  501    0 -0.00000000000E+00 -0.00000000000E+00 -0.21562575460E+04  0.21562575460E+04  0.00000000000E+00 0. -1.
          2    1    1    2  501    0 -0.29674578338E+02  0.22543034369E+02 -0.10330448242E+03  0.10982069516E+03  0.00000000000E+00 0.  1.
          1    1    1    2  502    0  0.29674578338E+02 -0.22543034369E+02 -0.20495255699E+04  0.20498643445E+04  0.00000000000E+00 0. -1.
</event>
<event>
 4    1  0.3752836E+003  0.2322929E+02  0.7546771E-02  0.1489639E+00
          2   -1    0    0  502    0  0.00000000000E+00  0.00000000000E+00  0.60174714811E+03  0.60174714811E+03  0.00000000000E+00 0.  1.
          1   -1    0    0  501    0 -0.00000000000E+00 -0.00000000000E+00 -0.10336777100E+02  0.10336777100E+02  0.00000000000E+00 0. -1.
          2    1    1    2  501    0 -0.12762228218E+02 -0.19409411793E+02  0.58817137976E+03  0.58862991064E+03  0.00000000000E+00 0.  1.
          1    1    1    2  502    0  0.12762228218E+02  0.19409411793E+02  0.32389912577E+01  0.23454014573E+02  0.00000000000E+00 0. -1.
</event>
<event>
 4    1  0.3752836E+003  0.4228731E+02  0.7546771E-02  0.1335579E+00
          2   -1    0    0  502    0  0.00000000000E+00  0.00000000000E+00  0.40901675280E+01  0.40901675280E+01  0.00000000000E+00 0. -1.
          1   -1    0    0  501    0 -0.00000000000E+00 -0.00000000000E+00 -0.66478569992E+03  0.66478569992E+03  0.00000000000E+00 0. -1.
          2    1    1    2  501    0 -0.27219719325E+02  0.32362067048E+02 -0.13466693349E+03  0.14115027268E+03  0.00000000000E+00 0. -1.
          1    1    1    2  502    0  0.27219719325E+02 -0.32362067048E+02 -0.52602859891E+03  0.52772559477E+03  0.00000000000E+00 0. -1.
</event>
<event>
 4    1  0.3752836E+003  0.2136021E+02  0.7546771E-02  0.1514184E+00
          2   -1    0    0  502    0  0.00000000000E+00  0.00000000000E+00  0.18897912535E+02  0.18897912535E+02  0.00000000000E+00 0. -1.
          1   -1    0    0  501    0 -0.00000000000E+00 -0.00000000000E+00 -0.16393918102E+03  0.16393918102E+03  0.00000000000E+00 0. -1.
          2    1    1    2  501    0 -0.11247859431E+02  0.18158857263E+02  0.11898342178E+02  0.24450541619E+02  0.00000000000E+00 0. -1.
          1    1    1    2  502    0  0.11247859431E+02 -0.18158857263E+02 -0.15693961067E+03  0.15838655194E+03  0.00000000000E+00 0. -1.
</event>
<event>
 4    1  0.3752836E+003  0.2040711E+02  0.7546771E-02  0.1527901E+00
          2   -1    0    0  502    0  0.00000000000E+00  0.00000000000E+00  0.97164441634E+01  0.97164441634E+01  0.00000000000E+00 0.  1.
          1   -1    0    0  501    0 -0.00000000000E+00 -0.00000000000E+00 -0.72282863787E+02  0.72282863787E+02  0.00000000000E+00 0. -1.
          2    1    1    2  501    0  0.77219100049E+00 -0.20392493941E+02 -0.51253332025E+01  0.21040891818E+02  0.00000000000E+00 0.  1.
          1    1    1    2  502    0 -0.77219100049E+00  0.20392493941E+02 -0.57441086421E+02  0.60958416132E+02  0.00000000000E+00 0. -1.
</event>
<event>
 4    1  0.3752836E+003  0.4399493E+02  0.7546771E-02  0.1326542E+00
          2   -1    0    0  502    0  0.00000000000E+00  0.00000000000E+00  0.13311983421E+02  0.13311983421E+02  0.00000000000E+00 0. -1.
          1   -1    0    0  501    0 -0.00000000000E+00 -0.00000000000E+00 -0.17809089751E+03  0.17809089751E+03  0.00000000000E+00 0. -1.
          2    1    1    2  501    0  0.43799771519E+02  0.41393210179E+01 -0.41386494192E+02  0.60401952494E+02  0.00000000000E+00 0. -1.
          1    1    1    2  502    0 -0.43799771519E+02 -0.41393210179E+01 -0.12339241990E+03  0.13100092844E+03  0.00000000000E+00 0. -1.
</event>
<event>
 4    1  0.3752836E+003  0.2906766E+02  0.7546771E-02  0.1427875E+00
          2   -1    0    0  502    0  0.00000000000E+00  0.00000000000E+00  0.15297668179E+04  0.15297668179E+04  0.00000000000E+00 0.  1.
          1   -1    0    0  501    0 -0.00000000000E+00 -0.00000000000E+00 -0.23334501316E+02  0.23334501316E+02  0.00000000000E+00 0.  1.
          2    1    1    2  501    0 -0.28749812280E+02 -0.42868266671E+01  0.15205213460E+04  0.15207991623E+04  0.00000000000E+00 0.  1.
          1    1    1    2  502    0  0.28749812280E+02  0.42868266671E+01 -0.14089029403E+02  0.32302156871E+02  0.00000000000E+00 0.  1.
</event>
<event>
 4    1  0.3752836E+003  0.3625709E+02  0.7546771E-02  0.1371935E+00
          2   -1    0    0  502    0  0.00000000000E+00  0.00000000000E+00  0.94071957648E+03  0.94071957648E+03  0.00000000000E+00 0. -1.
          1   -1    0    0  501    0 -0.00000000000E+00 -0.00000000000E+00 -0.49810832861E+02  0.49810832861E+02  0.00000000000E+00 0.  1.
          2    1    1    2  501    0 -0.18971299300E+02 -0.30897670956E+02  0.93372295867E+03  0.93442663694E+03  0.00000000000E+00 0. -1.
          1    1    1    2  502    0  0.18971299300E+02  0.30897670956E+02 -0.42814215051E+02  0.56103772405E+02  0.00000000000E+00 0.  1.
</event>
<event>
 4    1  0.3752836E+003  0.2222598E+02  0.7546771E-02  0.1502453E+00
          2   -1    0    0  502    0  0.00000000000E+00  0.00000000000E+00  0.23186602211E+03  0.23186602211E+03  0.00000000000E+00 0. -1.
          1   -1    0    0  501    0 -0.00000000000E+00 -0.00000000000E+00 -0.69268040715E+03  0.69268040715E+03  0.00000000000E+00 0. -1.
          2    1    1    2  501    0 -0.13048489846E+02 -0.17992528664E+02  0.23115455491E+03  0.23222063309E+03  0.00000000000E+00 0. -1.
          1    1    1    2  502    0  0.13048489846E+02  0.17992528664E+02 -0.69196893995E+03  0.69232579617E+03  0.00000000000E+00 0. -1.
</event>
<event>
 4    1  0.3752836E+003  0.2386421E+02  0.7546771E-02  0.1481922E+00
          2   -1    0    0  502    0  0.00000000000E+00  0.00000000000E+00  0.14677769459E+04  0.14677769459E+04  0.00000000000E+00 0.  1.
          1   -1    0    0  501    0 -0.00000000000E+00 -0.00000000000E+00 -0.10012147162E+01  0.10012147162E+01  0.00000000000E+00 0.  1.
          2    1    1    2  501    0 -0.16905988190E+02  0.16843043903E+02  0.13081235103E+04  0.13083411706E+04  0.00000000000E+00 0.  1.
          1    1    1    2  502    0  0.16905988190E+02 -0.16843043903E+02  0.15865222088E+03  0.16043698998E+03  0.00000000000E+00 0.  1.
</event>
<event>
 4    1  0.3752836E+003  0.2008245E+02  0.7546771E-02  0.1532779E+00
          2   -1    0    0  502    0  0.00000000000E+00  0.00000000000E+00  0.25609725328E+03  0.25609725328E+03  0.00000000000E+00 0.  1.
          1   -1    0    0  501    0 -0.00000000000E+00 -0.00000000000E+00 -0.28759293801E+03  0.28759293801E+03  0.00000000000E+00 0. -1.
          2    1    1    2  501    0  0.19027858805E+02 -0.64222635690E+01  0.25535194216E+03  0.25614042876E+03  0.00000000000E+00 0.  1.
          1    1    1    2  502    0 -0.19027858805E+02  0.64222635690E+01 -0.28684762689E+03  0.28754976253E+03  0.00000000000E+00 0. -1.
</event>
<event>
 4    1  0.3752836E+003  0.7230174E+02  0.7546771E-02  0.1222944E+00
          2   -1    0    0  502    0  0.00000000000E+00  0.00000000000E+00  0.18082525332E+03  0.18082525332E+03  0.00000000000E+00 0. -1.
          1   -1    0    0  501    0 -0.00000000000E+00 -0.00000000000E+00 -0.30109385384E+03  0.30109385384E+03  0.00000000000E+00 0. -1.
          2    1    1    2  501    0  0.72043960625E+02 -0.60999349851E+01  0.16896559921E+03  0.18378496997E+03  0.00000000000E+00 0. -1.
          1    1    1    2  502    0 -0.72043960625E+02  0.60999349851E+01 -0.28923419973E+03  0.29813413720E+03  0.00000000000E+00 0. -1.
</event>
<event>
 4    1  0.3752836E+003  0.3073751E+02  0.7546771E-02  0.1413294E+00
          2   -1    0    0  502    0  0.00000000000E+00  0.00000000000E+00  0.68621405222E+03  0.68621405222E+03  0.00000000000E+00 0. -1.
          1   -1    0    0  501    0 -0.00000000000E+00 -0.00000000000E+00 -0.28189111431E+02  0.28189111431E+02  0.00000000000E+00 0. -1.
          2    1    1    2  501    0  0.23937577959E+02  0.19281771116E+02  0.67738157544E+03  0.67807860391E+03  0.00000000000E+00 0. -1.
          1    1    1    2  502    0 -0.23937577959E+02 -0.19281771116E+02 -0.19356634646E+02  0.36324559746E+02  0.00000000000E+00 0. -1.
</event>
<event>
 4    1  0.3752836E+003  0.2821485E+02  0.7546771E-02  0.1435772E+00
          2   -1    0    0  502    0  0.00000000000E+00  0.00000000000E+00  0.27147893513E+01  0.27147893513E+01  0.00000000000E+00 0.  1.
          1   -1    0    0  501    0 -0.00000000000E+00 -0.00000000000E+00 -0.92523726642E+03  0.92523726642E+03  0.00000000000E+00 0.  1.
          2    1    1    2  501    0 -0.27997215773E+02 -0.34976781270E+01 -0.77794704386E+02  0.82753210656E+02  0.00000000000E+00 0.  1.
          1    1    1    2  502    0  0.27997215773E+02  0.34976781270E+01 -0.84472777268E+03  0.84519884511E+03  0.00000000000E+00 0.  1.
</event>
<event>
 4    1  0.3752836E+003  0.3257201E+02  0.7546771E-02  0.1398486E+00
          2   -1    0    0  502    0  0.00000000000E+00  0.00000000000E+00  0.73376007859E+03  0.73376007859E+03  0.00000000000E+00 0.  1.
          1   -1    0    0  501    0 -0.00000000000E+00 -0.00000000000E+00 -0.47423460215E+01  0.47423460215E+01  0.00000000000E+00 0. -1.
          2    1    1    2  501    0 -0.32569437000E+02 -0.40976410157E+00  0.67236582442E+03  0.67315431959E+03  0.00000000000E+00 0.  1.
          1    1    1    2  502    0  0.32569437000E+02  0.40976410157E+00  0.56651908143E+02  0.65348105017E+02  0.00000000000E+00 0. -1.
</event>
<event>
 4    1  0.3752836E+003  0.4632340E+02  0.7546771E-02  0.1314951E+00
          2   -1    0    0  502    0  0.00000000000E+00  0.00000000000E+00  0.62948679236E+01  0.62948679236E+01  0.00000000000E+00 0. -1.
          1   -1    0    0  501    0 -0.00000000000E+00 -0.00000000000E+00 -0.16239945795E+04  0.16239945795E+04  0.00000000000E+00 0. -1.
          2    1    1    2  501    0 -0.26018003996E+02  0.38326498034E+02 -0.84291321472E+02  0.96181515163E+02  0.00000000000E+00 0. -1.
          1    1    1    2  502    0  0.26018003996E+02 -0.38326498034E+02 -0.15334083901E+04  0.15341079322E+04  0.00000000000E+00 0. -1.
</event>
<event>
 4    1  0.3752836E+003  0.3388576E+02  0.7546771E-02  0.1388570E+00
          2   -1    0    0  502    0  0.00000000000E+00  0.00000000000E+00  0.17350792690E+03  0.17350792690E+03  0.00000000000E+00 0. -1.
          1   -1    0    0  501    0 -0.00000000000E+00 -0.00000000000E+00 -0.73271949467E+03  0.73271949467E+03  0.00000000000E+00 0. -1.
          2    1    1    2  501    0 -0.33863657361E+02 -0.12237798649E+01  0.17145705452E+03  0.17477347187E+03  0.00000000000E+00 0. -1.
          1    1    1    2  502    0  0.33863657361E+02  0.12237798649E+01 -0.73066862229E+03  0.73145394970E+03  0.00000000000E+00 0. -1.
</event>
<event>
 4    1  0.3752836E+003  0.3785260E+02  0.7546771E-02  0.1361551E+00
          2   -1    0    0  502    0  0.00000000000E+00  0.00000000000E+00  0.95120678964E+01  0.95120678964E+01  0.00000000000E+00 0. -1.
          1   -1    0    0  501    0 -0.00000000000E+00 -0.00000000000E+00 -0.75213221522E+03  0.75213221522E+03  0.00000000000E+00 0. -1.
          2    1    1    2  501    0  0.10998392066E+02 -0.36219535414E+02 -0.30750509274E+02  0.48768977785E+02  0.00000000000E+00 0. -1.
          1    1    1    2  502    0 -0.10998392066E+02  0.36219535414E+02 -0.71186963805E+03  0.71287530533E+03  0.00000000000E+00 0. -1.
</event>
<event>
 4    1  0.3752836E+003  0.3092016E+02  0.7546771E-02  0.1411765E+00
          2   -1    0    0  502    0  0.00000000000E+00  0.00000000000E+00  0.15873406129E+04  0.15873406129E+04  0.00000000000E+00 0.  1.
          1   -1    0    0  501    0 -0.00000000000E+00 -0.00000000000E+00 -0.20362477387E+01  0.20362477387E+01  0.00000000000E+00 0. -1.
          2    1    1    2  501    0  0.27936501513E+02  0.13251726707E+02  0.14595328645E+04  0.14598603491E+04  0.00000000000E+00 0.  1.
          1    1    1    2  502    0 -0.27936501513E+02 -0.13251726707E+02  0.12577150068E+03  0.12951651154E+03  0.00000000000E+00 0. -1.
</event>
<event>
 4    1  0.3752836E+003  0.2980422E+02  0.7546771E-02  0.1421306E+00
          2   -1    0    0  502    0  0.00000000000E+00  0.00000000000E+00  0.16981419087E+03  0.16981419087E+03  0.00000000000E+00 0. -1.
          1   -1    0    0  501    0 -0.00000000000E+00 -0.00000000000E+00 -0.11302961082E+04  0.11302961082E+04  0.00000000000E+00 0.  1.
          2    1    1    2  501    0 -0.11805337355E+02 -0.27366502876E+02  0.16830823296E+03  0.17092674674E+03  0.00000000000E+00 0. -1.
          1    1    1    2  502    0  0.11805337355E+02  0.27366502876E+02 -0.11287901503E+04  0.11291835523E+04  0.00000000000E+00 0.  1.
</event>
<event>
 4    1  0.3752836E+003  0.2024815E+02  0.7546771E-02  0.1530276E+00
          2   -1    0    0  502    0  0.00000000000E+00  0.00000000000E+00  0.14298207196E+04  0.14298207196E+04  0.00000000000E+00 0.  1.
          1   -1    0    0  501    0 -0.00000000000E+00 -0.00000000000E+00 -0.23062308205E+01  0.23062308205E+01  0.00000000000E+00 0. -1.
          2    1    1    2  501    0  0.44041052670E+01  0.19763382024E+02  0.13838285664E+04  0.13839766936E+04  0.00000000000E+00 0.  1.
          1    1    1    2  502    0 -0.44041052670E+01 -0.19763382024E+02  0.43685922422E+02  0.48150256803E+02  0.00000000000E+00 0. -1.
</event>
<event>
 4    1  0.3752836E+003  0.4783359E+02  0.7546771E-02  0.1307849E+00
          2   -1    0    0  502    0  0.00000000000E+00  0.00000000000E+00  0.40248981120E+01  0.40248981120E+01  0.00000000000E+00 0. -1.
          1   -1    0    0  501    0 -0.00000000000E+00 -0.00000000000E+00 -0.62229150721E+03  0.62229150721E+03  0.00000000000E+00 0. -1.
          2    1    1    2  501    0 -0.18548741914E+02 -0.44090779903E+02 -0.21704046435E+03  0.22224899519E+03  0.00000000000E+00 0. -1.
          1    1    1    2  502    0  0.18548741914E+02  0.44090779903E+02 -0.40122614475E+03  0.40406741013E+03  0.00000000000E+00 0. -1.
</event>
