<event>
 4    1  0.1780267E+004  0.2344364E+02  0.7546771E-02  0.1487001E+00
         21   -1    0    0  503  502  0.00000000000E+00  0.00000000000E+00  0.15654849086E+03  0.15654849086E+03  0.00000000000E+00 0.  1.
         21   -1    0    0  501  503 -0.00000000000E+00 -0.00000000000E+00 -0.10032024091E+02  0.10032024091E+02  0.00000000000E+00 0. -1.
          2    1    1    2  501    0  0.22108737948E+02 -0.77979318102E+01  0.61051673103E+01  0.24225546476E+02  0.00000000000E+00 0. -1.
         -2    1    1    2    0  502 -0.22108737948E+02  0.77979318102E+01  0.14041129946E+03  0.14235496848E+03  0.00000000000E+00 0.  1.
</event>
<event>
 4    1  0.1780267E+004  0.5801098E+02  0.7546771E-02  0.1266745E+00
         21   -1    0    0  501  502  0.00000000000E+00  0.00000000000E+00  0.21830348154E+03  0.21830348154E+03  0.00000000000E+00 0. -1.
         21   -1    0    0  502  503 -0.00000000000E+00 -0.00000000000E+00 -0.16170026677E+02  0.16170026677E+02  0.00000000000E+00 0.  1.
          2    1    1    2  501    0  0.44687848631E+02 -0.36990139595E+02  0.12639020856E+03  0.13906746227E+03  0.00000000000E+00 0. -1.
         -2    1    1    2    0  503 -0.44687848631E+02  0.36990139595E+02  0.75743246298E+02  0.95406045942E+02  0.00000000000E+00 0.  1.
</event>
<event>
 4    1  0.1780267E+004  0.2608605E+02  0.7546771E-02  0.1457011E+00
         21   -1    0    0  503  502  0.00000000000E+00  0.00000000000E+00  0.73974305805E+01  0.73974305805E+01  0.00000000000E+00 0. -1.
         21   -1    0    0  501  503 -0.00000000000E+00 -0.00000000000E+00 -0.92475751075E+02  0.92475751075E+02  0.00000000000E+00 0.  1.
          2    1    1    2  501    0 -0.25488629052E+02 -0.55508156643E+01 -0.46162317064E+02  0.53023025962E+02  0.00000000000E+00 0.  1.
         -2    1    1    2    0  502  0.25488629052E+02  0.55508156643E+01 -0.38916003430E+02  0.46850155693E+02  0.00000000000E+00 0. -1.
</event>
<event>
 4    1  0.1780267E+004  0.3404531E+02  0.7546771E-02  0.1387402E+00
         21   -1    0    0  503  502  0.00000000000E+00  0.00000000000E+00  0.33326520906E+02  0.33326520906E+02  0.00000000000E+00 0.  1.
         21   -1    0    0  501  503 -0.00000000000E+00 -0.00000000000E+00 -0.17738870269E+03  0.17738870269E+03  0.00000000000E+00 0. -1.
          2    1    1    2  501    0  0.73056924385E+01  0.33252217181E+02 -0.16649731605E+03  0.16994245892E+03  0.00000000000E+00 0. -1.
         -2    1    1    2    0  502 -0.73056924385E+01 -0.33252217181E+02  0.22435134273E+02  0.40772764676E+02  0.00000000000E+00 0.  1.
</event>
<event>
 4    1  0.1780267E+004  0.2173169E+02  0.7546771E-02  0.1509070E+00
         21   -1    0    0  501  502  0.00000000000E+00  0.00000000000E+00  0.90058749155E+02  0.90058749155E+02  0.00000000000E+00 0.  1.
         21   -1    0    0  502  503 -0.00000000000E+00 -0.00000000000E+00 -0.18116391314E+02  0.18116391314E+02  0.00000000000E+00 0. -1.
          2    1    1    2  501    0  0.20419795919E+02  0.74362734823E+01  0.81563488132E+02  0.84408938063E+02  0.00000000000E+00 0.  1.
         -2    1    1    2    0  503 -0.20419795919E+02 -0.74362734823E+01 -0.96211302921E+01  0.23766202406E+02  0.00000000000E+00 0. -1.
</event>
<event>
 4    1  0.1780267E+004  0.3026847E+02  0.7546771E-02  0.1417277E+00
         21   -1    0    0  503  502  0.00000000000E+00  0.00000000000E+00  0.68413239581E+02  0.68413239581E+02  0.00000000000E+00 0.  1.
         21   -1    0    0  501  503 -0.00000000000E+00 -0.00000000000E+00 -0.13417186266E+02  0.13417186266E+02  0.00000000000E+00 0. -1.
          2    1    1    2  501    0 -0.15416475310E+02  0.26048273543E+02  0.29275783636E+02  0.42109996118E+02  0.00000000000E+00 0.  1.
         -2    1    1    2    0  502  0.15416475310E+02 -0.26048273543E+02  0.25720269679E+02  0.39720429730E+02  0.00000000000E+00 0. -1.
</event>
<event>
 4    1  0.1780267E+004  0.2232759E+02  0.7546771E-02  0.1501119E+00
         21   -1    0    0  501  502  0.00000000000E+00  0.00000000000E+00  0.25168915632E+02  0.25168915632E+02  0.00000000000E+00 0. -1.
         21   -1    0    0  502  503 -0.00000000000E+00 -0.00000000000E+00 -0.52772149099E+02  0.52772149099E+02  0.00000000000E+00 0.  1.
          2    1    1    2  501    0 -0.22316687813E+02 -0.69774820217E+00  0.16999133027E+02  0.28062286635E+02  0.00000000000E+00 0. -1.
         -2    1    1    2    0  503  0.22316687813E+02  0.69774820217E+00 -0.44602366495E+02  0.49878778097E+02  0.00000000000E+00 0.  1.
</event>
<event>
 4    1  0.1780267E+004  0.3654355E+02  0.7546771E-02  0.1370025E+00
         21   -1    0    0  503  502  0.00000000000E+00  0.00000000000E+00  0.78695632796E+01  0.78695632796E+01  0.00000000000E+00 0. -1.
         21   -1    0    0  501  503 -0.00000000000E+00 -0.00000000000E+00 -0.20688792998E+03  0.20688792998E+03  0.00000000000E+00 0.  1.
          2    1    1    2  501    0  0.15069097587E+02 -0.33291942702E+02 -0.14503699618E+03  0.14956992149E+03  0.00000000000E+00 0.  1.
         -2    1    1    2    0  502 -0.15069097587E+02  0.33291942702E+02 -0.53981370514E+02  0.65187571772E+02  0.00000000000E+00 0. -1.
</event>
<event>
 4    1  0.1780267E+004  0.3411378E+02  0.7546771E-02  0.1386903E+00
         21   -1    0    0  501  502  0.00000000000E+00  0.00000000000E+00  0.44861256866E+02  0.44861256866E+02  0.00000000000E+00 0.  1.
         21   -1    0    0  502  503 -0.00000000000E+00 -0.00000000000E+00 -0.95461166218E+02  0.95461166218E+02  0.00000000000E+00 0. -1.
          2    1    1    2  501    0 -0.21676625110E+02  0.26341489792E+02  0.34574119871E+02  0.48570772338E+02  0.00000000000E+00 0.  1.
         -2    1    1    2    0  503  0.21676625110E+02 -0.26341489792E+02 -0.85174029223E+02  0.91751650746E+02  0.00000000000E+00 0. -1.
</event>
<event>
 4    1  0.1780267E+004  0.2690172E+02  0.7546771E-02  0.1448598E+00
         21   -1    0    0  503  502  0.00000000000E+00  0.00000000000E+00  0.10070601662E+01  0.10070601662E+01  0.00000000000E+00 0.  1.
         21   -1    0    0  501  503 -0.00000000000E+00 -0.00000000000E+00 -0.11598294764E+04  0.11598294764E+04  0.00000000000E+00 0. -1.
          2    1    1    2  501    0 -0.26853204119E+02 -0.16148672690E+01 -0.93739397604E+03  0.93777991484E+03  0.00000000000E+00 0. -1.
         -2    1    1    2    0  502  0.26853204119E+02  0.16148672690E+01 -0.22142844021E+03  0.22305662173E+03  0.00000000000E+00 0.  1.
</event>
<event>
 4    1  0.1780267E+004  0.4069298E+02  0.7546771E-02  0.1344472E+00
         21   -1    0    0  503  502  0.00000000000E+00  0.00000000000E+00  0.30168577264E+03  0.30168577264E+03  0.00000000000E+00 0.  1.
         21   -1    0    0  501  503 -0.00000000000E+00 -0.00000000000E+00 -0.75021298932E+01  0.75021298932E+01  0.00000000000E+00 0. -1.
          2    1    1    2  501    0  0.12339681860E+01 -0.40674271211E+02  0.67007346771E+02  0.78395813264E+02  0.00000000000E+00 0. -1.
         -2    1    1    2    0  502 -0.12339681860E+01  0.40674271211E+02  0.22717629598E+03  0.23079208927E+03  0.00000000000E+00 0.  1.
</event>
<event>
 4    1  0.1780267E+004  0.2169342E+02  0.7546771E-02  0.1509591E+00
         21   -1    0    0  501  502  0.00000000000E+00  0.00000000000E+00  0.20711799542E+00  0.20711799542E+00  0.00000000000E+00 0.  1.
         21   -1    0    0  502  503 -0.00000000000E+00 -0.00000000000E+00 -0.24649704330E+04  0.24649704330E+04  0.00000000000E+00 0. -1.
          2    1    1    2  501    0  0.42120691806E+01 -0.21280575056E+02 -0.88764926670E+03  0.88791431179E+03  0.00000000000E+00 0. -1.
         -2    1    1    2    0  503 -0.42120691806E+01  0.21280575056E+02 -0.15771140483E+04  0.15772632392E+04  0.00000000000E+00 0.  1.
</event>
<event>
 4    1  0.1780267E+004  0.2041571E+02  0.7546771E-02  0.1527773E+00
         21   -1    0    0  501  502  0.00000000000E+00  0.00000000000E+00  0.17938502144E+02  0.17938502144E+02  0.00000000000E+00 0. -1.
         21   -1    0    0  502  503 -0.00000000000E+00 -0.00000000000E+00 -0.29038577991E+02  0.29038577991E+02  0.00000000000E+00 0.  1.
          2    1    1    2  501    0 -0.20409845120E+02 -0.48947868156E+00  0.49506004179E+01  0.21007375174E+02  0.00000000000E+00 0.  1.
         -2    1    1    2    0  503  0.20409845120E+02  0.48947868156E+00 -0.16050676265E+02  0.25969704961E+02  0.00000000000E+00 0. -1.
</event>
<event>
 4    1  0.1780267E+004  0.3790508E+02  0.7546771E-02  0.1361219E+00
         21   -1    0    0  503  502  0.00000000000E+00  0.00000000000E+00  0.78195531034E+01  0.78195531034E+01  0.00000000000E+00 0.  1.
         21   -1    0    0  501  503 -0.00000000000E+00 -0.00000000000E+00 -0.60715684332E+03  0.60715684332E+03  0.00000000000E+00 0. -1.
          2    1    1    2  501    0  0.37149831620E+02  0.75289492632E+01 -0.55644798441E+03  0.55773753184E+03  0.00000000000E+00 0. -1.
         -2    1    1    2    0  502 -0.37149831620E+02 -0.75289492632E+01 -0.42889305804E+02  0.57238864583E+02  0.00000000000E+00 0.  1.
</event>
<event>
 4    1  0.1780267E+004  0.2357358E+02  0.7546771E-02  0.1485419E+00
         21   -1    0    0  501  502  0.00000000000E+00  0.00000000000E+00  0.19323281567E+02  0.19323281567E+02  0.00000000000E+00 0.  1.
         21   -1    0    0  502  503 -0.00000000000E+00 -0.00000000000E+00 -0.34442399110E+02  0.34442399110E+02  0.00000000000E+00 0. -1.
          2    1    1    2  501    0 -0.23416838016E+02  0.27139635002E+01  0.33609064873E+01  0.23811963233E+02  0.00000000000E+00 0.  1.
         -2    1    1    2    0  503  0.23416838016E+02 -0.27139635002E+01 -0.18480024031E+02  0.29953717444E+02  0.00000000000E+00 0. -1.
</event>
<event>
 4    1  0.1780267E+004  0.3528497E+02  0.7546771E-02  0.1378571E+00
         21   -1    0    0  503  502  0.00000000000E+00  0.00000000000E+00  0.36201837605E+01  0.36201837605E+01  0.00000000000E+00 0.  1.
         21   -1    0    0  501  503 -0.00000000000E+00 -0.00000000000E+00 -0.35158496447E+03  0.35158496447E+03  0.00000000000E+00 0. -1.
          2    1    1    2  501    0 -0.20512996698E+02  0.28709691248E+02 -0.14774754982E+03  0.15190249466E+03  0.00000000000E+00 0. -1.
         -2    1    1    2    0  502  0.20512996698E+02 -0.28709691248E+02 -0.20021723089E+03  0.20330265357E+03  0.00000000000E+00 0.  1.
</event>
<event>
 4    1  0.1780267E+004  0.2158677E+02  0.7546771E-02  0.1511050E+00
         21   -1    0    0  503  502  0.00000000000E+00  0.00000000000E+00  0.30111636811E+01  0.30111636811E+01  0.00000000000E+00 0. -1.
         21   -1    0    0  501  503 -0.00000000000E+00 -0.00000000000E+00 -0.21549914498E+03  0.21549914498E+03  0.00000000000E+00 0.  1.
          2    1    1    2  501    0  0.15351616360E+02  0.15176177213E+02 -0.16425044292E+03  0.16566290013E+03  0.00000000000E+00 0.  1.
         -2    1    1    2    0  502 -0.15351616360E+02 -0.15176177213E+02 -0.48237538374E+02  0.52847408528E+02  0.00000000000E+00 0. -1.
</event>
<event>
 4    1  0.1780267E+004  0.2077665E+02  0.7546771E-02  0.1522478E+00
         21   -1    0    0  501  502  0.00000000000E+00  0.00000000000E+00  0.15205989592E+03  0.15205989592E+03  0.00000000000E+00 0. -1.
         21   -1    0    0  502  503 -0.00000000000E+00 -0.00000000000E+00 -0.39406091307E+01  0.39406091307E+01  0.00000000000E+00 0.  1.
          2    1    1    2  501    0  0.20696951600E+02 -0.18180971521E+01  0.11530407982E+03  0.11716100079E+03  0.00000000000E+00 0. -1.
         -2    1    1    2    0  503 -0.20696951600E+02  0.18180971521E+01  0.32815206965E+02  0.38839504257E+02  0.00000000000E+00 0.  1.
</event>
<event>
 4    1  0.1780267E+004  0.2257847E+02  0.7546771E-02  0.1497860E+00
         21   -1    0    0  503  502  0.00000000000E+00  0.00000000000E+00  0.69678000125E+02  0.69678000125E+02  0.00000000000E+00 0.  1.
         21   -1    0    0  501  503 -0.00000000000E+00 -0.00000000000E+00 -0.15469612430E+03  0.15469612430E+03  0.00000000000E+00 0. -1.
          2    1    1    2  501    0 -0.32887122238E+00  0.22576075306E+02 -0.15201105669E+03  0.15367871905E+03  0.00000000000E+00 0. -1.
         -2    1    1    2    0  502  0.32887122238E+00 -0.22576075306E+02  0.66992932521E+02  0.70695405369E+02  0.00000000000E+00 0.  1.
</event>
<event>
 4    1  0.1780267E+004  0.2594714E+02  0.7546771E-02  0.1458481E+00
         21   -1    0    0  503  502  0.00000000000E+00  0.00000000000E+00  0.10368570073E+03  0.10368570073E+03  0.00000000000E+00 0. -1.
         21   -1    0    0  501  503 -0.00000000000E+00 -0.00000000000E+00 -0.79105879193E+01  0.79105879193E+01  0.00000000000E+00 0.  1.
          2    1    1    2  501    0 -0.25612264837E+02 -0.41552555002E+01  0.24268834660E+02  0.35527884740E+02  0.00000000000E+00 0.  1.
         -2    1    1    2    0  502  0.25612264837E+02  0.41552555002E+01  0.71506278153E+02  0.76068403912E+02  0.00000000000E+00 0. -1.
</event>
<event>
 4    1  0.1780267E+004  0.2463307E+02  0.7546771E-02  0.1472950E+00
         21   -1    0    0  503  502  0.00000000000E+00  0.00000000000E+00  0.99199065515E+02  0.99199065515E+02  0.00000000000E+00 0.  1.
         21   -1    0    0  501  503 -0.00000000000E+00 -0.00000000000E+00 -0.17443060953E+02  0.17443060953E+02  0.00000000000E+00 0. -1.
          2    1    1    2  501    0  0.24630341183E+02  0.36659174037E+00 -0.61174640822E+01  0.25381321146E+02  0.00000000000E+00 0. -1.
         -2    1    1    2    0  502 -0.24630341183E+02 -0.36659174037E+00  0.87873468645E+02  0.91260805322E+02  0.00000000000E+00 0.  1.
</event>
<event>
 4    1  0.1780267E+004  0.2116350E+02  0.7546771E-02  0.1516943E+00
         21   -1    0    0  503  502  0.00000000000E+00  0.00000000000E+00  0.69957518021E+02  0.69957518021E+02  0.00000000000E+00 0. -1.
         21   -1    0    0  501  503 -0.00000000000E+00 -0.00000000000E+00 -0.12603174746E+02  0.12603174746E+02  0.00000000000E+00 0.  1.
          2    1    1    2  501    0 -0.14877654848E+02  0.15051543313E+02 -0.27809406901E+00  0.21165323201E+02  0.00000000000E+00 0.  1.
         -2    1    1    2    0  502  0.14877654848E+02 -0.15051543313E+02  0.57632437344E+02  0.61395369566E+02  0.00000000000E+00 0. -1.
</event>
<event>
 4    1  0.1780267E+004  0.2942818E+02  0.7546771E-02  0.1424632E+00
         21   -1    0    0  503  502  0.00000000000E+00  0.00000000000E+00  0.21001555919E+03  0.21001555919E+03  0.00000000000E+00 0.  1.
         21   -1    0    0  501  503 -0.00000000000E+00 -0.00000000000E+00 -0.46712818312E+02  0.46712818312E+02  0.00000000000E+00 0. -1.
          2    1    1    2  501    0  0.99734674504E+01 -0.27686594407E+02 -0.40916246679E+02  0.50399968305E+02  0.00000000000E+00 0. -1.
         -2    1    1    2    0  502 -0.99734674504E+01  0.27686594407E+02  0.20421898756E+03  0.20632840920E+03  0.00000000000E+00 0.  1.
</event>
<event>
 4    1  0.1780267E+004  0.2592997E+02  0.7546771E-02  0.1458663E+00
         21   -1    0    0  503  502  0.00000000000E+00  0.00000000000E+00  0.57987109837E+01  0.57987109837E+01  0.00000000000E+00 0.  1.
         21   -1    0    0  501  503 -0.00000000000E+00 -0.00000000000E+00 -0.16168561927E+03  0.16168561927E+03  0.00000000000E+00 0. -1.
          2    1    1    2  501    0 -0.12945936657E+02 -0.22467001442E+02 -0.12248173020E+03  0.12519639637E+03  0.00000000000E+00 0. -1.
         -2    1    1    2    0  502  0.12945936657E+02  0.22467001442E+02 -0.33405178088E+02  0.42287933891E+02  0.00000000000E+00 0.  1.
</event>
<event>
 4    1  0.1780267E+004  0.2102220E+02  0.7546771E-02  0.1518948E+00
         21   -1    0    0  503  502  0.00000000000E+00  0.00000000000E+00  0.10901364323E+02  0.10901364323E+02  0.00000000000E+00 0. -1.
         21   -1    0    0  501  503 -0.00000000000E+00 -0.00000000000E+00 -0.40545412170E+02  0.40545412170E+02  0.00000000000E+00 0.  1.
          2    1    1    2  501    0 -0.20621336239E+02  0.40857468979E+01 -0.15139846095E+02  0.25906519947E+02  0.00000000000E+00 0.  1.
         -2    1    1    2    0  502  0.20621336239E+02 -0.40857468979E+01 -0.14504201753E+02  0.25540256547E+02  0.00000000000E+00 0. -1.
</event>
<event>
 4    1  0.1780267E+004  0.2390300E+02  0.7546771E-02  0.1481460E+00
         21   -1    0    0  503  502  0.00000000000E+00  0.00000000000E+00  0.32998150419E+01  0.32998150419E+01  0.00000000000E+00 0.  1.
         21   -1    0    0  501  503 -0.00000000000E+00 -0.00000000000E+00 -0.46376910895E+03  0.46376910895E+03  0.00000000000E+00 0. -1.
          2    1    1    2  501    0  0.35201615236E+01  0.23642369657E+02 -0.41510376513E+03  0.41579140083E+03  0.00000000000E+00 0. -1.
         -2    1    1    2    0  502 -0.35201615236E+01 -0.23642369657E+02 -0.45365528775E+02  0.51277523158E+02  0.00000000000E+00 0.  1.
</event>
<event>
 4    1  0.1780267E+004  0.2893358E+02  0.7546771E-02  0.1429096E+00
         21   -1    0    0  501  502  0.00000000000E+00  0.00000000000E+00  0.90286629827E+02  0.90286629827E+02  0.00000000000E+00 0. -1.
         21   -1    0    0  502  503 -0.00000000000E+00 -0.00000000000E+00 -0.12368396982E+02  0.12368396982E+02  0.00000000000E+00 0.  1.
          2    1    1    2  501    0 -0.27084671199E+02 -0.10177054386E+02  0.64640049003E+02  0.70820108621E+02  0.00000000000E+00 0. -1.
         -2    1    1    2    0  503  0.27084671199E+02  0.10177054386E+02  0.13278183842E+02  0.31834918189E+02  0.00000000000E+00 0.  1.
</event>
<event>
 4    1  0.1780267E+004  0.2063477E+02  0.7546771E-02  0.1524544E+00
         21   -1    0    0  503  502  0.00000000000E+00  0.00000000000E+00  0.65037658028E+03  0.65037658028E+03  0.00000000000E+00 0.  1.
         21   -1    0    0  501  503 -0.00000000000E+00 -0.00000000000E+00 -0.10269016220E+01  0.10269016220E+01  0.00000000000E+00 0. -1.
          2    1    1    2  501    0  0.10243655695E+02  0.17912604936E+02  0.12858655234E+03  0.13023169868E+03  0.00000000000E+00 0. -1.
         -2    1    1    2    0  502 -0.10243655695E+02 -0.17912604936E+02  0.52076312632E+03  0.52117178323E+03  0.00000000000E+00 0.  1.
</event>
<event>
 4    1  0.1780267E+004  0.4311009E+02  0.7546771E-02  0.1331165E+00
         21   -1    0    0  503  502  0.00000000000E+00  0.00000000000E+00  0.11869677537E+04  0.11869677537E+04  0.00000000000E+00 0. -1.
         21   -1    0    0  501  503 -0.00000000000E+00 -0.00000000000E+00 -0.16395693765E+01  0.16395693765E+01  0.00000000000E+00 0.  1.
          2    1    1    2  501    0  0.43109172787E+02  0.28166377464E+00  0.46654960150E+03  0.46853709648E+03  0.00000000000E+00 0.  1.
         -2    1    1    2    0  502 -0.43109172787E+02 -0.28166377464E+00  0.71877858282E+03  0.72007022659E+03  0.00000000000E+00 0. -1.
</event>
<event>
 4    1  0.1780267E+004  0.2472404E+02  0.7546771E-02  0.1471914E+00
         21   -1    0    0  503  502  0.00000000000E+00  0.00000000000E+00  0.26262797526E+03  0.26262797526E+03  0.00000000000E+00 0. -1.
         21   -1    0    0  501  503 -0.00000000000E+00 -0.00000000000E+00 -0.23590370881E+01  0.23590370881E+01  0.00000000000E+00 0.  1.
          2    1    1    2  501    0 -0.24121790202E+02 -0.54237764261E+01  0.11482584105E+03  0.11745744713E+03  0.00000000000E+00 0.  1.
         -2    1    1    2    0  502  0.24121790202E+02  0.54237764261E+01  0.14544309712E+03  0.14752956522E+03  0.00000000000E+00 0. -1.
</event>
<event>
 4    1  0.1780267E+004  0.2348376E+02  0.7546771E-02  0.1486511E+00
         21   -1    0    0  503  502  0.00000000000E+00  0.00000000000E+00  0.49175985128E+02  0.49175985128E+02  0.00000000000E+00 0.  1.
         21   -1    0    0  501  503 -0.00000000000E+00 -0.00000000000E+00 -0.11226574960E+02  0.11226574960E+02  0.00000000000E+00 0. -1.
          2    1    1    2  501    0  0.23413667373E+02  0.18129889884E+01  0.17986451751E+02  0.29580385317E+02  0.00000000000E+00 0. -1.
         -2    1    1    2    0  502 -0.23413667373E+02 -0.18129889884E+01  0.19962958417E+02  0.30822174772E+02  0.00000000000E+00 0.  1.
</event>
<event>
 4    1  0.1780267E+004  0.2158356E+02  0.7546771E-02  0.1511094E+00
         21   -1    0    0  501  502  0.00000000000E+00  0.00000000000E+00  0.10215209155E+02  0.10215209155E+02  0.00000000000E+00 0.  1.
         21   -1    0    0  502  503 -0.00000000000E+00 -0.00000000000E+00 -0.69662360729E+02  0.69662360729E+02  0.00000000000E+00 0. -1.
          2    1    1    2  501    0 -0.21390269128E+02  0.28821089368E+01 -0.62525262193E+01  0.22470964586E+02  0.00000000000E+00 0.  1.
         -2    1    1    2    0  503  0.21390269128E+02 -0.28821089368E+01 -0.53194625355E+02  0.57406605298E+02  0.00000000000E+00 0. -1.
</event>
<event>
 4    1  0.1780267E+004  0.2395425E+02  0.7546771E-02  0.1480851E+00
         21   -1    0    0  503  502  0.00000000000E+00  0.00000000000E+00  0.19784408649E+02  0.19784408649E+02  0.00000000000E+00 0. -1.
         21   -1    0    0  501  503 -0.00000000000E+00 -0.00000000000E+00 -0.84720994855E+02  0.84720994855E+02  0.00000000000E+00 0.  1.
          2    1    1    2  501    0  0.95123933746E+01 -0.21984546576E+02 -0.74843440369E+02  0.78583372810E+02  0.00000000000E+00 0.  1.
         -2    1    1    2    0  502 -0.95123933746E+01  0.21984546576E+02  0.99068541636E+01  0.25922030694E+02  0.00000000000E+00 0. -1.
</event>
<event>
 4    1  0.1780267E+004  0.2435522E+02  0.7546771E-02  0.1476147E+00
         21   -1    0    0  501  502  0.00000000000E+00  0.00000000000E+00  0.25729557853E+02  0.25729557853E+02  0.00000000000E+00 0. -1.
         21   -1    0    0  502  503 -0.00000000000E+00 -0.00000000000E+00 -0.33415204345E+02  0.33415204345E+02  0.00000000000E+00 0.  1.
          2    1    1    2  501    0  0.10712433158E+02  0.21872823041E+02  0.12624133227E+02  0.27432560064E+02  0.00000000000E+00 0. -1.
         -2    1    1    2    0  503 -0.10712433158E+02 -0.21872823041E+02 -0.20309779719E+02  0.31712202134E+02  0.00000000000E+00 0.  1.
</event>
<event>
 4    1  0.1780267E+004  0.2710978E+02  0.7546771E-02  0.1446508E+00
         21   -1    0    0  501  502  0.00000000000E+00  0.00000000000E+00  0.31171297404E+03  0.31171297404E+03  0.00000000000E+00 0.  1.
         21   -1    0    0  502  503 -0.00000000000E+00 -0.00000000000E+00 -0.33163693735E+01  0.33163693735E+01  0.00000000000E+00 0. -1.
          2    1    1    2  501    0 -0.12770589851E+02  0.23913431056E+02  0.23888466406E+03  0.24041801695E+03  0.00000000000E+00 0.  1.
         -2    1    1    2    0  503  0.12770589851E+02 -0.23913431056E+02  0.69511940601E+02  0.74611326461E+02  0.00000000000E+00 0. -1.
</event>
<event>
 4    1  0.1780267E+004  0.2453296E+02  0.7546771E-02  0.1474096E+00
         21   -1    0    0  501  502  0.00000000000E+00  0.00000000000E+00  0.37924200469E+03  0.37924200469E+03  0.00000000000E+00 0.  1.
         21   -1    0    0  502  503 -0.00000000000E+00 -0.00000000000E+00 -0.57886414148E+02  0.57886414148E+02  0.00000000000E+00 0. -1.
          2    1    1    2  501    0 -0.74136000929E+01  0.23385996119E+02  0.37622508510E+03  0.37702411188E+03  0.00000000000E+00 0.  1.
         -2    1    1    2    0  503  0.74136000929E+01 -0.23385996119E+02 -0.54869494562E+02  0.60104306953E+02  0.00000000000E+00 0. -1.
</event>
<event>
 4    1  0.1780267E+004  0.2400623E+02  0.7546771E-02  0.1480235E+00
         21   -1    0    0  501  502  0.00000000000E+00  0.00000000000E+00  0.64897238828E+01  0.64897238828E+01  0.00000000000E+00 0.  1.
         21   -1    0    0  502  503 -0.00000000000E+00 -0.00000000000E+00 -0.96577413491E+02  0.96577413491E+02  0.00000000000E+00 0. -1.
          2    1    1    2  501    0 -0.30350147207E+01  0.23813600857E+02 -0.30421369597E+02  0.38752530605E+02  0.00000000000E+00 0.  1.
         -2    1    1    2    0  503  0.30350147207E+01 -0.23813600857E+02 -0.59666320011E+02  0.64314606769E+02  0.00000000000E+00 0. -1.
</event>
<event>
 4    1  0.1780267E+004  0.2503916E+02  0.7546771E-02  0.1468366E+00
         21   -1    0    0  501  502  0.00000000000E+00  0.00000000000E+00  0.18618624419E+02  0.18618624419E+02  0.00000000000E+00 0. -1.
         21   -1    0    0  502  503 -0.00000000000E+00 -0.00000000000E+00 -0.36497068600E+02  0.36497068600E+02  0.00000000000E+00 0.  1.
          2    1    1    2  501    0 -0.21643412354E+02  0.12590563747E+02 -0.12745535173E+01  0.25071579138E+02  0.00000000000E+00 0. -1.
         -2    1    1    2    0  503  0.21643412354E+02 -0.12590563747E+02 -0.16603890664E+02  0.30044113882E+02  0.00000000000E+00 0.  1.
</event>
<event>
 4    1  0.1780267E+004  0.2705714E+02  0.7546771E-02  0.1447035E+00
         21   -1    0    0  503  502  0.00000000000E+00  0.00000000000E+00  0.10869672794E+02  0.10869672794E+02  0.00000000000E+00 0. -1.
         21   -1    0    0  501  503 -0.00000000000E+00 -0.00000000000E+00 -0.70117961203E+02  0.70117961203E+02  0.00000000000E+00 0.  1.
          2    1    1    2  501    0  0.26763134382E+02  0.39778970946E+01 -0.21580840080E+02  0.34609560613E+02  0.00000000000E+00 0. -1.
         -2    1    1    2    0  502 -0.26763134382E+02 -0.39778970946E+01 -0.37667448329E+02  0.46378073384E+02  0.00000000000E+00 0.  1.
</event>
<event>
 4    1  0.1780267E+004  0.2435150E+02  0.7546771E-02  0.1476191E+00
         21   -1    0    0  503  502  0.00000000000E+00  0.00000000000E+00  0.57520122957E+01  0.57520122957E+01  0.00000000000E+00 0.  1.
         21   -1    0    0  501  503 -0.00000000000E+00 -0.00000000000E+00 -0.10340708053E+03  0.10340708053E+03  0.00000000000E+00 0. -1.
          2    1    1    2  501    0 -0.14055339345E+01 -0.24310900905E+02 -0.45822237617E+02  0.51890971167E+02  0.00000000000E+00 0.  1.
         -2    1    1    2    0  502  0.14055339345E+01  0.24310900905E+02 -0.51832830615E+02  0.57268121656E+02  0.00000000000E+00 0. -1.
</event>
<event>
 4    1  0.1780267E+004  0.2593783E+02  0.7546771E-02  0.1458580E+00
         21   -1    0    0  503  502  0.00000000000E+00  0.00000000000E+00  0.27383777294E+02  0.27383777294E+02  0.00000000000E+00 0.  1.
         21   -1    0    0  501  503 -0.00000000000E+00 -0.00000000000E+00 -0.25054990485E+03  0.25054990485E+03  0.00000000000E+00 0. -1.
          2    1    1    2  501    0  0.94880758609E+01  0.24140162852E+02 -0.24356079921E+03  0.24493802064E+03  0.00000000000E+00 0. -1.
         -2    1    1    2    0  502 -0.94880758609E+01 -0.24140162852E+02  0.20394671652E+02  0.32995661501E+02  0.00000000000E+00 0.  1.
</event>
<event>
 4    1  0.1780267E+004  0.2338566E+02  0.7546771E-02  0.1487711E+00
         21   -1    0    0  501  502  0.00000000000E+00  0.00000000000E+00  0.43139923028E+00  0.43139923028E+00  0.00000000000E+00 0.  1.
         21   -1    0    0  502  503 -0.00000000000E+00 -0.00000000000E+00 -0.12775768732E+04  0.12775768732E+04  0.00000000000E+00 0. -1.
          2    1    1    2  501    0  0.88244577056E+01 -0.21656828393E+02 -0.69472822265E+03  0.69512171065E+03  0.00000000000E+00 0.  1.
         -2    1    1    2    0  503 -0.88244577056E+01  0.21656828393E+02 -0.58241725133E+03  0.58288656179E+03  0.00000000000E+00 0. -1.
</event>
<event>
 4    1  0.1780267E+004  0.2261896E+02  0.7546771E-02  0.1497339E+00
         21   -1    0    0  501  502  0.00000000000E+00  0.00000000000E+00  0.40874447945E+02  0.40874447945E+02  0.00000000000E+00 0. -1.
         21   -1    0    0  502  503 -0.00000000000E+00 -0.00000000000E+00 -0.30991250956E+02  0.30991250956E+02  0.00000000000E+00 0.  1.
          2    1    1    2  501    0  0.22381020402E+02  0.32722076558E+01  0.32684880605E+02  0.39748192882E+02  0.00000000000E+00 0. -1.
         -2    1    1    2    0  503 -0.22381020402E+02 -0.32722076558E+01 -0.22801683616E+02  0.32117506019E+02  0.00000000000E+00 0.  1.
</event>
<event>
 4    1  0.1780267E+004  0.2533080E+02  0.7546771E-02  0.1465137E+00
         21   -1    0    0  501  502  0.00000000000E+00  0.00000000000E+00  0.79260756667E+02  0.79260756667E+02  0.00000000000E+00 0. -1.
         21   -1    0    0  502  503 -0.00000000000E+00 -0.00000000000E+00 -0.14521292571E+02  0.14521292571E+02  0.00000000000E+00 0.  1.
          2    1    1    2  501    0 -0.24542615832E+02 -0.62697369852E+01  0.63562429660E+02  0.68423914373E+02  0.00000000000E+00 0. -1.
         -2    1    1    2    0  503  0.24542615832E+02  0.62697369852E+01  0.11770344354E+01  0.25358134865E+02  0.00000000000E+00 0.  1.
</event>
<event>
 4    1  0.1780267E+004  0.3331288E+02  0.7546771E-02  0.1392828E+00
         21   -1    0    0  503  502  0.00000000000E+00  0.00000000000E+00  0.18496247618E+01  0.18496247618E+01  0.00000000000E+00 0. -1.
         21   -1    0    0  501  503 -0.00000000000E+00 -0.00000000000E+00 -0.12372690237E+04  0.12372690237E+04  0.00000000000E+00 0.  1.
          2    1    1    2  501    0 -0.28510645778E+01 -0.33190649702E+02 -0.10623585940E+04  0.10628807694E+04  0.00000000000E+00 0.  1.
         -2    1    1    2    0  502  0.28510645778E+01  0.33190649702E+02 -0.17306080496E+03  0.17623787905E+03  0.00000000000E+00 0. -1.
</event>
<event>
 4    1  0.1780267E+004  0.2853141E+02  0.7546771E-02  0.1432803E+00
         21   -1    0    0  501  502  0.00000000000E+00  0.00000000000E+00  0.11897079213E+03  0.11897079213E+03  0.00000000000E+00 0. -1.
         21   -1    0    0  502  503 -0.00000000000E+00 -0.00000000000E+00 -0.24717294810E+02  0.24717294810E+02  0.00000000000E+00 0.  1.
          2    1    1    2  501    0  0.28363162582E+02 -0.30938859027E+01  0.10822271213E+03  0.11192049206E+03  0.00000000000E+00 0. -1.
         -2    1    1    2    0  503 -0.28363162582E+02  0.30938859027E+01 -0.13969214817E+02  0.31767594876E+02  0.00000000000E+00 0.  1.
</event>
<event>
 4    1  0.1780267E+004  0.2677843E+02  0.7546771E-02  0.1449847E+00
         21   -1    0    0  503  502  0.00000000000E+00  0.00000000000E+00  0.65012393747E+01  0.65012393747E+01  0.00000000000E+00 0.  1.
         21   -1    0    0  501  503 -0.00000000000E+00 -0.00000000000E+00 -0.17466977761E+03  0.17466977761E+03  0.00000000000E+00 0. -1.
          2    1    1    2  501    0 -0.25583034484E+02 -0.79115512849E+01 -0.13907532968E+03  0.14162991076E+03  0.00000000000E+00 0. -1.
         -2    1    1    2    0  502  0.25583034484E+02  0.79115512849E+01 -0.29093208554E+02  0.39541106220E+02  0.00000000000E+00 0.  1.
</event>
<event>
 4    1  0.1780267E+004  0.2083979E+02  0.7546771E-02  0.1521565E+00
         21   -1    0    0  503  502  0.00000000000E+00  0.00000000000E+00  0.33285344448E+03  0.33285344448E+03  0.00000000000E+00 0. -1.
         21   -1    0    0  501  503 -0.00000000000E+00 -0.00000000000E+00 -0.13076018250E+01  0.13076018250E+01  0.00000000000E+00 0.  1.
          2    1    1    2  501    0 -0.18018195658E+02  0.10470983887E+02  0.15799626729E+03  0.15936473059E+03  0.00000000000E+00 0. -1.
         -2    1    1    2    0  502  0.18018195658E+02 -0.10470983887E+02  0.17354957536E+03  0.17479631571E+03  0.00000000000E+00 0.  1.
</event>
<event>
 4    1  0.1780267E+004  0.2270106E+02  0.7546771E-02  0.1496286E+00
         21   -1    0    0  503  502  0.00000000000E+00  0.00000000000E+00  0.95258379324E+02  0.95258379324E+02  0.00000000000E+00 0. -1.
         21   -1    0    0  501  503 -0.00000000000E+00 -0.00000000000E+00 -0.14643214942E+02  0.14643214942E+02  0.00000000000E+00 0.  1.
          2    1    1    2  501    0  0.21677309662E+02  0.67403577966E+01 -0.33273830805E+01  0.22943619060E+02  0.00000000000E+00 0.  1.
         -2    1    1    2    0  502 -0.21677309662E+02 -0.67403577966E+01  0.83942547463E+02  0.86957975206E+02  0.00000000000E+00 0. -1.
</event>
<event>
 4    1  0.1780267E+004  0.2142591E+02  0.7546771E-02  0.1513270E+00
         21   -1    0    0  501  502  0.00000000000E+00  0.00000000000E+00  0.81247130382E+02  0.81247130382E+02  0.00000000000E+00 0. -1.
         21   -1    0    0  502  503 -0.00000000000E+00 -0.00000000000E+00 -0.58962220782E+01  0.58962220782E+01  0.00000000000E+00 0.  1.
          2    1    1    2  501    0 -0.21218423074E+02 -0.29746126988E+01  0.46574131969E+02  0.51266163960E+02  0.00000000000E+00 0.  1.
         -2    1    1    2    0  503  0.21218423074E+02  0.29746126988E+01  0.28776776334E+02  0.35877188500E+02  0.00000000000E+00 0. -1.
</event>
<event>
 4    1  0.1780267E+004  0.2529177E+02  0.7546771E-02  0.1465566E+00
         21   -1    0    0  503  502  0.00000000000E+00  0.00000000000E+00  0.84073798702E+01  0.84073798702E+01  0.00000000000E+00 0.  1.
         21   -1    0    0  501  503 -0.00000000000E+00 -0.00000000000E+00 -0.13557042685E+03  0.13557042685E+03  0.00000000000E+00 0. -1.
          2    1    1    2  501    0  0.24790960458E+02 -0.50081682069E+01 -0.11126734269E+03  0.11410563097E+03  0.00000000000E+00 0. -1.
         -2    1    1    2    0  502 -0.24790960458E+02  0.50081682069E+01 -0.15895704285E+02  0.29872175748E+02  0.00000000000E+00 0.  1.
</event>
<event>
 4    1  0.1780267E+004  0.2554901E+02  0.7546771E-02  0.1462754E+00
         21   -1    0    0  503  502  0.00000000000E+00  0.00000000000E+00  0.19396595448E+01  0.19396595448E+01  0.00000000000E+00 0.  1.
         21   -1    0    0  501  503 -0.00000000000E+00 -0.00000000000E+00 -0.65133352393E+03  0.65133352393E+03  0.00000000000E+00 0. -1.
          2    1    1    2  501    0 -0.82574089864E+00  0.25535658309E+02 -0.55177939704E+03  0.55237057732E+03  0.00000000000E+00 0. -1.
         -2    1    1    2    0  502  0.82574089864E+00 -0.25535658309E+02 -0.97614467342E+02  0.10090260615E+03  0.00000000000E+00 0.  1.
</event>
<event>
 4    1  0.1780267E+004  0.2310163E+02  0.7546771E-02  0.1491226E+00
         21   -1    0    0  501  502  0.00000000000E+00  0.00000000000E+00  0.12674639009E+02  0.12674639009E+02  0.00000000000E+00 0. -1.
         21   -1    0    0  502  503 -0.00000000000E+00 -0.00000000000E+00 -0.17764020748E+03  0.17764020748E+03  0.00000000000E+00 0.  1.
          2    1    1    2  501    0  0.78490893318E+01 -0.21727332063E+02  0.63532142963E+00  0.23110361210E+02  0.00000000000E+00 0. -1.
         -2    1    1    2    0  503 -0.78490893318E+01  0.21727332063E+02 -0.16560088990E+03  0.16720448528E+03  0.00000000000E+00 0.  1.
</event>
<event>
 4    1  0.1780267E+004  0.2238667E+02  0.7546771E-02  0.1500347E+00
         21   -1    0    0  501  502  0.00000000000E+00  0.00000000000E+00  0.29832627026E+02  0.29832627026E+02  0.00000000000E+00 0.  1.
         21   -1    0    0  502  503 -0.00000000000E+00 -0.00000000000E+00 -0.45569711668E+02  0.45569711668E+02  0.00000000000E+00 0. -1.
          2    1    1    2  501    0  0.55034975762E+01  0.21699644618E+02  0.22087937496E+02  0.31449007059E+02  0.00000000000E+00 0.  1.
         -2    1    1    2    0  503 -0.55034975762E+01 -0.21699644618E+02 -0.37825022138E+02  0.43953331636E+02  0.00000000000E+00 0. -1.
</event>
<event>
 4    1  0.1780267E+004  0.2163121E+02  0.7546771E-02  0.1510440E+00
         21   -1    0    0  501  502  0.00000000000E+00  0.00000000000E+00  0.60554369056E+02  0.60554369056E+02  0.00000000000E+00 0.  1.
         21   -1    0    0  502  503 -0.00000000000E+00 -0.00000000000E+00 -0.12127912820E+02  0.12127912820E+02  0.00000000000E+00 0. -1.
          2    1    1    2  501    0  0.20961028731E+02  0.53427258698E+01  0.46104558356E+02  0.50926807738E+02  0.00000000000E+00 0.  1.
         -2    1    1    2    0  503 -0.20961028731E+02 -0.53427258698E+01  0.23218978797E+01  0.21755474138E+02  0.00000000000E+00 0. -1.
</event>
<event>
 4    1  0.1780267E+004  0.2866992E+02  0.7546771E-02  0.1431518E+00
         21   -1    0    0  503  502  0.00000000000E+00  0.00000000000E+00  0.61122460970E+02  0.61122460970E+02  0.00000000000E+00 0.  1.
         21   -1    0    0  501  503 -0.00000000000E+00 -0.00000000000E+00 -0.29471837968E+03  0.29471837968E+03  0.00000000000E+00 0. -1.
          2    1    1    2  501    0 -0.18301341672E+02 -0.22068644828E+02 -0.29061178555E+03  0.29202255750E+03  0.00000000000E+00 0. -1.
         -2    1    1    2    0  502  0.18301341672E+02  0.22068644828E+02  0.57015866842E+02  0.63818283143E+02  0.00000000000E+00 0.  1.
</event>
<event>
 4    1  0.1780267E+004  0.2063369E+02  0.7546771E-02  0.1524560E+00
         21   -1    0    0  501  502  0.00000000000E+00  0.00000000000E+00  0.10574514963E+01  0.10574514963E+01  0.00000000000E+00 0. -1.
         21   -1    0    0  502  503 -0.00000000000E+00 -0.00000000000E+00 -0.44133149142E+03  0.44133149142E+03  0.00000000000E+00 0.  1.
          2    1    1    2  501    0  0.19160029357E+02 -0.76578422302E+01 -0.28564912706E+03  0.28639338865E+03  0.00000000000E+00 0.  1.
         -2    1    1    2    0  503 -0.19160029357E+02  0.76578422302E+01 -0.15462491286E+03  0.15599555426E+03  0.00000000000E+00 0. -1.
</event>
<event>
 4    1  0.1780267E+004  0.2822624E+02  0.7546771E-02  0.1435664E+00
         21   -1    0    0  501  502  0.00000000000E+00  0.00000000000E+00  0.23439065046E+02  0.23439065046E+02  0.00000000000E+00 0. -1.
         21   -1    0    0  502  503 -0.00000000000E+00 -0.00000000000E+00 -0.39368755033E+02  0.39368755033E+02  0.00000000000E+00 0.  1.
          2    1    1    2  501    0 -0.17674185660E+02  0.22007808679E+02  0.36416968560E+01  0.28460190400E+02  0.00000000000E+00 0. -1.
         -2    1    1    2    0  503  0.17674185660E+02 -0.22007808679E+02 -0.19571386843E+02  0.34347629679E+02  0.00000000000E+00 0.  1.
</event>
<event>
 4    1  0.1780267E+004  0.3835364E+02  0.7546771E-02  0.1358413E+00
         21   -1    0    0  501  502  0.00000000000E+00  0.00000000000E+00  0.94589510370E+01  0.94589510370E+01  0.00000000000E+00 0. -1.
         21   -1    0    0  502  503 -0.00000000000E+00 -0.00000000000E+00 -0.17405748153E+03  0.17405748153E+03  0.00000000000E+00 0.  1.
          2    1    1    2  501    0 -0.32936620893E+02 -0.19651488187E+02 -0.52349670882E+02  0.64895993907E+02  0.00000000000E+00 0. -1.
         -2    1    1    2    0  503  0.32936620893E+02  0.19651488187E+02 -0.11224885961E+03  0.11862043866E+03  0.00000000000E+00 0.  1.
</event>
<event>
 4    1  0.1780267E+004  0.2489037E+02  0.7546771E-02  0.1470034E+00
         21   -1    0    0  503  502  0.00000000000E+00  0.00000000000E+00  0.24962743202E+03  0.24962743202E+03  0.00000000000E+00 0.  1.
         21   -1    0    0  501  503 -0.00000000000E+00 -0.00000000000E+00 -0.25087154241E+01  0.25087154241E+01  0.00000000000E+00 0. -1.
          2    1    1    2  501    0 -0.23364341293E+02  0.85812536834E+01  0.13661260176E+03  0.13886156170E+03  0.00000000000E+00 0. -1.
         -2    1    1    2    0  502  0.23364341293E+02 -0.85812536834E+01  0.11050611484E+03  0.11327458574E+03  0.00000000000E+00 0.  1.
</event>
<event>
 4    1  0.1780267E+004  0.2356030E+02  0.7546771E-02  0.1485580E+00
         21   -1    0    0  503  502  0.00000000000E+00  0.00000000000E+00  0.35906442173E+02  0.35906442173E+02  0.00000000000E+00 0. -1.
         21   -1    0    0  501  503 -0.00000000000E+00 -0.00000000000E+00 -0.16192935314E+02  0.16192935314E+02  0.00000000000E+00 0.  1.
          2    1    1    2  501    0 -0.16286635680E+02  0.17024489896E+02  0.15401550560E+02  0.28147744450E+02  0.00000000000E+00 0. -1.
         -2    1    1    2    0  502  0.16286635680E+02 -0.17024489896E+02  0.43119562994E+01  0.23951633037E+02  0.00000000000E+00 0.  1.
</event>
<event>
 4    1  0.1780267E+004  0.2361478E+02  0.7546771E-02  0.1484919E+00
         21   -1    0    0  501  502  0.00000000000E+00  0.00000000000E+00  0.65831613532E+02  0.65831613532E+02  0.00000000000E+00 0. -1.
         21   -1    0    0  502  503 -0.00000000000E+00 -0.00000000000E+00 -0.20882287427E+02  0.20882287427E+02  0.00000000000E+00 0.  1.
          2    1    1    2  501    0 -0.22720385439E+02 -0.64375235188E+01  0.55900218687E+02  0.60683540379E+02  0.00000000000E+00 0. -1.
         -2    1    1    2    0  503  0.22720385439E+02  0.64375235188E+01 -0.10950892583E+02  0.26030360580E+02  0.00000000000E+00 0.  1.
</event>
<event>
 4    1  0.1780267E+004  0.2038341E+02  0.7546771E-02  0.1528253E+00
         21   -1    0    0  503  502  0.00000000000E+00  0.00000000000E+00  0.56749383668E+02  0.56749383668E+02  0.00000000000E+00 0.  1.
         21   -1    0    0  501  503 -0.00000000000E+00 -0.00000000000E+00 -0.75636434379E+01  0.75636434379E+01  0.00000000000E+00 0. -1.
          2    1    1    2  501    0 -0.17568570417E+02 -0.10335791813E+02  0.30348010969E+02  0.36557968060E+02  0.00000000000E+00 0. -1.
         -2    1    1    2    0  502  0.17568570417E+02  0.10335791813E+02  0.18837729260E+02  0.27755059045E+02  0.00000000000E+00 0.  1.
</event>
<event>
 4    1  0.1780267E+004  0.2221590E+02  0.7546771E-02  0.1502586E+00
         21   -1    0    0  503  502  0.00000000000E+00  0.00000000000E+00  0.15221486387E+01  0.15221486387E+01  0.00000000000E+00 0.  1.
         21   -1    0    0  501  503 -0.00000000000E+00 -0.00000000000E+00 -0.40155758175E+03  0.40155758175E+03  0.00000000000E+00 0. -1.
          2    1    1    2  501    0 -0.21700419756E+02  0.47579593612E+01 -0.28845127510E+03  0.28930552103E+03  0.00000000000E+00 0. -1.
         -2    1    1    2    0  502  0.21700419756E+02 -0.47579593612E+01 -0.11158415801E+03  0.11377420935E+03  0.00000000000E+00 0.  1.
</event>
<event>
 4    1  0.1780267E+004  0.2454522E+02  0.7546771E-02  0.1473956E+00
         21   -1    0    0  503  502  0.00000000000E+00  0.00000000000E+00  0.59657703510E+02  0.59657703510E+02  0.00000000000E+00 0.  1.
         21   -1    0    0  501  503 -0.00000000000E+00 -0.00000000000E+00 -0.51057884474E+02  0.51057884474E+02  0.00000000000E+00 0. -1.
          2    1    1    2  501    0 -0.10731055012E+02  0.22075155417E+02 -0.45281945443E+02  0.51506529795E+02  0.00000000000E+00 0. -1.
         -2    1    1    2    0  502  0.10731055012E+02 -0.22075155417E+02  0.53881764479E+02  0.59209058190E+02  0.00000000000E+00 0.  1.
</event>
<event>
 4    1  0.1780267E+004  0.2098399E+02  0.7546771E-02  0.1519493E+00
         21   -1    0    0  503  502  0.00000000000E+00  0.00000000000E+00  0.65076370040E+02  0.65076370040E+02  0.00000000000E+00 0.  1.
         21   -1    0    0  501  503 -0.00000000000E+00 -0.00000000000E+00 -0.14241008063E+02  0.14241008063E+02  0.00000000000E+00 0. -1.
          2    1    1    2  501    0  0.20883440964E+02 -0.20517845338E+01 -0.33142195276E+01  0.21244104531E+02  0.00000000000E+00 0. -1.
         -2    1    1    2    0  502 -0.20883440964E+02  0.20517845338E+01  0.54149581504E+02  0.58073273572E+02  0.00000000000E+00 0.  1.
</event>
<event>
 4    1  0.1780267E+004  0.4900429E+02  0.7546771E-02  0.1302548E+00
         21   -1    0    0  501  502  0.00000000000E+00  0.00000000000E+00  0.46780015821E+02  0.46780015821E+02  0.00000000000E+00 0.  1.
         21   -1    0    0  502  503 -0.00000000000E+00 -0.00000000000E+00 -0.69426144885E+02  0.69426144885E+02  0.00000000000E+00 0. -1.
          2    1    1    2  501    0 -0.10494523110E+02  0.47867368818E+02  0.18337464569E+02  0.52322868993E+02  0.00000000000E+00 0.  1.
         -2    1    1    2    0  503  0.10494523110E+02 -0.47867368818E+02 -0.40983593633E+02  0.63883291712E+02  0.00000000000E+00 0. -1.
</event>
<event>
 4    1  0.1780267E+004  0.2408784E+02  0.7546771E-02  0.1479272E+00
         21   -1    0    0  501  502  0.00000000000E+00  0.00000000000E+00  0.31405592001E+02  0.31405592001E+02  0.00000000000E+00 0. -1.
         21   -1    0    0  502  503 -0.00000000000E+00 -0.00000000000E+00 -0.51447640419E+02  0.51447640419E+02  0.00000000000E+00 0.  1.
          2    1    1    2  501    0  0.13491208419E+01  0.24050029081E+02  0.23143394943E+02  0.33404202660E+02  0.00000000000E+00 0. -1.
         -2    1    1    2    0  503 -0.13491208419E+01 -0.24050029081E+02 -0.43185443362E+02  0.49449029760E+02  0.00000000000E+00 0.  1.
</event>
<event>
 4    1  0.1780267E+004  0.5903010E+02  0.7546771E-02  0.1263164E+00
         21   -1    0    0  501  502  0.00000000000E+00  0.00000000000E+00  0.12546345359E+03  0.12546345359E+03  0.00000000000E+00 0. -1.
         21   -1    0    0  502  503 -0.00000000000E+00 -0.00000000000E+00 -0.40895110073E+02  0.40895110073E+02  0.00000000000E+00 0.  1.
          2    1    1    2  501    0 -0.43305743069E+02 -0.40114398641E+02  0.89400771955E+02  0.10713099639E+03  0.00000000000E+00 0. -1.
         -2    1    1    2    0  503  0.43305743069E+02  0.40114398641E+02 -0.48324284349E+01  0.59227567278E+02  0.00000000000E+00 0.  1.
</event>
<event>
 4    1  0.1780267E+004  0.4760636E+02  0.7546771E-02  0.1308898E+00
         21   -1    0    0  501  502  0.00000000000E+00  0.00000000000E+00  0.24750151170E+02  0.24750151170E+02  0.00000000000E+00 0. -1.
         21   -1    0    0  502  503 -0.00000000000E+00 -0.00000000000E+00 -0.10821685245E+03  0.10821685245E+03  0.00000000000E+00 0.  1.
          2    1    1    2  501    0 -0.17925511906E+02 -0.44102629740E+02 -0.15657687812E+02  0.50115158532E+02  0.00000000000E+00 0. -1.
         -2    1    1    2    0  503  0.17925511906E+02  0.44102629740E+02 -0.67809013465E+02  0.82851845086E+02  0.00000000000E+00 0.  1.
</event>
<event>
 4    1  0.1780267E+004  0.2163110E+02  0.7546771E-02  0.1510442E+00
         21   -1    0    0  503  502  0.00000000000E+00  0.00000000000E+00  0.72396168427E+02  0.72396168427E+02  0.00000000000E+00 0.  1.
         21   -1    0    0  501  503 -0.00000000000E+00 -0.00000000000E+00 -0.66208294889E+01  0.66208294889E+01  0.00000000000E+00 0. -1.
          2    1    1    2  501    0 -0.16233379727E+02 -0.14296211234E+02  0.26789781714E+02  0.34432494497E+02  0.00000000000E+00 0. -1.
         -2    1    1    2    0  502  0.16233379727E+02  0.14296211234E+02  0.38985557224E+02  0.44584503419E+02  0.00000000000E+00 0.  1.
</event>
<event>
 4    1  0.1780267E+004  0.4029917E+02  0.7546771E-02  0.1346742E+00
         21   -1    0    0  503  502  0.00000000000E+00  0.00000000000E+00  0.94085881483E+02  0.94085881483E+02  0.00000000000E+00 0.  1.
         21   -1    0    0  501  503 -0.00000000000E+00 -0.00000000000E+00 -0.19122746280E+02  0.19122746280E+02  0.00000000000E+00 0. -1.
          2    1    1    2  501    0  0.17373733866E+02 -0.36361740383E+02  0.19820102703E+02  0.44909456279E+02  0.00000000000E+00 0. -1.
         -2    1    1    2    0  502 -0.17373733866E+02  0.36361740383E+02  0.55143032500E+02  0.68299171484E+02  0.00000000000E+00 0.  1.
</event>
<event>
 4    1  0.1780267E+004  0.2851959E+02  0.7546771E-02  0.1432913E+00
         21   -1    0    0  503  502  0.00000000000E+00  0.00000000000E+00  0.68772663752E+01  0.68772663752E+01  0.00000000000E+00 0.  1.
         21   -1    0    0  501  503 -0.00000000000E+00 -0.00000000000E+00 -0.12438485181E+03  0.12438485181E+03  0.00000000000E+00 0. -1.
          2    1    1    2  501    0 -0.14392100110E+02  0.24621833598E+02 -0.73306878215E+02  0.78659173838E+02  0.00000000000E+00 0.  1.
         -2    1    1    2    0  502  0.14392100110E+02 -0.24621833598E+02 -0.44200707223E+02  0.52602944350E+02  0.00000000000E+00 0. -1.
</event>
<event>
 4    1  0.1780267E+004  0.3011081E+02  0.7546771E-02  0.1418636E+00
         21   -1    0    0  501  502  0.00000000000E+00  0.00000000000E+00  0.27788251761E+02  0.27788251761E+02  0.00000000000E+00 0.  1.
         21   -1    0    0  502  503 -0.00000000000E+00 -0.00000000000E+00 -0.38832180946E+02  0.38832180946E+02  0.00000000000E+00 0. -1.
          2    1    1    2  501    0 -0.28414561752E+02  0.99636198081E+01  0.77930446441E+01  0.31102935297E+02  0.00000000000E+00 0.  1.
         -2    1    1    2    0  503  0.28414561752E+02 -0.99636198081E+01 -0.18836973829E+02  0.35517497410E+02  0.00000000000E+00 0. -1.
</event>
<event>
 4    1  0.1780267E+004  0.4220418E+02  0.7546771E-02  0.1336032E+00
         21   -1    0    0  501  502  0.00000000000E+00  0.00000000000E+00  0.87737507564E+02  0.87737507564E+02  0.00000000000E+00 0. -1.
         21   -1    0    0  502  503 -0.00000000000E+00 -0.00000000000E+00 -0.23084104714E+02  0.23084104714E+02  0.00000000000E+00 0.  1.
          2    1    1    2  501    0 -0.18364653195E+02 -0.37999111962E+02  0.13088139096E+02  0.44187015988E+02  0.00000000000E+00 0.  1.
         -2    1    1    2    0  503  0.18364653195E+02  0.37999111962E+02  0.51565263754E+02  0.66634596291E+02  0.00000000000E+00 0. -1.
</event>
<event>
 4    1  0.1780267E+004  0.2268409E+02  0.7546771E-02  0.1496504E+00
         21   -1    0    0  503  502  0.00000000000E+00  0.00000000000E+00  0.26164515883E+03  0.26164515883E+03  0.00000000000E+00 0. -1.
         21   -1    0    0  501  503 -0.00000000000E+00 -0.00000000000E+00 -0.19681628370E+01  0.19681628370E+01  0.00000000000E+00 0.  1.
          2    1    1    2  501    0  0.48702926646E+01  0.22155098229E+02  0.12620121946E+03  0.12822369485E+03  0.00000000000E+00 0. -1.
         -2    1    1    2    0  502 -0.48702926646E+01 -0.22155098229E+02  0.13347577654E+03  0.13538962682E+03  0.00000000000E+00 0.  1.
</event>
<event>
 4    1  0.1780267E+004  0.2049762E+02  0.7546771E-02  0.1526560E+00
         21   -1    0    0  501  502  0.00000000000E+00  0.00000000000E+00  0.34632962939E+01  0.34632962939E+01  0.00000000000E+00 0.  1.
         21   -1    0    0  502  503 -0.00000000000E+00 -0.00000000000E+00 -0.12875581147E+03  0.12875581147E+03  0.00000000000E+00 0. -1.
          2    1    1    2  501    0 -0.19924742997E+02  0.48121609727E+01 -0.78537944517E+02  0.81168719379E+02  0.00000000000E+00 0.  1.
         -2    1    1    2    0  503  0.19924742997E+02 -0.48121609727E+01 -0.46754570659E+02  0.51050388384E+02  0.00000000000E+00 0. -1.
</event>
<event>
 4    1  0.1780267E+004  0.2238556E+02  0.7546771E-02  0.1500361E+00
         21   -1    0    0  501  502  0.00000000000E+00  0.00000000000E+00  0.21353097615E+02  0.21353097615E+02  0.00000000000E+00 0.  1.
         21   -1    0    0  502  503 -0.00000000000E+00 -0.00000000000E+00 -0.50852782192E+02  0.50852782192E+02  0.00000000000E+00 0. -1.
          2    1    1    2  501    0  0.72917283452E+01  0.21164687477E+02  0.11743716475E+02  0.25279006604E+02  0.00000000000E+00 0.  1.
         -2    1    1    2    0  503 -0.72917283452E+01 -0.21164687477E+02 -0.41243401052E+02  0.46926873203E+02  0.00000000000E+00 0. -1.
</event>
<event>
 4    1  0.1780267E+004  0.2264010E+02  0.7546771E-02  0.1497067E+00
         21   -1    0    0  503  502  0.00000000000E+00  0.00000000000E+00  0.60797118765E+00  0.60797118765E+00  0.00000000000E+00 0.  1.
         21   -1    0    0  501  503 -0.00000000000E+00 -0.00000000000E+00 -0.98841422674E+03  0.98841422674E+03  0.00000000000E+00 0. -1.
          2    1    1    2  501    0 -0.17901222286E+02  0.13860756491E+02 -0.30428676891E+03  0.30512786183E+03  0.00000000000E+00 0.  1.
         -2    1    1    2    0  502  0.17901222286E+02 -0.13860756491E+02 -0.68351948664E+03  0.68389433610E+03  0.00000000000E+00 0. -1.
</event>
<event>
 4    1  0.1780267E+004  0.3632232E+02  0.7546771E-02  0.1371498E+00
         21   -1    0    0  503  502  0.00000000000E+00  0.00000000000E+00  0.81244513206E+01  0.81244513206E+01  0.00000000000E+00 0. -1.
         21   -1    0    0  501  503 -0.00000000000E+00 -0.00000000000E+00 -0.29069068637E+03  0.29069068637E+03  0.00000000000E+00 0.  1.
          2    1    1    2  501    0  0.14451728995E+02 -0.33323542107E+02 -0.24054338245E+03  0.24327028131E+03  0.00000000000E+00 0.  1.
         -2    1    1    2    0  502 -0.14451728995E+02  0.33323542107E+02 -0.42022852601E+02  0.55544856380E+02  0.00000000000E+00 0. -1.
</event>
<event>
 4    1  0.1780267E+004  0.3680336E+02  0.7546771E-02  0.1368310E+00
         21   -1    0    0  503  502  0.00000000000E+00  0.00000000000E+00  0.26905293393E+02  0.26905293393E+02  0.00000000000E+00 0.  1.
         21   -1    0    0  501  503 -0.00000000000E+00 -0.00000000000E+00 -0.74648760413E+02  0.74648760413E+02  0.00000000000E+00 0. -1.
          2    1    1    2  501    0  0.34306357847E+02  0.13325218116E+02 -0.52845998010E+02  0.64398657845E+02  0.00000000000E+00 0. -1.
         -2    1    1    2    0  502 -0.34306357847E+02 -0.13325218116E+02  0.51025309891E+01  0.37155395962E+02  0.00000000000E+00 0.  1.
</event>
<event>
 4    1  0.1780267E+004  0.2113010E+02  0.7546771E-02  0.1517415E+00
         21   -1    0    0  503  502  0.00000000000E+00  0.00000000000E+00  0.22814010595E+01  0.22814010595E+01  0.00000000000E+00 0. -1.
         21   -1    0    0  501  503 -0.00000000000E+00 -0.00000000000E+00 -0.21374124842E+03  0.21374124842E+03  0.00000000000E+00 0.  1.
          2    1    1    2  501    0  0.11323374476E+02  0.17839906124E+02 -0.74353673036E+02  0.77297799154E+02  0.00000000000E+00 0.  1.
         -2    1    1    2    0  502 -0.11323374476E+02 -0.17839906124E+02 -0.13710617432E+03  0.13872485032E+03  0.00000000000E+00 0. -1.
</event>
<event>
 4    1  0.1780267E+004  0.2248944E+02  0.7546771E-02  0.1499011E+00
         21   -1    0    0  501  502  0.00000000000E+00  0.00000000000E+00  0.65468059426E+02  0.65468059426E+02  0.00000000000E+00 0. -1.
         21   -1    0    0  502  503 -0.00000000000E+00 -0.00000000000E+00 -0.30538245599E+02  0.30538245599E+02  0.00000000000E+00 0.  1.
          2    1    1    2  501    0  0.95372507441E+01 -0.20367024503E+02  0.58954225395E+02  0.63098142055E+02  0.00000000000E+00 0. -1.
         -2    1    1    2    0  503 -0.95372507441E+01  0.20367024503E+02 -0.24024411568E+02  0.32908162970E+02  0.00000000000E+00 0.  1.
</event>
<event>
 4    1  0.1780267E+004  0.2162555E+02  0.7546771E-02  0.1510518E+00
         21   -1    0    0  503  502  0.00000000000E+00  0.00000000000E+00  0.11051332934E+01  0.11051332934E+01  0.00000000000E+00 0.  1.
         21   -1    0    0  501  503 -0.00000000000E+00 -0.00000000000E+00 -0.67760945372E+03  0.67760945372E+03  0.00000000000E+00 0. -1.
          2    1    1    2  501    0  0.12055435842E+02  0.17953577645E+02 -0.54620059191E+03  0.54662853116E+03  0.00000000000E+00 0. -1.
         -2    1    1    2    0  502 -0.12055435842E+02 -0.17953577645E+02 -0.13030372852E+03  0.13208605585E+03  0.00000000000E+00 0.  1.
</event>
<event>
 4    1  0.1780267E+004  0.2800577E+02  0.7546771E-02  0.1437758E+00
         21   -1    0    0  501  502  0.00000000000E+00  0.00000000000E+00  0.82427907420E+02  0.82427907420E+02  0.00000000000E+00 0. -1.
         21   -1    0    0  502  503 -0.00000000000E+00 -0.00000000000E+00 -0.39942828554E+02  0.39942828554E+02  0.00000000000E+00 0.  1.
          2    1    1    2  501    0 -0.26965240879E+02  0.75630077628E+01  0.74645061028E+02  0.79725832940E+02  0.00000000000E+00 0. -1.
         -2    1    1    2    0  503  0.26965240879E+02 -0.75630077628E+01 -0.32159982162E+02  0.42644903034E+02  0.00000000000E+00 0.  1.
</event>
<event>
 4    1  0.1780267E+004  0.2516747E+02  0.7546771E-02  0.1466939E+00
         21   -1    0    0  503  502  0.00000000000E+00  0.00000000000E+00  0.35400760980E+01  0.35400760980E+01  0.00000000000E+00 0.  1.
         21   -1    0    0  501  503 -0.00000000000E+00 -0.00000000000E+00 -0.36113847403E+03  0.36113847403E+03  0.00000000000E+00 0. -1.
          2    1    1    2  501    0  0.24937889923E+02 -0.33916076577E+01 -0.30831890921E+03  0.30934438920E+03  0.00000000000E+00 0. -1.
         -2    1    1    2    0  502 -0.24937889923E+02  0.33916076577E+01 -0.49279488723E+02  0.55334160924E+02  0.00000000000E+00 0.  1.
</event>
<event>
 4    1  0.1780267E+004  0.2421240E+02  0.7546771E-02  0.1477810E+00
         21   -1    0    0  501  502  0.00000000000E+00  0.00000000000E+00  0.54009005635E+03  0.54009005635E+03  0.00000000000E+00 0. -1.
         21   -1    0    0  502  503 -0.00000000000E+00 -0.00000000000E+00 -0.20885548493E+01  0.20885548493E+01  0.00000000000E+00 0.  1.
          2    1    1    2  501    0  0.20153482172E+02 -0.13419288265E+02  0.45687309402E+03  0.45751422292E+03  0.00000000000E+00 0. -1.
         -2    1    1    2    0  503 -0.20153482172E+02  0.13419288265E+02  0.81128407488E+02  0.84664388279E+02  0.00000000000E+00 0.  1.
</event>
<event>
 4    1  0.1780267E+004  0.2560411E+02  0.7546771E-02  0.1462157E+00
         21   -1    0    0  501  502  0.00000000000E+00  0.00000000000E+00  0.10330796529E+03  0.10330796529E+03  0.00000000000E+00 0.  1.
         21   -1    0    0  502  503 -0.00000000000E+00 -0.00000000000E+00 -0.77816873702E+03  0.77816873702E+03  0.00000000000E+00 0. -1.
          2    1    1    2  501    0  0.68330815842E+01 -0.24675483519E+02  0.10150722630E+03  0.10468661558E+03  0.00000000000E+00 0.  1.
         -2    1    1    2    0  503 -0.68330815842E+01  0.24675483519E+02 -0.77636799803E+03  0.77679008674E+03  0.00000000000E+00 0. -1.
</event>
<event>
 4    1  0.1780267E+004  0.3093874E+02  0.7546771E-02  0.1411610E+00
         21   -1    0    0  503  502  0.00000000000E+00  0.00000000000E+00  0.19373689408E+01  0.19373689408E+01  0.00000000000E+00 0. -1.
         21   -1    0    0  501  503 -0.00000000000E+00 -0.00000000000E+00 -0.58355664866E+03  0.58355664866E+03  0.00000000000E+00 0.  1.
          2    1    1    2  501    0 -0.85866345796E+01 -0.29723313404E+02 -0.17617448375E+03  0.17887049611E+03  0.00000000000E+00 0. -1.
         -2    1    1    2    0  502  0.85866345796E+01  0.29723313404E+02 -0.40544479597E+03  0.40662352149E+03  0.00000000000E+00 0.  1.
</event>
<event>
 4    1  0.1780267E+004  0.2607605E+02  0.7546771E-02  0.1457117E+00
         21   -1    0    0  503  502  0.00000000000E+00  0.00000000000E+00  0.18608954797E+03  0.18608954797E+03  0.00000000000E+00 0.  1.
         21   -1    0    0  501  503 -0.00000000000E+00 -0.00000000000E+00 -0.65075747646E+01  0.65075747646E+01  0.00000000000E+00 0. -1.
          2    1    1    2  501    0 -0.97721675972E+01  0.24175714824E+02  0.26022039790E+02  0.36838933231E+02  0.00000000000E+00 0. -1.
         -2    1    1    2    0  502  0.97721675972E+01 -0.24175714824E+02  0.15355993342E+03  0.15575818951E+03  0.00000000000E+00 0.  1.
</event>
<event>
 4    1  0.1780267E+004  0.2101120E+02  0.7546771E-02  0.1519105E+00
         21   -1    0    0  503  502  0.00000000000E+00  0.00000000000E+00  0.81660952077E+02  0.81660952077E+02  0.00000000000E+00 0.  1.
         21   -1    0    0  501  503 -0.00000000000E+00 -0.00000000000E+00 -0.60859363948E+01  0.60859363948E+01  0.00000000000E+00 0. -1.
          2    1    1    2  501    0  0.14557878469E+02  0.15150539260E+02  0.23124368524E+02  0.31244312843E+02  0.00000000000E+00 0. -1.
         -2    1    1    2    0  502 -0.14557878469E+02 -0.15150539260E+02  0.52450647158E+02  0.56502575629E+02  0.00000000000E+00 0.  1.
</event>
<event>
 4    1  0.1780267E+004  0.2610497E+02  0.7546771E-02  0.1456812E+00
         21   -1    0    0  501  502  0.00000000000E+00  0.00000000000E+00  0.33321544161E+01  0.33321544161E+01  0.00000000000E+00 0. -1.
         21   -1    0    0  502  503 -0.00000000000E+00 -0.00000000000E+00 -0.20832440613E+03  0.20832440613E+03  0.00000000000E+00 0.  1.
          2    1    1    2  501    0 -0.26057235363E+02 -0.15780017455E+01 -0.88182087794E+02  0.91964940124E+02  0.00000000000E+00 0. -1.
         -2    1    1    2    0  503  0.26057235363E+02  0.15780017455E+01 -0.11681016392E+03  0.11969162042E+03  0.00000000000E+00 0.  1.
</event>
<event>
 4    1  0.1780267E+004  0.2016220E+02  0.7546771E-02  0.1531571E+00
         21   -1    0    0  503  502  0.00000000000E+00  0.00000000000E+00  0.13749298633E+02  0.13749298633E+02  0.00000000000E+00 0.  1.
         21   -1    0    0  501  503 -0.00000000000E+00 -0.00000000000E+00 -0.59749773042E+02  0.59749773042E+02  0.00000000000E+00 0. -1.
          2    1    1    2  501    0 -0.35482203624E+01 -0.19847531305E+02 -0.49119994029E+02  0.53096969594E+02  0.00000000000E+00 0. -1.
         -2    1    1    2    0  502  0.35482203624E+01  0.19847531305E+02  0.31195196203E+01  0.20402102081E+02  0.00000000000E+00 0.  1.
</event>
<event>
 4    1  0.1780267E+004  0.2590814E+02  0.7546771E-02  0.1458895E+00
         21   -1    0    0  503  502  0.00000000000E+00  0.00000000000E+00  0.83283954751E+01  0.83283954751E+01  0.00000000000E+00 0. -1.
         21   -1    0    0  501  503 -0.00000000000E+00 -0.00000000000E+00 -0.92292267234E+02  0.92292267234E+02  0.00000000000E+00 0.  1.
          2    1    1    2  501    0 -0.10978347866E+02  0.23467156643E+02 -0.59892391329E+02  0.65255881742E+02  0.00000000000E+00 0.  1.
         -2    1    1    2    0  502  0.10978347866E+02 -0.23467156643E+02 -0.24071480430E+02  0.35364780967E+02  0.00000000000E+00 0. -1.
</event>
<event>
 4    1  0.1780267E+004  0.2421227E+02  0.7546771E-02  0.1477812E+00
         21   -1    0    0  503  502  0.00000000000E+00  0.00000000000E+00  0.20449572626E+02  0.20449572626E+02  0.00000000000E+00 0.  1.
         21   -1    0    0  501  503 -0.00000000000E+00 -0.00000000000E+00 -0.65256542320E+02  0.65256542320E+02  0.00000000000E+00 0. -1.
          2    1    1    2  501    0  0.10857754359E+02  0.21641233597E+02 -0.54491773355E+02  0.59628744617E+02  0.00000000000E+00 0. -1.
         -2    1    1    2    0  502 -0.10857754359E+02 -0.21641233597E+02  0.96848036604E+01  0.26077370328E+02  0.00000000000E+00 0.  1.
</event>
<event>
 4    1  0.1780267E+004  0.2001859E+02  0.7546771E-02  0.1533752E+00
         21   -1    0    0  503  502  0.00000000000E+00  0.00000000000E+00  0.27361916035E+03  0.27361916035E+03  0.00000000000E+00 0.  1.
         21   -1    0    0  501  503 -0.00000000000E+00 -0.00000000000E+00 -0.35493645908E+01  0.35493645908E+01  0.00000000000E+00 0. -1.
          2    1    1    2  501    0  0.60454642158E+01  0.19083923945E+02  0.28824588247E+02  0.35094168723E+02  0.00000000000E+00 0. -1.
         -2    1    1    2    0  502 -0.60454642158E+01 -0.19083923945E+02  0.24124520751E+03  0.24207435622E+03  0.00000000000E+00 0.  1.
</event>
<event>
 4    1  0.1780267E+004  0.2470641E+02  0.7546771E-02  0.1472115E+00
         21   -1    0    0  501  502  0.00000000000E+00  0.00000000000E+00  0.13337335010E+03  0.13337335010E+03  0.00000000000E+00 0.  1.
         21   -1    0    0  502  503 -0.00000000000E+00 -0.00000000000E+00 -0.48416023933E+01  0.48416023933E+01  0.00000000000E+00 0. -1.
          2    1    1    2  501    0 -0.24101555774E+02  0.54333676692E+01  0.80431551668E+02  0.84140602438E+02  0.00000000000E+00 0.  1.
         -2    1    1    2    0  503  0.24101555774E+02 -0.54333676692E+01  0.48100196043E+02  0.54074350059E+02  0.00000000000E+00 0. -1.
</event>
<event>
 4    1  0.1780267E+004  0.2045585E+02  0.7546771E-02  0.1527178E+00
         21   -1    0    0  503  502  0.00000000000E+00  0.00000000000E+00  0.14916688124E+02  0.14916688124E+02  0.00000000000E+00 0.  1.
         21   -1    0    0  501  503 -0.00000000000E+00 -0.00000000000E+00 -0.16548571611E+03  0.16548571611E+03  0.00000000000E+00 0. -1.
          2    1    1    2  501    0  0.16870943841E+02 -0.11567756495E+02 -0.15748584325E+03  0.15880879245E+03  0.00000000000E+00 0. -1.
         -2    1    1    2    0  502 -0.16870943841E+02  0.11567756495E+02  0.69168152618E+01  0.21593611782E+02  0.00000000000E+00 0.  1.
</event>
<event>
 4    1  0.1780267E+004  0.2817832E+02  0.7546771E-02  0.1436118E+00
         21   -1    0    0  503  502  0.00000000000E+00  0.00000000000E+00  0.76715822028E+01  0.76715822028E+01  0.00000000000E+00 0. -1.
         21   -1    0    0  501  503 -0.00000000000E+00 -0.00000000000E+00 -0.28018518159E+03  0.28018518159E+03  0.00000000000E+00 0.  1.
          2    1    1    2  501    0 -0.67700529010E+01  0.27352949655E+02 -0.25055056208E+03  0.25213012837E+03  0.00000000000E+00 0.  1.
         -2    1    1    2    0  502  0.67700529010E+01 -0.27352949655E+02 -0.21963037305E+02  0.35726635425E+02  0.00000000000E+00 0. -1.
</event>
<event>
 4    1  0.1780267E+004  0.2355764E+02  0.7546771E-02  0.1485612E+00
         21   -1    0    0  503  502  0.00000000000E+00  0.00000000000E+00  0.21060518695E+03  0.21060518695E+03  0.00000000000E+00 0. -1.
         21   -1    0    0  501  503 -0.00000000000E+00 -0.00000000000E+00 -0.53487808710E+01  0.53487808710E+01  0.00000000000E+00 0.  1.
          2    1    1    2  501    0  0.19306481415E+02 -0.13498963146E+02  0.25717903152E+02  0.34876536141E+02  0.00000000000E+00 0.  1.
         -2    1    1    2    0  502 -0.19306481415E+02  0.13498963146E+02  0.17953850293E+03  0.18107743168E+03  0.00000000000E+00 0. -1.
</event>
<event>
 4    1  0.1780267E+004  0.2123504E+02  0.7546771E-02  0.1515935E+00
         21   -1    0    0  501  502  0.00000000000E+00  0.00000000000E+00  0.99718733432E+01  0.99718733432E+01  0.00000000000E+00 0.  1.
         21   -1    0    0  502  503 -0.00000000000E+00 -0.00000000000E+00 -0.72376692606E+02  0.72376692606E+02  0.00000000000E+00 0. -1.
          2    1    1    2  501    0 -0.18020160798E+02 -0.11233912183E+02 -0.59811933640E+01  0.22061315741E+02  0.00000000000E+00 0.  1.
         -2    1    1    2    0  503  0.18020160798E+02  0.11233912183E+02 -0.56423625898E+02  0.60287250208E+02  0.00000000000E+00 0. -1.
</event>
<event>
 4    1  0.1780267E+004  0.3162519E+02  0.7546771E-02  0.1405980E+00
         21   -1    0    0  501  502  0.00000000000E+00  0.00000000000E+00  0.18084382764E+02  0.18084382764E+02  0.00000000000E+00 0. -1.
         21   -1    0    0  502  503 -0.00000000000E+00 -0.00000000000E+00 -0.70457008510E+02  0.70457008510E+02  0.00000000000E+00 0.  1.
          2    1    1    2  501    0  0.25035900680E+02  0.19322434316E+02 -0.56561442064E+01  0.32127009790E+02  0.00000000000E+00 0. -1.
         -2    1    1    2    0  503 -0.25035900680E+02 -0.19322434316E+02 -0.46716481539E+02  0.56414381483E+02  0.00000000000E+00 0.  1.
</event>
<event>
 4    1  0.1780267E+004  0.2884353E+02  0.7546771E-02  0.1429919E+00
         21   -1    0    0  501  502  0.00000000000E+00  0.00000000000E+00  0.90055628726E+02  0.90055628726E+02  0.00000000000E+00 0. -1.
         21   -1    0    0  502  503 -0.00000000000E+00 -0.00000000000E+00 -0.12397040339E+03  0.12397040339E+03  0.00000000000E+00 0.  1.
          2    1    1    2  501    0  0.28660241289E+02 -0.32464834306E+01  0.85991183894E+02  0.90699684635E+02  0.00000000000E+00 0. -1.
         -2    1    1    2    0  503 -0.28660241289E+02  0.32464834306E+01 -0.11990595856E+03  0.12332634748E+03  0.00000000000E+00 0.  1.
</event>
<event>
 4    1  0.1780267E+004  0.2068408E+02  0.7546771E-02  0.1523824E+00
         21   -1    0    0  503  502  0.00000000000E+00  0.00000000000E+00  0.85352482380E+01  0.85352482380E+01  0.00000000000E+00 0. -1.
         21   -1    0    0  501  503 -0.00000000000E+00 -0.00000000000E+00 -0.65792543669E+02  0.65792543669E+02  0.00000000000E+00 0.  1.
          2    1    1    2  501    0  0.23736491759E+01 -0.20547430730E+02 -0.46764185040E+02  0.51134334086E+02  0.00000000000E+00 0.  1.
         -2    1    1    2    0  502 -0.23736491759E+01  0.20547430730E+02 -0.10493110391E+02  0.23193457821E+02  0.00000000000E+00 0. -1.
</event>
<event>
 4    1  0.1780267E+004  0.2416724E+02  0.7546771E-02  0.1478339E+00
         21   -1    0    0  501  502  0.00000000000E+00  0.00000000000E+00  0.22343429069E+03  0.22343429069E+03  0.00000000000E+00 0. -1.
         21   -1    0    0  502  503 -0.00000000000E+00 -0.00000000000E+00 -0.38503443363E+01  0.38503443363E+01  0.00000000000E+00 0.  1.
          2    1    1    2  501    0  0.11294489347E+02  0.21365629958E+02  0.17418832706E+03  0.17585684211E+03  0.00000000000E+00 0. -1.
         -2    1    1    2    0  503 -0.11294489347E+02 -0.21365629958E+02  0.45395619291E+02  0.51427792913E+02  0.00000000000E+00 0.  1.
</event>
<event>
 4    1  0.1780267E+004  0.5843308E+02  0.7546771E-02  0.1265251E+00
         21   -1    0    0  501  502  0.00000000000E+00  0.00000000000E+00  0.64989084310E+01  0.64989084310E+01  0.00000000000E+00 0. -1.
         21   -1    0    0  502  503 -0.00000000000E+00 -0.00000000000E+00 -0.57617059089E+03  0.57617059089E+03  0.00000000000E+00 0.  1.
          2    1    1    2  501    0  0.22463536096E+02 -0.53942693519E+02 -0.37133061646E+03  0.37590005501E+03  0.00000000000E+00 0.  1.
         -2    1    1    2    0  503 -0.22463536096E+02  0.53942693519E+02 -0.19834106600E+03  0.20676944431E+03  0.00000000000E+00 0. -1.
</event>
<event>
 4    1  0.1780267E+004  0.3140131E+02  0.7546771E-02  0.1407798E+00
         21   -1    0    0  503  502  0.00000000000E+00  0.00000000000E+00  0.21747078025E+03  0.21747078025E+03  0.00000000000E+00 0.  1.
         21   -1    0    0  501  503 -0.00000000000E+00 -0.00000000000E+00 -0.45397354520E+01  0.45397354520E+01  0.00000000000E+00 0. -1.
          2    1    1    2  501    0 -0.55640941611E+01 -0.30904422251E+02  0.10256757503E+03  0.10726672320E+03  0.00000000000E+00 0. -1.
         -2    1    1    2    0  502  0.55640941611E+01  0.30904422251E+02  0.11036346977E+03  0.11474379250E+03  0.00000000000E+00 0.  1.
</event>
<event>
 4    1  0.1780267E+004  0.6009454E+02  0.7546771E-02  0.1259512E+00
         21   -1    0    0  501  502  0.00000000000E+00  0.00000000000E+00  0.13976371991E+04  0.13976371991E+04  0.00000000000E+00 0. -1.
         21   -1    0    0  502  503 -0.00000000000E+00 -0.00000000000E+00 -0.25839131994E+01  0.25839131994E+01  0.00000000000E+00 0.  1.
          2    1    1    2  501    0  0.57002815171E+02 -0.19027162425E+02  0.69914761725E+03  0.70172554789E+03  0.00000000000E+00 0.  1.
         -2    1    1    2    0  503 -0.57002815171E+02  0.19027162425E+02  0.69590566866E+03  0.69849556443E+03  0.00000000000E+00 0. -1.
</event>
<event>
 4    1  0.1780267E+004  0.2635322E+02  0.7546771E-02  0.1454216E+00
         21   -1    0    0  503  502  0.00000000000E+00  0.00000000000E+00  0.15667000574E+03  0.15667000574E+03  0.00000000000E+00 0. -1.
         21   -1    0    0  501  503 -0.00000000000E+00 -0.00000000000E+00 -0.54794044376E+01  0.54794044376E+01  0.00000000000E+00 0.  1.
          2    1    1    2  501    0 -0.23435455260E+02 -0.12052861710E+02  0.11102790291E+03  0.11411260782E+03  0.00000000000E+00 0.  1.
         -2    1    1    2    0  502  0.23435455260E+02  0.12052861710E+02  0.40162698390E+02  0.48036802356E+02  0.00000000000E+00 0. -1.
</event>
<event>
 4    1  0.1780267E+004  0.2098500E+02  0.7546771E-02  0.1519479E+00
         21   -1    0    0  503  502  0.00000000000E+00  0.00000000000E+00  0.22709177878E+02  0.22709177878E+02  0.00000000000E+00 0. -1.
         21   -1    0    0  501  503 -0.00000000000E+00 -0.00000000000E+00 -0.22484529122E+02  0.22484529122E+02  0.00000000000E+00 0.  1.
          2    1    1    2  501    0 -0.20147157638E+02  0.58704593357E+01  0.84930554395E+01  0.22638512415E+02  0.00000000000E+00 0. -1.
         -2    1    1    2    0  502  0.20147157638E+02 -0.58704593357E+01 -0.82684066832E+01  0.22555194585E+02  0.00000000000E+00 0.  1.
</event>
<event>
 4    1  0.1780267E+004  0.3037409E+02  0.7546771E-02  0.1416373E+00
         21   -1    0    0  501  502  0.00000000000E+00  0.00000000000E+00  0.85324817960E+02  0.85324817960E+02  0.00000000000E+00 0. -1.
         21   -1    0    0  502  503 -0.00000000000E+00 -0.00000000000E+00 -0.11845322712E+02  0.11845322712E+02  0.00000000000E+00 0.  1.
          2    1    1    2  501    0  0.77039862975E+01 -0.29380848203E+02  0.51085226255E+02  0.59433037846E+02  0.00000000000E+00 0. -1.
         -2    1    1    2    0  503 -0.77039862975E+01  0.29380848203E+02  0.22394268992E+02  0.37737102826E+02  0.00000000000E+00 0.  1.
</event>
<event>
 4    1  0.1780267E+004  0.2185407E+02  0.7546771E-02  0.1507412E+00
         21   -1    0    0  503  502  0.00000000000E+00  0.00000000000E+00  0.85109836080E+03  0.85109836080E+03  0.00000000000E+00 0. -1.
         21   -1    0    0  501  503 -0.00000000000E+00 -0.00000000000E+00 -0.11810623370E+01  0.11810623370E+01  0.00000000000E+00 0.  1.
          2    1    1    2  501    0 -0.17883514931E+02 -0.12561064800E+02  0.11622922957E+03  0.11826594717E+03  0.00000000000E+00 0.  1.
         -2    1    1    2    0  502  0.17883514931E+02  0.12561064800E+02  0.73368806889E+03  0.73401347596E+03  0.00000000000E+00 0. -1.
</event>
<event>
 4    1  0.1780267E+004  0.3755223E+02  0.7546771E-02  0.1363459E+00
         21   -1    0    0  501  502  0.00000000000E+00  0.00000000000E+00  0.54866133020E+02  0.54866133020E+02  0.00000000000E+00 0.  1.
         21   -1    0    0  502  503 -0.00000000000E+00 -0.00000000000E+00 -0.41577006272E+02  0.41577006272E+02  0.00000000000E+00 0. -1.
          2    1    1    2  501    0  0.37537362653E+02  0.10566703031E+01  0.36441491244E+02  0.52327358343E+02  0.00000000000E+00 0.  1.
         -2    1    1    2    0  503 -0.37537362653E+02 -0.10566703031E+01 -0.23152364495E+02  0.44115780950E+02  0.00000000000E+00 0. -1.
</event>
<event>
 4    1  0.1780267E+004  0.2172580E+02  0.7546771E-02  0.1509150E+00
         21   -1    0    0  501  502  0.00000000000E+00  0.00000000000E+00  0.15478067227E+02  0.15478067227E+02  0.00000000000E+00 0.  1.
         21   -1    0    0  502  503 -0.00000000000E+00 -0.00000000000E+00 -0.30640904383E+02  0.30640904383E+02  0.00000000000E+00 0. -1.
          2    1    1    2  501    0 -0.12319997816E+02 -0.17894915380E+02 -0.59925444590E+01  0.22537101227E+02  0.00000000000E+00 0.  1.
         -2    1    1    2    0  503  0.12319997816E+02  0.17894915380E+02 -0.91702926962E+01  0.23581870383E+02  0.00000000000E+00 0. -1.
</event>
<event>
 4    1  0.1780267E+004  0.2406522E+02  0.7546771E-02  0.1479538E+00
         21   -1    0    0  501  502  0.00000000000E+00  0.00000000000E+00  0.75549814815E+03  0.75549814815E+03  0.00000000000E+00 0. -1.
         21   -1    0    0  502  503 -0.00000000000E+00 -0.00000000000E+00 -0.86058047795E+00  0.86058047795E+00  0.00000000000E+00 0.  1.
          2    1    1    2  501    0  0.17564199126E+02 -0.16450948264E+02  0.50231961897E+03  0.50289574903E+03  0.00000000000E+00 0. -1.
         -2    1    1    2    0  503 -0.17564199126E+02  0.16450948264E+02  0.25231794871E+03  0.25346297960E+03  0.00000000000E+00 0.  1.
</event>
<event>
 4    1  0.1780267E+004  0.2353455E+02  0.7546771E-02  0.1485893E+00
         21   -1    0    0  501  502  0.00000000000E+00  0.00000000000E+00  0.75477867111E+03  0.75477867111E+03  0.00000000000E+00 0. -1.
         21   -1    0    0  502  503 -0.00000000000E+00 -0.00000000000E+00 -0.12650842019E+01  0.12650842019E+01  0.00000000000E+00 0.  1.
          2    1    1    2  501    0  0.18649540012E+02 -0.14355123926E+02  0.62172557384E+03  0.62217084799E+03  0.00000000000E+00 0. -1.
         -2    1    1    2    0  503 -0.18649540012E+02  0.14355123926E+02  0.13178801307E+03  0.13387290732E+03  0.00000000000E+00 0.  1.
</event>
<event>
 4    1  0.1780267E+004  0.2175419E+02  0.7546771E-02  0.1508764E+00
         21   -1    0    0  501  502  0.00000000000E+00  0.00000000000E+00  0.36812266651E+03  0.36812266651E+03  0.00000000000E+00 0. -1.
         21   -1    0    0  502  503 -0.00000000000E+00 -0.00000000000E+00 -0.21764406710E+01  0.21764406710E+01  0.00000000000E+00 0.  1.
          2    1    1    2  501    0  0.15026448900E+02 -0.15730558717E+02  0.30142948993E+03  0.30221347099E+03  0.00000000000E+00 0. -1.
         -2    1    1    2    0  503 -0.15026448900E+02  0.15730558717E+02  0.64516735906E+02  0.68085636195E+02  0.00000000000E+00 0.  1.
</event>
<event>
 4    1  0.1780267E+004  0.2229953E+02  0.7546771E-02  0.1501486E+00
         21   -1    0    0  503  502  0.00000000000E+00  0.00000000000E+00  0.25290551056E+01  0.25290551056E+01  0.00000000000E+00 0. -1.
         21   -1    0    0  501  503 -0.00000000000E+00 -0.00000000000E+00 -0.43884757339E+03  0.43884757339E+03  0.00000000000E+00 0.  1.
          2    1    1    2  501    0  0.18602769819E+02 -0.12296582923E+02 -0.38211706005E+03  0.38276718326E+03  0.00000000000E+00 0.  1.
         -2    1    1    2    0  502 -0.18602769819E+02  0.12296582923E+02 -0.54201458230E+02  0.58609445235E+02  0.00000000000E+00 0. -1.
</event>
<event>
 4    1  0.1780267E+004  0.2046203E+02  0.7546771E-02  0.1527086E+00
         21   -1    0    0  503  502  0.00000000000E+00  0.00000000000E+00  0.90910340962E+02  0.90910340962E+02  0.00000000000E+00 0.  1.
         21   -1    0    0  501  503 -0.00000000000E+00 -0.00000000000E+00 -0.54990875427E+01  0.54990875427E+01  0.00000000000E+00 0. -1.
          2    1    1    2  501    0  0.19736649632E+02  0.53999430414E+01  0.23274694322E+02  0.30990419799E+02  0.00000000000E+00 0. -1.
         -2    1    1    2    0  502 -0.19736649632E+02 -0.53999430414E+01  0.62136559097E+02  0.65419008705E+02  0.00000000000E+00 0.  1.
</event>
<event>
 4    1  0.1780267E+004  0.2659391E+02  0.7546771E-02  0.1451730E+00
         21   -1    0    0  501  502  0.00000000000E+00  0.00000000000E+00  0.36789722120E+02  0.36789722120E+02  0.00000000000E+00 0.  1.
         21   -1    0    0  502  503 -0.00000000000E+00 -0.00000000000E+00 -0.53672004051E+02  0.53672004051E+02  0.00000000000E+00 0. -1.
          2    1    1    2  501    0 -0.16333931390E+02 -0.20986638341E+02  0.27795221640E+02  0.38468307079E+02  0.00000000000E+00 0.  1.
         -2    1    1    2    0  503  0.16333931390E+02  0.20986638341E+02 -0.44677503571E+02  0.51993419091E+02  0.00000000000E+00 0. -1.
</event>
<event>
 4    1  0.1780267E+004  0.2045629E+02  0.7546771E-02  0.1527171E+00
         21   -1    0    0  501  502  0.00000000000E+00  0.00000000000E+00  0.95501005717E+00  0.95501005717E+00  0.00000000000E+00 0.  1.
         21   -1    0    0  502  503 -0.00000000000E+00 -0.00000000000E+00 -0.79195286963E+03  0.79195286963E+03  0.00000000000E+00 0. -1.
          2    1    1    2  501    0  0.76053662365E+01 -0.18989945385E+02 -0.13052104513E+03  0.13211435517E+03  0.00000000000E+00 0.  1.
         -2    1    1    2    0  503 -0.76053662365E+01  0.18989945385E+02 -0.66047681445E+03  0.66079352452E+03  0.00000000000E+00 0. -1.
</event>
<event>
 4    1  0.1780267E+004  0.2293247E+02  0.7546771E-02  0.1493348E+00
         21   -1    0    0  503  502  0.00000000000E+00  0.00000000000E+00  0.16974185971E+02  0.16974185971E+02  0.00000000000E+00 0. -1.
         21   -1    0    0  501  503 -0.00000000000E+00 -0.00000000000E+00 -0.48129191913E+02  0.48129191913E+02  0.00000000000E+00 0.  1.
          2    1    1    2  501    0  0.19355215676E+02 -0.12299350218E+02  0.38520425726E+01  0.23253744249E+02  0.00000000000E+00 0. -1.
         -2    1    1    2    0  502 -0.19355215676E+02  0.12299350218E+02 -0.35007048515E+02  0.41849633635E+02  0.00000000000E+00 0.  1.
</event>
<event>
 4    1  0.1780267E+004  0.2069230E+02  0.7546771E-02  0.1523704E+00
         21   -1    0    0  503  502  0.00000000000E+00  0.00000000000E+00  0.12333146169E+03  0.12333146169E+03  0.00000000000E+00 0.  1.
         21   -1    0    0  501  503 -0.00000000000E+00 -0.00000000000E+00 -0.51255331895E+02  0.51255331895E+02  0.00000000000E+00 0. -1.
          2    1    1    2  501    0  0.20572452863E+01  0.20589776376E+02 -0.48247149887E+02  0.52497224895E+02  0.00000000000E+00 0. -1.
         -2    1    1    2    0  502 -0.20572452863E+01 -0.20589776376E+02  0.12032327969E+03  0.12208956869E+03  0.00000000000E+00 0.  1.
</event>
<event>
 4    1  0.1780267E+004  0.2552154E+02  0.7546771E-02  0.1463053E+00
         21   -1    0    0  503  502  0.00000000000E+00  0.00000000000E+00  0.12267941981E+03  0.12267941981E+03  0.00000000000E+00 0. -1.
         21   -1    0    0  501  503 -0.00000000000E+00 -0.00000000000E+00 -0.54580655189E+01  0.54580655189E+01  0.00000000000E+00 0.  1.
          2    1    1    2  501    0 -0.25079274728E+02 -0.47306198820E+01  0.48035312294E+02  0.54394301287E+02  0.00000000000E+00 0.  1.
         -2    1    1    2    0  502  0.25079274728E+02  0.47306198820E+01  0.69186041992E+02  0.73743184037E+02  0.00000000000E+00 0. -1.
</event>
<event>
 4    1  0.1780267E+004  0.3047875E+02  0.7546771E-02  0.1415481E+00
         21   -1    0    0  503  502  0.00000000000E+00  0.00000000000E+00  0.11362012731E+03  0.11362012731E+03  0.00000000000E+00 0. -1.
         21   -1    0    0  501  503 -0.00000000000E+00 -0.00000000000E+00 -0.15048255103E+02  0.15048255103E+02  0.00000000000E+00 0.  1.
          2    1    1    2  501    0  0.29912721848E+02  0.58466476671E+01  0.58099435243E+01  0.31027562925E+02  0.00000000000E+00 0.  1.
         -2    1    1    2    0  502 -0.29912721848E+02 -0.58466476671E+01  0.92761928687E+02  0.97640819492E+02  0.00000000000E+00 0. -1.
</event>
<event>
 4    1  0.1780267E+004  0.3945969E+02  0.7546771E-02  0.1351681E+00
         21   -1    0    0  503  502  0.00000000000E+00  0.00000000000E+00  0.19057931326E+03  0.19057931326E+03  0.00000000000E+00 0. -1.
         21   -1    0    0  501  503 -0.00000000000E+00 -0.00000000000E+00 -0.81707437510E+01  0.81707437510E+01  0.00000000000E+00 0.  1.
          2    1    1    2  501    0  0.12864195649E+02  0.37303877645E+02  0.92031562075E+02  0.10013428601E+03  0.00000000000E+00 0.  1.
         -2    1    1    2    0  502 -0.12864195649E+02 -0.37303877645E+02  0.90377007431E+02  0.98615770996E+02  0.00000000000E+00 0. -1.
</event>
<event>
 4    1  0.1780267E+004  0.4015790E+02  0.7546771E-02  0.1347563E+00
         21   -1    0    0  503  502  0.00000000000E+00  0.00000000000E+00  0.97199322208E+01  0.97199322208E+01  0.00000000000E+00 0.  1.
         21   -1    0    0  501  503 -0.00000000000E+00 -0.00000000000E+00 -0.49582735435E+03  0.49582735435E+03  0.00000000000E+00 0. -1.
          2    1    1    2  501    0  0.33110864481E+02  0.22722840365E+02 -0.44924370165E+03  0.45103498788E+03  0.00000000000E+00 0. -1.
         -2    1    1    2    0  502 -0.33110864481E+02 -0.22722840365E+02 -0.36863720481E+02  0.54512298692E+02  0.00000000000E+00 0.  1.
</event>
<event>
 4    1  0.1780267E+004  0.4620010E+02  0.7546771E-02  0.1315545E+00
         21   -1    0    0  501  502  0.00000000000E+00  0.00000000000E+00  0.16293235001E+03  0.16293235001E+03  0.00000000000E+00 0.  1.
         21   -1    0    0  502  503 -0.00000000000E+00 -0.00000000000E+00 -0.23110780337E+02  0.23110780337E+02  0.00000000000E+00 0. -1.
          2    1    1    2  501    0 -0.10094704087E+02  0.45083769382E+02  0.13113251148E+03  0.13903303521E+03  0.00000000000E+00 0.  1.
         -2    1    1    2    0  503  0.10094704087E+02 -0.45083769382E+02  0.86890581892E+01  0.47010095134E+02  0.00000000000E+00 0. -1.
</event>
<event>
 4    1  0.1780267E+004  0.2162885E+02  0.7546771E-02  0.1510473E+00
         21   -1    0    0  501  502  0.00000000000E+00  0.00000000000E+00  0.57304240430E+03  0.57304240430E+03  0.00000000000E+00 0. -1.
         21   -1    0    0  502  503 -0.00000000000E+00 -0.00000000000E+00 -0.82980638306E+00  0.82980638306E+00  0.00000000000E+00 0.  1.
          2    1    1    2  501    0 -0.16085392835E+02 -0.14459156608E+02  0.32263640806E+03  0.32336057101E+03  0.00000000000E+00 0.  1.
         -2    1    1    2    0  503  0.16085392835E+02  0.14459156608E+02  0.24957618985E+03  0.25051163968E+03  0.00000000000E+00 0. -1.
</event>
<event>
 4    1  0.1780267E+004  0.4282244E+02  0.7546771E-02  0.1332695E+00
         21   -1    0    0  501  502  0.00000000000E+00  0.00000000000E+00  0.55352267678E+01  0.55352267678E+01  0.00000000000E+00 0.  1.
         21   -1    0    0  502  503 -0.00000000000E+00 -0.00000000000E+00 -0.41264863437E+03  0.41264863437E+03  0.00000000000E+00 0. -1.
          2    1    1    2  501    0 -0.24316125819E+02  0.35248933451E+02 -0.11071335085E+03  0.11870639132E+03  0.00000000000E+00 0. -1.
         -2    1    1    2    0  503  0.24316125819E+02 -0.35248933451E+02 -0.29640005675E+03  0.29947746981E+03  0.00000000000E+00 0.  1.
</event>
<event>
 4    1  0.1780267E+004  0.2794537E+02  0.7546771E-02  0.1438336E+00
         21   -1    0    0  501  502  0.00000000000E+00  0.00000000000E+00  0.31947416178E+03  0.31947416178E+03  0.00000000000E+00 0.  1.
         21   -1    0    0  502  503 -0.00000000000E+00 -0.00000000000E+00 -0.68283591476E+01  0.68283591476E+01  0.00000000000E+00 0. -1.
          2    1    1    2  501    0  0.27903424431E+02 -0.15305674577E+01  0.28704898026E+03  0.28840606928E+03  0.00000000000E+00 0.  1.
         -2    1    1    2    0  503 -0.27903424431E+02  0.15305674577E+01  0.25596822378E+02  0.37896451649E+02  0.00000000000E+00 0. -1.
</event>
<event>
 4    1  0.1780267E+004  0.2101797E+02  0.7546771E-02  0.1519008E+00
         21   -1    0    0  501  502  0.00000000000E+00  0.00000000000E+00  0.82856461514E+00  0.82856461514E+00  0.00000000000E+00 0.  1.
         21   -1    0    0  502  503 -0.00000000000E+00 -0.00000000000E+00 -0.58873786148E+03  0.58873786148E+03  0.00000000000E+00 0. -1.
          2    1    1    2  501    0 -0.11400627137E+01  0.20987031132E+02 -0.20338066122E+03  0.20446380750E+03  0.00000000000E+00 0.  1.
         -2    1    1    2    0  503  0.11400627137E+01 -0.20987031132E+02 -0.38452863564E+03  0.38510261859E+03  0.00000000000E+00 0. -1.
</event>
<event>
 4    1  0.1780267E+004  0.4591026E+02  0.7546771E-02  0.1316950E+00
         21   -1    0    0  503  502  0.00000000000E+00  0.00000000000E+00  0.54014591319E+02  0.54014591319E+02  0.00000000000E+00 0. -1.
         21   -1    0    0  501  503 -0.00000000000E+00 -0.00000000000E+00 -0.53102903476E+02  0.53102903476E+02  0.00000000000E+00 0.  1.
          2    1    1    2  501    0 -0.44723320039E+02  0.10371893698E+02  0.28035459483E+02  0.53793480298E+02  0.00000000000E+00 0. -1.
         -2    1    1    2    0  502  0.44723320039E+02 -0.10371893698E+02 -0.27123771639E+02  0.53324014497E+02  0.00000000000E+00 0.  1.
</event>
<event>
 4    1  0.1780267E+004  0.2685054E+02  0.7546771E-02  0.1449115E+00
         21   -1    0    0  503  502  0.00000000000E+00  0.00000000000E+00  0.76792384826E+01  0.76792384826E+01  0.00000000000E+00 0.  1.
         21   -1    0    0  501  503 -0.00000000000E+00 -0.00000000000E+00 -0.10251382278E+03  0.10251382278E+03  0.00000000000E+00 0. -1.
          2    1    1    2  501    0  0.26102296212E+02 -0.62945563717E+01 -0.63403839517E+02  0.68854906673E+02  0.00000000000E+00 0. -1.
         -2    1    1    2    0  502 -0.26102296212E+02  0.62945563717E+01 -0.31430744783E+02  0.41338154592E+02  0.00000000000E+00 0.  1.
</event>
<event>
 4    1  0.1780267E+004  0.2237407E+02  0.7546771E-02  0.1500511E+00
         21   -1    0    0  501  502  0.00000000000E+00  0.00000000000E+00  0.69342976378E+02  0.69342976378E+02  0.00000000000E+00 0.  1.
         21   -1    0    0  502  503 -0.00000000000E+00 -0.00000000000E+00 -0.15527462776E+02  0.15527462776E+02  0.00000000000E+00 0. -1.
          2    1    1    2  501    0  0.17934713779E+02  0.13377033186E+02  0.57948492850E+02  0.62117846057E+02  0.00000000000E+00 0.  1.
         -2    1    1    2    0  503 -0.17934713779E+02 -0.13377033186E+02 -0.41329792477E+01  0.22752593097E+02  0.00000000000E+00 0. -1.
</event>
<event>
 4    1  0.1780267E+004  0.3774598E+02  0.7546771E-02  0.1362226E+00
         21   -1    0    0  501  502  0.00000000000E+00  0.00000000000E+00  0.26574164394E+02  0.26574164394E+02  0.00000000000E+00 0. -1.
         21   -1    0    0  502  503 -0.00000000000E+00 -0.00000000000E+00 -0.55691226190E+02  0.55691226190E+02  0.00000000000E+00 0.  1.
          2    1    1    2  501    0 -0.37393808725E+02  0.51441004701E+01 -0.66154200479E+01  0.38321305863E+02  0.00000000000E+00 0. -1.
         -2    1    1    2    0  503  0.37393808725E+02 -0.51441004701E+01 -0.22501641748E+02  0.43944084721E+02  0.00000000000E+00 0.  1.
</event>
<event>
 4    1  0.1780267E+004  0.5327263E+02  0.7546771E-02  0.1284575E+00
         21   -1    0    0  501  502  0.00000000000E+00  0.00000000000E+00  0.12629289410E+03  0.12629289410E+03  0.00000000000E+00 0.  1.
         21   -1    0    0  502  503 -0.00000000000E+00 -0.00000000000E+00 -0.30524632839E+02  0.30524632839E+02  0.00000000000E+00 0. -1.
          2    1    1    2  501    0 -0.45495714836E+01 -0.53078000215E+02  0.88158214336E+02  0.10300409440E+03  0.00000000000E+00 0. -1.
         -2    1    1    2    0  503  0.45495714836E+01  0.53078000215E+02  0.76100469225E+01  0.53813432540E+02  0.00000000000E+00 0.  1.
</event>
<event>
 4    1  0.1780267E+004  0.2559228E+02  0.7546771E-02  0.1462285E+00
         21   -1    0    0  501  502  0.00000000000E+00  0.00000000000E+00  0.77154129280E+02  0.77154129280E+02  0.00000000000E+00 0.  1.
         21   -1    0    0  502  503 -0.00000000000E+00 -0.00000000000E+00 -0.15639195800E+02  0.15639195800E+02  0.00000000000E+00 0. -1.
          2    1    1    2  501    0 -0.32902175563E+01 -0.25379899612E+02  0.62129101433E+02  0.67193675899E+02  0.00000000000E+00 0.  1.
         -2    1    1    2    0  503  0.32902175563E+01  0.25379899612E+02 -0.61416795346E+00  0.25599649181E+02  0.00000000000E+00 0. -1.
</event>
<event>
 4    1  0.1780267E+004  0.9540221E+02  0.7546771E-02  0.1172023E+00
         21   -1    0    0  501  502  0.00000000000E+00  0.00000000000E+00  0.91257736034E+02  0.91257736034E+02  0.00000000000E+00 0. -1.
         21   -1    0    0  502  503 -0.00000000000E+00 -0.00000000000E+00 -0.18595202666E+03  0.18595202666E+03  0.00000000000E+00 0.  1.
          2    1    1    2  501    0  0.57205738724E+02 -0.76348449186E+02  0.47031732841E+02  0.10636524870E+03  0.00000000000E+00 0. -1.
         -2    1    1    2    0  503 -0.57205738724E+02  0.76348449186E+02 -0.14172602347E+03  0.17084451400E+03  0.00000000000E+00 0.  1.
</event>
<event>
 4    1  0.1780267E+004  0.2072895E+02  0.7546771E-02  0.1523170E+00
         21   -1    0    0  503  502  0.00000000000E+00  0.00000000000E+00  0.74167495253E+02  0.74167495253E+02  0.00000000000E+00 0. -1.
         21   -1    0    0  501  503 -0.00000000000E+00 -0.00000000000E+00 -0.60820317609E+01  0.60820317609E+01  0.00000000000E+00 0.  1.
          2    1    1    2  501    0 -0.16487557753E+02  0.12563826854E+02  0.25303248638E+02  0.32709993847E+02  0.00000000000E+00 0. -1.
         -2    1    1    2    0  502  0.16487557753E+02 -0.12563826854E+02  0.42782214854E+02  0.47539533166E+02  0.00000000000E+00 0.  1.
</event>
<event>
 4    1  0.1780267E+004  0.2387217E+02  0.7546771E-02  0.1481827E+00
         21   -1    0    0  503  502  0.00000000000E+00  0.00000000000E+00  0.93929923695E+03  0.93929923695E+03  0.00000000000E+00 0. -1.
         21   -1    0    0  501  503 -0.00000000000E+00 -0.00000000000E+00 -0.10954475266E+02  0.10954475266E+02  0.00000000000E+00 0.  1.
          2    1    1    2  501    0 -0.31533857245E+01 -0.23662983571E+02  0.23902645200E+01  0.23991540123E+02  0.00000000000E+00 0.  1.
         -2    1    1    2    0  502  0.31533857245E+01  0.23662983571E+02  0.92595449716E+03  0.92626217209E+03  0.00000000000E+00 0. -1.
</event>
<event>
 4    1  0.1780267E+004  0.2209451E+02  0.7546771E-02  0.1504193E+00
         21   -1    0    0  503  502  0.00000000000E+00  0.00000000000E+00  0.93562228423E+01  0.93562228423E+01  0.00000000000E+00 0. -1.
         21   -1    0    0  501  503 -0.00000000000E+00 -0.00000000000E+00 -0.24584568112E+03  0.24584568112E+03  0.00000000000E+00 0.  1.
          2    1    1    2  501    0 -0.14499552651E+02 -0.16671245244E+02 -0.23149878963E+03  0.23255076230E+03  0.00000000000E+00 0.  1.
         -2    1    1    2    0  502  0.14499552651E+02  0.16671245244E+02 -0.49906686443E+01  0.22651141661E+02  0.00000000000E+00 0. -1.
</event>
<event>
 4    1  0.1780267E+004  0.2006690E+02  0.7546771E-02  0.1533016E+00
         21   -1    0    0  501  502  0.00000000000E+00  0.00000000000E+00  0.24488355639E+03  0.24488355639E+03  0.00000000000E+00 0.  1.
         21   -1    0    0  502  503 -0.00000000000E+00 -0.00000000000E+00 -0.17933720814E+01  0.17933720814E+01  0.00000000000E+00 0. -1.
          2    1    1    2  501    0 -0.64582677932E+01 -0.18999240676E+02  0.15709613845E+03  0.15837258943E+03  0.00000000000E+00 0. -1.
         -2    1    1    2    0  503  0.64582677932E+01  0.18999240676E+02  0.85994045864E+02  0.88304339039E+02  0.00000000000E+00 0.  1.
</event>
<event>
 4    1  0.1780267E+004  0.2103608E+02  0.7546771E-02  0.1518750E+00
         21   -1    0    0  501  502  0.00000000000E+00  0.00000000000E+00  0.93655092668E+02  0.93655092668E+02  0.00000000000E+00 0.  1.
         21   -1    0    0  502  503 -0.00000000000E+00 -0.00000000000E+00 -0.53600215836E+01  0.53600215836E+01  0.00000000000E+00 0. -1.
          2    1    1    2  501    0 -0.20418874127E+02 -0.50582712046E+01  0.61188583139E+02  0.64703626133E+02  0.00000000000E+00 0.  1.
         -2    1    1    2    0  503  0.20418874127E+02  0.50582712046E+01  0.27106487945E+02  0.34311488119E+02  0.00000000000E+00 0. -1.
</event>
<event>
 4    1  0.1780267E+004  0.2005842E+02  0.7546771E-02  0.1533144E+00
         21   -1    0    0  503  502  0.00000000000E+00  0.00000000000E+00  0.51697986432E+03  0.51697986432E+03  0.00000000000E+00 0.  1.
         21   -1    0    0  501  503 -0.00000000000E+00 -0.00000000000E+00 -0.26567505246E+01  0.26567505246E+01  0.00000000000E+00 0. -1.
          2    1    1    2  501    0  0.16207217092E+02  0.11818055562E+02  0.38687508796E+02  0.43578247555E+02  0.00000000000E+00 0. -1.
         -2    1    1    2    0  502 -0.16207217092E+02 -0.11818055562E+02  0.47563560500E+03  0.47605836729E+03  0.00000000000E+00 0.  1.
</event>
<event>
 4    1  0.1780267E+004  0.3921202E+02  0.7546771E-02  0.1353166E+00
         21   -1    0    0  503  502  0.00000000000E+00  0.00000000000E+00  0.94089027416E+02  0.94089027416E+02  0.00000000000E+00 0. -1.
         21   -1    0    0  501  503 -0.00000000000E+00 -0.00000000000E+00 -0.15007643945E+03  0.15007643945E+03  0.00000000000E+00 0.  1.
          2    1    1    2  501    0 -0.44945643909E+01  0.38953585089E+02 -0.14323814061E+03  0.14850840995E+03  0.00000000000E+00 0.  1.
         -2    1    1    2    0  502  0.44945643909E+01 -0.38953585089E+02  0.87250728577E+02  0.95657056915E+02  0.00000000000E+00 0. -1.
</event>
<event>
 4    1  0.1780267E+004  0.2335259E+02  0.7546771E-02  0.1488118E+00
         21   -1    0    0  503  502  0.00000000000E+00  0.00000000000E+00  0.48241925026E+01  0.48241925026E+01  0.00000000000E+00 0.  1.
         21   -1    0    0  501  503 -0.00000000000E+00 -0.00000000000E+00 -0.18625951081E+03  0.18625951081E+03  0.00000000000E+00 0. -1.
          2    1    1    2  501    0  0.13917554703E+02  0.18752200231E+02 -0.15061914811E+03  0.15241873612E+03  0.00000000000E+00 0. -1.
         -2    1    1    2    0  502 -0.13917554703E+02 -0.18752200231E+02 -0.30816170191E+02  0.38664967188E+02  0.00000000000E+00 0.  1.
</event>
<event>
 4    1  0.1780267E+004  0.2247293E+02  0.7546771E-02  0.1499225E+00
         21   -1    0    0  503  502  0.00000000000E+00  0.00000000000E+00  0.21581112829E+02  0.21581112829E+02  0.00000000000E+00 0. -1.
         21   -1    0    0  501  503 -0.00000000000E+00 -0.00000000000E+00 -0.94505733739E+02  0.94505733739E+02  0.00000000000E+00 0.  1.
          2    1    1    2  501    0 -0.63844242520E+01  0.21546962406E+02 -0.86809053301E+02  0.89670754413E+02  0.00000000000E+00 0.  1.
         -2    1    1    2    0  502  0.63844242520E+01 -0.21546962406E+02  0.13884432391E+02  0.26416092156E+02  0.00000000000E+00 0. -1.
</event>
<event>
 4    1  0.1780267E+004  0.2044452E+02  0.7546771E-02  0.1527345E+00
         21   -1    0    0  503  502  0.00000000000E+00  0.00000000000E+00  0.55766204587E+01  0.55766204587E+01  0.00000000000E+00 0.  1.
         21   -1    0    0  501  503 -0.00000000000E+00 -0.00000000000E+00 -0.75507292072E+02  0.75507292072E+02  0.00000000000E+00 0. -1.
          2    1    1    2  501    0  0.42870368990E+01 -0.19989991859E+02 -0.31488382903E+02  0.37543264612E+02  0.00000000000E+00 0. -1.
         -2    1    1    2    0  502 -0.42870368990E+01  0.19989991859E+02 -0.38442288710E+02  0.43540647918E+02  0.00000000000E+00 0.  1.
</event>
<event>
 4    1  0.1780267E+004  0.2039709E+02  0.7546771E-02  0.1528049E+00
         21   -1    0    0  503  502  0.00000000000E+00  0.00000000000E+00  0.10624141527E+02  0.10624141527E+02  0.00000000000E+00 0. -1.
         21   -1    0    0  501  503 -0.00000000000E+00 -0.00000000000E+00 -0.81988113507E+02  0.81988113507E+02  0.00000000000E+00 0.  1.
          2    1    1    2  501    0  0.17142632541E+02  0.11053123557E+02 -0.69149810643E+02  0.72095337594E+02  0.00000000000E+00 0.  1.
         -2    1    1    2    0  502 -0.17142632541E+02 -0.11053123557E+02 -0.22141613370E+01  0.20516917439E+02  0.00000000000E+00 0. -1.
</event>
<event>
 4    1  0.1780267E+004  0.2061367E+02  0.7546771E-02  0.1524853E+00
         21   -1    0    0  501  502  0.00000000000E+00  0.00000000000E+00  0.71571341870E+02  0.71571341870E+02  0.00000000000E+00 0. -1.
         21   -1    0    0  502  503 -0.00000000000E+00 -0.00000000000E+00 -0.66239790453E+01  0.66239790453E+01  0.00000000000E+00 0.  1.
          2    1    1    2  501    0  0.15084523560E+02  0.14049215823E+02  0.45064217661E+02  0.49555090856E+02  0.00000000000E+00 0. -1.
         -2    1    1    2    0  503 -0.15084523560E+02 -0.14049215823E+02  0.19883145163E+02  0.28640230059E+02  0.00000000000E+00 0.  1.
</event>
<event>
 4    1  0.1780267E+004  0.2518742E+02  0.7546771E-02  0.1466718E+00
         21   -1    0    0  501  502  0.00000000000E+00  0.00000000000E+00  0.89776610037E+01  0.89776610037E+01  0.00000000000E+00 0. -1.
         21   -1    0    0  502  503 -0.00000000000E+00 -0.00000000000E+00 -0.12089906767E+03  0.12089906767E+03  0.00000000000E+00 0.  1.
          2    1    1    2  501    0 -0.24799469643E+02  0.44036839172E+01 -0.14101671283E+02  0.28866299721E+02  0.00000000000E+00 0. -1.
         -2    1    1    2    0  503  0.24799469643E+02 -0.44036839172E+01 -0.97819735389E+02  0.10101042896E+03  0.00000000000E+00 0.  1.
</event>
<event>
 4    1  0.1780267E+004  0.2043927E+02  0.7546771E-02  0.1527423E+00
         21   -1    0    0  501  502  0.00000000000E+00  0.00000000000E+00  0.80798139328E+01  0.80798139328E+01  0.00000000000E+00 0. -1.
         21   -1    0    0  502  503 -0.00000000000E+00 -0.00000000000E+00 -0.52325877874E+02  0.52325877874E+02  0.00000000000E+00 0.  1.
          2    1    1    2  501    0  0.94443557379E+01  0.18126436745E+02 -0.25414061794E+02  0.32613465030E+02  0.00000000000E+00 0.  1.
         -2    1    1    2    0  503 -0.94443557379E+01 -0.18126436745E+02 -0.18832002147E+02  0.27792226777E+02  0.00000000000E+00 0. -1.
</event>
<event>
 4    1  0.1780267E+004  0.2220430E+02  0.7546771E-02  0.1502739E+00
         21   -1    0    0  503  502  0.00000000000E+00  0.00000000000E+00  0.95964937856E+02  0.95964937856E+02  0.00000000000E+00 0. -1.
         21   -1    0    0  501  503 -0.00000000000E+00 -0.00000000000E+00 -0.19928707318E+02  0.19928707318E+02  0.00000000000E+00 0.  1.
          2    1    1    2  501    0 -0.21176433672E+02 -0.66775480581E+01 -0.11903677511E+02  0.25193819270E+02  0.00000000000E+00 0.  1.
         -2    1    1    2    0  502  0.21176433672E+02  0.66775480581E+01  0.87939908050E+02  0.90699825904E+02  0.00000000000E+00 0. -1.
</event>
<event>
 4    1  0.1780267E+004  0.2289016E+02  0.7546771E-02  0.1493882E+00
         21   -1    0    0  503  502  0.00000000000E+00  0.00000000000E+00  0.35936864686E+01  0.35936864686E+01  0.00000000000E+00 0. -1.
         21   -1    0    0  501  503 -0.00000000000E+00 -0.00000000000E+00 -0.23058568043E+03  0.23058568043E+03  0.00000000000E+00 0.  1.
          2    1    1    2  501    0 -0.33095138739E+01  0.22649646240E+02 -0.18449689027E+03  0.18591143557E+03  0.00000000000E+00 0.  1.
         -2    1    1    2    0  502  0.33095138739E+01 -0.22649646240E+02 -0.42495103692E+02  0.48267931328E+02  0.00000000000E+00 0. -1.
</event>
<event>
 4    1  0.1780267E+004  0.2894141E+02  0.7546771E-02  0.1429024E+00
         21   -1    0    0  501  502  0.00000000000E+00  0.00000000000E+00  0.49646368513E+03  0.49646368513E+03  0.00000000000E+00 0.  1.
         21   -1    0    0  502  503 -0.00000000000E+00 -0.00000000000E+00 -0.16973109690E+01  0.16973109690E+01  0.00000000000E+00 0. -1.
          2    1    1    2  501    0  0.82574261563E+01 -0.27738421686E+02  0.22810435511E+03  0.22993303796E+03  0.00000000000E+00 0.  1.
         -2    1    1    2    0  503 -0.82574261563E+01  0.27738421686E+02  0.26666201905E+03  0.26822795814E+03  0.00000000000E+00 0. -1.
</event>
<event>
 4    1  0.1780267E+004  0.2372939E+02  0.7546771E-02  0.1483537E+00
         21   -1    0    0  503  502  0.00000000000E+00  0.00000000000E+00  0.18691251707E+02  0.18691251707E+02  0.00000000000E+00 0. -1.
         21   -1    0    0  501  503 -0.00000000000E+00 -0.00000000000E+00 -0.74824373547E+02  0.74824373547E+02  0.00000000000E+00 0.  1.
          2    1    1    2  501    0  0.19941836807E+02 -0.12861076684E+02 -0.64205942045E+02  0.68450618278E+02  0.00000000000E+00 0.  1.
         -2    1    1    2    0  502 -0.19941836807E+02  0.12861076684E+02  0.80728202046E+01  0.25065006977E+02  0.00000000000E+00 0. -1.
</event>
<event>
 4    1  0.1780267E+004  0.2028654E+02  0.7546771E-02  0.1529700E+00
         21   -1    0    0  501  502  0.00000000000E+00  0.00000000000E+00  0.80541146660E+02  0.80541146660E+02  0.00000000000E+00 0. -1.
         21   -1    0    0  502  503 -0.00000000000E+00 -0.00000000000E+00 -0.23164399514E+02  0.23164399514E+02  0.00000000000E+00 0.  1.
          2    1    1    2  501    0 -0.20192601801E+02 -0.19499602914E+01  0.74466312545E+02  0.77180147814E+02  0.00000000000E+00 0. -1.
         -2    1    1    2    0  503  0.20192601801E+02  0.19499602914E+01 -0.17089565399E+02  0.26525398360E+02  0.00000000000E+00 0.  1.
</event>
<event>
 4    1  0.1780267E+004  0.2089640E+02  0.7546771E-02  0.1520749E+00
         21   -1    0    0  503  502  0.00000000000E+00  0.00000000000E+00  0.17997816017E+01  0.17997816017E+01  0.00000000000E+00 0.  1.
         21   -1    0    0  501  503 -0.00000000000E+00 -0.00000000000E+00 -0.32385932367E+03  0.32385932367E+03  0.00000000000E+00 0. -1.
          2    1    1    2  501    0  0.39653108089E+01 -0.20516725711E+02 -0.24258335677E+03  0.24348171329E+03  0.00000000000E+00 0.  1.
         -2    1    1    2    0  502 -0.39653108089E+01  0.20516725711E+02 -0.79476185298E+02  0.82177391983E+02  0.00000000000E+00 0. -1.
</event>
<event>
 4    1  0.1780267E+004  0.2090816E+02  0.7546771E-02  0.1520580E+00
         21   -1    0    0  503  502  0.00000000000E+00  0.00000000000E+00  0.56884712916E+02  0.56884712916E+02  0.00000000000E+00 0. -1.
         21   -1    0    0  501  503 -0.00000000000E+00 -0.00000000000E+00 -0.17231275042E+02  0.17231275042E+02  0.00000000000E+00 0.  1.
          2    1    1    2  501    0  0.97377545485E+01 -0.18502089974E+02 -0.77563953100E+01  0.22300512668E+02  0.00000000000E+00 0.  1.
         -2    1    1    2    0  502 -0.97377545485E+01  0.18502089974E+02  0.47409833184E+02  0.51815475291E+02  0.00000000000E+00 0. -1.
</event>
<event>
 4    1  0.1780267E+004  0.2244097E+02  0.7546771E-02  0.1499640E+00
         21   -1    0    0  503  502  0.00000000000E+00  0.00000000000E+00  0.47019821887E+02  0.47019821887E+02  0.00000000000E+00 0. -1.
         21   -1    0    0  501  503 -0.00000000000E+00 -0.00000000000E+00 -0.15475281989E+02  0.15475281989E+02  0.00000000000E+00 0.  1.
          2    1    1    2  501    0  0.11683249105E+02 -0.19159822371E+02 -0.15668344572E+01  0.22495601196E+02  0.00000000000E+00 0.  1.
         -2    1    1    2    0  502 -0.11683249105E+02  0.19159822371E+02  0.33111374356E+02  0.39999502680E+02  0.00000000000E+00 0. -1.
</event>
<event>
 4    1  0.1780267E+004  0.2192674E+02  0.7546771E-02  0.1506434E+00
         21   -1    0    0  503  502  0.00000000000E+00  0.00000000000E+00  0.29248125408E+01  0.29248125408E+01  0.00000000000E+00 0.  1.
         21   -1    0    0  501  503 -0.00000000000E+00 -0.00000000000E+00 -0.21577136664E+03  0.21577136664E+03  0.00000000000E+00 0. -1.
          2    1    1    2  501    0  0.16150092677E+02  0.14830925127E+02 -0.15978842509E+03  0.16128584137E+03  0.00000000000E+00 0. -1.
         -2    1    1    2    0  502 -0.16150092677E+02 -0.14830925127E+02 -0.53058129007E+02  0.57410337809E+02  0.00000000000E+00 0.  1.
</event>
<event>
 4    1  0.1780267E+004  0.2731243E+02  0.7546771E-02  0.1444495E+00
         21   -1    0    0  503  502  0.00000000000E+00  0.00000000000E+00  0.11867039274E+02  0.11867039274E+02  0.00000000000E+00 0.  1.
         21   -1    0    0  501  503 -0.00000000000E+00 -0.00000000000E+00 -0.69982237732E+02  0.69982237732E+02  0.00000000000E+00 0. -1.
          2    1    1    2  501    0 -0.14398729446E+02 -0.23208730386E+02 -0.16002430018E+02  0.31655115578E+02  0.00000000000E+00 0. -1.
         -2    1    1    2    0  502  0.14398729446E+02  0.23208730386E+02 -0.42112768440E+02  0.50194161428E+02  0.00000000000E+00 0.  1.
</event>
<event>
 4    1  0.1780267E+004  0.2545211E+02  0.7546771E-02  0.1463809E+00
         21   -1    0    0  503  502  0.00000000000E+00  0.00000000000E+00  0.10508276208E+01  0.10508276208E+01  0.00000000000E+00 0. -1.
         21   -1    0    0  501  503 -0.00000000000E+00 -0.00000000000E+00 -0.10090961718E+04  0.10090961718E+04  0.00000000000E+00 0.  1.
          2    1    1    2  501    0 -0.70938556273E+01  0.24443549733E+02 -0.81906917175E+03  0.81946453128E+03  0.00000000000E+00 0.  1.
         -2    1    1    2    0  502  0.70938556273E+01 -0.24443549733E+02 -0.18897617246E+03  0.19068246817E+03  0.00000000000E+00 0. -1.
</event>
<event>
 4    1  0.1780267E+004  0.2090558E+02  0.7546771E-02  0.1520617E+00
         21   -1    0    0  503  502  0.00000000000E+00  0.00000000000E+00  0.19446158751E+03  0.19446158751E+03  0.00000000000E+00 0.  1.
         21   -1    0    0  501  503 -0.00000000000E+00 -0.00000000000E+00 -0.27166388287E+01  0.27166388287E+01  0.00000000000E+00 0. -1.
          2    1    1    2  501    0  0.13572073722E+02 -0.15901009324E+02  0.54900636915E+02  0.58746261297E+02  0.00000000000E+00 0. -1.
         -2    1    1    2    0  502 -0.13572073722E+02  0.15901009324E+02  0.13684431177E+03  0.13843196504E+03  0.00000000000E+00 0.  1.
</event>
<event>
 4    1  0.1780267E+004  0.2764732E+02  0.7546771E-02  0.1441212E+00
         21   -1    0    0  503  502  0.00000000000E+00  0.00000000000E+00  0.11641405650E+03  0.11641405650E+03  0.00000000000E+00 0. -1.
         21   -1    0    0  501  503 -0.00000000000E+00 -0.00000000000E+00 -0.14109558357E+02  0.14109558357E+02  0.00000000000E+00 0.  1.
          2    1    1    2  501    0 -0.26891411158E+02 -0.64207906321E+01  0.34333350749E+01  0.27859690166E+02  0.00000000000E+00 0.  1.
         -2    1    1    2    0  502  0.26891411158E+02  0.64207906321E+01  0.98871163071E+02  0.10266392469E+03  0.00000000000E+00 0. -1.
</event>
<event>
 4    1  0.1780267E+004  0.2964042E+02  0.7546771E-02  0.1422747E+00
         21   -1    0    0  503  502  0.00000000000E+00  0.00000000000E+00  0.12530862779E+03  0.12530862779E+03  0.00000000000E+00 0.  1.
         21   -1    0    0  501  503 -0.00000000000E+00 -0.00000000000E+00 -0.75311953017E+01  0.75311953017E+01  0.00000000000E+00 0. -1.
          2    1    1    2  501    0 -0.20220566060E+02 -0.21672176642E+02  0.76342801826E+02  0.81894920006E+02  0.00000000000E+00 0. -1.
         -2    1    1    2    0  502  0.20220566060E+02  0.21672176642E+02  0.41434630659E+02  0.50944903082E+02  0.00000000000E+00 0.  1.
</event>
<event>
 4    1  0.1780267E+004  0.5767559E+02  0.7546771E-02  0.1267941E+00
         21   -1    0    0  503  502  0.00000000000E+00  0.00000000000E+00  0.18848003245E+03  0.18848003245E+03  0.00000000000E+00 0. -1.
         21   -1    0    0  501  503 -0.00000000000E+00 -0.00000000000E+00 -0.25474595428E+02  0.25474595428E+02  0.00000000000E+00 0.  1.
          2    1    1    2  501    0 -0.56592644768E+02 -0.11124133425E+02  0.22210424350E+02  0.61804342373E+02  0.00000000000E+00 0.  1.
         -2    1    1    2    0  502  0.56592644768E+02  0.11124133425E+02  0.14079501267E+03  0.15215028551E+03  0.00000000000E+00 0. -1.
</event>
<event>
 4    1  0.1780267E+004  0.2418668E+02  0.7546771E-02  0.1478111E+00
         21   -1    0    0  503  502  0.00000000000E+00  0.00000000000E+00  0.50507270124E+02  0.50507270124E+02  0.00000000000E+00 0. -1.
         21   -1    0    0  501  503 -0.00000000000E+00 -0.00000000000E+00 -0.13400837743E+02  0.13400837743E+02  0.00000000000E+00 0.  1.
          2    1    1    2  501    0 -0.21871593678E+02 -0.10326121704E+02  0.67823283340E+01  0.25119621357E+02  0.00000000000E+00 0.  1.
         -2    1    1    2    0  502  0.21871593678E+02  0.10326121704E+02  0.30324104048E+02  0.38788486510E+02  0.00000000000E+00 0. -1.
</event>
<event>
 4    1  0.1780267E+004  0.2271382E+02  0.7546771E-02  0.1496123E+00
         21   -1    0    0  501  502  0.00000000000E+00  0.00000000000E+00  0.45469933550E+02  0.45469933550E+02  0.00000000000E+00 0.  1.
         21   -1    0    0  502  503 -0.00000000000E+00 -0.00000000000E+00 -0.13066402930E+02  0.13066402930E+02  0.00000000000E+00 0. -1.
          2    1    1    2  501    0  0.19876582416E+02 -0.10992692713E+02  0.26820879998E+02  0.35146513703E+02  0.00000000000E+00 0.  1.
         -2    1    1    2    0  503 -0.19876582416E+02  0.10992692713E+02  0.55826506221E+01  0.23389822778E+02  0.00000000000E+00 0. -1.
</event>
<event>
 4    1  0.1780267E+004  0.2651747E+02  0.7546771E-02  0.1452516E+00
         21   -1    0    0  501  502  0.00000000000E+00  0.00000000000E+00  0.48815139919E+02  0.48815139919E+02  0.00000000000E+00 0. -1.
         21   -1    0    0  502  503 -0.00000000000E+00 -0.00000000000E+00 -0.40789084728E+02  0.40789084728E+02  0.00000000000E+00 0.  1.
          2    1    1    2  501    0 -0.20369979870E+02  0.16977633976E+02  0.40045870723E+02  0.48029656435E+02  0.00000000000E+00 0. -1.
         -2    1    1    2    0  503  0.20369979870E+02 -0.16977633976E+02 -0.32019815532E+02  0.41574568212E+02  0.00000000000E+00 0.  1.
</event>
<event>
 4    1  0.1780267E+004  0.2287132E+02  0.7546771E-02  0.1494120E+00
         21   -1    0    0  501  502  0.00000000000E+00  0.00000000000E+00  0.22777906603E+02  0.22777906603E+02  0.00000000000E+00 0. -1.
         21   -1    0    0  502  503 -0.00000000000E+00 -0.00000000000E+00 -0.28585290659E+02  0.28585290659E+02  0.00000000000E+00 0.  1.
          2    1    1    2  501    0 -0.82943539175E+01  0.21314341436E+02  0.84837277710E+01  0.24394079090E+02  0.00000000000E+00 0. -1.
         -2    1    1    2    0  503  0.82943539175E+01 -0.21314341436E+02 -0.14291111827E+02  0.26969118173E+02  0.00000000000E+00 0.  1.
</event>
<event>
 4    1  0.1780267E+004  0.4101077E+02  0.7546771E-02  0.1342662E+00
         21   -1    0    0  501  502  0.00000000000E+00  0.00000000000E+00  0.16047022101E+03  0.16047022101E+03  0.00000000000E+00 0.  1.
         21   -1    0    0  502  503 -0.00000000000E+00 -0.00000000000E+00 -0.22218195702E+02  0.22218195702E+02  0.00000000000E+00 0. -1.
          2    1    1    2  501    0  0.37650696260E+02 -0.16257571678E+02  0.13551703420E+03  0.14158654641E+03  0.00000000000E+00 0.  1.
         -2    1    1    2    0  503 -0.37650696260E+02  0.16257571678E+02  0.27349911033E+01  0.41101870299E+02  0.00000000000E+00 0. -1.
</event>
<event>
 4    1  0.1780267E+004  0.2754681E+02  0.7546771E-02  0.1442191E+00
         21   -1    0    0  501  502  0.00000000000E+00  0.00000000000E+00  0.11933951486E+03  0.11933951486E+03  0.00000000000E+00 0.  1.
         21   -1    0    0  502  503 -0.00000000000E+00 -0.00000000000E+00 -0.88209639526E+01  0.88209639526E+01  0.00000000000E+00 0. -1.
          2    1    1    2  501    0 -0.24779913024E+02  0.12032569816E+02  0.89116100128E+02  0.93276503622E+02  0.00000000000E+00 0.  1.
         -2    1    1    2    0  503  0.24779913024E+02 -0.12032569816E+02  0.21402450783E+02  0.34883975194E+02  0.00000000000E+00 0. -1.
</event>
<event>
 4    1  0.1780267E+004  0.2236094E+02  0.7546771E-02  0.1500683E+00
         21   -1    0    0  501  502  0.00000000000E+00  0.00000000000E+00  0.22664371277E+03  0.22664371277E+03  0.00000000000E+00 0. -1.
         21   -1    0    0  502  503 -0.00000000000E+00 -0.00000000000E+00 -0.24465609647E+01  0.24465609647E+01  0.00000000000E+00 0.  1.
          2    1    1    2  501    0  0.16929448435E+02 -0.14608409469E+02  0.14800469759E+03  0.14968434240E+03  0.00000000000E+00 0. -1.
         -2    1    1    2    0  503 -0.16929448435E+02  0.14608409469E+02  0.76192454216E+02  0.79405931333E+02  0.00000000000E+00 0.  1.
</event>
<event>
 4    1  0.1780267E+004  0.2022864E+02  0.7546771E-02  0.1530569E+00
         21   -1    0    0  503  502  0.00000000000E+00  0.00000000000E+00  0.14117102303E+03  0.14117102303E+03  0.00000000000E+00 0.  1.
         21   -1    0    0  501  503 -0.00000000000E+00 -0.00000000000E+00 -0.69598487291E+01  0.69598487291E+01  0.00000000000E+00 0. -1.
          2    1    1    2  501    0  0.15696265340E+02 -0.12760293638E+02  0.10527838511E+02  0.22804236954E+02  0.00000000000E+00 0. -1.
         -2    1    1    2    0  502 -0.15696265340E+02  0.12760293638E+02  0.12368333579E+03  0.12532663481E+03  0.00000000000E+00 0.  1.
</event>
<event>
 4    1  0.1780267E+004  0.2328545E+02  0.7546771E-02  0.1488944E+00
         21   -1    0    0  503  502  0.00000000000E+00  0.00000000000E+00  0.18028310816E+02  0.18028310816E+02  0.00000000000E+00 0.  1.
         21   -1    0    0  501  503 -0.00000000000E+00 -0.00000000000E+00 -0.89697800356E+03  0.89697800356E+03  0.00000000000E+00 0. -1.
          2    1    1    2  501    0  0.22438964646E+02 -0.62213541479E+01 -0.88924258511E+03  0.88954740602E+03  0.00000000000E+00 0. -1.
         -2    1    1    2    0  502 -0.22438964646E+02  0.62213541479E+01  0.10292892362E+02  0.25458908362E+02  0.00000000000E+00 0.  1.
</event>
<event>
 4    1  0.1780267E+004  0.3416122E+02  0.7546771E-02  0.1386558E+00
         21   -1    0    0  503  502  0.00000000000E+00  0.00000000000E+00  0.31335172795E+02  0.31335172795E+02  0.00000000000E+00 0.  1.
         21   -1    0    0  501  503 -0.00000000000E+00 -0.00000000000E+00 -0.42583685909E+02  0.42583685909E+02  0.00000000000E+00 0. -1.
          2    1    1    2  501    0 -0.31476181629E+01  0.34015900455E+02 -0.18714176666E+02  0.38951372147E+02  0.00000000000E+00 0. -1.
         -2    1    1    2    0  502  0.31476181629E+01 -0.34015900455E+02  0.74656635522E+01  0.34967486557E+02  0.00000000000E+00 0.  1.
</event>
<event>
 4    1  0.1780267E+004  0.3568816E+02  0.7546771E-02  0.1375789E+00
         21   -1    0    0  503  502  0.00000000000E+00  0.00000000000E+00  0.75810846199E+02  0.75810846199E+02  0.00000000000E+00 0. -1.
         21   -1    0    0  501  503 -0.00000000000E+00 -0.00000000000E+00 -0.92983758122E+02  0.92983758122E+02  0.00000000000E+00 0.  1.
          2    1    1    2  501    0  0.26680225366E+02 -0.23702538335E+02 -0.84979772647E+02  0.92169444548E+02  0.00000000000E+00 0.  1.
         -2    1    1    2    0  502 -0.26680225366E+02  0.23702538335E+02  0.67806860724E+02  0.76625159774E+02  0.00000000000E+00 0. -1.
</event>
<event>
 4    1  0.1780267E+004  0.2069332E+02  0.7546771E-02  0.1523689E+00
         21   -1    0    0  501  502  0.00000000000E+00  0.00000000000E+00  0.14735687258E+03  0.14735687258E+03  0.00000000000E+00 0. -1.
         21   -1    0    0  502  503 -0.00000000000E+00 -0.00000000000E+00 -0.62031349832E+01  0.62031349832E+01  0.00000000000E+00 0.  1.
          2    1    1    2  501    0  0.48201169116E+01 -0.20124114101E+02  0.12655435212E+03  0.12823500901E+03  0.00000000000E+00 0. -1.
         -2    1    1    2    0  503 -0.48201169116E+01  0.20124114101E+02  0.14599385477E+02  0.25324998553E+02  0.00000000000E+00 0.  1.
</event>
<event>
 4    1  0.1780267E+004  0.2604087E+02  0.7546771E-02  0.1457488E+00
         21   -1    0    0  501  502  0.00000000000E+00  0.00000000000E+00  0.52383074797E+02  0.52383074797E+02  0.00000000000E+00 0. -1.
         21   -1    0    0  502  503 -0.00000000000E+00 -0.00000000000E+00 -0.17975307211E+02  0.17975307211E+02  0.00000000000E+00 0.  1.
          2    1    1    2  501    0 -0.19663783072E+02  0.17072273591E+02  0.35812834139E+02  0.44279633911E+02  0.00000000000E+00 0. -1.
         -2    1    1    2    0  503  0.19663783072E+02 -0.17072273591E+02 -0.14050665526E+01  0.26078748097E+02  0.00000000000E+00 0.  1.
</event>
<event>
 4    1  0.1780267E+004  0.2218559E+02  0.7546771E-02  0.1502986E+00
         21   -1    0    0  501  502  0.00000000000E+00  0.00000000000E+00  0.78992281177E+02  0.78992281177E+02  0.00000000000E+00 0.  1.
         21   -1    0    0  502  503 -0.00000000000E+00 -0.00000000000E+00 -0.19065585733E+02  0.19065585733E+02  0.00000000000E+00 0. -1.
          2    1    1    2  501    0  0.21570791757E+02  0.51866705286E+01  0.70190413987E+02  0.73613143010E+02  0.00000000000E+00 0.  1.
         -2    1    1    2    0  503 -0.21570791757E+02 -0.51866705286E+01 -0.10263718543E+02  0.24444723900E+02  0.00000000000E+00 0. -1.
</event>
<event>
 4    1  0.1780267E+004  0.4339187E+02  0.7546771E-02  0.1329679E+00
         21   -1    0    0  503  502  0.00000000000E+00  0.00000000000E+00  0.95067638385E+03  0.95067638385E+03  0.00000000000E+00 0. -1.
         21   -1    0    0  501  503 -0.00000000000E+00 -0.00000000000E+00 -0.24378222847E+01  0.24378222847E+01  0.00000000000E+00 0.  1.
          2    1    1    2  501    0  0.15279211672E+02 -0.40612804135E+02  0.26772135282E+03  0.27121500129E+03  0.00000000000E+00 0.  1.
         -2    1    1    2    0  502 -0.15279211672E+02  0.40612804135E+02  0.68051720874E+03  0.68189920484E+03  0.00000000000E+00 0. -1.
</event>
<event>
 4    1  0.1780267E+004  0.2099770E+02  0.7546771E-02  0.1519298E+00
         21   -1    0    0  503  502  0.00000000000E+00  0.00000000000E+00  0.50588047398E+02  0.50588047398E+02  0.00000000000E+00 0.  1.
         21   -1    0    0  501  503 -0.00000000000E+00 -0.00000000000E+00 -0.95036936621E+01  0.95036936621E+01  0.00000000000E+00 0. -1.
          2    1    1    2  501    0 -0.65272312062E+01 -0.19957425457E+02  0.29194570150E+02  0.35961458595E+02  0.00000000000E+00 0.  1.
         -2    1    1    2    0  502  0.65272312062E+01  0.19957425457E+02  0.11889783586E+02  0.24130282464E+02  0.00000000000E+00 0. -1.
</event>
<event>
 4    1  0.1780267E+004  0.3034389E+02  0.7546771E-02  0.1416631E+00
         21   -1    0    0  503  502  0.00000000000E+00  0.00000000000E+00  0.60087573829E+03  0.60087573829E+03  0.00000000000E+00 0. -1.
         21   -1    0    0  501  503 -0.00000000000E+00 -0.00000000000E+00 -0.30839729894E+01  0.30839729894E+01  0.00000000000E+00 0.  1.
          2    1    1    2  501    0  0.29947393630E+02 -0.48893318147E+01  0.84697695910E+02  0.89969170516E+02  0.00000000000E+00 0.  1.
         -2    1    1    2    0  502 -0.29947393630E+02  0.48893318147E+01  0.51309406939E+03  0.51399054076E+03  0.00000000000E+00 0. -1.
</event>
<event>
 4    1  0.1780267E+004  0.2326363E+02  0.7546771E-02  0.1489214E+00
         21   -1    0    0  503  502  0.00000000000E+00  0.00000000000E+00  0.81982671151E+01  0.81982671151E+01  0.00000000000E+00 0.  1.
         21   -1    0    0  501  503 -0.00000000000E+00 -0.00000000000E+00 -0.14450704551E+03  0.14450704551E+03  0.00000000000E+00 0. -1.
          2    1    1    2  501    0 -0.21100835254E+02 -0.97954592051E+01 -0.12442694304E+03  0.12658301792E+03  0.00000000000E+00 0. -1.
         -2    1    1    2    0  502  0.21100835254E+02  0.97954592051E+01 -0.11881835348E+02  0.26122294706E+02  0.00000000000E+00 0.  1.
</event>
<event>
 4    1  0.1780267E+004  0.2080236E+02  0.7546771E-02  0.1522105E+00
         21   -1    0    0  503  502  0.00000000000E+00  0.00000000000E+00  0.33196509000E+01  0.33196509000E+01  0.00000000000E+00 0.  1.
         21   -1    0    0  501  503 -0.00000000000E+00 -0.00000000000E+00 -0.18538499967E+03  0.18538499967E+03  0.00000000000E+00 0. -1.
          2    1    1    2  501    0  0.20669259221E+02  0.23494390768E+01 -0.14243811280E+03  0.14394913726E+03  0.00000000000E+00 0. -1.
         -2    1    1    2    0  502 -0.20669259221E+02 -0.23494390768E+01 -0.39627235966E+02  0.44755513303E+02  0.00000000000E+00 0.  1.
</event>
<event>
 4    1  0.1780267E+004  0.3173366E+02  0.7546771E-02  0.1405106E+00
         21   -1    0    0  501  502  0.00000000000E+00  0.00000000000E+00  0.21783867569E+02  0.21783867569E+02  0.00000000000E+00 0. -1.
         21   -1    0    0  502  503 -0.00000000000E+00 -0.00000000000E+00 -0.11764568820E+03  0.11764568820E+03  0.00000000000E+00 0.  1.
          2    1    1    2  501    0  0.30366846833E+02  0.92130275748E+01  0.63865738257E+01  0.32369948855E+02  0.00000000000E+00 0. -1.
         -2    1    1    2    0  503 -0.30366846833E+02 -0.92130275748E+01 -0.10224839446E+03  0.10705960691E+03  0.00000000000E+00 0.  1.
</event>
<event>
 4    1  0.1780267E+004  0.2243489E+02  0.7546771E-02  0.1499719E+00
         21   -1    0    0  503  502  0.00000000000E+00  0.00000000000E+00  0.30782137993E+01  0.30782137993E+01  0.00000000000E+00 0. -1.
         21   -1    0    0  501  503 -0.00000000000E+00 -0.00000000000E+00 -0.17568433491E+03  0.17568433491E+03  0.00000000000E+00 0.  1.
          2    1    1    2  501    0  0.11303617239E+02  0.19379179332E+02 -0.10983025282E+03  0.11209821046E+03  0.00000000000E+00 0.  1.
         -2    1    1    2    0  502 -0.11303617239E+02 -0.19379179332E+02 -0.62775868292E+02  0.66664338249E+02  0.00000000000E+00 0. -1.
</event>
<event>
 4    1  0.1780267E+004  0.2567752E+02  0.7546771E-02  0.1461365E+00
         21   -1    0    0  501  502  0.00000000000E+00  0.00000000000E+00  0.25952850741E+02  0.25952850741E+02  0.00000000000E+00 0. -1.
         21   -1    0    0  502  503 -0.00000000000E+00 -0.00000000000E+00 -0.40526396650E+02  0.40526396650E+02  0.00000000000E+00 0.  1.
          2    1    1    2  501    0  0.16421394312E+02  0.19740131202E+02  0.13017222509E+02  0.28788592409E+02  0.00000000000E+00 0. -1.
         -2    1    1    2    0  503 -0.16421394312E+02 -0.19740131202E+02 -0.27590768418E+02  0.37690654981E+02  0.00000000000E+00 0.  1.
</event>
<event>
 4    1  0.1780267E+004  0.3226822E+02  0.7546771E-02  0.1400858E+00
         21   -1    0    0  503  502  0.00000000000E+00  0.00000000000E+00  0.30791922518E+01  0.30791922518E+01  0.00000000000E+00 0. -1.
         21   -1    0    0  501  503 -0.00000000000E+00 -0.00000000000E+00 -0.43617507449E+03  0.43617507449E+03  0.00000000000E+00 0.  1.
          2    1    1    2  501    0 -0.30983608258E+02 -0.90140893947E+01 -0.32066400432E+03  0.32228347996E+03  0.00000000000E+00 0.  1.
         -2    1    1    2    0  502  0.30983608258E+02  0.90140893947E+01 -0.11243187792E+03  0.11697078679E+03  0.00000000000E+00 0. -1.
</event>
<event>
 4    1  0.1780267E+004  0.2022126E+02  0.7546771E-02  0.1530680E+00
         21   -1    0    0  501  502  0.00000000000E+00  0.00000000000E+00  0.11908574898E+02  0.11908574898E+02  0.00000000000E+00 0.  1.
         21   -1    0    0  502  503 -0.00000000000E+00 -0.00000000000E+00 -0.81713119329E+02  0.81713119329E+02  0.00000000000E+00 0. -1.
          2    1    1    2  501    0 -0.19351370796E+02 -0.58671876159E+01  0.74139540484E+00  0.20234848884E+02  0.00000000000E+00 0.  1.
         -2    1    1    2    0  503  0.19351370796E+02  0.58671876159E+01 -0.70545939835E+02  0.73386845343E+02  0.00000000000E+00 0. -1.
</event>
<event>
 4    1  0.1780267E+004  0.2183172E+02  0.7546771E-02  0.1507713E+00
         21   -1    0    0  503  502  0.00000000000E+00  0.00000000000E+00  0.15814042261E+02  0.15814042261E+02  0.00000000000E+00 0.  1.
         21   -1    0    0  501  503 -0.00000000000E+00 -0.00000000000E+00 -0.34879005319E+02  0.34879005319E+02  0.00000000000E+00 0. -1.
          2    1    1    2  501    0 -0.21054959615E+02  0.57717304903E+01 -0.18893110053E+00  0.21832542046E+02  0.00000000000E+00 0.  1.
         -2    1    1    2    0  502  0.21054959615E+02 -0.57717304903E+01 -0.18876031957E+02  0.28860505534E+02  0.00000000000E+00 0. -1.
</event>
<event>
 4    1  0.1780267E+004  0.2554999E+02  0.7546771E-02  0.1462744E+00
         21   -1    0    0  501  502  0.00000000000E+00  0.00000000000E+00  0.13279051672E+02  0.13279051672E+02  0.00000000000E+00 0. -1.
         21   -1    0    0  502  503 -0.00000000000E+00 -0.00000000000E+00 -0.12255109651E+03  0.12255109651E+03  0.00000000000E+00 0.  1.
          2    1    1    2  501    0  0.19644600721E+02 -0.16336815327E+02 -0.20792794282E+01  0.25634454850E+02  0.00000000000E+00 0. -1.
         -2    1    1    2    0  503 -0.19644600721E+02  0.16336815327E+02 -0.10719276541E+03  0.11019569333E+03  0.00000000000E+00 0.  1.
</event>
<event>
 4    1  0.1780267E+004  0.2576895E+02  0.7546771E-02  0.1460382E+00
         21   -1    0    0  503  502  0.00000000000E+00  0.00000000000E+00  0.35115651609E+01  0.35115651609E+01  0.00000000000E+00 0. -1.
         21   -1    0    0  501  503 -0.00000000000E+00 -0.00000000000E+00 -0.18960976336E+03  0.18960976336E+03  0.00000000000E+00 0.  1.
          2    1    1    2  501    0  0.25676563075E+02  0.21800778452E+01 -0.98053509104E+02  0.10138308182E+03  0.00000000000E+00 0. -1.
         -2    1    1    2    0  502 -0.25676563075E+02 -0.21800778452E+01 -0.88044689091E+02  0.91738246701E+02  0.00000000000E+00 0.  1.
</event>
<event>
 4    1  0.1780267E+004  0.2066725E+02  0.7546771E-02  0.1524069E+00
         21   -1    0    0  501  502  0.00000000000E+00  0.00000000000E+00  0.49245592517E+02  0.49245592517E+02  0.00000000000E+00 0.  1.
         21   -1    0    0  502  503 -0.00000000000E+00 -0.00000000000E+00 -0.10505733320E+02  0.10505733320E+02  0.00000000000E+00 0. -1.
          2    1    1    2  501    0  0.15562970180E+02  0.13598864937E+02  0.31846243051E+02  0.37964698930E+02  0.00000000000E+00 0.  1.
         -2    1    1    2    0  503 -0.15562970180E+02 -0.13598864937E+02  0.68936161465E+01  0.21786626907E+02  0.00000000000E+00 0. -1.
</event>
<event>
 4    1  0.1780267E+004  0.2269610E+02  0.7546771E-02  0.1496350E+00
         21   -1    0    0  501  502  0.00000000000E+00  0.00000000000E+00  0.70985346360E+02  0.70985346360E+02  0.00000000000E+00 0.  1.
         21   -1    0    0  502  503 -0.00000000000E+00 -0.00000000000E+00 -0.19362067032E+02  0.19362067032E+02  0.00000000000E+00 0. -1.
          2    1    1    2  501    0 -0.15384021985E+02  0.16686668196E+02  0.61530734909E+02  0.65583110374E+02  0.00000000000E+00 0.  1.
         -2    1    1    2    0  503  0.15384021985E+02 -0.16686668196E+02 -0.99074555811E+01  0.24764303019E+02  0.00000000000E+00 0. -1.
</event>
<event>
 4    1  0.1780267E+004  0.3818641E+02  0.7546771E-02  0.1359454E+00
         21   -1    0    0  503  502  0.00000000000E+00  0.00000000000E+00  0.52518856674E+03  0.52518856674E+03  0.00000000000E+00 0.  1.
         21   -1    0    0  501  503 -0.00000000000E+00 -0.00000000000E+00 -0.14334455278E+02  0.14334455278E+02  0.00000000000E+00 0. -1.
          2    1    1    2  501    0  0.15803981570E+01 -0.38153694648E+02  0.13196279785E+02  0.40402275601E+02  0.00000000000E+00 0. -1.
         -2    1    1    2    0  502 -0.15803981570E+01  0.38153694648E+02  0.49765783167E+03  0.49912074641E+03  0.00000000000E+00 0.  1.
</event>
<event>
 4    1  0.1780267E+004  0.2110373E+02  0.7546771E-02  0.1517789E+00
         21   -1    0    0  501  502  0.00000000000E+00  0.00000000000E+00  0.44507898207E+03  0.44507898207E+03  0.00000000000E+00 0.  1.
         21   -1    0    0  502  503 -0.00000000000E+00 -0.00000000000E+00 -0.10617410463E+01  0.10617410463E+01  0.00000000000E+00 0. -1.
          2    1    1    2  501    0 -0.18623867875E+02  0.99256772153E+01  0.16849954800E+03  0.16981597451E+03  0.00000000000E+00 0. -1.
         -2    1    1    2    0  503  0.18623867875E+02 -0.99256772153E+01  0.27551769302E+03  0.27632474861E+03  0.00000000000E+00 0.  1.
</event>
<event>
 4    1  0.1780267E+004  0.2460238E+02  0.7546771E-02  0.1473301E+00
         21   -1    0    0  503  502  0.00000000000E+00  0.00000000000E+00  0.14380452080E+03  0.14380452080E+03  0.00000000000E+00 0. -1.
         21   -1    0    0  501  503 -0.00000000000E+00 -0.00000000000E+00 -0.41392289145E+02  0.41392289145E+02  0.00000000000E+00 0.  1.
          2    1    1    2  501    0 -0.23101893979E+02 -0.84604845009E+01 -0.36558108687E+02  0.44065549062E+02  0.00000000000E+00 0.  1.
         -2    1    1    2    0  502  0.23101893979E+02  0.84604845009E+01  0.13897034034E+03  0.14113126088E+03  0.00000000000E+00 0. -1.
</event>
<event>
 4    1  0.1780267E+004  0.2522960E+02  0.7546771E-02  0.1466251E+00
         21   -1    0    0  503  502  0.00000000000E+00  0.00000000000E+00  0.30350126447E+01  0.30350126447E+01  0.00000000000E+00 0. -1.
         21   -1    0    0  501  503 -0.00000000000E+00 -0.00000000000E+00 -0.25240077811E+03  0.25240077811E+03  0.00000000000E+00 0.  1.
          2    1    1    2  501    0 -0.22475247812E+02 -0.11462801466E+02 -0.17719659617E+03  0.17898370394E+03  0.00000000000E+00 0.  1.
         -2    1    1    2    0  502  0.22475247812E+02  0.11462801466E+02 -0.72169169297E+02  0.76452086817E+02  0.00000000000E+00 0. -1.
</event>
<event>
 4    1  0.1780267E+004  0.2655660E+02  0.7546771E-02  0.1452114E+00
         21   -1    0    0  503  502  0.00000000000E+00  0.00000000000E+00  0.18720803295E+02  0.18720803295E+02  0.00000000000E+00 0.  1.
         21   -1    0    0  501  503 -0.00000000000E+00 -0.00000000000E+00 -0.46431447116E+02  0.46431447116E+02  0.00000000000E+00 0. -1.
          2    1    1    2  501    0 -0.24615100283E+02 -0.99674519495E+01 -0.28004378407E+02  0.38594021172E+02  0.00000000000E+00 0.  1.
         -2    1    1    2    0  502  0.24615100283E+02  0.99674519495E+01  0.29373458586E+00  0.26558229239E+02  0.00000000000E+00 0. -1.
</event>
<event>
 4    1  0.1780267E+004  0.2111246E+02  0.7546771E-02  0.1517665E+00
         21   -1    0    0  503  502  0.00000000000E+00  0.00000000000E+00  0.11445553961E+03  0.11445553961E+03  0.00000000000E+00 0. -1.
         21   -1    0    0  501  503 -0.00000000000E+00 -0.00000000000E+00 -0.11769105250E+02  0.11769105250E+02  0.00000000000E+00 0.  1.
          2    1    1    2  501    0  0.20967997770E+02 -0.24655629164E+01 -0.28171868539E+00  0.21114338645E+02  0.00000000000E+00 0.  1.
         -2    1    1    2    0  502 -0.20967997770E+02  0.24655629164E+01  0.10296815304E+03  0.10511030621E+03  0.00000000000E+00 0. -1.
</event>
<event>
 4    1  0.1780267E+004  0.3326979E+02  0.7546771E-02  0.1393153E+00
         21   -1    0    0  503  502  0.00000000000E+00  0.00000000000E+00  0.19844579225E+03  0.19844579225E+03  0.00000000000E+00 0.  1.
         21   -1    0    0  501  503 -0.00000000000E+00 -0.00000000000E+00 -0.27836443216E+02  0.27836443216E+02  0.00000000000E+00 0. -1.
          2    1    1    2  501    0 -0.31296416184E+02 -0.11287762625E+02 -0.15868065561E+02  0.36860205583E+02  0.00000000000E+00 0. -1.
         -2    1    1    2    0  502  0.31296416184E+02  0.11287762625E+02  0.18647741459E+03  0.18942202988E+03  0.00000000000E+00 0.  1.
</event>
<event>
 4    1  0.1780267E+004  0.2277577E+02  0.7546771E-02  0.1495333E+00
         21   -1    0    0  503  502  0.00000000000E+00  0.00000000000E+00  0.62926162209E+02  0.62926162209E+02  0.00000000000E+00 0.  1.
         21   -1    0    0  501  503 -0.00000000000E+00 -0.00000000000E+00 -0.12491659358E+02  0.12491659358E+02  0.00000000000E+00 0. -1.
          2    1    1    2  501    0 -0.12191112932E+02  0.19238307621E+02  0.32269513153E+01  0.23003237369E+02  0.00000000000E+00 0. -1.
         -2    1    1    2    0  502  0.12191112932E+02 -0.19238307621E+02  0.47207551536E+02  0.52414584199E+02  0.00000000000E+00 0.  1.
</event>
<event>
 4    1  0.1780267E+004  0.2434300E+02  0.7546771E-02  0.1476289E+00
         21   -1    0    0  503  502  0.00000000000E+00  0.00000000000E+00  0.28352688349E+01  0.28352688349E+01  0.00000000000E+00 0.  1.
         21   -1    0    0  501  503 -0.00000000000E+00 -0.00000000000E+00 -0.21057145272E+03  0.21057145272E+03  0.00000000000E+00 0. -1.
          2    1    1    2  501    0 -0.23106629371E+02  0.76593441953E+01 -0.11307486610E+03  0.11566549709E+03  0.00000000000E+00 0. -1.
         -2    1    1    2    0  502  0.23106629371E+02 -0.76593441953E+01 -0.94661317788E+02  0.97741224464E+02  0.00000000000E+00 0.  1.
</event>
<event>
 4    1  0.1780267E+004  0.2159662E+02  0.7546771E-02  0.1510915E+00
         21   -1    0    0  501  502  0.00000000000E+00  0.00000000000E+00  0.31591093636E+02  0.31591093636E+02  0.00000000000E+00 0. -1.
         21   -1    0    0  502  503 -0.00000000000E+00 -0.00000000000E+00 -0.23571705159E+02  0.23571705159E+02  0.00000000000E+00 0.  1.
          2    1    1    2  501    0 -0.15370997179E+02 -0.15170571900E+02  0.20869397175E+02  0.30032408237E+02  0.00000000000E+00 0. -1.
         -2    1    1    2    0  503  0.15370997179E+02  0.15170571900E+02 -0.12850008698E+02  0.25130390558E+02  0.00000000000E+00 0.  1.
</event>
<event>
 4    1  0.1780267E+004  0.2531777E+02  0.7546771E-02  0.1465280E+00
         21   -1    0    0  501  502  0.00000000000E+00  0.00000000000E+00  0.11505900653E+02  0.11505900653E+02  0.00000000000E+00 0. -1.
         21   -1    0    0  502  503 -0.00000000000E+00 -0.00000000000E+00 -0.81049570977E+02  0.81049570977E+02  0.00000000000E+00 0.  1.
          2    1    1    2  501    0  0.19519919620E+01  0.25242407180E+02 -0.88956888605E+01  0.26835101512E+02  0.00000000000E+00 0.  1.
         -2    1    1    2    0  503 -0.19519919620E+01 -0.25242407180E+02 -0.60647981463E+02  0.65720370118E+02  0.00000000000E+00 0. -1.
</event>
<event>
 4    1  0.1780267E+004  0.2278853E+02  0.7546771E-02  0.1495171E+00
         21   -1    0    0  501  502  0.00000000000E+00  0.00000000000E+00  0.14640804095E+02  0.14640804095E+02  0.00000000000E+00 0. -1.
         21   -1    0    0  502  503 -0.00000000000E+00 -0.00000000000E+00 -0.36578486922E+02  0.36578486922E+02  0.00000000000E+00 0.  1.
          2    1    1    2  501    0  0.71324956451E+01 -0.21643585351E+02 -0.65117713858E+01  0.23700642344E+02  0.00000000000E+00 0. -1.
         -2    1    1    2    0  503 -0.71324956451E+01  0.21643585351E+02 -0.15425911441E+02  0.27518648672E+02  0.00000000000E+00 0.  1.
</event>
<event>
 4    1  0.1780267E+004  0.2823441E+02  0.7546771E-02  0.1435587E+00
         21   -1    0    0  503  502  0.00000000000E+00  0.00000000000E+00  0.92021377277E+02  0.92021377277E+02  0.00000000000E+00 0. -1.
         21   -1    0    0  501  503 -0.00000000000E+00 -0.00000000000E+00 -0.87908710808E+01  0.87908710808E+01  0.00000000000E+00 0.  1.
          2    1    1    2  501    0  0.17232362202E+02 -0.22365766396E+02  0.47694391565E+02  0.55425055708E+02  0.00000000000E+00 0. -1.
         -2    1    1    2    0  502 -0.17232362202E+02  0.22365766396E+02  0.35536114632E+02  0.45387192650E+02  0.00000000000E+00 0.  1.
</event>
<event>
 4    1  0.1780267E+004  0.2334897E+02  0.7546771E-02  0.1488162E+00
         21   -1    0    0  503  502  0.00000000000E+00  0.00000000000E+00  0.42437071864E+02  0.42437071864E+02  0.00000000000E+00 0.  1.
         21   -1    0    0  501  503 -0.00000000000E+00 -0.00000000000E+00 -0.33539038293E+02  0.33539038293E+02  0.00000000000E+00 0. -1.
          2    1    1    2  501    0  0.22207327917E+02  0.72117223171E+01 -0.25389486211E+02  0.34493482893E+02  0.00000000000E+00 0. -1.
         -2    1    1    2    0  502 -0.22207327917E+02 -0.72117223171E+01  0.34287519782E+02  0.41482627265E+02  0.00000000000E+00 0.  1.
</event>
<event>
 4    1  0.1780267E+004  0.2890442E+02  0.7546771E-02  0.1429362E+00
         21   -1    0    0  501  502  0.00000000000E+00  0.00000000000E+00  0.27619769580E+02  0.27619769580E+02  0.00000000000E+00 0. -1.
         21   -1    0    0  502  503 -0.00000000000E+00 -0.00000000000E+00 -0.30639052226E+02  0.30639052226E+02  0.00000000000E+00 0.  1.
          2    1    1    2  501    0 -0.27296135440E+02 -0.95071732311E+01  0.17777948528E+01  0.28959038440E+02  0.00000000000E+00 0. -1.
         -2    1    1    2    0  503  0.27296135440E+02  0.95071732311E+01 -0.47970774989E+01  0.29299783367E+02  0.00000000000E+00 0.  1.
</event>
<event>
 4    1  0.1780267E+004  0.2145245E+02  0.7546771E-02  0.1512902E+00
         21   -1    0    0  503  502  0.00000000000E+00  0.00000000000E+00  0.85649357944E+00  0.85649357944E+00  0.00000000000E+00 0. -1.
         21   -1    0    0  501  503 -0.00000000000E+00 -0.00000000000E+00 -0.53731862562E+03  0.53731862562E+03  0.00000000000E+00 0.  1.
          2    1    1    2  501    0  0.92214069658E+00  0.21432625674E+02 -0.26764726319E+03  0.26850561499E+03  0.00000000000E+00 0.  1.
         -2    1    1    2    0  502 -0.92214069658E+00 -0.21432625674E+02 -0.26881486885E+03  0.26966950421E+03  0.00000000000E+00 0. -1.
</event>
<event>
 4    1  0.1780267E+004  0.2163049E+02  0.7546771E-02  0.1510450E+00
         21   -1    0    0  501  502  0.00000000000E+00  0.00000000000E+00  0.85486592762E+02  0.85486592762E+02  0.00000000000E+00 0. -1.
         21   -1    0    0  502  503 -0.00000000000E+00 -0.00000000000E+00 -0.55580883065E+01  0.55580883065E+01  0.00000000000E+00 0.  1.
          2    1    1    2  501    0  0.97164371750E+01  0.19325349609E+02  0.34335746859E+02  0.40581052244E+02  0.00000000000E+00 0. -1.
         -2    1    1    2    0  503 -0.97164371750E+01 -0.19325349609E+02  0.45592757596E+02  0.50463628824E+02  0.00000000000E+00 0.  1.
</event>
<event>
 4    1  0.1780267E+004  0.3252351E+02  0.7546771E-02  0.1398863E+00
         21   -1    0    0  501  502  0.00000000000E+00  0.00000000000E+00  0.25723326039E+02  0.25723326039E+02  0.00000000000E+00 0. -1.
         21   -1    0    0  502  503 -0.00000000000E+00 -0.00000000000E+00 -0.95309489762E+02  0.95309489762E+02  0.00000000000E+00 0.  1.
          2    1    1    2  501    0 -0.30797909047E+02  0.10453124518E+02  0.10837606017E+02  0.34281667375E+02  0.00000000000E+00 0. -1.
         -2    1    1    2    0  503  0.30797909047E+02 -0.10453124518E+02 -0.80423769741E+02  0.86751148425E+02  0.00000000000E+00 0.  1.
</event>
<event>
 4    1  0.1780267E+004  0.2512211E+02  0.7546771E-02  0.1467442E+00
         21   -1    0    0  501  502  0.00000000000E+00  0.00000000000E+00  0.16393176746E+03  0.16393176746E+03  0.00000000000E+00 0.  1.
         21   -1    0    0  502  503 -0.00000000000E+00 -0.00000000000E+00 -0.77468791396E+01  0.77468791396E+01  0.00000000000E+00 0. -1.
          2    1    1    2  501    0 -0.65564031342E+00  0.25113556029E+02  0.13897418399E+03  0.14122657107E+03  0.00000000000E+00 0.  1.
         -2    1    1    2    0  503  0.65564031342E+00 -0.25113556029E+02  0.17210704337E+02  0.30452075536E+02  0.00000000000E+00 0. -1.
</event>
<event>
 4    1  0.1780267E+004  0.3088634E+02  0.7546771E-02  0.1412047E+00
         21   -1    0    0  503  502  0.00000000000E+00  0.00000000000E+00  0.45916490175E+02  0.45916490175E+02  0.00000000000E+00 0. -1.
         21   -1    0    0  501  503 -0.00000000000E+00 -0.00000000000E+00 -0.45256083305E+02  0.45256083305E+02  0.00000000000E+00 0.  1.
          2    1    1    2  501    0 -0.18557363740E+02  0.24689886576E+02 -0.33197296252E+02  0.45343430909E+02  0.00000000000E+00 0.  1.
         -2    1    1    2    0  502  0.18557363740E+02 -0.24689886576E+02  0.33857703122E+02  0.45829142571E+02  0.00000000000E+00 0. -1.
</event>
<event>
 4    1  0.1780267E+004  0.2341552E+02  0.7546771E-02  0.1487345E+00
         21   -1    0    0  501  502  0.00000000000E+00  0.00000000000E+00  0.36919816874E+02  0.36919816874E+02  0.00000000000E+00 0.  1.
         21   -1    0    0  502  503 -0.00000000000E+00 -0.00000000000E+00 -0.14867633948E+02  0.14867633948E+02  0.00000000000E+00 0. -1.
          2    1    1    2  501    0  0.23402258877E+02  0.78788749661E+00  0.11899020354E+02  0.26265436845E+02  0.00000000000E+00 0.  1.
         -2    1    1    2    0  503 -0.23402258877E+02 -0.78788749661E+00  0.10153162573E+02  0.25522013978E+02  0.00000000000E+00 0. -1.
</event>
<event>
 4    1  0.1780267E+004  0.2164461E+02  0.7546771E-02  0.1510257E+00
         21   -1    0    0  503  502  0.00000000000E+00  0.00000000000E+00  0.27270991155E+01  0.27270991155E+01  0.00000000000E+00 0. -1.
         21   -1    0    0  501  503 -0.00000000000E+00 -0.00000000000E+00 -0.17198350514E+03  0.17198350514E+03  0.00000000000E+00 0.  1.
          2    1    1    2  501    0  0.19970834271E+02 -0.83459437716E+01 -0.81699820266E+02  0.84518339019E+02  0.00000000000E+00 0. -1.
         -2    1    1    2    0  502 -0.19970834271E+02  0.83459437716E+01 -0.87556585754E+02  0.90192265233E+02  0.00000000000E+00 0.  1.
</event>
<event>
 4    1  0.1780267E+004  0.2056435E+02  0.7546771E-02  0.1525577E+00
         21   -1    0    0  503  502  0.00000000000E+00  0.00000000000E+00  0.21610372721E+03  0.21610372721E+03  0.00000000000E+00 0. -1.
         21   -1    0    0  501  503 -0.00000000000E+00 -0.00000000000E+00 -0.44397433545E+01  0.44397433545E+01  0.00000000000E+00 0.  1.
          2    1    1    2  501    0 -0.20563669495E+02  0.16781221226E+00  0.23368783633E+02  0.31128647779E+02  0.00000000000E+00 0.  1.
         -2    1    1    2    0  502  0.20563669495E+02 -0.16781221226E+00  0.18829520022E+03  0.18941482279E+03  0.00000000000E+00 0. -1.
</event>
<event>
 4    1  0.1780267E+004  0.2810603E+02  0.7546771E-02  0.1436803E+00
         21   -1    0    0  503  502  0.00000000000E+00  0.00000000000E+00  0.30070993569E+03  0.30070993569E+03  0.00000000000E+00 0. -1.
         21   -1    0    0  501  503 -0.00000000000E+00 -0.00000000000E+00 -0.30086341797E+02  0.30086341797E+02  0.00000000000E+00 0.  1.
          2    1    1    2  501    0  0.12058692005E+02  0.25387733706E+02 -0.22700689038E+02  0.36128525549E+02  0.00000000000E+00 0.  1.
         -2    1    1    2    0  502 -0.12058692005E+02 -0.25387733706E+02  0.29332428293E+03  0.29466775194E+03  0.00000000000E+00 0. -1.
</event>
<event>
 4    1  0.1780267E+004  0.2678559E+02  0.7546771E-02  0.1449774E+00
         21   -1    0    0  503  502  0.00000000000E+00  0.00000000000E+00  0.30942189514E+02  0.30942189514E+02  0.00000000000E+00 0.  1.
         21   -1    0    0  501  503 -0.00000000000E+00 -0.00000000000E+00 -0.84753090252E+02  0.84753090252E+02  0.00000000000E+00 0. -1.
          2    1    1    2  501    0 -0.26434909172E+02  0.43201164404E+01 -0.76208907770E+02  0.80779115200E+02  0.00000000000E+00 0. -1.
         -2    1    1    2    0  502  0.26434909172E+02 -0.43201164404E+01  0.22398007032E+02  0.34916164566E+02  0.00000000000E+00 0.  1.
</event>
<event>
 4    1  0.1780267E+004  0.4856536E+02  0.7546771E-02  0.1304515E+00
         21   -1    0    0  501  502  0.00000000000E+00  0.00000000000E+00  0.47212588430E+03  0.47212588430E+03  0.00000000000E+00 0.  1.
         21   -1    0    0  502  503 -0.00000000000E+00 -0.00000000000E+00 -0.22659249066E+02  0.22659249066E+02  0.00000000000E+00 0. -1.
          2    1    1    2  501    0  0.36513021085E+02  0.32021773309E+02  0.44315864448E+03  0.44581182000E+03  0.00000000000E+00 0.  1.
         -2    1    1    2    0  503 -0.36513021085E+02 -0.32021773309E+02  0.63079907543E+01  0.48973313365E+02  0.00000000000E+00 0. -1.
</event>
<event>
 4    1  0.1780267E+004  0.4486005E+02  0.7546771E-02  0.1322141E+00
         21   -1    0    0  501  502  0.00000000000E+00  0.00000000000E+00  0.13697175135E+02  0.13697175135E+02  0.00000000000E+00 0.  1.
         21   -1    0    0  502  503 -0.00000000000E+00 -0.00000000000E+00 -0.44572555599E+03  0.44572555599E+03  0.00000000000E+00 0. -1.
          2    1    1    2  501    0 -0.30234377178E+02 -0.33140702229E+02 -0.27934800623E+02  0.52846729259E+02  0.00000000000E+00 0.  1.
         -2    1    1    2    0  503  0.30234377178E+02  0.33140702229E+02 -0.40409358023E+03  0.40657600186E+03  0.00000000000E+00 0. -1.
</event>
<event>
 4    1  0.1780267E+004  0.2556997E+02  0.7546771E-02  0.1462527E+00
         21   -1    0    0  501  502  0.00000000000E+00  0.00000000000E+00  0.58473430579E+03  0.58473430579E+03  0.00000000000E+00 0.  1.
         21   -1    0    0  502  503 -0.00000000000E+00 -0.00000000000E+00 -0.42692278982E+01  0.42692278982E+01  0.00000000000E+00 0. -1.
          2    1    1    2  501    0  0.20072524155E+02  0.15840369416E+02  0.54324532412E+03  0.54384676676E+03  0.00000000000E+00 0.  1.
         -2    1    1    2    0  503 -0.20072524155E+02 -0.15840369416E+02  0.37219753768E+02  0.45156766932E+02  0.00000000000E+00 0. -1.
</event>
<event>
 4    1  0.1780267E+004  0.2251903E+02  0.7546771E-02  0.1498628E+00
         21   -1    0    0  501  502  0.00000000000E+00  0.00000000000E+00  0.11288580933E+02  0.11288580933E+02  0.00000000000E+00 0. -1.
         21   -1    0    0  502  503 -0.00000000000E+00 -0.00000000000E+00 -0.45025395992E+02  0.45025395992E+02  0.00000000000E+00 0.  1.
          2    1    1    2  501    0 -0.22370185911E+02  0.25848622992E+01 -0.15519740024E+02  0.27349023039E+02  0.00000000000E+00 0.  1.
         -2    1    1    2    0  503  0.22370185911E+02 -0.25848622992E+01 -0.18217075035E+02  0.28964953886E+02  0.00000000000E+00 0. -1.
</event>
<event>
 4    1  0.1780267E+004  0.2868649E+02  0.7546771E-02  0.1431365E+00
         21   -1    0    0  501  502  0.00000000000E+00  0.00000000000E+00  0.17770286794E+02  0.17770286794E+02  0.00000000000E+00 0. -1.
         21   -1    0    0  502  503 -0.00000000000E+00 -0.00000000000E+00 -0.74815359597E+02  0.74815359597E+02  0.00000000000E+00 0.  1.
          2    1    1    2  501    0  0.24817989954E+02 -0.14386866537E+02  0.52928363652E-01  0.28686536137E+02  0.00000000000E+00 0. -1.
         -2    1    1    2    0  503 -0.24817989954E+02  0.14386866537E+02 -0.57098001167E+02  0.63899110255E+02  0.00000000000E+00 0.  1.
</event>
<event>
 4    1  0.1780267E+004  0.2340556E+02  0.7546771E-02  0.1487467E+00
         21   -1    0    0  503  502  0.00000000000E+00  0.00000000000E+00  0.10072228304E+04  0.10072228304E+04  0.00000000000E+00 0.  1.
         21   -1    0    0  501  503 -0.00000000000E+00 -0.00000000000E+00 -0.57059997101E+00  0.57059997101E+00  0.00000000000E+00 0. -1.
          2    1    1    2  501    0 -0.11161806990E+02 -0.20572653617E+02  0.39430777800E+03  0.39500182760E+03  0.00000000000E+00 0. -1.
         -2    1    1    2    0  502  0.11161806990E+02  0.20572653617E+02  0.61234445241E+03  0.61279160276E+03  0.00000000000E+00 0.  1.
</event>
<event>
 4    1  0.1780267E+004  0.2455694E+02  0.7546771E-02  0.1473821E+00
         21   -1    0    0  503  502  0.00000000000E+00  0.00000000000E+00  0.13836744521E+02  0.13836744521E+02  0.00000000000E+00 0. -1.
         21   -1    0    0  501  503 -0.00000000000E+00 -0.00000000000E+00 -0.44055680504E+02  0.44055680504E+02  0.00000000000E+00 0.  1.
          2    1    1    2  501    0  0.13619637494E+02 -0.20434006736E+02 -0.12110327781E+02  0.27380708459E+02  0.00000000000E+00 0. -1.
         -2    1    1    2    0  502 -0.13619637494E+02  0.20434006736E+02 -0.18108608202E+02  0.30511716565E+02  0.00000000000E+00 0.  1.
</event>
<event>
 4    1  0.1780267E+004  0.5063575E+02  0.7546771E-02  0.1295439E+00
         21   -1    0    0  501  502  0.00000000000E+00  0.00000000000E+00  0.37192667952E+01  0.37192667952E+01  0.00000000000E+00 0. -1.
         21   -1    0    0  502  503 -0.00000000000E+00 -0.00000000000E+00 -0.78458574337E+03  0.78458574337E+03  0.00000000000E+00 0.  1.
          2    1    1    2  501    0  0.50504823526E+02  0.36389946825E+01 -0.25312993976E+03  0.25814481572E+03  0.00000000000E+00 0.  1.
         -2    1    1    2    0  503 -0.50504823526E+02 -0.36389946825E+01 -0.52773653681E+03  0.53016019444E+03  0.00000000000E+00 0. -1.
</event>
<event>
 4    1  0.1780267E+004  0.2860865E+02  0.7546771E-02  0.1432085E+00
         21   -1    0    0  503  502  0.00000000000E+00  0.00000000000E+00  0.16535852950E+02  0.16535852950E+02  0.00000000000E+00 0. -1.
         21   -1    0    0  501  503 -0.00000000000E+00 -0.00000000000E+00 -0.61254163574E+02  0.61254163574E+02  0.00000000000E+00 0.  1.
          2    1    1    2  501    0 -0.94361430002E+01 -0.27007668358E+02 -0.39400343289E+02  0.48691292817E+02  0.00000000000E+00 0.  1.
         -2    1    1    2    0  502  0.94361430002E+01  0.27007668358E+02 -0.53179673346E+01  0.29098723708E+02  0.00000000000E+00 0. -1.
</event>
<event>
 4    1  0.1780267E+004  0.2444479E+02  0.7546771E-02  0.1475111E+00
         21   -1    0    0  503  502  0.00000000000E+00  0.00000000000E+00  0.61147589350E+02  0.61147589350E+02  0.00000000000E+00 0. -1.
         21   -1    0    0  501  503 -0.00000000000E+00 -0.00000000000E+00 -0.14685373137E+02  0.14685373137E+02  0.00000000000E+00 0.  1.
          2    1    1    2  501    0 -0.13209369952E+02 -0.20568433556E+02  0.12997499808E+01  0.24479323183E+02  0.00000000000E+00 0.  1.
         -2    1    1    2    0  502  0.13209369952E+02  0.20568433556E+02  0.45162466233E+02  0.51353639304E+02  0.00000000000E+00 0. -1.
</event>
<event>
 4    1  0.1780267E+004  0.2422920E+02  0.7546771E-02  0.1477614E+00
         21   -1    0    0  503  502  0.00000000000E+00  0.00000000000E+00  0.11326274347E+02  0.11326274347E+02  0.00000000000E+00 0. -1.
         21   -1    0    0  501  503 -0.00000000000E+00 -0.00000000000E+00 -0.13354417681E+03  0.13354417681E+03  0.00000000000E+00 0.  1.
          2    1    1    2  501    0  0.11955060467E+02  0.21074405419E+02 -0.11776978214E+03  0.12023633236E+03  0.00000000000E+00 0.  1.
         -2    1    1    2    0  502 -0.11955060467E+02 -0.21074405419E+02 -0.44481203258E+01  0.24634118798E+02  0.00000000000E+00 0. -1.
</event>
<event>
 4    1  0.1780267E+004  0.4156456E+02  0.7546771E-02  0.1339554E+00
         21   -1    0    0  501  502  0.00000000000E+00  0.00000000000E+00  0.36805801868E+01  0.36805801868E+01  0.00000000000E+00 0.  1.
         21   -1    0    0  502  503 -0.00000000000E+00 -0.00000000000E+00 -0.64678915492E+03  0.64678915492E+03  0.00000000000E+00 0. -1.
          2    1    1    2  501    0  0.39242940215E+02 -0.13696875336E+02 -0.15122221746E+03  0.15683039184E+03  0.00000000000E+00 0.  1.
         -2    1    1    2    0  503 -0.39242940215E+02  0.13696875336E+02 -0.49188635727E+03  0.49363934327E+03  0.00000000000E+00 0. -1.
</event>
<event>
 4    1  0.1780267E+004  0.2662499E+02  0.7546771E-02  0.1451412E+00
         21   -1    0    0  503  502  0.00000000000E+00  0.00000000000E+00  0.39317036606E+02  0.39317036606E+02  0.00000000000E+00 0.  1.
         21   -1    0    0  501  503 -0.00000000000E+00 -0.00000000000E+00 -0.43401678053E+02  0.43401678053E+02  0.00000000000E+00 0. -1.
          2    1    1    2  501    0 -0.19245721618E+02  0.18398163439E+02 -0.33664677618E+02  0.42920865994E+02  0.00000000000E+00 0. -1.
         -2    1    1    2    0  502  0.19245721618E+02 -0.18398163439E+02  0.29580036171E+02  0.39797848666E+02  0.00000000000E+00 0.  1.
</event>
<event>
 4    1  0.1780267E+004  0.2248799E+02  0.7546771E-02  0.1499030E+00
         21   -1    0    0  503  502  0.00000000000E+00  0.00000000000E+00  0.42619325394E+02  0.42619325394E+02  0.00000000000E+00 0.  1.
         21   -1    0    0  501  503 -0.00000000000E+00 -0.00000000000E+00 -0.21683739306E+02  0.21683739306E+02  0.00000000000E+00 0. -1.
          2    1    1    2  501    0  0.17387609040E+02 -0.14261164434E+02 -0.11166670220E+02  0.25107853013E+02  0.00000000000E+00 0. -1.
         -2    1    1    2    0  502 -0.17387609040E+02  0.14261164434E+02  0.32102256308E+02  0.39195211687E+02  0.00000000000E+00 0.  1.
</event>
<event>
 4    1  0.1780267E+004  0.2005695E+02  0.7546771E-02  0.1533167E+00
         21   -1    0    0  503  502  0.00000000000E+00  0.00000000000E+00  0.72058543023E+01  0.72058543023E+01  0.00000000000E+00 0. -1.
         21   -1    0    0  501  503 -0.00000000000E+00 -0.00000000000E+00 -0.67026002967E+02  0.67026002967E+02  0.00000000000E+00 0.  1.
          2    1    1    2  501    0  0.28865875560E+01  0.19848145443E+02 -0.45081564861E+02  0.49341957354E+02  0.00000000000E+00 0.  1.
         -2    1    1    2    0  502 -0.28865875560E+01 -0.19848145443E+02 -0.14738583803E+02  0.24889899915E+02  0.00000000000E+00 0. -1.
</event>
<event>
 4    1  0.1780267E+004  0.2055730E+02  0.7546771E-02  0.1525680E+00
         21   -1    0    0  503  502  0.00000000000E+00  0.00000000000E+00  0.21985026633E+02  0.21985026633E+02  0.00000000000E+00 0.  1.
         21   -1    0    0  501  503 -0.00000000000E+00 -0.00000000000E+00 -0.21455038464E+02  0.21455038464E+02  0.00000000000E+00 0. -1.
          2    1    1    2  501    0  0.19167095558E+02 -0.74313610429E+01  0.72717209011E+01  0.21805517741E+02  0.00000000000E+00 0.  1.
         -2    1    1    2    0  502 -0.19167095558E+02  0.74313610429E+01 -0.67417327323E+01  0.21634547356E+02  0.00000000000E+00 0. -1.
</event>
<event>
 4    1  0.1780267E+004  0.2471749E+02  0.7546771E-02  0.1471989E+00
         21   -1    0    0  503  502  0.00000000000E+00  0.00000000000E+00  0.21234220549E+02  0.21234220549E+02  0.00000000000E+00 0.  1.
         21   -1    0    0  501  503 -0.00000000000E+00 -0.00000000000E+00 -0.78014486309E+02  0.78014486309E+02  0.00000000000E+00 0. -1.
          2    1    1    2  501    0  0.17959413136E+02  0.16982746337E+02 -0.67815573579E+02  0.72179680057E+02  0.00000000000E+00 0. -1.
         -2    1    1    2    0  502 -0.17959413136E+02 -0.16982746337E+02  0.11035307819E+02  0.27069026801E+02  0.00000000000E+00 0.  1.
</event>
<event>
 4    1  0.1780267E+004  0.2101377E+02  0.7546771E-02  0.1519068E+00
         21   -1    0    0  503  502  0.00000000000E+00  0.00000000000E+00  0.11108893977E+02  0.11108893977E+02  0.00000000000E+00 0. -1.
         21   -1    0    0  501  503 -0.00000000000E+00 -0.00000000000E+00 -0.95668530414E+02  0.95668530414E+02  0.00000000000E+00 0.  1.
          2    1    1    2  501    0 -0.88894044425E+01 -0.19040927662E+02 -0.83096979998E+02  0.85712814225E+02  0.00000000000E+00 0.  1.
         -2    1    1    2    0  502  0.88894044425E+01  0.19040927662E+02 -0.14626564383E+01  0.21064610166E+02  0.00000000000E+00 0. -1.
</event>
<event>
 4    1  0.1780267E+004  0.2408099E+02  0.7546771E-02  0.1479353E+00
         21   -1    0    0  503  502  0.00000000000E+00  0.00000000000E+00  0.12644370626E+02  0.12644370626E+02  0.00000000000E+00 0.  1.
         21   -1    0    0  501  503 -0.00000000000E+00 -0.00000000000E+00 -0.49891124135E+02  0.49891124135E+02  0.00000000000E+00 0. -1.
          2    1    1    2  501    0  0.37896576887E+01 -0.23780933073E+02 -0.27509209344E+02  0.36560236349E+02  0.00000000000E+00 0. -1.
         -2    1    1    2    0  502 -0.37896576887E+01  0.23780933073E+02 -0.97375441654E+01  0.25975258412E+02  0.00000000000E+00 0.  1.
</event>
<event>
 4    1  0.1780267E+004  0.2090994E+02  0.7546771E-02  0.1520555E+00
         21   -1    0    0  501  502  0.00000000000E+00  0.00000000000E+00  0.38697386571E+01  0.38697386571E+01  0.00000000000E+00 0.  1.
         21   -1    0    0  502  503 -0.00000000000E+00 -0.00000000000E+00 -0.36377026221E+03  0.36377026221E+03  0.00000000000E+00 0. -1.
          2    1    1    2  501    0  0.30773367501E+01  0.20682248302E+02 -0.27323916044E+02  0.34406711326E+02  0.00000000000E+00 0.  1.
         -2    1    1    2    0  503 -0.30773367501E+01 -0.20682248302E+02 -0.33257660750E+03  0.33323328954E+03  0.00000000000E+00 0. -1.
</event>
<event>
 4    1  0.1780267E+004  0.3935033E+02  0.7546771E-02  0.1352335E+00
         21   -1    0    0  501  502  0.00000000000E+00  0.00000000000E+00  0.24995330235E+03  0.24995330235E+03  0.00000000000E+00 0.  1.
         21   -1    0    0  502  503 -0.00000000000E+00 -0.00000000000E+00 -0.62778596590E+01  0.62778596590E+01  0.00000000000E+00 0. -1.
          2    1    1    2  501    0  0.36692971155E+02 -0.14215299125E+02  0.10711487119E+03  0.11411417305E+03  0.00000000000E+00 0.  1.
         -2    1    1    2    0  503 -0.36692971155E+02  0.14215299125E+02  0.13656057151E+03  0.14211698896E+03  0.00000000000E+00 0. -1.
</event>
<event>
 4    1  0.1780267E+004  0.2390387E+02  0.7546771E-02  0.1481450E+00
         21   -1    0    0  501  502  0.00000000000E+00  0.00000000000E+00  0.98470906717E+03  0.98470906717E+03  0.00000000000E+00 0. -1.
         21   -1    0    0  502  503 -0.00000000000E+00 -0.00000000000E+00 -0.64402440106E+00  0.64402440106E+00  0.00000000000E+00 0.  1.
          2    1    1    2  501    0  0.19552545714E+02  0.13751109003E+02  0.64704727438E+03  0.64748866424E+03  0.00000000000E+00 0. -1.
         -2    1    1    2    0  503 -0.19552545714E+02 -0.13751109003E+02  0.33701776839E+03  0.33786442733E+03  0.00000000000E+00 0.  1.
</event>
<event>
 4    1  0.1780267E+004  0.2955309E+02  0.7546771E-02  0.1423520E+00
         21   -1    0    0  503  502  0.00000000000E+00  0.00000000000E+00  0.73364815961E+03  0.73364815961E+03  0.00000000000E+00 0.  1.
         21   -1    0    0  501  503 -0.00000000000E+00 -0.00000000000E+00 -0.12449561564E+01  0.12449561564E+01  0.00000000000E+00 0. -1.
          2    1    1    2  501    0  0.29547311470E+02 -0.58437213609E+00  0.28933002754E+03  0.29083543447E+03  0.00000000000E+00 0. -1.
         -2    1    1    2    0  502 -0.29547311470E+02  0.58437213609E+00  0.44307317591E+03  0.44405768130E+03  0.00000000000E+00 0.  1.
</event>
<event>
 4    1  0.1780267E+004  0.2339212E+02  0.7546771E-02  0.1487632E+00
         21   -1    0    0  503  502  0.00000000000E+00  0.00000000000E+00  0.21433188417E+03  0.21433188417E+03  0.00000000000E+00 0.  1.
         21   -1    0    0  501  503 -0.00000000000E+00 -0.00000000000E+00 -0.25535850610E+01  0.25535850610E+01  0.00000000000E+00 0. -1.
          2    1    1    2  501    0 -0.23198525485E+02  0.30032715297E+01  0.10426034921E+03  0.10685228889E+03  0.00000000000E+00 0. -1.
         -2    1    1    2    0  502  0.23198525485E+02 -0.30032715297E+01  0.10751794990E+03  0.11003318034E+03  0.00000000000E+00 0.  1.
</event>
<event>
 4    1  0.1780267E+004  0.2538524E+02  0.7546771E-02  0.1464540E+00
         21   -1    0    0  503  502  0.00000000000E+00  0.00000000000E+00  0.65758810471E+02  0.65758810471E+02  0.00000000000E+00 0.  1.
         21   -1    0    0  501  503 -0.00000000000E+00 -0.00000000000E+00 -0.14456045702E+02  0.14456045702E+02  0.00000000000E+00 0. -1.
          2    1    1    2  501    0  0.24436710601E+02 -0.68744172288E+01  0.28885109021E+01  0.25549049541E+02  0.00000000000E+00 0. -1.
         -2    1    1    2    0  502 -0.24436710601E+02  0.68744172288E+01  0.48414253867E+02  0.54665806632E+02  0.00000000000E+00 0.  1.
</event>
<event>
 4    1  0.1780267E+004  0.4214489E+02  0.7546771E-02  0.1336355E+00
         21   -1    0    0  501  502  0.00000000000E+00  0.00000000000E+00  0.13450588412E+03  0.13450588412E+03  0.00000000000E+00 0. -1.
         21   -1    0    0  502  503 -0.00000000000E+00 -0.00000000000E+00 -0.18892300572E+02  0.18892300572E+02  0.00000000000E+00 0.  1.
          2    1    1    2  501    0  0.42139215893E+02 -0.69132323955E+00  0.99888095274E+02  0.10841504979E+03  0.00000000000E+00 0. -1.
         -2    1    1    2    0  503 -0.42139215893E+02  0.69132323955E+00  0.15725488273E+02  0.44983134899E+02  0.00000000000E+00 0.  1.
</event>
<event>
 4    1  0.1780267E+004  0.2917731E+02  0.7546771E-02  0.1426883E+00
         21   -1    0    0  501  502  0.00000000000E+00  0.00000000000E+00  0.13212705827E+02  0.13212705827E+02  0.00000000000E+00 0.  1.
         21   -1    0    0  502  503 -0.00000000000E+00 -0.00000000000E+00 -0.67590941275E+02  0.67590941275E+02  0.00000000000E+00 0. -1.
          2    1    1    2  501    0 -0.85140983668E+01 -0.27907443886E+02 -0.18454226609E+02  0.34523524950E+02  0.00000000000E+00 0. -1.
         -2    1    1    2    0  503  0.85140983668E+01  0.27907443886E+02 -0.35924008839E+02  0.46280122152E+02  0.00000000000E+00 0.  1.
</event>
<event>
 4    1  0.1780267E+004  0.2401228E+02  0.7546771E-02  0.1480164E+00
         21   -1    0    0  503  502  0.00000000000E+00  0.00000000000E+00  0.49068253907E+02  0.49068253907E+02  0.00000000000E+00 0.  1.
         21   -1    0    0  501  503 -0.00000000000E+00 -0.00000000000E+00 -0.20021781319E+02  0.20021781319E+02  0.00000000000E+00 0. -1.
          2    1    1    2  501    0  0.19067438276E+02  0.14595284846E+02 -0.76798572658E+01  0.25210508717E+02  0.00000000000E+00 0. -1.
         -2    1    1    2    0  502 -0.19067438276E+02 -0.14595284846E+02  0.36726329853E+02  0.43879526509E+02  0.00000000000E+00 0.  1.
</event>
<event>
 4    1  0.1780267E+004  0.2115408E+02  0.7546771E-02  0.1517076E+00
         21   -1    0    0  503  502  0.00000000000E+00  0.00000000000E+00  0.25551823589E+02  0.25551823589E+02  0.00000000000E+00 0.  1.
         21   -1    0    0  501  503 -0.00000000000E+00 -0.00000000000E+00 -0.44392379372E+02  0.44392379372E+02  0.00000000000E+00 0. -1.
          2    1    1    2  501    0  0.29903663091E+01 -0.20941656336E+02 -0.36633200381E+02  0.42302324179E+02  0.00000000000E+00 0. -1.
         -2    1    1    2    0  502 -0.29903663091E+01  0.20941656336E+02  0.17792644598E+02  0.27641878782E+02  0.00000000000E+00 0.  1.
</event>
<event>
 4    1  0.1780267E+004  0.2363014E+02  0.7546771E-02  0.1484733E+00
         21   -1    0    0  503  502  0.00000000000E+00  0.00000000000E+00  0.62066486805E+01  0.62066486805E+01  0.00000000000E+00 0. -1.
         21   -1    0    0  501  503 -0.00000000000E+00 -0.00000000000E+00 -0.20586284877E+03  0.20586284877E+03  0.00000000000E+00 0.  1.
          2    1    1    2  501    0 -0.60308553407E+00 -0.23622445953E+02 -0.17938835208E+03  0.18093801294E+03  0.00000000000E+00 0.  1.
         -2    1    1    2    0  502  0.60308553407E+00  0.23622445953E+02 -0.20267848015E+02  0.31131484515E+02  0.00000000000E+00 0. -1.
</event>
<event>
 4    1  0.1780267E+004  0.2176092E+02  0.7546771E-02  0.1508672E+00
         21   -1    0    0  503  502  0.00000000000E+00  0.00000000000E+00  0.11915683597E+02  0.11915683597E+02  0.00000000000E+00 0. -1.
         21   -1    0    0  501  503 -0.00000000000E+00 -0.00000000000E+00 -0.67456278012E+02  0.67456278012E+02  0.00000000000E+00 0.  1.
          2    1    1    2  501    0 -0.92243387717E+01 -0.19709117788E+02 -0.53208580936E+02  0.57486440444E+02  0.00000000000E+00 0.  1.
         -2    1    1    2    0  502  0.92243387717E+01  0.19709117788E+02 -0.23320134790E+01  0.21885521164E+02  0.00000000000E+00 0. -1.
</event>
<event>
 4    1  0.1780267E+004  0.2201289E+02  0.7546771E-02  0.1505280E+00
         21   -1    0    0  503  502  0.00000000000E+00  0.00000000000E+00  0.88709524648E+00  0.88709524648E+00  0.00000000000E+00 0.  1.
         21   -1    0    0  501  503 -0.00000000000E+00 -0.00000000000E+00 -0.56201349836E+03  0.56201349836E+03  0.00000000000E+00 0. -1.
          2    1    1    2  501    0 -0.57883086786E+00 -0.22005282709E+02 -0.32771333911E+03  0.32845182316E+03  0.00000000000E+00 0.  1.
         -2    1    1    2    0  502  0.57883086786E+00  0.22005282709E+02 -0.23341306401E+03  0.23444877045E+03  0.00000000000E+00 0. -1.
</event>
<event>
 4    1  0.1780267E+004  0.2470293E+02  0.7546771E-02  0.1472154E+00
         21   -1    0    0  503  502  0.00000000000E+00  0.00000000000E+00  0.18513191628E+02  0.18513191628E+02  0.00000000000E+00 0. -1.
         21   -1    0    0  501  503 -0.00000000000E+00 -0.00000000000E+00 -0.61932312077E+02  0.61932312077E+02  0.00000000000E+00 0.  1.
          2    1    1    2  501    0 -0.13760485923E+02  0.20515448660E+02 -0.49219433670E+02  0.55070747746E+02  0.00000000000E+00 0.  1.
         -2    1    1    2    0  502  0.13760485923E+02 -0.20515448660E+02  0.58003132208E+01  0.25374755959E+02  0.00000000000E+00 0. -1.
</event>
<event>
 4    1  0.1780267E+004  0.2024751E+02  0.7546771E-02  0.1530285E+00
         21   -1    0    0  501  502  0.00000000000E+00  0.00000000000E+00  0.83651804033E+00  0.83651804033E+00  0.00000000000E+00 0. -1.
         21   -1    0    0  502  503 -0.00000000000E+00 -0.00000000000E+00 -0.72308542631E+03  0.72308542631E+03  0.00000000000E+00 0.  1.
          2    1    1    2  501    0  0.16888709892E+02 -0.11168403122E+02 -0.15565424753E+03  0.15696562211E+03  0.00000000000E+00 0. -1.
         -2    1    1    2    0  503 -0.16888709892E+02  0.11168403122E+02 -0.56659466074E+03  0.56695632224E+03  0.00000000000E+00 0.  1.
</event>
<event>
 4    1  0.1780267E+004  0.2046646E+02  0.7546771E-02  0.1527020E+00
         21   -1    0    0  501  502  0.00000000000E+00  0.00000000000E+00  0.98532323613E+01  0.98532323613E+01  0.00000000000E+00 0. -1.
         21   -1    0    0  502  503 -0.00000000000E+00 -0.00000000000E+00 -0.46658024874E+02  0.46658024874E+02  0.00000000000E+00 0.  1.
          2    1    1    2  501    0  0.53082171885E+01 -0.19766104951E+02 -0.99791038217E+01  0.22769685719E+02  0.00000000000E+00 0. -1.
         -2    1    1    2    0  503 -0.53082171885E+01  0.19766104951E+02 -0.26825688691E+02  0.33741571516E+02  0.00000000000E+00 0.  1.
</event>
<event>
 4    1  0.1780267E+004  0.3214090E+02  0.7546771E-02  0.1401861E+00
         21   -1    0    0  503  502  0.00000000000E+00  0.00000000000E+00  0.94767140953E+02  0.94767140953E+02  0.00000000000E+00 0. -1.
         21   -1    0    0  501  503 -0.00000000000E+00 -0.00000000000E+00 -0.10938370142E+02  0.10938370142E+02  0.00000000000E+00 0.  1.
          2    1    1    2  501    0 -0.16089507493E+02  0.27823826926E+02  0.45011919061E+02  0.55309225756E+02  0.00000000000E+00 0.  1.
         -2    1    1    2    0  502  0.16089507493E+02 -0.27823826926E+02  0.38816851750E+02  0.50396285339E+02  0.00000000000E+00 0. -1.
</event>
<event>
 4    1  0.1780267E+004  0.2061153E+02  0.7546771E-02  0.1524884E+00
         21   -1    0    0  503  502  0.00000000000E+00  0.00000000000E+00  0.64485785858E+01  0.64485785858E+01  0.00000000000E+00 0.  1.
         21   -1    0    0  501  503 -0.00000000000E+00 -0.00000000000E+00 -0.51191590263E+03  0.51191590263E+03  0.00000000000E+00 0. -1.
          2    1    1    2  501    0 -0.58769272341E+01 -0.19755930387E+02 -0.49466416830E+03  0.49509339974E+03  0.00000000000E+00 0. -1.
         -2    1    1    2    0  502  0.58769272341E+01  0.19755930387E+02 -0.10803155738E+02  0.23271081476E+02  0.00000000000E+00 0.  1.
</event>
<event>
 4    1  0.1780267E+004  0.2113294E+02  0.7546771E-02  0.1517375E+00
         21   -1    0    0  503  502  0.00000000000E+00  0.00000000000E+00  0.59021808111E+01  0.59021808111E+01  0.00000000000E+00 0.  1.
         21   -1    0    0  501  503 -0.00000000000E+00 -0.00000000000E+00 -0.15069567757E+03  0.15069567757E+03  0.00000000000E+00 0. -1.
          2    1    1    2  501    0  0.99047631720E+01  0.18668064076E+02 -0.12764502809E+03  0.12938258826E+03  0.00000000000E+00 0. -1.
         -2    1    1    2    0  502 -0.99047631720E+01 -0.18668064076E+02 -0.17148468669E+02  0.27215270117E+02  0.00000000000E+00 0.  1.
</event>
<event>
 4    1  0.1780267E+004  0.2207201E+02  0.7546771E-02  0.1504492E+00
         21   -1    0    0  503  502  0.00000000000E+00  0.00000000000E+00  0.56345959120E+02  0.56345959120E+02  0.00000000000E+00 0. -1.
         21   -1    0    0  501  503 -0.00000000000E+00 -0.00000000000E+00 -0.13617898807E+02  0.13617898807E+02  0.00000000000E+00 0.  1.
          2    1    1    2  501    0  0.49636837831E+01  0.21506634243E+02  0.22695210459E+00  0.22073173320E+02  0.00000000000E+00 0.  1.
         -2    1    1    2    0  502 -0.49636837831E+01 -0.21506634243E+02  0.42501108209E+02  0.47890684607E+02  0.00000000000E+00 0. -1.
</event>
<event>
 4    1  0.1780267E+004  0.2099270E+02  0.7546771E-02  0.1519369E+00
         21   -1    0    0  503  502  0.00000000000E+00  0.00000000000E+00  0.10466416389E+03  0.10466416389E+03  0.00000000000E+00 0. -1.
         21   -1    0    0  501  503 -0.00000000000E+00 -0.00000000000E+00 -0.20693597988E+02  0.20693597988E+02  0.00000000000E+00 0.  1.
          2    1    1    2  501    0  0.20771310728E+02  0.30407585724E+01 -0.13954658615E+02  0.25207658739E+02  0.00000000000E+00 0.  1.
         -2    1    1    2    0  502 -0.20771310728E+02 -0.30407585724E+01  0.97925224516E+02  0.10015010314E+03  0.00000000000E+00 0. -1.
</event>
<event>
 4    1  0.1780267E+004  0.4074025E+02  0.7546771E-02  0.1344202E+00
         21   -1    0    0  503  502  0.00000000000E+00  0.00000000000E+00  0.11896104817E+04  0.11896104817E+04  0.00000000000E+00 0.  1.
         21   -1    0    0  501  503 -0.00000000000E+00 -0.00000000000E+00 -0.31525886068E+01  0.31525886068E+01  0.00000000000E+00 0. -1.
          2    1    1    2  501    0 -0.21509288150E+01  0.40683429352E+02  0.14796040496E+03  0.15346676954E+03  0.00000000000E+00 0. -1.
         -2    1    1    2    0  502  0.21509288150E+01 -0.40683429352E+02  0.10384974881E+04  0.10392963008E+04  0.00000000000E+00 0.  1.
</event>
<event>
 4    1  0.1780267E+004  0.2062186E+02  0.7546771E-02  0.1524733E+00
         21   -1    0    0  503  502  0.00000000000E+00  0.00000000000E+00  0.46085096063E+03  0.46085096063E+03  0.00000000000E+00 0.  1.
         21   -1    0    0  501  503 -0.00000000000E+00 -0.00000000000E+00 -0.11584823188E+01  0.11584823188E+01  0.00000000000E+00 0. -1.
          2    1    1    2  501    0  0.17572550169E+01 -0.20546851681E+02  0.12564711781E+03  0.12732815586E+03  0.00000000000E+00 0.  1.
         -2    1    1    2    0  502 -0.17572550169E+01  0.20546851681E+02  0.33404536050E+03  0.33468128710E+03  0.00000000000E+00 0. -1.
</event>
<event>
 4    1  0.1780267E+004  0.2005460E+02  0.7546771E-02  0.1533203E+00
         21   -1    0    0  501  502  0.00000000000E+00  0.00000000000E+00  0.63706322476E+02  0.63706322476E+02  0.00000000000E+00 0. -1.
         21   -1    0    0  502  503 -0.00000000000E+00 -0.00000000000E+00 -0.11170138288E+02  0.11170138288E+02  0.00000000000E+00 0.  1.
          2    1    1    2  501    0  0.10342435971E+02 -0.17181997802E+02  0.50955184592E+02  0.54759637208E+02  0.00000000000E+00 0. -1.
         -2    1    1    2    0  503 -0.10342435971E+02  0.17181997802E+02  0.15809995958E+01  0.20116823557E+02  0.00000000000E+00 0.  1.
</event>
<event>
 4    1  0.1780267E+004  0.3208520E+02  0.7546771E-02  0.1402301E+00
         21   -1    0    0  501  502  0.00000000000E+00  0.00000000000E+00  0.14469985606E+03  0.14469985606E+03  0.00000000000E+00 0.  1.
         21   -1    0    0  502  503 -0.00000000000E+00 -0.00000000000E+00 -0.74886343647E+01  0.74886343647E+01  0.00000000000E+00 0. -1.
          2    1    1    2  501    0 -0.61484626715E+01  0.31490576927E+02  0.51596063081E+02  0.60758651680E+02  0.00000000000E+00 0. -1.
         -2    1    1    2    0  503  0.61484626715E+01 -0.31490576927E+02  0.85615158613E+02  0.91429838744E+02  0.00000000000E+00 0.  1.
</event>
<event>
 4    1  0.1780267E+004  0.2556902E+02  0.7546771E-02  0.1462537E+00
         21   -1    0    0  501  502  0.00000000000E+00  0.00000000000E+00  0.28740609903E+01  0.28740609903E+01  0.00000000000E+00 0. -1.
         21   -1    0    0  502  503 -0.00000000000E+00 -0.00000000000E+00 -0.31292078969E+03  0.31292078969E+03  0.00000000000E+00 0.  1.
          2    1    1    2  501    0  0.32481746526E+01 -0.25361864120E+02 -0.72513637642E+02  0.76889546977E+02  0.00000000000E+00 0. -1.
         -2    1    1    2    0  503 -0.32481746526E+01  0.25361864120E+02 -0.23753309106E+03  0.23890530371E+03  0.00000000000E+00 0.  1.
</event>
<event>
 4    1  0.1780267E+004  0.2559154E+02  0.7546771E-02  0.1462293E+00
         21   -1    0    0  503  502  0.00000000000E+00  0.00000000000E+00  0.20539726990E+01  0.20539726990E+01  0.00000000000E+00 0. -1.
         21   -1    0    0  501  503 -0.00000000000E+00 -0.00000000000E+00 -0.35194583227E+03  0.35194583227E+03  0.00000000000E+00 0.  1.
          2    1    1    2  501    0 -0.24702056175E+02 -0.66884333832E+01 -0.22921667406E+03  0.23064086886E+03  0.00000000000E+00 0. -1.
         -2    1    1    2    0  502  0.24702056175E+02  0.66884333832E+01 -0.12067518551E+03  0.12335893611E+03  0.00000000000E+00 0.  1.
</event>
<event>
 4    1  0.1780267E+004  0.3105485E+02  0.7546771E-02  0.1410646E+00
         21   -1    0    0  501  502  0.00000000000E+00  0.00000000000E+00  0.96430955303E+03  0.96430955303E+03  0.00000000000E+00 0. -1.
         21   -1    0    0  502  503 -0.00000000000E+00 -0.00000000000E+00 -0.23460859618E+01  0.23460859618E+01  0.00000000000E+00 0.  1.
          2    1    1    2  501    0  0.29696051844E+02  0.90855973689E+01  0.84707395466E+03  0.84764301934E+03  0.00000000000E+00 0. -1.
         -2    1    1    2    0  503 -0.29696051844E+02 -0.90855973689E+01  0.11488951241E+03  0.11901261965E+03  0.00000000000E+00 0.  1.
</event>
<event>
 4    1  0.1780267E+004  0.2523538E+02  0.7546771E-02  0.1466187E+00
         21   -1    0    0  501  502  0.00000000000E+00  0.00000000000E+00  0.76918354463E+01  0.76918354463E+01  0.00000000000E+00 0.  1.
         21   -1    0    0  502  503 -0.00000000000E+00 -0.00000000000E+00 -0.19331778921E+03  0.19331778921E+03  0.00000000000E+00 0. -1.
          2    1    1    2  501    0  0.40498898402E+01 -0.24908284184E+02 -0.16818452279E+02  0.30326301552E+02  0.00000000000E+00 0.  1.
         -2    1    1    2    0  503 -0.40498898402E+01  0.24908284184E+02 -0.16880750149E+03  0.17068332311E+03  0.00000000000E+00 0. -1.
</event>
<event>
 4    1  0.1780267E+004  0.2337702E+02  0.7546771E-02  0.1487817E+00
         21   -1    0    0  503  502  0.00000000000E+00  0.00000000000E+00  0.10470280450E+02  0.10470280450E+02  0.00000000000E+00 0. -1.
         21   -1    0    0  501  503 -0.00000000000E+00 -0.00000000000E+00 -0.71096380102E+02  0.71096380102E+02  0.00000000000E+00 0.  1.
          2    1    1    2  501    0  0.21525333761E+02 -0.91183792529E+01 -0.51342032712E+02  0.56413554726E+02  0.00000000000E+00 0.  1.
         -2    1    1    2    0  502 -0.21525333761E+02  0.91183792529E+01 -0.92840669396E+01  0.25153105826E+02  0.00000000000E+00 0. -1.
</event>
<event>
 4    1  0.1780267E+004  0.2316875E+02  0.7546771E-02  0.1490390E+00
         21   -1    0    0  501  502  0.00000000000E+00  0.00000000000E+00  0.16165146907E+02  0.16165146907E+02  0.00000000000E+00 0. -1.
         21   -1    0    0  502  503 -0.00000000000E+00 -0.00000000000E+00 -0.33667568319E+02  0.33667568319E+02  0.00000000000E+00 0.  1.
          2    1    1    2  501    0  0.13870207262E+02  0.18558243271E+02 -0.58359914963E+01  0.23892464075E+02  0.00000000000E+00 0. -1.
         -2    1    1    2    0  503 -0.13870207262E+02 -0.18558243271E+02 -0.11666429915E+02  0.25940251151E+02  0.00000000000E+00 0.  1.
</event>
<event>
 4    1  0.1780267E+004  0.2205028E+02  0.7546771E-02  0.1504781E+00
         21   -1    0    0  501  502  0.00000000000E+00  0.00000000000E+00  0.99217373592E+02  0.99217373592E+02  0.00000000000E+00 0. -1.
         21   -1    0    0  502  503 -0.00000000000E+00 -0.00000000000E+00 -0.52380688691E+01  0.52380688691E+01  0.00000000000E+00 0.  1.
          2    1    1    2  501    0  0.19428324224E+02 -0.10428566769E+02  0.60248212422E+02  0.64156542044E+02  0.00000000000E+00 0. -1.
         -2    1    1    2    0  503 -0.19428324224E+02  0.10428566769E+02  0.33731092301E+02  0.40298900417E+02  0.00000000000E+00 0.  1.
</event>
<event>
 4    1  0.1780267E+004  0.2198823E+02  0.7546771E-02  0.1505609E+00
         21   -1    0    0  503  502  0.00000000000E+00  0.00000000000E+00  0.70649362379E+01  0.70649362379E+01  0.00000000000E+00 0. -1.
         21   -1    0    0  501  503 -0.00000000000E+00 -0.00000000000E+00 -0.88584529232E+02  0.88584529232E+02  0.00000000000E+00 0.  1.
          2    1    1    2  501    0  0.97333600195E+01  0.19716590299E+02 -0.63569322159E+02  0.67264708058E+02  0.00000000000E+00 0.  1.
         -2    1    1    2    0  502 -0.97333600195E+01 -0.19716590299E+02 -0.17950270835E+02  0.28384757412E+02  0.00000000000E+00 0. -1.
</event>
<event>
 4    1  0.1780267E+004  0.3369939E+02  0.7546771E-02  0.1389945E+00
         21   -1    0    0  501  502  0.00000000000E+00  0.00000000000E+00  0.31658203270E+02  0.31658203270E+02  0.00000000000E+00 0.  1.
         21   -1    0    0  502  503 -0.00000000000E+00 -0.00000000000E+00 -0.14520686698E+03  0.14520686698E+03  0.00000000000E+00 0. -1.
          2    1    1    2  501    0 -0.28709465313E+02 -0.17646974038E+02  0.19961368337E+02  0.39167656518E+02  0.00000000000E+00 0.  1.
         -2    1    1    2    0  503  0.28709465313E+02  0.17646974038E+02 -0.13351003205E+03  0.13769741373E+03  0.00000000000E+00 0. -1.
</event>
<event>
 4    1  0.1780267E+004  0.2694656E+02  0.7546771E-02  0.1448146E+00
         21   -1    0    0  503  502  0.00000000000E+00  0.00000000000E+00  0.15734597733E+03  0.15734597733E+03  0.00000000000E+00 0. -1.
         21   -1    0    0  501  503 -0.00000000000E+00 -0.00000000000E+00 -0.51990066688E+01  0.51990066688E+01  0.00000000000E+00 0.  1.
          2    1    1    2  501    0  0.17526197543E+02 -0.20468249264E+02  0.48829248470E+02  0.55771070766E+02  0.00000000000E+00 0. -1.
         -2    1    1    2    0  502 -0.17526197543E+02  0.20468249264E+02  0.10331772219E+03  0.10677391323E+03  0.00000000000E+00 0.  1.
</event>
<event>
 4    1  0.1780267E+004  0.2554159E+02  0.7546771E-02  0.1462835E+00
         21   -1    0    0  501  502  0.00000000000E+00  0.00000000000E+00  0.17505075849E+03  0.17505075849E+03  0.00000000000E+00 0.  1.
         21   -1    0    0  502  503 -0.00000000000E+00 -0.00000000000E+00 -0.43026631204E+01  0.43026631204E+01  0.00000000000E+00 0. -1.
          2    1    1    2  501    0  0.24786225776E+02  0.61656963471E+01  0.11818239447E+03  0.12091092243E+03  0.00000000000E+00 0.  1.
         -2    1    1    2    0  503 -0.24786225776E+02 -0.61656963471E+01  0.52565700900E+02  0.58442499183E+02  0.00000000000E+00 0. -1.
</event>
<event>
 4    1  0.1780267E+004  0.2777286E+02  0.7546771E-02  0.1439995E+00
         21   -1    0    0  501  502  0.00000000000E+00  0.00000000000E+00  0.24393931641E+01  0.24393931641E+01  0.00000000000E+00 0.  1.
         21   -1    0    0  502  503 -0.00000000000E+00 -0.00000000000E+00 -0.14670458940E+04  0.14670458940E+04  0.00000000000E+00 0. -1.
          2    1    1    2  501    0  0.55223261377E+01  0.27218300989E+02 -0.81541075925E+02  0.86141041656E+02  0.00000000000E+00 0.  1.
         -2    1    1    2    0  503 -0.55223261377E+01 -0.27218300989E+02 -0.13830654249E+04  0.13833442455E+04  0.00000000000E+00 0. -1.
</event>
<event>
 4    1  0.1780267E+004  0.2090041E+02  0.7546771E-02  0.1520691E+00
         21   -1    0    0  501  502  0.00000000000E+00  0.00000000000E+00  0.11431125919E+03  0.11431125919E+03  0.00000000000E+00 0.  1.
         21   -1    0    0  502  503 -0.00000000000E+00 -0.00000000000E+00 -0.41758492775E+01  0.41758492775E+01  0.00000000000E+00 0. -1.
          2    1    1    2  501    0 -0.16177494347E+02  0.13233138013E+02  0.72328281167E+02  0.75287499106E+02  0.00000000000E+00 0. -1.
         -2    1    1    2    0  503  0.16177494347E+02 -0.13233138013E+02  0.37807128746E+02  0.43199609362E+02  0.00000000000E+00 0.  1.
</event>
<event>
 4    1  0.1780267E+004  0.4986920E+02  0.7546771E-02  0.1298741E+00
         21   -1    0    0  503  502  0.00000000000E+00  0.00000000000E+00  0.17668899421E+02  0.17668899421E+02  0.00000000000E+00 0.  1.
         21   -1    0    0  501  503 -0.00000000000E+00 -0.00000000000E+00 -0.69064970403E+03  0.69064970403E+03  0.00000000000E+00 0. -1.
          2    1    1    2  501    0  0.42281526571E+02 -0.26442564292E+02 -0.65250751933E+03  0.65441042127E+03  0.00000000000E+00 0. -1.
         -2    1    1    2    0  502 -0.42281526571E+02  0.26442564292E+02 -0.20473285287E+02  0.53908182180E+02  0.00000000000E+00 0.  1.
</event>
<event>
 4    1  0.1780267E+004  0.3657437E+02  0.7546771E-02  0.1369820E+00
         21   -1    0    0  503  502  0.00000000000E+00  0.00000000000E+00  0.84312080069E+01  0.84312080069E+01  0.00000000000E+00 0. -1.
         21   -1    0    0  501  503 -0.00000000000E+00 -0.00000000000E+00 -0.31324652995E+03  0.31324652995E+03  0.00000000000E+00 0.  1.
          2    1    1    2  501    0 -0.31610590943E+02 -0.18397147384E+02 -0.26539649530E+03  0.26790480438E+03  0.00000000000E+00 0.  1.
         -2    1    1    2    0  502  0.31610590943E+02  0.18397147384E+02 -0.39418826642E+02  0.53772933577E+02  0.00000000000E+00 0. -1.
</event>
<event>
 4    1  0.1780267E+004  0.2651947E+02  0.7546771E-02  0.1452496E+00
         21   -1    0    0  503  502  0.00000000000E+00  0.00000000000E+00  0.17585766718E+02  0.17585766718E+02  0.00000000000E+00 0. -1.
         21   -1    0    0  501  503 -0.00000000000E+00 -0.00000000000E+00 -0.57938600419E+02  0.57938600419E+02  0.00000000000E+00 0.  1.
          2    1    1    2  501    0 -0.15477942105E+02 -0.21534058744E+02 -0.41193354123E+02  0.48991578886E+02  0.00000000000E+00 0.  1.
         -2    1    1    2    0  502  0.15477942105E+02  0.21534058744E+02  0.84052042248E+00  0.26532788251E+02  0.00000000000E+00 0. -1.
</event>
<event>
 4    1  0.1780267E+004  0.2309089E+02  0.7546771E-02  0.1491360E+00
         21   -1    0    0  501  502  0.00000000000E+00  0.00000000000E+00  0.30084246086E+02  0.30084246086E+02  0.00000000000E+00 0.  1.
         21   -1    0    0  502  503 -0.00000000000E+00 -0.00000000000E+00 -0.45903642257E+02  0.45903642257E+02  0.00000000000E+00 0. -1.
          2    1    1    2  501    0 -0.13683228740E+02  0.18599954407E+02  0.21859334681E+02  0.31796533858E+02  0.00000000000E+00 0.  1.
         -2    1    1    2    0  503  0.13683228740E+02 -0.18599954407E+02 -0.37678730851E+02  0.44191354485E+02  0.00000000000E+00 0. -1.
</event>
<event>
 4    1  0.1780267E+004  0.2134545E+02  0.7546771E-02  0.1514390E+00
         21   -1    0    0  501  502  0.00000000000E+00  0.00000000000E+00  0.37077133110E+03  0.37077133110E+03  0.00000000000E+00 0. -1.
         21   -1    0    0  502  503 -0.00000000000E+00 -0.00000000000E+00 -0.13920393388E+01  0.13920393388E+01  0.00000000000E+00 0.  1.
          2    1    1    2  501    0  0.17912764475E+02  0.11608659907E+02  0.12098031055E+03  0.12284894650E+03  0.00000000000E+00 0.  1.
         -2    1    1    2    0  503 -0.17912764475E+02 -0.11608659907E+02  0.24839898122E+03  0.24931442394E+03  0.00000000000E+00 0. -1.
</event>
<event>
 4    1  0.1780267E+004  0.2480876E+02  0.7546771E-02  0.1470954E+00
         21   -1    0    0  501  502  0.00000000000E+00  0.00000000000E+00  0.40336643402E+02  0.40336643402E+02  0.00000000000E+00 0.  1.
         21   -1    0    0  502  503 -0.00000000000E+00 -0.00000000000E+00 -0.25381312732E+02  0.25381312732E+02  0.00000000000E+00 0. -1.
          2    1    1    2  501    0 -0.35969556355E+01  0.24546613923E+02  0.28229134624E+02  0.37581356901E+02  0.00000000000E+00 0.  1.
         -2    1    1    2    0  503  0.35969556355E+01 -0.24546613923E+02 -0.13273803954E+02  0.28136599232E+02  0.00000000000E+00 0. -1.
</event>
<event>
 4    1  0.1780267E+004  0.4493762E+02  0.7546771E-02  0.1321752E+00
         21   -1    0    0  501  502  0.00000000000E+00  0.00000000000E+00  0.20065490117E+02  0.20065490117E+02  0.00000000000E+00 0.  1.
         21   -1    0    0  502  503 -0.00000000000E+00 -0.00000000000E+00 -0.11584705999E+03  0.11584705999E+03  0.00000000000E+00 0. -1.
          2    1    1    2  501    0  0.42400537674E+02  0.14885705471E+02 -0.23269513751E+02  0.50604941386E+02  0.00000000000E+00 0. -1.
         -2    1    1    2    0  503 -0.42400537674E+02 -0.14885705471E+02 -0.72512056121E+02  0.85307608719E+02  0.00000000000E+00 0.  1.
</event>
<event>
 4    1  0.1780267E+004  0.2027577E+02  0.7546771E-02  0.1529861E+00
         21   -1    0    0  503  502  0.00000000000E+00  0.00000000000E+00  0.11862956924E+03  0.11862956924E+03  0.00000000000E+00 0. -1.
         21   -1    0    0  501  503 -0.00000000000E+00 -0.00000000000E+00 -0.34797540636E+01  0.34797540636E+01  0.00000000000E+00 0.  1.
          2    1    1    2  501    0 -0.18348313158E+01 -0.20192580685E+02  0.53662825718E+02  0.57365545275E+02  0.00000000000E+00 0.  1.
         -2    1    1    2    0  502  0.18348313158E+01  0.20192580685E+02  0.61486989457E+02  0.64743778026E+02  0.00000000000E+00 0. -1.
</event>
<event>
 4    1  0.1780267E+004  0.2171758E+02  0.7546771E-02  0.1509262E+00
         21   -1    0    0  501  502  0.00000000000E+00  0.00000000000E+00  0.34442614326E+02  0.34442614326E+02  0.00000000000E+00 0. -1.
         21   -1    0    0  502  503 -0.00000000000E+00 -0.00000000000E+00 -0.13835154298E+02  0.13835154298E+02  0.00000000000E+00 0.  1.
          2    1    1    2  501    0 -0.45247732609E+01 -0.21240987698E+02  0.12742956504E+02  0.25180072914E+02  0.00000000000E+00 0. -1.
         -2    1    1    2    0  503  0.45247732609E+01  0.21240987698E+02  0.78645035233E+01  0.23097695711E+02  0.00000000000E+00 0.  1.
</event>
<event>
 4    1  0.1780267E+004  0.2372553E+02  0.7546771E-02  0.1483583E+00
         21   -1    0    0  503  502  0.00000000000E+00  0.00000000000E+00  0.14156994794E+04  0.14156994794E+04  0.00000000000E+00 0. -1.
         21   -1    0    0  501  503 -0.00000000000E+00 -0.00000000000E+00 -0.56229002727E+00  0.56229002727E+00  0.00000000000E+00 0.  1.
          2    1    1    2  501    0  0.80647943172E+01  0.22312774280E+02  0.10907898493E+04  0.10910478432E+04  0.00000000000E+00 0. -1.
         -2    1    1    2    0  502 -0.80647943172E+01 -0.22312774280E+02  0.32434734006E+03  0.32521392622E+03  0.00000000000E+00 0.  1.
</event>
<event>
 4    1  0.1780267E+004  0.2111284E+02  0.7546771E-02  0.1517660E+00
         21   -1    0    0  501  502  0.00000000000E+00  0.00000000000E+00  0.30009444091E+02  0.30009444091E+02  0.00000000000E+00 0.  1.
         21   -1    0    0  502  503 -0.00000000000E+00 -0.00000000000E+00 -0.16569550694E+02  0.16569550694E+02  0.00000000000E+00 0. -1.
          2    1    1    2  501    0 -0.18137267073E+02 -0.10807015744E+02 -0.77452916334E+00  0.21127042897E+02  0.00000000000E+00 0. -1.
         -2    1    1    2    0  503  0.18137267073E+02  0.10807015744E+02  0.14214422560E+02  0.25451951887E+02  0.00000000000E+00 0.  1.
</event>
<event>
 4    1  0.1780267E+004  0.3697447E+02  0.7546771E-02  0.1367190E+00
         21   -1    0    0  501  502  0.00000000000E+00  0.00000000000E+00  0.23298089293E+01  0.23298089293E+01  0.00000000000E+00 0.  1.
         21   -1    0    0  502  503 -0.00000000000E+00 -0.00000000000E+00 -0.58744385226E+03  0.58744385226E+03  0.00000000000E+00 0. -1.
          2    1    1    2  501    0  0.36709566572E+02  0.44180072436E+01 -0.30238711395E+03  0.30463925838E+03  0.00000000000E+00 0. -1.
         -2    1    1    2    0  503 -0.36709566572E+02 -0.44180072436E+01 -0.28272692938E+03  0.28513440281E+03  0.00000000000E+00 0.  1.
</event>
<event>
 4    1  0.1780267E+004  0.2353279E+02  0.7546771E-02  0.1485914E+00
         21   -1    0    0  503  502  0.00000000000E+00  0.00000000000E+00  0.65889895890E+01  0.65889895890E+01  0.00000000000E+00 0.  1.
         21   -1    0    0  501  503 -0.00000000000E+00 -0.00000000000E+00 -0.25430560963E+03  0.25430560963E+03  0.00000000000E+00 0. -1.
          2    1    1    2  501    0 -0.20080140618E+02 -0.12271106763E+02 -0.23059414484E+03  0.23179182847E+03  0.00000000000E+00 0. -1.
         -2    1    1    2    0  502  0.20080140618E+02  0.12271106763E+02 -0.17122475195E+02  0.29102770749E+02  0.00000000000E+00 0.  1.
</event>
<event>
 4    1  0.1780267E+004  0.2745204E+02  0.7546771E-02  0.1443119E+00
         21   -1    0    0  501  502  0.00000000000E+00  0.00000000000E+00  0.58363066559E+02  0.58363066559E+02  0.00000000000E+00 0. -1.
         21   -1    0    0  502  503 -0.00000000000E+00 -0.00000000000E+00 -0.12932445689E+02  0.12932445689E+02  0.00000000000E+00 0.  1.
          2    1    1    2  501    0  0.70112187676E+01  0.26541609710E+02  0.21316032223E+02  0.34756114056E+02  0.00000000000E+00 0.  1.
         -2    1    1    2    0  503 -0.70112187676E+01 -0.26541609710E+02  0.24114588647E+02  0.36539398192E+02  0.00000000000E+00 0. -1.
</event>
<event>
 4    1  0.1780267E+004  0.2092332E+02  0.7546771E-02  0.1520362E+00
         21   -1    0    0  503  502  0.00000000000E+00  0.00000000000E+00  0.53024089500E+01  0.53024089500E+01  0.00000000000E+00 0. -1.
         21   -1    0    0  501  503 -0.00000000000E+00 -0.00000000000E+00 -0.18280526432E+03  0.18280526432E+03  0.00000000000E+00 0.  1.
          2    1    1    2  501    0 -0.16496990577E+02  0.12869904916E+02 -0.15839910483E+03  0.15977503422E+03  0.00000000000E+00 0.  1.
         -2    1    1    2    0  502  0.16496990577E+02 -0.12869904916E+02 -0.19103750545E+02  0.28332639050E+02  0.00000000000E+00 0. -1.
</event>
<event>
 4    1  0.1780267E+004  0.2150807E+02  0.7546771E-02  0.1512133E+00
         21   -1    0    0  503  502  0.00000000000E+00  0.00000000000E+00  0.13917343775E+02  0.13917343775E+02  0.00000000000E+00 0. -1.
         21   -1    0    0  501  503 -0.00000000000E+00 -0.00000000000E+00 -0.35340344437E+02  0.35340344437E+02  0.00000000000E+00 0.  1.
          2    1    1    2  501    0  0.19041253624E+01 -0.21423616407E+02 -0.47057286349E+01  0.22016832546E+02  0.00000000000E+00 0. -1.
         -2    1    1    2    0  502 -0.19041253624E+01  0.21423616407E+02 -0.16717272027E+02  0.27240855666E+02  0.00000000000E+00 0.  1.
</event>
<event>
 4    1  0.1780267E+004  0.2094556E+02  0.7546771E-02  0.1520043E+00
         21   -1    0    0  501  502  0.00000000000E+00  0.00000000000E+00  0.15987903525E+01  0.15987903525E+01  0.00000000000E+00 0. -1.
         21   -1    0    0  502  503 -0.00000000000E+00 -0.00000000000E+00 -0.36356603027E+03  0.36356603027E+03  0.00000000000E+00 0.  1.
          2    1    1    2  501    0 -0.10328144960E+02  0.18222131801E+02 -0.90565824591E+02  0.92956362071E+02  0.00000000000E+00 0. -1.
         -2    1    1    2    0  503  0.10328144960E+02 -0.18222131801E+02 -0.27140141532E+03  0.27220845855E+03  0.00000000000E+00 0.  1.
</event>
<event>
 4    1  0.1780267E+004  0.2327885E+02  0.7546771E-02  0.1489026E+00
         21   -1    0    0  501  502  0.00000000000E+00  0.00000000000E+00  0.26885753025E+03  0.26885753025E+03  0.00000000000E+00 0.  1.
         21   -1    0    0  502  503 -0.00000000000E+00 -0.00000000000E+00 -0.50501436062E+01  0.50501436062E+01  0.00000000000E+00 0. -1.
          2    1    1    2  501    0  0.46451564166E+01  0.22810684935E+02  0.23806596569E+03  0.23920139808E+03  0.00000000000E+00 0.  1.
         -2    1    1    2    0  503 -0.46451564166E+01 -0.22810684935E+02  0.25741420959E+02  0.34706275778E+02  0.00000000000E+00 0. -1.
</event>
<event>
 4    1  0.1780267E+004  0.2056333E+02  0.7546771E-02  0.1525592E+00
         21   -1    0    0  501  502  0.00000000000E+00  0.00000000000E+00  0.51525165471E+01  0.51525165471E+01  0.00000000000E+00 0. -1.
         21   -1    0    0  502  503 -0.00000000000E+00 -0.00000000000E+00 -0.83182768578E+02  0.83182768578E+02  0.00000000000E+00 0.  1.
          2    1    1    2  501    0 -0.17691193420E+01 -0.20487091611E+02 -0.33899398098E+02  0.39648706124E+02  0.00000000000E+00 0. -1.
         -2    1    1    2    0  503  0.17691193420E+01  0.20487091611E+02 -0.44130853933E+02  0.48686579001E+02  0.00000000000E+00 0.  1.
</event>
<event>
 4    1  0.1780267E+004  0.2380602E+02  0.7546771E-02  0.1482618E+00
         21   -1    0    0  503  502  0.00000000000E+00  0.00000000000E+00  0.67220028256E+02  0.67220028256E+02  0.00000000000E+00 0.  1.
         21   -1    0    0  501  503 -0.00000000000E+00 -0.00000000000E+00 -0.27667827545E+02  0.27667827545E+02  0.00000000000E+00 0. -1.
          2    1    1    2  501    0 -0.27278436441E+01  0.23649212088E+02 -0.19784310140E+02  0.30953922063E+02  0.00000000000E+00 0. -1.
         -2    1    1    2    0  502  0.27278436441E+01 -0.23649212088E+02  0.59336510851E+02  0.63933933739E+02  0.00000000000E+00 0.  1.
</event>
<event>
 4    1  0.1780267E+004  0.2294006E+02  0.7546771E-02  0.1493252E+00
         21   -1    0    0  503  502  0.00000000000E+00  0.00000000000E+00  0.14088642908E+02  0.14088642908E+02  0.00000000000E+00 0.  1.
         21   -1    0    0  501  503 -0.00000000000E+00 -0.00000000000E+00 -0.61890361226E+02  0.61890361226E+02  0.00000000000E+00 0. -1.
          2    1    1    2  501    0  0.15179414328E+02 -0.17199759230E+02 -0.47821359273E+02  0.53038936072E+02  0.00000000000E+00 0. -1.
         -2    1    1    2    0  502 -0.15179414328E+02  0.17199759230E+02  0.19640955266E-01  0.22940068062E+02  0.00000000000E+00 0.  1.
</event>
<event>
 4    1  0.1780267E+004  0.2555933E+02  0.7546771E-02  0.1462642E+00
         21   -1    0    0  503  502  0.00000000000E+00  0.00000000000E+00  0.64762074252E+01  0.64762074252E+01  0.00000000000E+00 0. -1.
         21   -1    0    0  501  503 -0.00000000000E+00 -0.00000000000E+00 -0.37007530844E+03  0.37007530844E+03  0.00000000000E+00 0.  1.
          2    1    1    2  501    0 -0.10500634016E+02 -0.23302709684E+02 -0.34237831113E+03  0.34333101743E+03  0.00000000000E+00 0.  1.
         -2    1    1    2    0  502  0.10500634016E+02  0.23302709684E+02 -0.21220789885E+02  0.33220498441E+02  0.00000000000E+00 0. -1.
</event>
<event>
 4    1  0.1780267E+004  0.2315863E+02  0.7546771E-02  0.1490516E+00
         21   -1    0    0  501  502  0.00000000000E+00  0.00000000000E+00  0.48474677753E+02  0.48474677753E+02  0.00000000000E+00 0.  1.
         21   -1    0    0  502  503 -0.00000000000E+00 -0.00000000000E+00 -0.31312471026E+02  0.31312471026E+02  0.00000000000E+00 0. -1.
          2    1    1    2  501    0 -0.22631369170E+02 -0.49135590028E+01  0.40661580400E+02  0.46794081391E+02  0.00000000000E+00 0.  1.
         -2    1    1    2    0  503  0.22631369170E+02  0.49135590028E+01 -0.23499373673E+02  0.32993067388E+02  0.00000000000E+00 0. -1.
</event>
<event>
 4    1  0.1780267E+004  0.2587105E+02  0.7546771E-02  0.1459290E+00
         21   -1    0    0  503  502  0.00000000000E+00  0.00000000000E+00  0.18653173365E+02  0.18653173365E+02  0.00000000000E+00 0. -1.
         21   -1    0    0  501  503 -0.00000000000E+00 -0.00000000000E+00 -0.40859757380E+02  0.40859757380E+02  0.00000000000E+00 0.  1.
          2    1    1    2  501    0  0.22220045126E+02 -0.13250694562E+02 -0.21489443452E+02  0.33631941538E+02  0.00000000000E+00 0.  1.
         -2    1    1    2    0  502 -0.22220045126E+02  0.13250694562E+02 -0.71714056357E+00  0.25880989207E+02  0.00000000000E+00 0. -1.
</event>
<event>
 4    1  0.1780267E+004  0.2073114E+02  0.7546771E-02  0.1523138E+00
         21   -1    0    0  501  502  0.00000000000E+00  0.00000000000E+00  0.37463922824E+03  0.37463922824E+03  0.00000000000E+00 0. -1.
         21   -1    0    0  502  503 -0.00000000000E+00 -0.00000000000E+00 -0.24419208411E+01  0.24419208411E+01  0.00000000000E+00 0.  1.
          2    1    1    2  501    0 -0.73230629389E+01 -0.19394666877E+02  0.32338573981E+03  0.32404955959E+03  0.00000000000E+00 0. -1.
         -2    1    1    2    0  503  0.73230629389E+01  0.19394666877E+02  0.48811567586E+02  0.53031589494E+02  0.00000000000E+00 0.  1.
</event>
<event>
 4    1  0.1780267E+004  0.2022030E+02  0.7546771E-02  0.1530694E+00
         21   -1    0    0  503  502  0.00000000000E+00  0.00000000000E+00  0.70862992143E+00  0.70862992143E+00  0.00000000000E+00 0. -1.
         21   -1    0    0  501  503 -0.00000000000E+00 -0.00000000000E+00 -0.57709149233E+03  0.57709149233E+03  0.00000000000E+00 0.  1.
          2    1    1    2  501    0  0.17601094675E+02  0.99529870235E+01 -0.29232737791E+03  0.29302586295E+03  0.00000000000E+00 0. -1.
         -2    1    1    2    0  502 -0.17601094675E+02 -0.99529870235E+01 -0.28405548450E+03  0.28477425930E+03  0.00000000000E+00 0.  1.
</event>
<event>
 4    1  0.1780267E+004  0.2793587E+02  0.7546771E-02  0.1438427E+00
         21   -1    0    0  503  502  0.00000000000E+00  0.00000000000E+00  0.19910170306E+01  0.19910170306E+01  0.00000000000E+00 0.  1.
         21   -1    0    0  501  503 -0.00000000000E+00 -0.00000000000E+00 -0.57495462895E+03  0.57495462895E+03  0.00000000000E+00 0. -1.
          2    1    1    2  501    0 -0.12503200894E+02 -0.24981648864E+02 -0.44922359178E+03  0.45009137764E+03  0.00000000000E+00 0. -1.
         -2    1    1    2    0  502  0.12503200894E+02  0.24981648864E+02 -0.12374002014E+03  0.12685426834E+03  0.00000000000E+00 0.  1.
</event>
<event>
 4    1  0.1780267E+004  0.2732762E+02  0.7546771E-02  0.1444345E+00
         21   -1    0    0  501  502  0.00000000000E+00  0.00000000000E+00  0.21475721939E+02  0.21475721939E+02  0.00000000000E+00 0. -1.
         21   -1    0    0  502  503 -0.00000000000E+00 -0.00000000000E+00 -0.42888627705E+02  0.42888627705E+02  0.00000000000E+00 0.  1.
          2    1    1    2  501    0 -0.25048984551E+02  0.10924617131E+02  0.32918684262E+01  0.27525175462E+02  0.00000000000E+00 0. -1.
         -2    1    1    2    0  503  0.25048984551E+02 -0.10924617131E+02 -0.24704774193E+02  0.36839174182E+02  0.00000000000E+00 0.  1.
</event>
<event>
 4    1  0.1780267E+004  0.3097215E+02  0.7546771E-02  0.1411332E+00
         21   -1    0    0  501  502  0.00000000000E+00  0.00000000000E+00  0.52663456133E+02  0.52663456133E+02  0.00000000000E+00 0. -1.
         21   -1    0    0  502  503 -0.00000000000E+00 -0.00000000000E+00 -0.25279625296E+02  0.25279625296E+02  0.00000000000E+00 0.  1.
          2    1    1    2  501    0  0.21929642405E+02  0.21871550699E+02  0.34293542358E+02  0.46209533577E+02  0.00000000000E+00 0. -1.
         -2    1    1    2    0  503 -0.21929642405E+02 -0.21871550699E+02 -0.69097115219E+01  0.31733547852E+02  0.00000000000E+00 0.  1.
</event>
<event>
 4    1  0.1780267E+004  0.3949906E+02  0.7546771E-02  0.1351447E+00
         21   -1    0    0  501  502  0.00000000000E+00  0.00000000000E+00  0.19612916533E+02  0.19612916533E+02  0.00000000000E+00 0. -1.
         21   -1    0    0  502  503 -0.00000000000E+00 -0.00000000000E+00 -0.10871538772E+03  0.10871538772E+03  0.00000000000E+00 0.  1.
          2    1    1    2  501    0  0.26201670738E+02 -0.29557540679E+02 -0.11316450120E+02  0.41088171093E+02  0.00000000000E+00 0. -1.
         -2    1    1    2    0  503 -0.26201670738E+02  0.29557540679E+02 -0.77786021071E+02  0.87240133164E+02  0.00000000000E+00 0.  1.
</event>
<event>
 4    1  0.1780267E+004  0.2592214E+02  0.7546771E-02  0.1458746E+00
         21   -1    0    0  503  502  0.00000000000E+00  0.00000000000E+00  0.16983468897E+03  0.16983468897E+03  0.00000000000E+00 0.  1.
         21   -1    0    0  501  503 -0.00000000000E+00 -0.00000000000E+00 -0.45216245060E+01  0.45216245060E+01  0.00000000000E+00 0. -1.
          2    1    1    2  501    0 -0.25706358953E+02 -0.33377397829E+01  0.11347548737E+03  0.11639864102E+03  0.00000000000E+00 0.  1.
         -2    1    1    2    0  502  0.25706358953E+02  0.33377397829E+01  0.51837577093E+02  0.57957672455E+02  0.00000000000E+00 0. -1.
</event>
<event>
 4    1  0.1780267E+004  0.2179226E+02  0.7546771E-02  0.1508247E+00
         21   -1    0    0  501  502  0.00000000000E+00  0.00000000000E+00  0.18742714090E+01  0.18742714090E+01  0.00000000000E+00 0. -1.
         21   -1    0    0  502  503 -0.00000000000E+00 -0.00000000000E+00 -0.11079618329E+04  0.11079618329E+04  0.00000000000E+00 0.  1.
          2    1    1    2  501    0  0.12646918041E+02  0.17747057523E+02 -0.65691141541E+02  0.69211477831E+02  0.00000000000E+00 0. -1.
         -2    1    1    2    0  503 -0.12646918041E+02 -0.17747057523E+02 -0.10403964200E+04  0.10406246265E+04  0.00000000000E+00 0.  1.
</event>
<event>
 4    1  0.1780267E+004  0.2250355E+02  0.7546771E-02  0.1498828E+00
         21   -1    0    0  501  502  0.00000000000E+00  0.00000000000E+00  0.48649278519E+01  0.48649278519E+01  0.00000000000E+00 0. -1.
         21   -1    0    0  502  503 -0.00000000000E+00 -0.00000000000E+00 -0.37945878393E+03  0.37945878393E+03  0.00000000000E+00 0.  1.
          2    1    1    2  501    0 -0.20799904260E+02 -0.85891644801E+01 -0.23600544797E+02  0.32609745144E+02  0.00000000000E+00 0. -1.
         -2    1    1    2    0  503  0.20799904260E+02  0.85891644801E+01 -0.35099331129E+03  0.35171396664E+03  0.00000000000E+00 0.  1.
</event>
<event>
 4    1  0.1780267E+004  0.2163259E+02  0.7546771E-02  0.1510422E+00
         21   -1    0    0  503  502  0.00000000000E+00  0.00000000000E+00  0.28850965722E+03  0.28850965722E+03  0.00000000000E+00 0. -1.
         21   -1    0    0  501  503 -0.00000000000E+00 -0.00000000000E+00 -0.69254400743E+01  0.69254400743E+01  0.00000000000E+00 0.  1.
          2    1    1    2  501    0  0.13789783111E+02 -0.16667658263E+02  0.11525502933E+02  0.24511347741E+02  0.00000000000E+00 0.  1.
         -2    1    1    2    0  502 -0.13789783111E+02  0.16667658263E+02  0.27005871421E+03  0.27092374955E+03  0.00000000000E+00 0. -1.
</event>
<event>
 4    1  0.1780267E+004  0.2298267E+02  0.7546771E-02  0.1492716E+00
         21   -1    0    0  503  502  0.00000000000E+00  0.00000000000E+00  0.14258710858E+02  0.14258710858E+02  0.00000000000E+00 0. -1.
         21   -1    0    0  501  503 -0.00000000000E+00 -0.00000000000E+00 -0.55116720511E+02  0.55116720511E+02  0.00000000000E+00 0.  1.
          2    1    1    2  501    0  0.15056934162E+02 -0.17363516506E+02 -0.40291921149E+02  0.46385793964E+02  0.00000000000E+00 0.  1.
         -2    1    1    2    0  502 -0.15056934162E+02  0.17363516506E+02 -0.56608850313E+00  0.22989637405E+02  0.00000000000E+00 0. -1.
</event>
<event>
 4    1  0.1780267E+004  0.2680601E+02  0.7546771E-02  0.1449567E+00
         21   -1    0    0  501  502  0.00000000000E+00  0.00000000000E+00  0.62840926650E+00  0.62840926650E+00  0.00000000000E+00 0. -1.
         21   -1    0    0  502  503 -0.00000000000E+00 -0.00000000000E+00 -0.13637905348E+04  0.13637905348E+04  0.00000000000E+00 0.  1.
          2    1    1    2  501    0  0.25782715008E+02  0.73357895505E+01 -0.95578844911E+03  0.95616427546E+03  0.00000000000E+00 0.  1.
         -2    1    1    2    0  503 -0.25782715008E+02 -0.73357895505E+01 -0.40737367645E+03  0.40825466864E+03  0.00000000000E+00 0. -1.
</event>
<event>
 4    1  0.1780267E+004  0.2173119E+02  0.7546771E-02  0.1509076E+00
         21   -1    0    0  501  502  0.00000000000E+00  0.00000000000E+00  0.10058448125E+04  0.10058448125E+04  0.00000000000E+00 0.  1.
         21   -1    0    0  502  503 -0.00000000000E+00 -0.00000000000E+00 -0.51766265378E+00  0.51766265378E+00  0.00000000000E+00 0. -1.
          2    1    1    2  501    0 -0.20808448468E+02 -0.62652282126E+01  0.65614439364E+03  0.65650415834E+03  0.00000000000E+00 0.  1.
         -2    1    1    2    0  503  0.20808448468E+02  0.62652282126E+01  0.34918275625E+03  0.34985831685E+03  0.00000000000E+00 0. -1.
</event>
<event>
 4    1  0.1780267E+004  0.2410976E+02  0.7546771E-02  0.1479014E+00
         21   -1    0    0  503  502  0.00000000000E+00  0.00000000000E+00  0.46166169821E+02  0.46166169821E+02  0.00000000000E+00 0.  1.
         21   -1    0    0  501  503 -0.00000000000E+00 -0.00000000000E+00 -0.17049599585E+02  0.17049599585E+02  0.00000000000E+00 0. -1.
          2    1    1    2  501    0 -0.68073325447E+01  0.23128782440E+02 -0.16052127743E+01  0.24163134349E+02  0.00000000000E+00 0. -1.
         -2    1    1    2    0  502  0.68073325447E+01 -0.23128782440E+02  0.30721783011E+02  0.39052635057E+02  0.00000000000E+00 0.  1.
</event>
<event>
 4    1  0.1780267E+004  0.2936798E+02  0.7546771E-02  0.1425169E+00
         21   -1    0    0  503  502  0.00000000000E+00  0.00000000000E+00  0.37718312503E+02  0.37718312503E+02  0.00000000000E+00 0. -1.
         21   -1    0    0  501  503 -0.00000000000E+00 -0.00000000000E+00 -0.29011614856E+02  0.29011614856E+02  0.00000000000E+00 0.  1.
          2    1    1    2  501    0 -0.16894427282E+02 -0.24022006454E+02  0.19709294601E+02  0.35368556105E+02  0.00000000000E+00 0. -1.
         -2    1    1    2    0  502  0.16894427282E+02  0.24022006454E+02 -0.11002596954E+02  0.31361371255E+02  0.00000000000E+00 0.  1.
</event>
<event>
 4    1  0.1780267E+004  0.2048817E+02  0.7546771E-02  0.1526699E+00
         21   -1    0    0  503  502  0.00000000000E+00  0.00000000000E+00  0.30014838780E+03  0.30014838780E+03  0.00000000000E+00 0. -1.
         21   -1    0    0  501  503 -0.00000000000E+00 -0.00000000000E+00 -0.84632132275E+01  0.84632132275E+01  0.00000000000E+00 0.  1.
          2    1    1    2  501    0  0.19898780890E+02 -0.48788842501E+01  0.48614161042E+01  0.21057026356E+02  0.00000000000E+00 0.  1.
         -2    1    1    2    0  502 -0.19898780890E+02  0.48788842501E+01  0.28682375847E+03  0.28755457467E+03  0.00000000000E+00 0. -1.
</event>
<event>
 4    1  0.1780267E+004  0.2509263E+02  0.7546771E-02  0.1467770E+00
         21   -1    0    0  503  502  0.00000000000E+00  0.00000000000E+00  0.18092268953E+01  0.18092268953E+01  0.00000000000E+00 0.  1.
         21   -1    0    0  501  503 -0.00000000000E+00 -0.00000000000E+00 -0.41587121308E+03  0.41587121308E+03  0.00000000000E+00 0. -1.
          2    1    1    2  501    0 -0.36748548802E+01 -0.24822073972E+02 -0.29138899965E+03  0.29246741534E+03  0.00000000000E+00 0.  1.
         -2    1    1    2    0  502  0.36748548802E+01  0.24822073972E+02 -0.12267298653E+03  0.12521302464E+03  0.00000000000E+00 0. -1.
</event>
<event>
 4    1  0.1780267E+004  0.2186786E+02  0.7546771E-02  0.1507226E+00
         21   -1    0    0  503  502  0.00000000000E+00  0.00000000000E+00  0.10707143494E+02  0.10707143494E+02  0.00000000000E+00 0. -1.
         21   -1    0    0  501  503 -0.00000000000E+00 -0.00000000000E+00 -0.83284621226E+02  0.83284621226E+02  0.00000000000E+00 0.  1.
          2    1    1    2  501    0 -0.60186968395E+01 -0.21023289755E+02 -0.68292259589E+02  0.71707992187E+02  0.00000000000E+00 0.  1.
         -2    1    1    2    0  502  0.60186968395E+01  0.21023289755E+02 -0.42852181424E+01  0.22283772533E+02  0.00000000000E+00 0. -1.
</event>
<event>
 4    1  0.1780267E+004  0.2396717E+02  0.7546771E-02  0.1480698E+00
         21   -1    0    0  501  502  0.00000000000E+00  0.00000000000E+00  0.13218521661E+04  0.13218521661E+04  0.00000000000E+00 0. -1.
         21   -1    0    0  502  503 -0.00000000000E+00 -0.00000000000E+00 -0.51497841819E+00  0.51497841819E+00  0.00000000000E+00 0.  1.
          2    1    1    2  501    0  0.23629091782E+02  0.40113802622E+01  0.92194675560E+03  0.92225823136E+03  0.00000000000E+00 0. -1.
         -2    1    1    2    0  503 -0.23629091782E+02 -0.40113802622E+01  0.39939043207E+03  0.40010891314E+03  0.00000000000E+00 0.  1.
</event>
<event>
 4    1  0.1780267E+004  0.2254064E+02  0.7546771E-02  0.1498348E+00
         21   -1    0    0  503  502  0.00000000000E+00  0.00000000000E+00  0.14621259273E+03  0.14621259273E+03  0.00000000000E+00 0. -1.
         21   -1    0    0  501  503 -0.00000000000E+00 -0.00000000000E+00 -0.41954709859E+01  0.41954709859E+01  0.00000000000E+00 0.  1.
          2    1    1    2  501    0  0.72787152408E+01 -0.21333090363E+02  0.39842912885E+02  0.45777048257E+02  0.00000000000E+00 0.  1.
         -2    1    1    2    0  502 -0.72787152408E+01  0.21333090363E+02  0.10217420886E+03  0.10463101546E+03  0.00000000000E+00 0. -1.
</event>
<event>
 4    1  0.1780267E+004  0.2020730E+02  0.7546771E-02  0.1530890E+00
         21   -1    0    0  501  502  0.00000000000E+00  0.00000000000E+00  0.97018220970E+01  0.97018220970E+01  0.00000000000E+00 0. -1.
         21   -1    0    0  502  503 -0.00000000000E+00 -0.00000000000E+00 -0.53551363886E+02  0.53551363886E+02  0.00000000000E+00 0.  1.
          2    1    1    2  501    0 -0.20204783931E+02  0.31877636365E+00 -0.72924184625E+01  0.21482883399E+02  0.00000000000E+00 0. -1.
         -2    1    1    2    0  503  0.20204783931E+02 -0.31877636365E+00 -0.36557123326E+02  0.41770302584E+02  0.00000000000E+00 0.  1.
</event>
<event>
 4    1  0.1780267E+004  0.2943350E+02  0.7546771E-02  0.1424584E+00
         21   -1    0    0  503  502  0.00000000000E+00  0.00000000000E+00  0.17963129478E+02  0.17963129478E+02  0.00000000000E+00 0.  1.
         21   -1    0    0  501  503 -0.00000000000E+00 -0.00000000000E+00 -0.52365519244E+02  0.52365519244E+02  0.00000000000E+00 0. -1.
          2    1    1    2  501    0  0.16104631493E+02 -0.24636795754E+02 -0.27085242356E+02  0.39999265168E+02  0.00000000000E+00 0. -1.
         -2    1    1    2    0  502 -0.16104631493E+02  0.24636795754E+02 -0.73171474099E+01  0.30329383554E+02  0.00000000000E+00 0.  1.
</event>
<event>
 4    1  0.1780267E+004  0.2720344E+02  0.7546771E-02  0.1445575E+00
         21   -1    0    0  503  502  0.00000000000E+00  0.00000000000E+00  0.27758661519E+02  0.27758661519E+02  0.00000000000E+00 0.  1.
         21   -1    0    0  501  503 -0.00000000000E+00 -0.00000000000E+00 -0.41637644220E+02  0.41637644220E+02  0.00000000000E+00 0. -1.
          2    1    1    2  501    0 -0.21940216186E+02 -0.16082726269E+02 -0.27750581310E+02  0.38860287359E+02  0.00000000000E+00 0. -1.
         -2    1    1    2    0  502  0.21940216186E+02  0.16082726269E+02  0.13871598610E+02  0.30536018380E+02  0.00000000000E+00 0.  1.
</event>
<event>
 4    1  0.1780267E+004  0.4545574E+02  0.7546771E-02  0.1319176E+00
         21   -1    0    0  503  502  0.00000000000E+00  0.00000000000E+00  0.39106358330E+02  0.39106358330E+02  0.00000000000E+00 0. -1.
         21   -1    0    0  501  503 -0.00000000000E+00 -0.00000000000E+00 -0.14009686388E+03  0.14009686388E+03  0.00000000000E+00 0.  1.
          2    1    1    2  501    0 -0.44151408713E+02 -0.10811000682E+02 -0.12121021234E+03  0.12945323558E+03  0.00000000000E+00 0.  1.
         -2    1    1    2    0  502  0.44151408713E+02  0.10811000682E+02  0.20219706787E+02  0.49749986630E+02  0.00000000000E+00 0. -1.
</event>
<event>
 4    1  0.1780267E+004  0.3605866E+02  0.7546771E-02  0.1373269E+00
         21   -1    0    0  503  502  0.00000000000E+00  0.00000000000E+00  0.34523195442E+02  0.34523195442E+02  0.00000000000E+00 0. -1.
         21   -1    0    0  501  503 -0.00000000000E+00 -0.00000000000E+00 -0.11381565987E+03  0.11381565987E+03  0.00000000000E+00 0.  1.
          2    1    1    2  501    0  0.33527535661E+02 -0.13271441420E+02 -0.10031541332E+03  0.10659929153E+03  0.00000000000E+00 0.  1.
         -2    1    1    2    0  502 -0.33527535661E+02  0.13271441420E+02  0.21022948891E+02  0.41739563785E+02  0.00000000000E+00 0. -1.
</event>
<event>
 4    1  0.1780267E+004  0.2482769E+02  0.7546771E-02  0.1470740E+00
         21   -1    0    0  503  502  0.00000000000E+00  0.00000000000E+00  0.29336734942E+02  0.29336734942E+02  0.00000000000E+00 0. -1.
         21   -1    0    0  501  503 -0.00000000000E+00 -0.00000000000E+00 -0.34574330498E+02  0.34574330498E+02  0.00000000000E+00 0.  1.
          2    1    1    2  501    0 -0.38886444879E+01  0.24521266623E+02 -0.22633146627E+02  0.33595734833E+02  0.00000000000E+00 0.  1.
         -2    1    1    2    0  502  0.38886444879E+01 -0.24521266623E+02  0.17395551071E+02  0.30315330607E+02  0.00000000000E+00 0. -1.
</event>
<event>
 4    1  0.1780267E+004  0.2659715E+02  0.7546771E-02  0.1451697E+00
         21   -1    0    0  501  502  0.00000000000E+00  0.00000000000E+00  0.92746027740E+01  0.92746027740E+01  0.00000000000E+00 0. -1.
         21   -1    0    0  502  503 -0.00000000000E+00 -0.00000000000E+00 -0.76365908853E+02  0.76365908853E+02  0.00000000000E+00 0.  1.
          2    1    1    2  501    0  0.22416214937E+02 -0.14315087714E+02 -0.32057849818E+02  0.41654701575E+02  0.00000000000E+00 0. -1.
         -2    1    1    2    0  503 -0.22416214937E+02  0.14315087714E+02 -0.35033456261E+02  0.43985810052E+02  0.00000000000E+00 0.  1.
</event>
<event>
 4    1  0.1780267E+004  0.3030455E+02  0.7546771E-02  0.1416968E+00
         21   -1    0    0  503  502  0.00000000000E+00  0.00000000000E+00  0.41165279208E+01  0.41165279208E+01  0.00000000000E+00 0. -1.
         21   -1    0    0  501  503 -0.00000000000E+00 -0.00000000000E+00 -0.29598109154E+03  0.29598109154E+03  0.00000000000E+00 0.  1.
          2    1    1    2  501    0  0.17970573976E+02 -0.24401311211E+02 -0.22039365905E+03  0.22246736944E+03  0.00000000000E+00 0.  1.
         -2    1    1    2    0  502 -0.17970573976E+02  0.24401311211E+02 -0.71470904576E+02  0.77630250024E+02  0.00000000000E+00 0. -1.
</event>
<event>
 4    1  0.1780267E+004  0.2406186E+02  0.7546771E-02  0.1479578E+00
         21   -1    0    0  503  502  0.00000000000E+00  0.00000000000E+00  0.34248038373E+03  0.34248038373E+03  0.00000000000E+00 0.  1.
         21   -1    0    0  501  503 -0.00000000000E+00 -0.00000000000E+00 -0.26847631993E+01  0.26847631993E+01  0.00000000000E+00 0. -1.
          2    1    1    2  501    0 -0.22100662445E+02  0.95149166895E+01  0.64873857297E+02  0.69192414908E+02  0.00000000000E+00 0. -1.
         -2    1    1    2    0  502  0.22100662445E+02 -0.95149166895E+01  0.27492176323E+03  0.27597273202E+03  0.00000000000E+00 0.  1.
</event>
<event>
 4    1  0.1780267E+004  0.2715042E+02  0.7546771E-02  0.1446103E+00
         21   -1    0    0  501  502  0.00000000000E+00  0.00000000000E+00  0.75558772221E+01  0.75558772221E+01  0.00000000000E+00 0.  1.
         21   -1    0    0  502  503 -0.00000000000E+00 -0.00000000000E+00 -0.28219681508E+03  0.28219681508E+03  0.00000000000E+00 0. -1.
          2    1    1    2  501    0 -0.53537780466E+01  0.26617327558E+02 -0.20132894960E+02  0.33800569894E+02  0.00000000000E+00 0.  1.
         -2    1    1    2    0  503  0.53537780466E+01 -0.26617327558E+02 -0.25450804290E+03  0.25595212241E+03  0.00000000000E+00 0. -1.
</event>
<event>
 4    1  0.1780267E+004  0.2420743E+02  0.7546771E-02  0.1477869E+00
         21   -1    0    0  501  502  0.00000000000E+00  0.00000000000E+00  0.92443218934E+01  0.92443218934E+01  0.00000000000E+00 0. -1.
         21   -1    0    0  502  503 -0.00000000000E+00 -0.00000000000E+00 -0.66872289091E+02  0.66872289091E+02  0.00000000000E+00 0.  1.
          2    1    1    2  501    0 -0.23750416569E+02 -0.46815878772E+01 -0.20129472840E+02  0.31483253153E+02  0.00000000000E+00 0. -1.
         -2    1    1    2    0  503  0.23750416569E+02  0.46815878772E+01 -0.37498494357E+02  0.44633357831E+02  0.00000000000E+00 0.  1.
</event>
<event>
 4    1  0.1780267E+004  0.2577577E+02  0.7546771E-02  0.1460309E+00
         21   -1    0    0  503  502  0.00000000000E+00  0.00000000000E+00  0.69494269989E+03  0.69494269989E+03  0.00000000000E+00 0.  1.
         21   -1    0    0  501  503 -0.00000000000E+00 -0.00000000000E+00 -0.73977794925E+01  0.73977794925E+01  0.00000000000E+00 0. -1.
          2    1    1    2  501    0 -0.10988399502E+02 -0.23316202455E+02  0.16078280632E+02  0.30379291114E+02  0.00000000000E+00 0. -1.
         -2    1    1    2    0  502  0.10988399502E+02  0.23316202455E+02  0.67146663977E+03  0.67196118827E+03  0.00000000000E+00 0.  1.
</event>
<event>
 4    1  0.1780267E+004  0.2137331E+02  0.7546771E-02  0.1514001E+00
         21   -1    0    0  501  502  0.00000000000E+00  0.00000000000E+00  0.15252765486E+02  0.15252765486E+02  0.00000000000E+00 0.  1.
         21   -1    0    0  502  503 -0.00000000000E+00 -0.00000000000E+00 -0.53610437514E+02  0.53610437514E+02  0.00000000000E+00 0. -1.
          2    1    1    2  501    0 -0.10303655735E+02  0.18725730472E+02  0.36953237637E+01  0.21690406196E+02  0.00000000000E+00 0.  1.
         -2    1    1    2    0  503  0.10303655735E+02 -0.18725730472E+02 -0.42052995792E+02  0.47172796804E+02  0.00000000000E+00 0. -1.
</event>
<event>
 4    1  0.1780267E+004  0.2295258E+02  0.7546771E-02  0.1493094E+00
         21   -1    0    0  501  502  0.00000000000E+00  0.00000000000E+00  0.48425995977E+01  0.48425995977E+01  0.00000000000E+00 0.  1.
         21   -1    0    0  502  503 -0.00000000000E+00 -0.00000000000E+00 -0.12290159754E+03  0.12290159754E+03  0.00000000000E+00 0. -1.
          2    1    1    2  501    0  0.22740053622E+01 -0.22839653069E+02 -0.37385466770E+02  0.43869054905E+02  0.00000000000E+00 0. -1.
         -2    1    1    2    0  503 -0.22740053622E+01  0.22839653069E+02 -0.80673531175E+02  0.83875142235E+02  0.00000000000E+00 0.  1.
</event>
<event>
 4    1  0.1780267E+004  0.3472096E+02  0.7546771E-02  0.1382536E+00
         21   -1    0    0  503  502  0.00000000000E+00  0.00000000000E+00  0.10058201115E+04  0.10058201115E+04  0.00000000000E+00 0.  1.
         21   -1    0    0  501  503 -0.00000000000E+00 -0.00000000000E+00 -0.12205441034E+01  0.12205441034E+01  0.00000000000E+00 0. -1.
          2    1    1    2  501    0 -0.34624989981E+02 -0.25797147142E+01  0.43473736287E+03  0.43612167973E+03  0.00000000000E+00 0. -1.
         -2    1    1    2    0  502  0.34624989981E+02  0.25797147142E+01  0.56986220448E+03  0.57091897582E+03  0.00000000000E+00 0.  1.
</event>
<event>
 4    1  0.1780267E+004  0.2474418E+02  0.7546771E-02  0.1471686E+00
         21   -1    0    0  503  502  0.00000000000E+00  0.00000000000E+00  0.55220869655E+01  0.55220869655E+01  0.00000000000E+00 0. -1.
         21   -1    0    0  501  503 -0.00000000000E+00 -0.00000000000E+00 -0.15615168100E+03  0.15615168100E+03  0.00000000000E+00 0.  1.
          2    1    1    2  501    0  0.75289943975E+01  0.23570926492E+02 -0.11884215281E+03  0.12139082180E+03  0.00000000000E+00 0.  1.
         -2    1    1    2    0  502 -0.75289943975E+01 -0.23570926492E+02 -0.31787441227E+02  0.40282946169E+02  0.00000000000E+00 0. -1.
</event>
<event>
 4    1  0.1780267E+004  0.2337691E+02  0.7546771E-02  0.1487819E+00
         21   -1    0    0  503  502  0.00000000000E+00  0.00000000000E+00  0.12826036211E+03  0.12826036211E+03  0.00000000000E+00 0. -1.
         21   -1    0    0  501  503 -0.00000000000E+00 -0.00000000000E+00 -0.59142231984E+01  0.59142231984E+01  0.00000000000E+00 0.  1.
          2    1    1    2  501    0  0.13195736331E+02  0.19296438539E+02  0.25700270417E+02  0.34741673781E+02  0.00000000000E+00 0.  1.
         -2    1    1    2    0  502 -0.13195736331E+02 -0.19296438539E+02  0.96645868491E+02  0.99432911523E+02  0.00000000000E+00 0. -1.
</event>
<event>
 4    1  0.1780267E+004  0.2231707E+02  0.7546771E-02  0.1501256E+00
         21   -1    0    0  501  502  0.00000000000E+00  0.00000000000E+00  0.27512118854E+02  0.27512118854E+02  0.00000000000E+00 0. -1.
         21   -1    0    0  502  503 -0.00000000000E+00 -0.00000000000E+00 -0.21663078105E+02  0.21663078105E+02  0.00000000000E+00 0.  1.
          2    1    1    2  501    0 -0.18126495490E+02 -0.13018515986E+02  0.12892024783E+02  0.25773162403E+02  0.00000000000E+00 0. -1.
         -2    1    1    2    0  503  0.18126495490E+02  0.13018515986E+02 -0.70429840344E+01  0.23402034556E+02  0.00000000000E+00 0.  1.
</event>
<event>
 4    1  0.1780267E+004  0.2337653E+02  0.7546771E-02  0.1487823E+00
         21   -1    0    0  503  502  0.00000000000E+00  0.00000000000E+00  0.27432852520E+03  0.27432852520E+03  0.00000000000E+00 0.  1.
         21   -1    0    0  501  503 -0.00000000000E+00 -0.00000000000E+00 -0.21803660163E+01  0.21803660163E+01  0.00000000000E+00 0. -1.
          2    1    1    2  501    0 -0.20104438958E+02  0.11927848133E+02  0.17671067739E+03  0.17825017680E+03  0.00000000000E+00 0.  1.
         -2    1    1    2    0  502  0.20104438958E+02 -0.11927848133E+02  0.95437481790E+02  0.98258714409E+02  0.00000000000E+00 0. -1.
</event>
<event>
 4    1  0.1780267E+004  0.3103223E+02  0.7546771E-02  0.1410833E+00
         21   -1    0    0  503  502  0.00000000000E+00  0.00000000000E+00  0.36728445868E+02  0.36728445868E+02  0.00000000000E+00 0.  1.
         21   -1    0    0  501  503 -0.00000000000E+00 -0.00000000000E+00 -0.38033553498E+02  0.38033553498E+02  0.00000000000E+00 0. -1.
          2    1    1    2  501    0  0.31030548415E+02  0.32341933128E+00 -0.21486325616E+02  0.37744691328E+02  0.00000000000E+00 0. -1.
         -2    1    1    2    0  502 -0.31030548415E+02 -0.32341933128E+00  0.20181217986E+02  0.37017308038E+02  0.00000000000E+00 0.  1.
</event>
<event>
 4    1  0.1780267E+004  0.2222057E+02  0.7546771E-02  0.1502524E+00
         21   -1    0    0  503  502  0.00000000000E+00  0.00000000000E+00  0.69149772178E+01  0.69149772178E+01  0.00000000000E+00 0. -1.
         21   -1    0    0  501  503 -0.00000000000E+00 -0.00000000000E+00 -0.10649802593E+03  0.10649802593E+03  0.00000000000E+00 0.  1.
          2    1    1    2  501    0 -0.19007369324E+02 -0.11509713142E+02 -0.82343830231E+02  0.85289272258E+02  0.00000000000E+00 0.  1.
         -2    1    1    2    0  502  0.19007369324E+02  0.11509713142E+02 -0.17239218477E+02  0.28123730886E+02  0.00000000000E+00 0. -1.
</event>
<event>
 4    1  0.1780267E+004  0.2394162E+02  0.7546771E-02  0.1481001E+00
         21   -1    0    0  503  502  0.00000000000E+00  0.00000000000E+00  0.38998878769E+03  0.38998878769E+03  0.00000000000E+00 0.  1.
         21   -1    0    0  501  503 -0.00000000000E+00 -0.00000000000E+00 -0.16945850462E+01  0.16945850462E+01  0.00000000000E+00 0. -1.
          2    1    1    2  501    0 -0.23570719357E+02  0.41979251749E+01  0.12281789332E+03  0.12512967796E+03  0.00000000000E+00 0. -1.
         -2    1    1    2    0  502  0.23570719357E+02 -0.41979251749E+01  0.26547630932E+03  0.26655369477E+03  0.00000000000E+00 0.  1.
</event>
<event>
 4    1  0.1780267E+004  0.3472850E+02  0.7546771E-02  0.1382482E+00
         21   -1    0    0  503  502  0.00000000000E+00  0.00000000000E+00  0.20568589606E+03  0.20568589606E+03  0.00000000000E+00 0. -1.
         21   -1    0    0  501  503 -0.00000000000E+00 -0.00000000000E+00 -0.62106397761E+01  0.62106397761E+01  0.00000000000E+00 0.  1.
          2    1    1    2  501    0  0.11003563928E+02 -0.32939192794E+02  0.12478071582E+03  0.12952334107E+03  0.00000000000E+00 0. -1.
         -2    1    1    2    0  502 -0.11003563928E+02  0.32939192794E+02  0.74694540464E+02  0.82373194768E+02  0.00000000000E+00 0.  1.
</event>
<event>
 4    1  0.1780267E+004  0.2094093E+02  0.7546771E-02  0.1520110E+00
         21   -1    0    0  501  502  0.00000000000E+00  0.00000000000E+00  0.21413839113E+02  0.21413839113E+02  0.00000000000E+00 0. -1.
         21   -1    0    0  502  503 -0.00000000000E+00 -0.00000000000E+00 -0.32157663297E+02  0.32157663297E+02  0.00000000000E+00 0.  1.
          2    1    1    2  501    0 -0.11189569786E+02 -0.17700735168E+02  0.10770489767E+02  0.23548374621E+02  0.00000000000E+00 0. -1.
         -2    1    1    2    0  503  0.11189569786E+02  0.17700735168E+02 -0.21514313950E+02  0.30023127789E+02  0.00000000000E+00 0.  1.
</event>
<event>
 4    1  0.1780267E+004  0.2956400E+02  0.7546771E-02  0.1423424E+00
         21   -1    0    0  501  502  0.00000000000E+00  0.00000000000E+00  0.48815943793E+03  0.48815943793E+03  0.00000000000E+00 0.  1.
         21   -1    0    0  502  503 -0.00000000000E+00 -0.00000000000E+00 -0.74278957171E+01  0.74278957171E+01  0.00000000000E+00 0. -1.
          2    1    1    2  501    0  0.17915966379E+02  0.23516983221E+02  0.45623864482E+03  0.45719550673E+03  0.00000000000E+00 0.  1.
         -2    1    1    2    0  503 -0.17915966379E+02 -0.23516983221E+02  0.24492897398E+02  0.38391826917E+02  0.00000000000E+00 0. -1.
</event>
<event>
 4    1  0.1780267E+004  0.2230054E+02  0.7546771E-02  0.1501473E+00
         21   -1    0    0  501  502  0.00000000000E+00  0.00000000000E+00  0.10200893258E+02  0.10200893258E+02  0.00000000000E+00 0. -1.
         21   -1    0    0  502  503 -0.00000000000E+00 -0.00000000000E+00 -0.69952166286E+02  0.69952166286E+02  0.00000000000E+00 0.  1.
          2    1    1    2  501    0 -0.17316310402E+02  0.14052026960E+02 -0.78129172718E+01  0.23629552343E+02  0.00000000000E+00 0.  1.
         -2    1    1    2    0  503  0.17316310402E+02 -0.14052026960E+02 -0.51938355756E+02  0.56523507201E+02  0.00000000000E+00 0. -1.
</event>
<event>
 4    1  0.1780267E+004  0.3574473E+02  0.7546771E-02  0.1375402E+00
         21   -1    0    0  501  502  0.00000000000E+00  0.00000000000E+00  0.30338367117E+03  0.30338367117E+03  0.00000000000E+00 0.  1.
         21   -1    0    0  502  503 -0.00000000000E+00 -0.00000000000E+00 -0.17262759780E+02  0.17262759780E+02  0.00000000000E+00 0. -1.
          2    1    1    2  501    0  0.32564532077E+02  0.14738958699E+02  0.28246223693E+03  0.28471494682E+03  0.00000000000E+00 0.  1.
         -2    1    1    2    0  503 -0.32564532077E+02 -0.14738958699E+02  0.36586744627E+01  0.35931484129E+02  0.00000000000E+00 0. -1.
</event>
<event>
 4    1  0.1780267E+004  0.2422613E+02  0.7546771E-02  0.1477650E+00
         21   -1    0    0  503  502  0.00000000000E+00  0.00000000000E+00  0.30764093237E+01  0.30764093237E+01  0.00000000000E+00 0.  1.
         21   -1    0    0  501  503 -0.00000000000E+00 -0.00000000000E+00 -0.99463196811E+03  0.99463196811E+03  0.00000000000E+00 0. -1.
          2    1    1    2  501    0  0.91368623895E+01 -0.22437089373E+02 -0.94424584339E+03  0.94455657216E+03  0.00000000000E+00 0. -1.
         -2    1    1    2    0  502 -0.91368623895E+01  0.22437089373E+02 -0.47309715387E+02  0.53151805274E+02  0.00000000000E+00 0.  1.
</event>
<event>
 4    1  0.1780267E+004  0.2241987E+02  0.7546771E-02  0.1499914E+00
         21   -1    0    0  503  502  0.00000000000E+00  0.00000000000E+00  0.22891196182E+03  0.22891196182E+03  0.00000000000E+00 0. -1.
         21   -1    0    0  501  503 -0.00000000000E+00 -0.00000000000E+00 -0.41294673171E+01  0.41294673171E+01  0.00000000000E+00 0.  1.
          2    1    1    2  501    0 -0.10815701182E+02  0.19638511235E+02  0.32657121040E+02  0.39612347446E+02  0.00000000000E+00 0.  1.
         -2    1    1    2    0  502  0.10815701182E+02 -0.19638511235E+02  0.19212537346E+03  0.19342908169E+03  0.00000000000E+00 0. -1.
</event>
<event>
 4    1  0.1780267E+004  0.2499455E+02  0.7546771E-02  0.1468864E+00
         21   -1    0    0  503  502  0.00000000000E+00  0.00000000000E+00  0.70693321201E+01  0.70693321201E+01  0.00000000000E+00 0. -1.
         21   -1    0    0  501  503 -0.00000000000E+00 -0.00000000000E+00 -0.11939850981E+03  0.11939850981E+03  0.00000000000E+00 0.  1.
          2    1    1    2  501    0 -0.22859868172E+02  0.10107126256E+02 -0.23930119085E+02  0.34603152651E+02  0.00000000000E+00 0. -1.
         -2    1    1    2    0  502  0.22859868172E+02 -0.10107126256E+02 -0.88399058609E+02  0.91864689283E+02  0.00000000000E+00 0.  1.
</event>
<event>
 4    1  0.1780267E+004  0.2552243E+02  0.7546771E-02  0.1463043E+00
         21   -1    0    0  503  502  0.00000000000E+00  0.00000000000E+00  0.32896750350E+03  0.32896750350E+03  0.00000000000E+00 0.  1.
         21   -1    0    0  501  503 -0.00000000000E+00 -0.00000000000E+00 -0.20280783569E+01  0.20280783569E+01  0.00000000000E+00 0. -1.
          2    1    1    2  501    0 -0.18717714013E+02 -0.17350555554E+02  0.18891980572E+03  0.19063600812E+03  0.00000000000E+00 0.  1.
         -2    1    1    2    0  502  0.18717714013E+02  0.17350555554E+02  0.13801961942E+03  0.14035957374E+03  0.00000000000E+00 0. -1.
</event>
<event>
 4    1  0.1780267E+004  0.2518833E+02  0.7546771E-02  0.1466707E+00
         21   -1    0    0  503  502  0.00000000000E+00  0.00000000000E+00  0.51522328033E+02  0.51522328033E+02  0.00000000000E+00 0. -1.
         21   -1    0    0  501  503 -0.00000000000E+00 -0.00000000000E+00 -0.16872848656E+02  0.16872848656E+02  0.00000000000E+00 0.  1.
          2    1    1    2  501    0 -0.22821962038E+02 -0.10658808409E+02 -0.45081368056E+00  0.25192367513E+02  0.00000000000E+00 0.  1.
         -2    1    1    2    0  502  0.22821962038E+02  0.10658808409E+02  0.35100293057E+02  0.43202809175E+02  0.00000000000E+00 0. -1.
</event>
<event>
 4    1  0.1780267E+004  0.2228694E+02  0.7546771E-02  0.1501652E+00
         21   -1    0    0  501  502  0.00000000000E+00  0.00000000000E+00  0.21343621995E+02  0.21343621995E+02  0.00000000000E+00 0. -1.
         21   -1    0    0  502  503 -0.00000000000E+00 -0.00000000000E+00 -0.30089901084E+02  0.30089901084E+02  0.00000000000E+00 0.  1.
          2    1    1    2  501    0  0.22272907113E+02  0.79074191081E+00  0.78683114352E+01  0.23635100780E+02  0.00000000000E+00 0. -1.
         -2    1    1    2    0  503 -0.22272907113E+02 -0.79074191081E+00 -0.16614590524E+02  0.27798422299E+02  0.00000000000E+00 0.  1.
</event>
<event>
 4    1  0.1780267E+004  0.2275738E+02  0.7546771E-02  0.1495567E+00
         21   -1    0    0  501  502  0.00000000000E+00  0.00000000000E+00  0.21678784055E+01  0.21678784055E+01  0.00000000000E+00 0.  1.
         21   -1    0    0  502  503 -0.00000000000E+00 -0.00000000000E+00 -0.40452799467E+03  0.40452799467E+03  0.00000000000E+00 0. -1.
          2    1    1    2  501    0 -0.15917142407E+02  0.16264781823E+02 -0.71062187477E+02  0.74617243578E+02  0.00000000000E+00 0.  1.
         -2    1    1    2    0  503  0.15917142407E+02 -0.16264781823E+02 -0.33129792878E+03  0.33207862949E+03  0.00000000000E+00 0. -1.
</event>
<event>
 4    1  0.1780267E+004  0.3572511E+02  0.7546771E-02  0.1375536E+00
         21   -1    0    0  503  502  0.00000000000E+00  0.00000000000E+00  0.36842028154E+03  0.36842028154E+03  0.00000000000E+00 0.  1.
         21   -1    0    0  501  503 -0.00000000000E+00 -0.00000000000E+00 -0.15793227175E+02  0.15793227175E+02  0.00000000000E+00 0. -1.
          2    1    1    2  501    0 -0.20450999092E+01 -0.35666521329E+02  0.65784821119E+01  0.36325742997E+02  0.00000000000E+00 0. -1.
         -2    1    1    2    0  502  0.20450999092E+01  0.35666521329E+02  0.34604857225E+03  0.34788776572E+03  0.00000000000E+00 0.  1.
</event>
<event>
 4    1  0.1780267E+004  0.2333475E+02  0.7546771E-02  0.1488337E+00
         21   -1    0    0  503  502  0.00000000000E+00  0.00000000000E+00  0.31158416659E+03  0.31158416659E+03  0.00000000000E+00 0. -1.
         21   -1    0    0  501  503 -0.00000000000E+00 -0.00000000000E+00 -0.12213439238E+02  0.12213439238E+02  0.00000000000E+00 0.  1.
          2    1    1    2  501    0 -0.15877861867E+02  0.17099821816E+02 -0.18391505018E+00  0.23335471462E+02  0.00000000000E+00 0.  1.
         -2    1    1    2    0  502  0.15877861867E+02 -0.17099821816E+02  0.29955464240E+03  0.30046213436E+03  0.00000000000E+00 0. -1.
</event>
<event>
 4    1  0.1780267E+004  0.3683888E+02  0.7546771E-02  0.1368077E+00
         21   -1    0    0  503  502  0.00000000000E+00  0.00000000000E+00  0.10170586290E+03  0.10170586290E+03  0.00000000000E+00 0.  1.
         21   -1    0    0  501  503 -0.00000000000E+00 -0.00000000000E+00 -0.45521535635E+02  0.45521535635E+02  0.00000000000E+00 0. -1.
          2    1    1    2  501    0  0.36629789037E+02 -0.39194012845E+01 -0.33799271593E+02  0.49994938859E+02  0.00000000000E+00 0. -1.
         -2    1    1    2    0  502 -0.36629789037E+02  0.39194012845E+01  0.89983598861E+02  0.97232459680E+02  0.00000000000E+00 0.  1.
</event>
<event>
 4    1  0.1780267E+004  0.2111458E+02  0.7546771E-02  0.1517635E+00
         21   -1    0    0  503  502  0.00000000000E+00  0.00000000000E+00  0.67220891921E+02  0.67220891921E+02  0.00000000000E+00 0.  1.
         21   -1    0    0  501  503 -0.00000000000E+00 -0.00000000000E+00 -0.78103103005E+01  0.78103103005E+01  0.00000000000E+00 0. -1.
          2    1    1    2  501    0  0.11436462300E+02 -0.17749159877E+02  0.15135186488E+02  0.25978822459E+02  0.00000000000E+00 0. -1.
         -2    1    1    2    0  502 -0.11436462300E+02  0.17749159877E+02  0.44275395132E+02  0.49052379763E+02  0.00000000000E+00 0.  1.
</event>
<event>
 4    1  0.1780267E+004  0.8291560E+02  0.7546771E-02  0.1197236E+00
         21   -1    0    0  503  502  0.00000000000E+00  0.00000000000E+00  0.15498928374E+03  0.15498928374E+03  0.00000000000E+00 0. -1.
         21   -1    0    0  501  503 -0.00000000000E+00 -0.00000000000E+00 -0.16284344527E+03  0.16284344527E+03  0.00000000000E+00 0.  1.
          2    1    1    2  501    0  0.75244751364E+02  0.34831366701E+02 -0.13948228470E+03  0.16226615315E+03  0.00000000000E+00 0.  1.
         -2    1    1    2    0  502 -0.75244751364E+02 -0.34831366701E+02  0.13162812317E+03  0.15556657586E+03  0.00000000000E+00 0. -1.
</event>
<event>
 4    1  0.1780267E+004  0.2578516E+02  0.7546771E-02  0.1460208E+00
         21   -1    0    0  501  502  0.00000000000E+00  0.00000000000E+00  0.56996247183E+01  0.56996247183E+01  0.00000000000E+00 0.  1.
         21   -1    0    0  502  503 -0.00000000000E+00 -0.00000000000E+00 -0.22489393650E+03  0.22489393650E+03  0.00000000000E+00 0. -1.
          2    1    1    2  501    0 -0.79399604380E+01 -0.24532250970E+02 -0.29609035675E+02  0.39262823421E+02  0.00000000000E+00 0.  1.
         -2    1    1    2    0  503  0.79399604380E+01  0.24532250970E+02 -0.18958527611E+03  0.19133073780E+03  0.00000000000E+00 0. -1.
</event>
<event>
 4    1  0.1780267E+004  0.2696936E+02  0.7546771E-02  0.1447916E+00
         21   -1    0    0  501  502  0.00000000000E+00  0.00000000000E+00  0.37100632256E+03  0.37100632256E+03  0.00000000000E+00 0.  1.
         21   -1    0    0  502  503 -0.00000000000E+00 -0.00000000000E+00 -0.27166546013E+01  0.27166546013E+01  0.00000000000E+00 0. -1.
          2    1    1    2  501    0  0.22840993014E+02 -0.14339984599E+02  0.28273123339E+03  0.28401460605E+03  0.00000000000E+00 0.  1.
         -2    1    1    2    0  503 -0.22840993014E+02  0.14339984599E+02  0.85558434572E+02  0.89708371106E+02  0.00000000000E+00 0. -1.
</event>
<event>
 4    1  0.1780267E+004  0.2221800E+02  0.7546771E-02  0.1502558E+00
         21   -1    0    0  501  502  0.00000000000E+00  0.00000000000E+00  0.20920665617E+03  0.20920665617E+03  0.00000000000E+00 0.  1.
         21   -1    0    0  502  503 -0.00000000000E+00 -0.00000000000E+00 -0.25290500118E+01  0.25290500118E+01  0.00000000000E+00 0. -1.
          2    1    1    2  501    0  0.21830032150E+02  0.41338894495E+01  0.13074412233E+03  0.13261849369E+03  0.00000000000E+00 0. -1.
         -2    1    1    2    0  503 -0.21830032150E+02 -0.41338894495E+01  0.75933483833E+02  0.79117212493E+02  0.00000000000E+00 0.  1.
</event>
<event>
 4    1  0.1780267E+004  0.2277713E+02  0.7546771E-02  0.1495316E+00
         21   -1    0    0  501  502  0.00000000000E+00  0.00000000000E+00  0.55476836044E+02  0.55476836044E+02  0.00000000000E+00 0.  1.
         21   -1    0    0  502  503 -0.00000000000E+00 -0.00000000000E+00 -0.17240332321E+02  0.17240332321E+02  0.00000000000E+00 0. -1.
          2    1    1    2  501    0 -0.34890282738E+00 -0.22774454555E+02 -0.54762251116E+01  0.23426193778E+02  0.00000000000E+00 0. -1.
         -2    1    1    2    0  503  0.34890282738E+00  0.22774454555E+02  0.43712728835E+02  0.49290974586E+02  0.00000000000E+00 0.  1.
</event>
<event>
 4    1  0.1780267E+004  0.2592719E+02  0.7546771E-02  0.1458693E+00
         21   -1    0    0  501  502  0.00000000000E+00  0.00000000000E+00  0.27321190743E+01  0.27321190743E+01  0.00000000000E+00 0. -1.
         21   -1    0    0  502  503 -0.00000000000E+00 -0.00000000000E+00 -0.24727001743E+03  0.24727001743E+03  0.00000000000E+00 0.  1.
          2    1    1    2  501    0 -0.30074552373E+01  0.25752174996E+02 -0.13107373884E+03  0.13361341369E+03  0.00000000000E+00 0.  1.
         -2    1    1    2    0  503  0.30074552373E+01 -0.25752174996E+02 -0.11346415952E+03  0.11638872282E+03  0.00000000000E+00 0. -1.
</event>
<event>
 4    1  0.1780267E+004  0.2289839E+02  0.7546771E-02  0.1493778E+00
         21   -1    0    0  501  502  0.00000000000E+00  0.00000000000E+00  0.52718922884E+02  0.52718922884E+02  0.00000000000E+00 0. -1.
         21   -1    0    0  502  503 -0.00000000000E+00 -0.00000000000E+00 -0.99688796652E+01  0.99688796652E+01  0.00000000000E+00 0.  1.
          2    1    1    2  501    0  0.20808940436E+02  0.95563736569E+01  0.22880432390E+02  0.32370518468E+02  0.00000000000E+00 0.  1.
         -2    1    1    2    0  503 -0.20808940436E+02 -0.95563736569E+01  0.19869610829E+02  0.30317284081E+02  0.00000000000E+00 0. -1.
</event>
<event>
 4    1  0.1780267E+004  0.5614705E+02  0.7546771E-02  0.1273517E+00
         21   -1    0    0  501  502  0.00000000000E+00  0.00000000000E+00  0.24495383255E+03  0.24495383255E+03  0.00000000000E+00 0. -1.
         21   -1    0    0  502  503 -0.00000000000E+00 -0.00000000000E+00 -0.17549235366E+02  0.17549235366E+02  0.00000000000E+00 0.  1.
          2    1    1    2  501    0 -0.54365670728E+02  0.14030880487E+02  0.45926464586E+02  0.72537796426E+02  0.00000000000E+00 0. -1.
         -2    1    1    2    0  503  0.54365670728E+02 -0.14030880487E+02  0.18147813260E+03  0.18996527149E+03  0.00000000000E+00 0.  1.
</event>
<event>
 4    1  0.1780267E+004  0.2752564E+02  0.7546771E-02  0.1442398E+00
         21   -1    0    0  501  502  0.00000000000E+00  0.00000000000E+00  0.25697273025E+04  0.25697273025E+04  0.00000000000E+00 0.  1.
         21   -1    0    0  502  503 -0.00000000000E+00 -0.00000000000E+00 -0.29698782559E+00  0.29698782559E+00  0.00000000000E+00 0. -1.
          2    1    1    2  501    0  0.11186298087E+02  0.25150101576E+02  0.13939698169E+04  0.13942415542E+04  0.00000000000E+00 0.  1.
         -2    1    1    2    0  503 -0.11186298087E+02 -0.25150101576E+02  0.11754604978E+04  0.11757827362E+04  0.00000000000E+00 0. -1.
</event>
<event>
 4    1  0.1780267E+004  0.2392186E+02  0.7546771E-02  0.1481236E+00
         21   -1    0    0  503  502  0.00000000000E+00  0.00000000000E+00  0.10012242288E+03  0.10012242288E+03  0.00000000000E+00 0. -1.
         21   -1    0    0  501  503 -0.00000000000E+00 -0.00000000000E+00 -0.31947108607E+02  0.31947108607E+02  0.00000000000E+00 0.  1.
          2    1    1    2  501    0  0.23887752841E+02 -0.12770158128E+01 -0.25749209697E+02  0.35146511992E+02  0.00000000000E+00 0.  1.
         -2    1    1    2    0  502 -0.23887752841E+02  0.12770158128E+01  0.93924523971E+02  0.96923019497E+02  0.00000000000E+00 0. -1.
</event>
<event>
 4    1  0.1780267E+004  0.2691644E+02  0.7546771E-02  0.1448449E+00
         21   -1    0    0  503  502  0.00000000000E+00  0.00000000000E+00  0.39431095525E+01  0.39431095525E+01  0.00000000000E+00 0. -1.
         21   -1    0    0  501  503 -0.00000000000E+00 -0.00000000000E+00 -0.22864646418E+03  0.22864646418E+03  0.00000000000E+00 0.  1.
          2    1    1    2  501    0  0.18510682596E+02 -0.19540966890E+02 -0.16389202972E+03  0.16608760388E+03  0.00000000000E+00 0.  1.
         -2    1    1    2    0  502 -0.18510682596E+02  0.19540966890E+02 -0.60811324910E+02  0.66501969854E+02  0.00000000000E+00 0. -1.
</event>
<event>
 4    1  0.1780267E+004  0.2272295E+02  0.7546771E-02  0.1496007E+00
         21   -1    0    0  501  502  0.00000000000E+00  0.00000000000E+00  0.66518981456E+02  0.66518981456E+02  0.00000000000E+00 0. -1.
         21   -1    0    0  502  503 -0.00000000000E+00 -0.00000000000E+00 -0.22352648538E+02  0.22352648538E+02  0.00000000000E+00 0.  1.
          2    1    1    2  501    0 -0.22722910684E+02 -0.40373393993E-01  0.57983896175E+02  0.62277319432E+02  0.00000000000E+00 0. -1.
         -2    1    1    2    0  503  0.22722910684E+02  0.40373393993E-01 -0.13817563257E+02  0.26594310563E+02  0.00000000000E+00 0.  1.
</event>
<event>
 4    1  0.1780267E+004  0.3198272E+02  0.7546771E-02  0.1403115E+00
         21   -1    0    0  501  502  0.00000000000E+00  0.00000000000E+00  0.18965774495E+02  0.18965774495E+02  0.00000000000E+00 0. -1.
         21   -1    0    0  502  503 -0.00000000000E+00 -0.00000000000E+00 -0.70168232501E+02  0.70168232501E+02  0.00000000000E+00 0.  1.
          2    1    1    2  501    0  0.31657942225E+02  0.45463126435E+01 -0.41642713705E+01  0.32252680828E+02  0.00000000000E+00 0. -1.
         -2    1    1    2    0  503 -0.31657942225E+02 -0.45463126435E+01 -0.47038186636E+02  0.56881326168E+02  0.00000000000E+00 0.  1.
</event>
<event>
 4    1  0.1780267E+004  0.3639795E+02  0.7546771E-02  0.1370993E+00
         21   -1    0    0  503  502  0.00000000000E+00  0.00000000000E+00  0.14850640471E+04  0.14850640471E+04  0.00000000000E+00 0.  1.
         21   -1    0    0  501  503 -0.00000000000E+00 -0.00000000000E+00 -0.14989876595E+01  0.14989876595E+01  0.00000000000E+00 0. -1.
          2    1    1    2  501    0 -0.23752514594E+02  0.27579494938E+02  0.26883593007E+03  0.27128871666E+03  0.00000000000E+00 0. -1.
         -2    1    1    2    0  502  0.23752514594E+02 -0.27579494938E+02  0.12147291294E+04  0.12152743181E+04  0.00000000000E+00 0.  1.
</event>
<event>
 4    1  0.1780267E+004  0.4549794E+02  0.7546771E-02  0.1318968E+00
         21   -1    0    0  503  502  0.00000000000E+00  0.00000000000E+00  0.75748382216E+02  0.75748382216E+02  0.00000000000E+00 0. -1.
         21   -1    0    0  501  503 -0.00000000000E+00 -0.00000000000E+00 -0.33946415116E+02  0.33946415116E+02  0.00000000000E+00 0.  1.
          2    1    1    2  501    0  0.41003077970E+02  0.19718264412E+02 -0.33166387116E+01  0.45618663360E+02  0.00000000000E+00 0.  1.
         -2    1    1    2    0  502 -0.41003077970E+02 -0.19718264412E+02  0.45118605811E+02  0.64076133972E+02  0.00000000000E+00 0. -1.
</event>
<event>
 4    1  0.1780267E+004  0.2020952E+02  0.7546771E-02  0.1530857E+00
         21   -1    0    0  503  502  0.00000000000E+00  0.00000000000E+00  0.50685611357E+01  0.50685611357E+01  0.00000000000E+00 0.  1.
         21   -1    0    0  501  503 -0.00000000000E+00 -0.00000000000E+00 -0.83576878495E+02  0.83576878495E+02  0.00000000000E+00 0. -1.
          2    1    1    2  501    0 -0.69690122030E+01 -0.18969914033E+02 -0.47647140424E+02  0.51755915219E+02  0.00000000000E+00 0.  1.
         -2    1    1    2    0  502  0.69690122030E+01  0.18969914033E+02 -0.30861176935E+02  0.36889524412E+02  0.00000000000E+00 0. -1.
</event>
<event>
 4    1  0.1780267E+004  0.2108148E+02  0.7546771E-02  0.1518105E+00
         21   -1    0    0  501  502  0.00000000000E+00  0.00000000000E+00  0.12088231168E+03  0.12088231168E+03  0.00000000000E+00 0.  1.
         21   -1    0    0  502  503 -0.00000000000E+00 -0.00000000000E+00 -0.62495100841E+01  0.62495100841E+01  0.00000000000E+00 0. -1.
          2    1    1    2  501    0  0.26090364317E+01  0.20919405976E+02  0.98103111466E+02  0.10034265841E+03  0.00000000000E+00 0.  1.
         -2    1    1    2    0  503 -0.26090364317E+01 -0.20919405976E+02  0.16529690134E+02  0.26789163358E+02  0.00000000000E+00 0. -1.
</event>
<event>
 4    1  0.1780267E+004  0.2390178E+02  0.7546771E-02  0.1481475E+00
         21   -1    0    0  501  502  0.00000000000E+00  0.00000000000E+00  0.10928576767E+01  0.10928576767E+01  0.00000000000E+00 0. -1.
         21   -1    0    0  502  503 -0.00000000000E+00 -0.00000000000E+00 -0.83606980404E+03  0.83606980404E+03  0.00000000000E+00 0.  1.
          2    1    1    2  501    0  0.10278319056E+02 -0.21578957484E+02 -0.16124663789E+03  0.16300850738E+03  0.00000000000E+00 0. -1.
         -2    1    1    2    0  503 -0.10278319056E+02  0.21578957484E+02 -0.67373030848E+03  0.67415415434E+03  0.00000000000E+00 0.  1.
</event>
<event>
 4    1  0.1780267E+004  0.2654865E+02  0.7546771E-02  0.1452195E+00
         21   -1    0    0  503  502  0.00000000000E+00  0.00000000000E+00  0.18221122308E+03  0.18221122308E+03  0.00000000000E+00 0. -1.
         21   -1    0    0  501  503 -0.00000000000E+00 -0.00000000000E+00 -0.81961051537E+01  0.81961051537E+01  0.00000000000E+00 0.  1.
          2    1    1    2  501    0 -0.51228309033E+01  0.26049714027E+02  0.17826318531E+02  0.31978252449E+02  0.00000000000E+00 0.  1.
         -2    1    1    2    0  502  0.51228309033E+01 -0.26049714027E+02  0.15618879940E+03  0.15842907579E+03  0.00000000000E+00 0. -1.
</event>
<event>
 4    1  0.1780267E+004  0.2212589E+02  0.7546771E-02  0.1503776E+00
         21   -1    0    0  503  502  0.00000000000E+00  0.00000000000E+00  0.12599274504E+02  0.12599274504E+02  0.00000000000E+00 0.  1.
         21   -1    0    0  501  503 -0.00000000000E+00 -0.00000000000E+00 -0.71814663154E+02  0.71814663154E+02  0.00000000000E+00 0. -1.
          2    1    1    2  501    0  0.14253554529E+01  0.22079933198E+02 -0.58200950012E+02  0.62264802822E+02  0.00000000000E+00 0. -1.
         -2    1    1    2    0  502 -0.14253554529E+01 -0.22079933198E+02 -0.10144386383E+01  0.22149134835E+02  0.00000000000E+00 0.  1.
</event>
<event>
 4    1  0.1780267E+004  0.2537068E+02  0.7546771E-02  0.1464699E+00
         21   -1    0    0  501  502  0.00000000000E+00  0.00000000000E+00  0.33635531426E+03  0.33635531426E+03  0.00000000000E+00 0.  1.
         21   -1    0    0  502  503 -0.00000000000E+00 -0.00000000000E+00 -0.30674234197E+01  0.30674234197E+01  0.00000000000E+00 0. -1.
          2    1    1    2  501    0 -0.14331621139E+02 -0.20935044114E+02  0.27072734982E+03  0.27191353290E+03  0.00000000000E+00 0.  1.
         -2    1    1    2    0  503  0.14331621139E+02  0.20935044114E+02  0.62560541022E+02  0.67509204776E+02  0.00000000000E+00 0. -1.
</event>
<event>
 4    1  0.1780267E+004  0.2723166E+02  0.7546771E-02  0.1445295E+00
         21   -1    0    0  501  502  0.00000000000E+00  0.00000000000E+00  0.39636369136E+01  0.39636369136E+01  0.00000000000E+00 0. -1.
         21   -1    0    0  502  503 -0.00000000000E+00 -0.00000000000E+00 -0.19496113316E+03  0.19496113316E+03  0.00000000000E+00 0.  1.
          2    1    1    2  501    0 -0.21932621880E+02  0.16140743705E+02 -0.75515918682E+02  0.80275883578E+02  0.00000000000E+00 0.  1.
         -2    1    1    2    0  503  0.21932621880E+02 -0.16140743705E+02 -0.11548157757E+03  0.11864888650E+03  0.00000000000E+00 0. -1.
</event>
<event>
 4    1  0.1780267E+004  0.2005862E+02  0.7546771E-02  0.1533141E+00
         21   -1    0    0  501  502  0.00000000000E+00  0.00000000000E+00  0.51395138358E+03  0.51395138358E+03  0.00000000000E+00 0. -1.
         21   -1    0    0  502  503 -0.00000000000E+00 -0.00000000000E+00 -0.98266509273E+00  0.98266509273E+00  0.00000000000E+00 0.  1.
          2    1    1    2  501    0  0.76404650311E+01  0.18546466619E+02  0.37258383734E+03  0.37312338975E+03  0.00000000000E+00 0. -1.
         -2    1    1    2    0  503 -0.76404650311E+01 -0.18546466619E+02  0.14038488114E+03  0.14181065892E+03  0.00000000000E+00 0.  1.
</event>
<event>
 4    1  0.1780267E+004  0.2205428E+02  0.7546771E-02  0.1504728E+00
         21   -1    0    0  503  502  0.00000000000E+00  0.00000000000E+00  0.21564344536E+02  0.21564344536E+02  0.00000000000E+00 0. -1.
         21   -1    0    0  501  503 -0.00000000000E+00 -0.00000000000E+00 -0.29555946444E+02  0.29555946444E+02  0.00000000000E+00 0.  1.
          2    1    1    2  501    0 -0.15593542843E+02 -0.15595915218E+02 -0.16435465782E+02  0.27504830219E+02  0.00000000000E+00 0.  1.
         -2    1    1    2    0  502  0.15593542843E+02  0.15595915218E+02  0.84438638734E+01  0.23615460762E+02  0.00000000000E+00 0. -1.
</event>
<event>
 4    1  0.1780267E+004  0.2493031E+02  0.7546771E-02  0.1469585E+00
         21   -1    0    0  501  502  0.00000000000E+00  0.00000000000E+00  0.11703657260E+02  0.11703657260E+02  0.00000000000E+00 0.  1.
         21   -1    0    0  502  503 -0.00000000000E+00 -0.00000000000E+00 -0.12325095353E+03  0.12325095353E+03  0.00000000000E+00 0. -1.
          2    1    1    2  501    0  0.24777346610E+02 -0.27574206401E+01 -0.48681670905E+01  0.25401167777E+02  0.00000000000E+00 0.  1.
         -2    1    1    2    0  503 -0.24777346610E+02  0.27574206401E+01 -0.10667912918E+03  0.10955344301E+03  0.00000000000E+00 0. -1.
</event>
<event>
 4    1  0.1780267E+004  0.2288492E+02  0.7546771E-02  0.1493948E+00
         21   -1    0    0  503  502  0.00000000000E+00  0.00000000000E+00  0.29287767673E+02  0.29287767673E+02  0.00000000000E+00 0.  1.
         21   -1    0    0  501  503 -0.00000000000E+00 -0.00000000000E+00 -0.17942885312E+02  0.17942885312E+02  0.00000000000E+00 0. -1.
          2    1    1    2  501    0  0.22751538619E+02  0.24672011269E+01  0.42951571608E+01  0.23284500552E+02  0.00000000000E+00 0. -1.
         -2    1    1    2    0  502 -0.22751538619E+02 -0.24672011269E+01  0.70497252002E+01  0.23946152433E+02  0.00000000000E+00 0.  1.
</event>
<event>
 4    1  0.1780267E+004  0.2255767E+02  0.7546771E-02  0.1498128E+00
         21   -1    0    0  501  502  0.00000000000E+00  0.00000000000E+00  0.37480618091E+03  0.37480618091E+03  0.00000000000E+00 0. -1.
         21   -1    0    0  502  503 -0.00000000000E+00 -0.00000000000E+00 -0.22503818149E+01  0.22503818149E+01  0.00000000000E+00 0.  1.
          2    1    1    2  501    0 -0.21848032312E+02  0.56135665722E+01  0.30502237967E+03  0.30585535919E+03  0.00000000000E+00 0. -1.
         -2    1    1    2    0  503  0.21848032312E+02 -0.56135665722E+01  0.67533419423E+02  0.71201203533E+02  0.00000000000E+00 0.  1.
</event>
<event>
 4    1  0.1780267E+004  0.2150824E+02  0.7546771E-02  0.1512131E+00
         21   -1    0    0  503  502  0.00000000000E+00  0.00000000000E+00  0.28362378162E+03  0.28362378162E+03  0.00000000000E+00 0.  1.
         21   -1    0    0  501  503 -0.00000000000E+00 -0.00000000000E+00 -0.22643615866E+01  0.22643615866E+01  0.00000000000E+00 0. -1.
          2    1    1    2  501    0 -0.16251898276E+02  0.14088306669E+02  0.65083162881E+02  0.68545041199E+02  0.00000000000E+00 0. -1.
         -2    1    1    2    0  502  0.16251898276E+02 -0.14088306669E+02  0.21627625716E+03  0.21734310201E+03  0.00000000000E+00 0.  1.
</event>
<event>
 4    1  0.1780267E+004  0.2503459E+02  0.7546771E-02  0.1468417E+00
         21   -1    0    0  503  502  0.00000000000E+00  0.00000000000E+00  0.64061780049E+02  0.64061780049E+02  0.00000000000E+00 0.  1.
         21   -1    0    0  501  503 -0.00000000000E+00 -0.00000000000E+00 -0.12248171412E+02  0.12248171412E+02  0.00000000000E+00 0. -1.
          2    1    1    2  501    0  0.22573433482E+02 -0.10824552848E+02  0.43023473074E+02  0.49777003514E+02  0.00000000000E+00 0.  1.
         -2    1    1    2    0  502 -0.22573433482E+02  0.10824552848E+02  0.87901355633E+01  0.26532947946E+02  0.00000000000E+00 0. -1.
</event>
<event>
 4    1  0.1780267E+004  0.2560831E+02  0.7546771E-02  0.1462112E+00
         21   -1    0    0  501  502  0.00000000000E+00  0.00000000000E+00  0.38906588992E+01  0.38906588992E+01  0.00000000000E+00 0.  1.
         21   -1    0    0  502  503 -0.00000000000E+00 -0.00000000000E+00 -0.55427737328E+03  0.55427737328E+03  0.00000000000E+00 0. -1.
          2    1    1    2  501    0  0.16870122672E+02  0.19266145015E+02 -0.42379152899E+02  0.49515431768E+02  0.00000000000E+00 0.  1.
         -2    1    1    2    0  503 -0.16870122672E+02 -0.19266145015E+02 -0.50800756148E+03  0.50865260041E+03  0.00000000000E+00 0. -1.
</event>
<event>
 4    1  0.1780267E+004  0.7003632E+02  0.7546771E-02  0.1229084E+00
         21   -1    0    0  503  502  0.00000000000E+00  0.00000000000E+00  0.73814858359E+01  0.73814858359E+01  0.00000000000E+00 0. -1.
         21   -1    0    0  501  503 -0.00000000000E+00 -0.00000000000E+00 -0.73203942154E+03  0.73203942154E+03  0.00000000000E+00 0.  1.
          2    1    1    2  501    0  0.58110826484E+02  0.39092428890E+02 -0.25004067558E+03  0.25966406297E+03  0.00000000000E+00 0. -1.
         -2    1    1    2    0  502 -0.58110826484E+02 -0.39092428890E+02 -0.47461726012E+03  0.47975684441E+03  0.00000000000E+00 0.  1.
</event>
<event>
 4    1  0.1780267E+004  0.2116351E+02  0.7546771E-02  0.1516943E+00
         21   -1    0    0  503  502  0.00000000000E+00  0.00000000000E+00  0.22556078417E+00  0.22556078417E+00  0.00000000000E+00 0.  1.
         21   -1    0    0  501  503 -0.00000000000E+00 -0.00000000000E+00 -0.21135322606E+04  0.21135322606E+04  0.00000000000E+00 0. -1.
          2    1    1    2  501    0  0.13145229272E+02  0.16586055954E+02 -0.13165820066E+04  0.13167520930E+04  0.00000000000E+00 0. -1.
         -2    1    1    2    0  502 -0.13145229272E+02 -0.16586055954E+02 -0.79672469323E+03  0.79700572840E+03  0.00000000000E+00 0.  1.
</event>
<event>
 4    1  0.1780267E+004  0.2161797E+02  0.7546771E-02  0.1510622E+00
         21   -1    0    0  503  502  0.00000000000E+00  0.00000000000E+00  0.32016948884E+02  0.32016948884E+02  0.00000000000E+00 0. -1.
         21   -1    0    0  501  503 -0.00000000000E+00 -0.00000000000E+00 -0.46177327936E+02  0.46177327936E+02  0.00000000000E+00 0.  1.
          2    1    1    2  501    0 -0.18206235184E+02 -0.11656307947E+02 -0.39412898080E+02  0.44952341981E+02  0.00000000000E+00 0.  1.
         -2    1    1    2    0  502  0.18206235184E+02  0.11656307947E+02  0.25252519028E+02  0.33241934838E+02  0.00000000000E+00 0. -1.
</event>
<event>
 4    1  0.1780267E+004  0.2382089E+02  0.7546771E-02  0.1482440E+00
         21   -1    0    0  503  502  0.00000000000E+00  0.00000000000E+00  0.72640490695E+02  0.72640490695E+02  0.00000000000E+00 0.  1.
         21   -1    0    0  501  503 -0.00000000000E+00 -0.00000000000E+00 -0.27489823685E+02  0.27489823685E+02  0.00000000000E+00 0. -1.
          2    1    1    2  501    0 -0.85949005767E+01 -0.22216262037E+02 -0.19783416630E+02  0.30964789493E+02  0.00000000000E+00 0. -1.
         -2    1    1    2    0  502  0.85949005767E+01  0.22216262037E+02  0.64934083639E+02  0.69165524887E+02  0.00000000000E+00 0.  1.
</event>
<event>
 4    1  0.1780267E+004  0.4043430E+02  0.7546771E-02  0.1345959E+00
         21   -1    0    0  503  502  0.00000000000E+00  0.00000000000E+00  0.57477084582E+02  0.57477084582E+02  0.00000000000E+00 0. -1.
         21   -1    0    0  501  503 -0.00000000000E+00 -0.00000000000E+00 -0.35496965668E+02  0.35496965668E+02  0.00000000000E+00 0.  1.
          2    1    1    2  501    0  0.95258666902E+01  0.39296187693E+02  0.31710211185E+02  0.51385503761E+02  0.00000000000E+00 0. -1.
         -2    1    1    2    0  502 -0.95258666902E+01 -0.39296187693E+02 -0.97300922714E+01  0.41588546488E+02  0.00000000000E+00 0.  1.
</event>
<event>
 4    1  0.1780267E+004  0.4122402E+02  0.7546771E-02  0.1341459E+00
         21   -1    0    0  503  502  0.00000000000E+00  0.00000000000E+00  0.73445093919E+02  0.73445093919E+02  0.00000000000E+00 0. -1.
         21   -1    0    0  501  503 -0.00000000000E+00 -0.00000000000E+00 -0.39577591859E+02  0.39577591859E+02  0.00000000000E+00 0.  1.
          2    1    1    2  501    0 -0.20247354148E+02 -0.35909117576E+02 -0.19486917979E+02  0.45597807485E+02  0.00000000000E+00 0.  1.
         -2    1    1    2    0  502  0.20247354148E+02  0.35909117576E+02  0.53354420040E+02  0.67424878293E+02  0.00000000000E+00 0. -1.
</event>
<event>
 4    1  0.1780267E+004  0.2540374E+02  0.7546771E-02  0.1464337E+00
         21   -1    0    0  503  502  0.00000000000E+00  0.00000000000E+00  0.10451064082E+02  0.10451064082E+02  0.00000000000E+00 0. -1.
         21   -1    0    0  501  503 -0.00000000000E+00 -0.00000000000E+00 -0.18987362362E+03  0.18987362362E+03  0.00000000000E+00 0.  1.
          2    1    1    2  501    0  0.22164637681E+02 -0.12412856071E+02 -0.17198994923E+03  0.17385595416E+03  0.00000000000E+00 0.  1.
         -2    1    1    2    0  502 -0.22164637681E+02  0.12412856071E+02 -0.74326103022E+01  0.26468733541E+02  0.00000000000E+00 0. -1.
</event>
<event>
 4    1  0.1780267E+004  0.5066406E+02  0.7546771E-02  0.1295319E+00
         21   -1    0    0  501  502  0.00000000000E+00  0.00000000000E+00  0.21291866118E+03  0.21291866118E+03  0.00000000000E+00 0. -1.
         21   -1    0    0  502  503 -0.00000000000E+00 -0.00000000000E+00 -0.17469080548E+02  0.17469080548E+02  0.00000000000E+00 0.  1.
          2    1    1    2  501    0 -0.16747581642E+02  0.47815951734E+02  0.16185099770E+03  0.16959537785E+03  0.00000000000E+00 0. -1.
         -2    1    1    2    0  503  0.16747581642E+02 -0.47815951734E+02  0.33598582933E+02  0.60792363880E+02  0.00000000000E+00 0.  1.
</event>
<event>
 4    1  0.1780267E+004  0.3504970E+02  0.7546771E-02  0.1380214E+00
         21   -1    0    0  501  502  0.00000000000E+00  0.00000000000E+00  0.89695068879E+01  0.89695068879E+01  0.00000000000E+00 0.  1.
         21   -1    0    0  502  503 -0.00000000000E+00 -0.00000000000E+00 -0.28377778241E+03  0.28377778241E+03  0.00000000000E+00 0. -1.
          2    1    1    2  501    0  0.34991749138E+02 -0.20146154479E+01 -0.32120681756E+02  0.47541764583E+02  0.00000000000E+00 0.  1.
         -2    1    1    2    0  503 -0.34991749138E+02  0.20146154479E+01 -0.24268759377E+03  0.24520552472E+03  0.00000000000E+00 0. -1.
</event>
<event>
 4    1  0.1780267E+004  0.2098008E+02  0.7546771E-02  0.1519549E+00
         21   -1    0    0  501  502  0.00000000000E+00  0.00000000000E+00  0.53266012886E+03  0.53266012886E+03  0.00000000000E+00 0. -1.
         21   -1    0    0  502  503 -0.00000000000E+00 -0.00000000000E+00 -0.10326419466E+01  0.10326419466E+01  0.00000000000E+00 0.  1.
          2    1    1    2  501    0 -0.43712565246E+01 -0.20519643305E+02  0.14654471435E+03  0.14803890350E+03  0.00000000000E+00 0.  1.
         -2    1    1    2    0  503  0.43712565246E+01  0.20519643305E+02  0.38508277256E+03  0.38565386731E+03  0.00000000000E+00 0. -1.
</event>
<event>
 4    1  0.1780267E+004  0.2181416E+02  0.7546771E-02  0.1507951E+00
         21   -1    0    0  501  502  0.00000000000E+00  0.00000000000E+00  0.75510980499E+02  0.75510980499E+02  0.00000000000E+00 0. -1.
         21   -1    0    0  502  503 -0.00000000000E+00 -0.00000000000E+00 -0.66442634234E+01  0.66442634234E+01  0.00000000000E+00 0.  1.
          2    1    1    2  501    0 -0.17307374472E+02  0.13278264761E+02  0.25107934909E+02  0.33260576086E+02  0.00000000000E+00 0. -1.
         -2    1    1    2    0  503  0.17307374472E+02 -0.13278264761E+02  0.43758782166E+02  0.48894667836E+02  0.00000000000E+00 0.  1.
</event>
<event>
 4    1  0.1780267E+004  0.5024030E+02  0.7546771E-02  0.1297134E+00
         21   -1    0    0  503  502  0.00000000000E+00  0.00000000000E+00  0.29987247945E+02  0.29987247945E+02  0.00000000000E+00 0.  1.
         21   -1    0    0  501  503 -0.00000000000E+00 -0.00000000000E+00 -0.11695516354E+03  0.11695516354E+03  0.00000000000E+00 0. -1.
          2    1    1    2  501    0 -0.44871510205E+02 -0.22597248226E+02 -0.82382433485E+02  0.96493281644E+02  0.00000000000E+00 0. -1.
         -2    1    1    2    0  502  0.44871510205E+02  0.22597248226E+02 -0.45854821069E+01  0.50449129839E+02  0.00000000000E+00 0.  1.
</event>
<event>
 4    1  0.1780267E+004  0.2930790E+02  0.7546771E-02  0.1425708E+00
         21   -1    0    0  503  502  0.00000000000E+00  0.00000000000E+00  0.36497132386E+02  0.36497132386E+02  0.00000000000E+00 0. -1.
         21   -1    0    0  501  503 -0.00000000000E+00 -0.00000000000E+00 -0.23939207337E+02  0.23939207337E+02  0.00000000000E+00 0.  1.
          2    1    1    2  501    0 -0.43883640688E+01  0.28977497669E+02  0.23514559861E+01  0.29402082505E+02  0.00000000000E+00 0. -1.
         -2    1    1    2    0  502  0.43883640688E+01 -0.28977497669E+02  0.10206469063E+02  0.31034257218E+02  0.00000000000E+00 0.  1.
</event>
<event>
 4    1  0.1780267E+004  0.4456809E+02  0.7546771E-02  0.1323613E+00
         21   -1    0    0  503  502  0.00000000000E+00  0.00000000000E+00  0.11521072909E+02  0.11521072909E+02  0.00000000000E+00 0. -1.
         21   -1    0    0  501  503 -0.00000000000E+00 -0.00000000000E+00 -0.24651457791E+03  0.24651457791E+03  0.00000000000E+00 0.  1.
          2    1    1    2  501    0 -0.11304445832E+02 -0.43110606905E+02 -0.18823582994E+03  0.19344002326E+03  0.00000000000E+00 0.  1.
         -2    1    1    2    0  502  0.11304445832E+02  0.43110606905E+02 -0.46757675058E+02  0.64595627562E+02  0.00000000000E+00 0. -1.
</event>
<event>
 4    1  0.1780267E+004  0.4554995E+02  0.7546771E-02  0.1318712E+00
         21   -1    0    0  501  502  0.00000000000E+00  0.00000000000E+00  0.31929885927E+03  0.31929885927E+03  0.00000000000E+00 0. -1.
         21   -1    0    0  502  503 -0.00000000000E+00 -0.00000000000E+00 -0.29461402561E+02  0.29461402561E+02  0.00000000000E+00 0.  1.
          2    1    1    2  501    0  0.23210359168E+02  0.39192824920E+02  0.29887187801E+03  0.30232300237E+03  0.00000000000E+00 0. -1.
         -2    1    1    2    0  503 -0.23210359168E+02 -0.39192824920E+02 -0.90344213000E+01  0.46437259460E+02  0.00000000000E+00 0.  1.
</event>
<event>
 4    1  0.1780267E+004  0.2763465E+02  0.7546771E-02  0.1441335E+00
         21   -1    0    0  501  502  0.00000000000E+00  0.00000000000E+00  0.26629960730E+01  0.26629960730E+01  0.00000000000E+00 0.  1.
         21   -1    0    0  502  503 -0.00000000000E+00 -0.00000000000E+00 -0.32691067254E+03  0.32691067254E+03  0.00000000000E+00 0. -1.
          2    1    1    2  501    0 -0.95429896638E+01 -0.25934637922E+02 -0.10438252618E+03  0.10797863616E+03  0.00000000000E+00 0. -1.
         -2    1    1    2    0  503  0.95429896638E+01  0.25934637922E+02 -0.21986515028E+03  0.22159503245E+03  0.00000000000E+00 0.  1.
</event>
<event>
 4    1  0.1780267E+004  0.3020530E+02  0.7546771E-02  0.1417821E+00
         21   -1    0    0  503  502  0.00000000000E+00  0.00000000000E+00  0.11844739295E+03  0.11844739295E+03  0.00000000000E+00 0.  1.
         21   -1    0    0  501  503 -0.00000000000E+00 -0.00000000000E+00 -0.14388134349E+02  0.14388134349E+02  0.00000000000E+00 0. -1.
          2    1    1    2  501    0  0.17940801516E+02  0.24299956847E+02  0.67557147663E+01  0.30951574173E+02  0.00000000000E+00 0. -1.
         -2    1    1    2    0  502 -0.17940801516E+02 -0.24299956847E+02  0.97303543836E+02  0.10188395313E+03  0.00000000000E+00 0.  1.
</event>
<event>
 4    1  0.1780267E+004  0.4106010E+02  0.7546771E-02  0.1342383E+00
         21   -1    0    0  501  502  0.00000000000E+00  0.00000000000E+00  0.18421566161E+03  0.18421566161E+03  0.00000000000E+00 0.  1.
         21   -1    0    0  502  503 -0.00000000000E+00 -0.00000000000E+00 -0.27079518613E+02  0.27079518613E+02  0.00000000000E+00 0. -1.
          2    1    1    2  501    0  0.19303321167E+02  0.36239668724E+02  0.16452875688E+03  0.16957489094E+03  0.00000000000E+00 0.  1.
         -2    1    1    2    0  503 -0.19303321167E+02 -0.36239668724E+02 -0.73926138869E+01  0.41720289278E+02  0.00000000000E+00 0. -1.
</event>
<event>
 4    1  0.1780267E+004  0.2303098E+02  0.7546771E-02  0.1492110E+00
         21   -1    0    0  503  502  0.00000000000E+00  0.00000000000E+00  0.29824218794E+02  0.29824218794E+02  0.00000000000E+00 0.  1.
         21   -1    0    0  501  503 -0.00000000000E+00 -0.00000000000E+00 -0.70945675764E+02  0.70945675764E+02  0.00000000000E+00 0. -1.
          2    1    1    2  501    0  0.37208188621E+01  0.22728427191E+02 -0.64175418850E+02  0.68182917804E+02  0.00000000000E+00 0. -1.
         -2    1    1    2    0  502 -0.37208188621E+01 -0.22728427191E+02  0.23053961881E+02  0.32586976754E+02  0.00000000000E+00 0.  1.
</event>
<event>
 4    1  0.1780267E+004  0.2505249E+02  0.7546771E-02  0.1468217E+00
         21   -1    0    0  503  502  0.00000000000E+00  0.00000000000E+00  0.11343509965E+03  0.11343509965E+03  0.00000000000E+00 0. -1.
         21   -1    0    0  501  503 -0.00000000000E+00 -0.00000000000E+00 -0.14555624090E+02  0.14555624090E+02  0.00000000000E+00 0.  1.
          2    1    1    2  501    0  0.16647169126E+02 -0.18721619710E+02 -0.94528402378E+00  0.25070318035E+02  0.00000000000E+00 0.  1.
         -2    1    1    2    0  502 -0.16647169126E+02  0.18721619710E+02  0.99824759583E+02  0.10292040570E+03  0.00000000000E+00 0. -1.
</event>
<event>
 4    1  0.1780267E+004  0.2700070E+02  0.7546771E-02  0.1447601E+00
         21   -1    0    0  503  502  0.00000000000E+00  0.00000000000E+00  0.55105242909E+01  0.55105242909E+01  0.00000000000E+00 0. -1.
         21   -1    0    0  501  503 -0.00000000000E+00 -0.00000000000E+00 -0.15614810268E+03  0.15614810268E+03  0.00000000000E+00 0.  1.
          2    1    1    2  501    0  0.16804766476E+02  0.21133809083E+02 -0.10690769317E+03  0.11026464947E+03  0.00000000000E+00 0.  1.
         -2    1    1    2    0  502 -0.16804766476E+02 -0.21133809083E+02 -0.43729885220E+02  0.51393977507E+02  0.00000000000E+00 0. -1.
</event>
<event>
 4    1  0.1780267E+004  0.2117223E+02  0.7546771E-02  0.1516820E+00
         21   -1    0    0  503  502  0.00000000000E+00  0.00000000000E+00  0.46333051971E+01  0.46333051971E+01  0.00000000000E+00 0. -1.
         21   -1    0    0  501  503 -0.00000000000E+00 -0.00000000000E+00 -0.97173488209E+02  0.97173488209E+02  0.00000000000E+00 0.  1.
          2    1    1    2  501    0  0.68989263248E+01  0.20016700410E+02 -0.42902146283E+02  0.47842007017E+02  0.00000000000E+00 0. -1.
         -2    1    1    2    0  502 -0.68989263248E+01 -0.20016700410E+02 -0.49638036729E+02  0.53964786389E+02  0.00000000000E+00 0.  1.
</event>
<event>
 4    1  0.1780267E+004  0.3686030E+02  0.7546771E-02  0.1367936E+00
         21   -1    0    0  503  502  0.00000000000E+00  0.00000000000E+00  0.39171656744E+03  0.39171656744E+03  0.00000000000E+00 0.  1.
         21   -1    0    0  501  503 -0.00000000000E+00 -0.00000000000E+00 -0.38095568408E+01  0.38095568408E+01  0.00000000000E+00 0. -1.
          2    1    1    2  501    0 -0.30528430079E+02 -0.20656635173E+02  0.13478362658E+03  0.13973298685E+03  0.00000000000E+00 0. -1.
         -2    1    1    2    0  502  0.30528430079E+02  0.20656635173E+02  0.25312338402E+03  0.25579313743E+03  0.00000000000E+00 0.  1.
</event>
<event>
 4    1  0.1780267E+004  0.2619097E+02  0.7546771E-02  0.1455909E+00
         21   -1    0    0  501  502  0.00000000000E+00  0.00000000000E+00  0.92965238948E+01  0.92965238948E+01  0.00000000000E+00 0.  1.
         21   -1    0    0  502  503 -0.00000000000E+00 -0.00000000000E+00 -0.11171931280E+03  0.11171931280E+03  0.00000000000E+00 0. -1.
          2    1    1    2  501    0  0.11029134122E+02  0.23755527424E+02 -0.15954008151E+02  0.30667527757E+02  0.00000000000E+00 0.  1.
         -2    1    1    2    0  503 -0.11029134122E+02 -0.23755527424E+02 -0.86468780755E+02  0.90348308938E+02  0.00000000000E+00 0. -1.
</event>
<event>
 4    1  0.1780267E+004  0.2964844E+02  0.7546771E-02  0.1422676E+00
         21   -1    0    0  503  502  0.00000000000E+00  0.00000000000E+00  0.49191456907E+02  0.49191456907E+02  0.00000000000E+00 0. -1.
         21   -1    0    0  501  503 -0.00000000000E+00 -0.00000000000E+00 -0.18783213957E+02  0.18783213957E+02  0.00000000000E+00 0.  1.
          2    1    1    2  501    0 -0.27496814964E+02  0.11088522353E+02  0.22699969308E+02  0.37340578031E+02  0.00000000000E+00 0. -1.
         -2    1    1    2    0  502  0.27496814964E+02 -0.11088522353E+02  0.77082736413E+01  0.30634092833E+02  0.00000000000E+00 0.  1.
</event>
<event>
 4    1  0.1780267E+004  0.2576487E+02  0.7546771E-02  0.1460426E+00
         21   -1    0    0  503  502  0.00000000000E+00  0.00000000000E+00  0.65406889970E+02  0.65406889970E+02  0.00000000000E+00 0. -1.
         21   -1    0    0  501  503 -0.00000000000E+00 -0.00000000000E+00 -0.11583840190E+02  0.11583840190E+02  0.00000000000E+00 0.  1.
          2    1    1    2  501    0  0.19448020708E+02 -0.16899797183E+02  0.13364271986E+02  0.29024686390E+02  0.00000000000E+00 0.  1.
         -2    1    1    2    0  502 -0.19448020708E+02  0.16899797183E+02  0.40458777794E+02  0.47966043770E+02  0.00000000000E+00 0. -1.
</event>
<event>
 4    1  0.1780267E+004  0.2030720E+02  0.7546771E-02  0.1529390E+00
         21   -1    0    0  501  502  0.00000000000E+00  0.00000000000E+00  0.32882548411E+02  0.32882548411E+02  0.00000000000E+00 0.  1.
         21   -1    0    0  502  503 -0.00000000000E+00 -0.00000000000E+00 -0.19992586191E+02  0.19992586191E+02  0.00000000000E+00 0. -1.
          2    1    1    2  501    0 -0.19934254219E+02  0.38739894443E+01  0.22585198359E+02  0.30372248360E+02  0.00000000000E+00 0.  1.
         -2    1    1    2    0  503  0.19934254219E+02 -0.38739894443E+01 -0.96952361391E+01  0.22502886243E+02  0.00000000000E+00 0. -1.
</event>
<event>
 4    1  0.1780267E+004  0.2472591E+02  0.7546771E-02  0.1471893E+00
         21   -1    0    0  501  502  0.00000000000E+00  0.00000000000E+00  0.52973041623E+03  0.52973041623E+03  0.00000000000E+00 0.  1.
         21   -1    0    0  502  503 -0.00000000000E+00 -0.00000000000E+00 -0.19028506299E+01  0.19028506299E+01  0.00000000000E+00 0. -1.
          2    1    1    2  501    0  0.15993298663E+01 -0.24674131982E+02  0.43065524370E+03  0.43136447417E+03  0.00000000000E+00 0.  1.
         -2    1    1    2    0  503 -0.15993298663E+01  0.24674131982E+02  0.97172321897E+02  0.10026879269E+03  0.00000000000E+00 0. -1.
</event>
<event>
 4    1  0.1780267E+004  0.2357973E+02  0.7546771E-02  0.1485344E+00
         21   -1    0    0  503  502  0.00000000000E+00  0.00000000000E+00  0.34505185031E+02  0.34505185031E+02  0.00000000000E+00 0.  1.
         21   -1    0    0  501  503 -0.00000000000E+00 -0.00000000000E+00 -0.17687272432E+02  0.17687272432E+02  0.00000000000E+00 0. -1.
          2    1    1    2  501    0  0.19770504392E+02 -0.12850317081E+02  0.62497985938E+00  0.23588007394E+02  0.00000000000E+00 0. -1.
         -2    1    1    2    0  502 -0.19770504392E+02  0.12850317081E+02  0.16192932740E+02  0.28604450069E+02  0.00000000000E+00 0.  1.
</event>
<event>
 4    1  0.1780267E+004  0.3928491E+02  0.7546771E-02  0.1352728E+00
         21   -1    0    0  503  502  0.00000000000E+00  0.00000000000E+00  0.13311947114E+01  0.13311947114E+01  0.00000000000E+00 0.  1.
         21   -1    0    0  501  503 -0.00000000000E+00 -0.00000000000E+00 -0.11638915189E+04  0.11638915189E+04  0.00000000000E+00 0. -1.
          2    1    1    2  501    0 -0.22673679125E+01 -0.39219428697E+02 -0.54483845053E+03  0.54625291003E+03  0.00000000000E+00 0.  1.
         -2    1    1    2    0  502  0.22673679125E+01  0.39219428697E+02 -0.61772187368E+03  0.61896980360E+03  0.00000000000E+00 0. -1.
</event>
<event>
 4    1  0.1780267E+004  0.2097432E+02  0.7546771E-02  0.1519632E+00
         21   -1    0    0  503  502  0.00000000000E+00  0.00000000000E+00  0.73797985865E+02  0.73797985865E+02  0.00000000000E+00 0. -1.
         21   -1    0    0  501  503 -0.00000000000E+00 -0.00000000000E+00 -0.48710489716E+02  0.48710489716E+02  0.00000000000E+00 0.  1.
          2    1    1    2  501    0 -0.32647888075E+01  0.20718672909E+02 -0.44840078090E+02  0.49503079260E+02  0.00000000000E+00 0.  1.
         -2    1    1    2    0  502  0.32647888075E+01 -0.20718672909E+02  0.69927574239E+02  0.73005396322E+02  0.00000000000E+00 0. -1.
</event>
<event>
 4    1  0.1780267E+004  0.2096849E+02  0.7546771E-02  0.1519715E+00
         21   -1    0    0  501  502  0.00000000000E+00  0.00000000000E+00  0.12798531471E+02  0.12798531471E+02  0.00000000000E+00 0.  1.
         21   -1    0    0  502  503 -0.00000000000E+00 -0.00000000000E+00 -0.50049505581E+03  0.50049505581E+03  0.00000000000E+00 0. -1.
          2    1    1    2  501    0  0.11785129806E+02  0.17343246023E+02  0.38339080238E+01  0.21316104660E+02  0.00000000000E+00 0.  1.
         -2    1    1    2    0  503 -0.11785129806E+02 -0.17343246023E+02 -0.49153043236E+03  0.49197748262E+03  0.00000000000E+00 0. -1.
</event>
<event>
 4    1  0.1780267E+004  0.2294913E+02  0.7546771E-02  0.1493138E+00
         21   -1    0    0  503  502  0.00000000000E+00  0.00000000000E+00  0.41449617024E+02  0.41449617024E+02  0.00000000000E+00 0.  1.
         21   -1    0    0  501  503 -0.00000000000E+00 -0.00000000000E+00 -0.37383764448E+02  0.37383764448E+02  0.00000000000E+00 0. -1.
          2    1    1    2  501    0  0.42719807059E+01  0.22548011199E+02 -0.29992192247E+02  0.37764986746E+02  0.00000000000E+00 0. -1.
         -2    1    1    2    0  502 -0.42719807059E+01 -0.22548011199E+02  0.34058044822E+02  0.41068394725E+02  0.00000000000E+00 0.  1.
</event>
<event>
 4    1  0.1780267E+004  0.2104409E+02  0.7546771E-02  0.1518636E+00
         21   -1    0    0  503  502  0.00000000000E+00  0.00000000000E+00  0.70611620020E+02  0.70611620020E+02  0.00000000000E+00 0.  1.
         21   -1    0    0  501  503 -0.00000000000E+00 -0.00000000000E+00 -0.99712890760E+01  0.99712890760E+01  0.00000000000E+00 0. -1.
          2    1    1    2  501    0  0.20357685431E+02 -0.53308692136E+01  0.57778700622E+01  0.21822861983E+02  0.00000000000E+00 0. -1.
         -2    1    1    2    0  502 -0.20357685431E+02  0.53308692136E+01  0.54862460881E+02  0.58760047112E+02  0.00000000000E+00 0.  1.
</event>
<event>
 4    1  0.1780267E+004  0.2076457E+02  0.7546771E-02  0.1522653E+00
         21   -1    0    0  503  502  0.00000000000E+00  0.00000000000E+00  0.16782111373E+02  0.16782111373E+02  0.00000000000E+00 0.  1.
         21   -1    0    0  501  503 -0.00000000000E+00 -0.00000000000E+00 -0.37037180061E+03  0.37037180061E+03  0.00000000000E+00 0. -1.
          2    1    1    2  501    0  0.55396964701E+01 -0.20011972183E+02 -0.36353708678E+03  0.36412962078E+03  0.00000000000E+00 0. -1.
         -2    1    1    2    0  502 -0.55396964701E+01  0.20011972183E+02  0.99473975383E+01  0.23024291204E+02  0.00000000000E+00 0.  1.
</event>
<event>
 4    1  0.1780267E+004  0.2026724E+02  0.7546771E-02  0.1529989E+00
         21   -1    0    0  501  502  0.00000000000E+00  0.00000000000E+00  0.26076886458E+02  0.26076886458E+02  0.00000000000E+00 0. -1.
         21   -1    0    0  502  503 -0.00000000000E+00 -0.00000000000E+00 -0.15771326758E+02  0.15771326758E+02  0.00000000000E+00 0.  1.
          2    1    1    2  501    0  0.33738894632E+01 -0.19984443832E+02  0.44188609343E+01  0.20743371408E+02  0.00000000000E+00 0. -1.
         -2    1    1    2    0  503 -0.33738894632E+01  0.19984443832E+02  0.58866987654E+01  0.21104841808E+02  0.00000000000E+00 0.  1.
</event>
<event>
 4    1  0.1780267E+004  0.2228120E+02  0.7546771E-02  0.1501727E+00
         21   -1    0    0  501  502  0.00000000000E+00  0.00000000000E+00  0.18006297136E+02  0.18006297136E+02  0.00000000000E+00 0.  1.
         21   -1    0    0  502  503 -0.00000000000E+00 -0.00000000000E+00 -0.93002884553E+02  0.93002884553E+02  0.00000000000E+00 0. -1.
          2    1    1    2  501    0 -0.21481897097E+02 -0.59144052606E+01  0.90576702478E+01  0.24051891460E+02  0.00000000000E+00 0.  1.
         -2    1    1    2    0  503  0.21481897097E+02  0.59144052606E+01 -0.84054257664E+02  0.86957290229E+02  0.00000000000E+00 0. -1.
</event>
<event>
 4    1  0.1780267E+004  0.3300858E+02  0.7546771E-02  0.1395131E+00
         21   -1    0    0  503  502  0.00000000000E+00  0.00000000000E+00  0.12864256945E+02  0.12864256945E+02  0.00000000000E+00 0.  1.
         21   -1    0    0  501  503 -0.00000000000E+00 -0.00000000000E+00 -0.12692853209E+03  0.12692853209E+03  0.00000000000E+00 0. -1.
          2    1    1    2  501    0  0.30801219738E+02  0.11868084881E+02 -0.97349538034E+02  0.10279347806E+03  0.00000000000E+00 0. -1.
         -2    1    1    2    0  502 -0.30801219738E+02 -0.11868084881E+02 -0.16714737114E+02  0.36999310978E+02  0.00000000000E+00 0.  1.
</event>
<event>
 4    1  0.1780267E+004  0.2094820E+02  0.7546771E-02  0.1520006E+00
         21   -1    0    0  503  502  0.00000000000E+00  0.00000000000E+00  0.18338855652E+02  0.18338855652E+02  0.00000000000E+00 0.  1.
         21   -1    0    0  501  503 -0.00000000000E+00 -0.00000000000E+00 -0.24059398456E+02  0.24059398456E+02  0.00000000000E+00 0. -1.
          2    1    1    2  501    0  0.10568977544E+02  0.18086569669E+02 -0.44219840611E+01  0.21409839601E+02  0.00000000000E+00 0. -1.
         -2    1    1    2    0  502 -0.10568977544E+02 -0.18086569669E+02 -0.12985587428E+01  0.20988414507E+02  0.00000000000E+00 0.  1.
</event>
<event>
 4    1  0.1780267E+004  0.2276163E+02  0.7546771E-02  0.1495513E+00
         21   -1    0    0  501  502  0.00000000000E+00  0.00000000000E+00  0.18141820268E+01  0.18141820268E+01  0.00000000000E+00 0.  1.
         21   -1    0    0  502  503 -0.00000000000E+00 -0.00000000000E+00 -0.31144252320E+03  0.31144252320E+03  0.00000000000E+00 0. -1.
          2    1    1    2  501    0  0.12205375491E+02 -0.19212508404E+02 -0.10967764428E+03  0.11201462996E+03  0.00000000000E+00 0.  1.
         -2    1    1    2    0  503 -0.12205375491E+02  0.19212508404E+02 -0.19995069690E+03  0.20124207527E+03  0.00000000000E+00 0. -1.
</event>
<event>
 4    1  0.1780267E+004  0.2437618E+02  0.7546771E-02  0.1475904E+00
         21   -1    0    0  503  502  0.00000000000E+00  0.00000000000E+00  0.57348840281E+02  0.57348840281E+02  0.00000000000E+00 0. -1.
         21   -1    0    0  501  503 -0.00000000000E+00 -0.00000000000E+00 -0.17761196544E+02  0.17761196544E+02  0.00000000000E+00 0.  1.
          2    1    1    2  501    0 -0.43292931833E+01 -0.23988651290E+02 -0.44471483815E+01  0.24778524954E+02  0.00000000000E+00 0.  1.
         -2    1    1    2    0  502  0.43292931833E+01  0.23988651290E+02  0.44034792119E+02  0.50331511870E+02  0.00000000000E+00 0. -1.
</event>
<event>
 4    1  0.1780267E+004  0.4292878E+02  0.7546771E-02  0.1332128E+00
         21   -1    0    0  501  502  0.00000000000E+00  0.00000000000E+00  0.12192097942E+03  0.12192097942E+03  0.00000000000E+00 0. -1.
         21   -1    0    0  502  503 -0.00000000000E+00 -0.00000000000E+00 -0.38300678552E+02  0.38300678552E+02  0.00000000000E+00 0.  1.
          2    1    1    2  501    0 -0.24271486983E+02  0.35408684017E+02  0.10413977168E+03  0.11264089856E+03  0.00000000000E+00 0. -1.
         -2    1    1    2    0  503  0.24271486983E+02 -0.35408684017E+02 -0.20519470804E+02  0.47580759412E+02  0.00000000000E+00 0.  1.
</event>
<event>
 4    1  0.1780267E+004  0.2394031E+02  0.7546771E-02  0.1481016E+00
         21   -1    0    0  501  502  0.00000000000E+00  0.00000000000E+00  0.11715155276E+03  0.11715155276E+03  0.00000000000E+00 0. -1.
         21   -1    0    0  502  503 -0.00000000000E+00 -0.00000000000E+00 -0.57618127350E+01  0.57618127350E+01  0.00000000000E+00 0.  1.
          2    1    1    2  501    0  0.21998582601E+02  0.94446216175E+01  0.79569235651E+02  0.83092729983E+02  0.00000000000E+00 0. -1.
         -2    1    1    2    0  503 -0.21998582601E+02 -0.94446216175E+01  0.31820504374E+02  0.39820635512E+02  0.00000000000E+00 0.  1.
</event>
<event>
 4    1  0.1780267E+004  0.2606254E+02  0.7546771E-02  0.1457259E+00
         21   -1    0    0  501  502  0.00000000000E+00  0.00000000000E+00  0.11761746699E+02  0.11761746699E+02  0.00000000000E+00 0. -1.
         21   -1    0    0  502  503 -0.00000000000E+00 -0.00000000000E+00 -0.59260249829E+02  0.59260249829E+02  0.00000000000E+00 0.  1.
          2    1    1    2  501    0  0.89164126539E+00 -0.26047287144E+02 -0.18082708677E+02  0.31721294816E+02  0.00000000000E+00 0.  1.
         -2    1    1    2    0  503 -0.89164126539E+00  0.26047287144E+02 -0.29415794453E+02  0.39300701712E+02  0.00000000000E+00 0. -1.
</event>
<event>
 4    1  0.1780267E+004  0.2134736E+02  0.7546771E-02  0.1514363E+00
         21   -1    0    0  501  502  0.00000000000E+00  0.00000000000E+00  0.31433902173E+02  0.31433902173E+02  0.00000000000E+00 0. -1.
         21   -1    0    0  502  503 -0.00000000000E+00 -0.00000000000E+00 -0.14528112438E+02  0.14528112438E+02  0.00000000000E+00 0.  1.
          2    1    1    2  501    0 -0.60377646075E+01  0.20475722126E+02  0.73962378170E+01  0.22592346755E+02  0.00000000000E+00 0. -1.
         -2    1    1    2    0  503  0.60377646075E+01 -0.20475722126E+02  0.95095519177E+01  0.23369667856E+02  0.00000000000E+00 0.  1.
</event>
<event>
 4    1  0.1780267E+004  0.2139567E+02  0.7546771E-02  0.1513690E+00
         21   -1    0    0  501  502  0.00000000000E+00  0.00000000000E+00  0.18014378849E+02  0.18014378849E+02  0.00000000000E+00 0.  1.
         21   -1    0    0  502  503 -0.00000000000E+00 -0.00000000000E+00 -0.57372105247E+02  0.57372105247E+02  0.00000000000E+00 0. -1.
          2    1    1    2  501    0  0.20292774879E+02 -0.67807167108E+01  0.84543719438E+01  0.23005461012E+02  0.00000000000E+00 0.  1.
         -2    1    1    2    0  503 -0.20292774879E+02  0.67807167108E+01 -0.47812098342E+02  0.52381023084E+02  0.00000000000E+00 0. -1.
</event>
<event>
 4    1  0.1780267E+004  0.8652213E+02  0.7546771E-02  0.1189465E+00
         21   -1    0    0  501  502  0.00000000000E+00  0.00000000000E+00  0.57320489882E+01  0.57320489882E+01  0.00000000000E+00 0.  1.
         21   -1    0    0  502  503 -0.00000000000E+00 -0.00000000000E+00 -0.13086875564E+04  0.13086875564E+04  0.00000000000E+00 0. -1.
          2    1    1    2  501    0 -0.86083869698E+02 -0.86974805657E+01 -0.62171705962E+03  0.62770867528E+03  0.00000000000E+00 0. -1.
         -2    1    1    2    0  503  0.86083869698E+02  0.86974805657E+01 -0.68123844781E+03  0.68671093013E+03  0.00000000000E+00 0.  1.
</event>
<event>
 4    1  0.1780267E+004  0.3627553E+02  0.7546771E-02  0.1371811E+00
         21   -1    0    0  503  502  0.00000000000E+00  0.00000000000E+00  0.10830230952E+02  0.10830230952E+02  0.00000000000E+00 0.  1.
         21   -1    0    0  501  503 -0.00000000000E+00 -0.00000000000E+00 -0.21220266199E+03  0.21220266199E+03  0.00000000000E+00 0. -1.
          2    1    1    2  501    0 -0.33936364434E+02 -0.12815511249E+02 -0.17359241163E+03  0.17734215386E+03  0.00000000000E+00 0. -1.
         -2    1    1    2    0  502  0.33936364434E+02  0.12815511249E+02 -0.27780019408E+02  0.45690739083E+02  0.00000000000E+00 0.  1.
</event>
<event>
 4    1  0.1780267E+004  0.7291126E+02  0.7546771E-02  0.1221335E+00
         21   -1    0    0  501  502  0.00000000000E+00  0.00000000000E+00  0.60192860977E+02  0.60192860977E+02  0.00000000000E+00 0. -1.
         21   -1    0    0  502  503 -0.00000000000E+00 -0.00000000000E+00 -0.11315561042E+03  0.11315561042E+03  0.00000000000E+00 0.  1.
          2    1    1    2  501    0  0.70495989791E+02 -0.18610946840E+02  0.14127014744E+02  0.74267250282E+02  0.00000000000E+00 0. -1.
         -2    1    1    2    0  503 -0.70495989791E+02  0.18610946840E+02 -0.67089764189E+02  0.99081221116E+02  0.00000000000E+00 0.  1.
</event>
<event>
 4    1  0.1780267E+004  0.3352143E+02  0.7546771E-02  0.1391267E+00
         21   -1    0    0  501  502  0.00000000000E+00  0.00000000000E+00  0.31542669836E+02  0.31542669836E+02  0.00000000000E+00 0.  1.
         21   -1    0    0  502  503 -0.00000000000E+00 -0.00000000000E+00 -0.63319393884E+02  0.63319393884E+02  0.00000000000E+00 0. -1.
          2    1    1    2  501    0  0.97114360447E+01 -0.32083864918E+02  0.15480257680E+02  0.36923227865E+02  0.00000000000E+00 0.  1.
         -2    1    1    2    0  503 -0.97114360447E+01  0.32083864918E+02 -0.47256981728E+02  0.57938835855E+02  0.00000000000E+00 0. -1.
</event>
<event>
 4    1  0.1780267E+004  0.3636093E+02  0.7546771E-02  0.1371240E+00
         21   -1    0    0  501  502  0.00000000000E+00  0.00000000000E+00  0.18643424018E+03  0.18643424018E+03  0.00000000000E+00 0. -1.
         21   -1    0    0  502  503 -0.00000000000E+00 -0.00000000000E+00 -0.71135963599E+01  0.71135963599E+01  0.00000000000E+00 0.  1.
          2    1    1    2  501    0 -0.27778186850E+02  0.23462520187E+02  0.84279300301E+02  0.91788441415E+02  0.00000000000E+00 0. -1.
         -2    1    1    2    0  503  0.27778186850E+02 -0.23462520187E+02  0.95041343516E+02  0.10175939512E+03  0.00000000000E+00 0.  1.
</event>
<event>
 4    1  0.1780267E+004  0.2883238E+02  0.7546771E-02  0.1430022E+00
         21   -1    0    0  503  502  0.00000000000E+00  0.00000000000E+00  0.71569077499E+03  0.71569077499E+03  0.00000000000E+00 0.  1.
         21   -1    0    0  501  503 -0.00000000000E+00 -0.00000000000E+00 -0.11763096413E+01  0.11763096413E+01  0.00000000000E+00 0. -1.
          2    1    1    2  501    0  0.21073109451E+02 -0.19678172669E+02  0.39741522574E+03  0.39845974460E+03  0.00000000000E+00 0. -1.
         -2    1    1    2    0  502 -0.21073109451E+02  0.19678172669E+02  0.31709923961E+03  0.31840734003E+03  0.00000000000E+00 0.  1.
</event>
<event>
 4    1  0.1780267E+004  0.2148390E+02  0.7546771E-02  0.1512467E+00
         21   -1    0    0  503  502  0.00000000000E+00  0.00000000000E+00  0.13376864843E+02  0.13376864843E+02  0.00000000000E+00 0.  1.
         21   -1    0    0  501  503 -0.00000000000E+00 -0.00000000000E+00 -0.42290175365E+02  0.42290175365E+02  0.00000000000E+00 0. -1.
          2    1    1    2  501    0 -0.19864854655E+02 -0.81820169952E+01 -0.26399430348E+02  0.34036565269E+02  0.00000000000E+00 0.  1.
         -2    1    1    2    0  502  0.19864854655E+02  0.81820169952E+01 -0.25138801735E+01  0.21630474940E+02  0.00000000000E+00 0. -1.
</event>
<event>
 4    1  0.1780267E+004  0.3708339E+02  0.7546771E-02  0.1366480E+00
         21   -1    0    0  503  502  0.00000000000E+00  0.00000000000E+00  0.11499517481E+03  0.11499517481E+03  0.00000000000E+00 0. -1.
         21   -1    0    0  501  503 -0.00000000000E+00 -0.00000000000E+00 -0.18368627871E+02  0.18368627871E+02  0.00000000000E+00 0.  1.
          2    1    1    2  501    0  0.34978907984E+02 -0.12314769894E+02  0.89219405898E+01  0.38141559816E+02  0.00000000000E+00 0.  1.
         -2    1    1    2    0  502 -0.34978907984E+02  0.12314769894E+02  0.87704606348E+02  0.95222242864E+02  0.00000000000E+00 0. -1.
</event>
<event>
 4    1  0.1780267E+004  0.2204841E+02  0.7546771E-02  0.1504806E+00
         21   -1    0    0  501  502  0.00000000000E+00  0.00000000000E+00  0.14387578642E+02  0.14387578642E+02  0.00000000000E+00 0.  1.
         21   -1    0    0  502  503 -0.00000000000E+00 -0.00000000000E+00 -0.60994043956E+02  0.60994043956E+02  0.00000000000E+00 0. -1.
          2    1    1    2  501    0  0.15692868448E+02 -0.15487617532E+02  0.18690004896E+01  0.22127484714E+02  0.00000000000E+00 0.  1.
         -2    1    1    2    0  503 -0.15692868448E+02  0.15487617532E+02 -0.48475465804E+02  0.53254137885E+02  0.00000000000E+00 0. -1.
</event>
<event>
 4    1  0.1780267E+004  0.3182587E+02  0.7546771E-02  0.1404366E+00
         21   -1    0    0  501  502  0.00000000000E+00  0.00000000000E+00  0.10065856679E+02  0.10065856679E+02  0.00000000000E+00 0.  1.
         21   -1    0    0  502  503 -0.00000000000E+00 -0.00000000000E+00 -0.16252020450E+03  0.16252020450E+03  0.00000000000E+00 0. -1.
          2    1    1    2  501    0 -0.29479432707E+02  0.11993711824E+02 -0.22973776536E+02  0.39251502957E+02  0.00000000000E+00 0.  1.
         -2    1    1    2    0  503  0.29479432707E+02 -0.11993711824E+02 -0.12948057129E+03  0.13333455822E+03  0.00000000000E+00 0. -1.
</event>
<event>
 4    1  0.1780267E+004  0.2783138E+02  0.7546771E-02  0.1439431E+00
         21   -1    0    0  501  502  0.00000000000E+00  0.00000000000E+00  0.28425063830E+01  0.28425063830E+01  0.00000000000E+00 0.  1.
         21   -1    0    0  502  503 -0.00000000000E+00 -0.00000000000E+00 -0.30831515716E+03  0.30831515716E+03  0.00000000000E+00 0. -1.
          2    1    1    2  501    0  0.24331875967E+02 -0.13510936311E+02 -0.99711291368E+02  0.10352259277E+03  0.00000000000E+00 0.  1.
         -2    1    1    2    0  503 -0.24331875967E+02  0.13510936311E+02 -0.20576135941E+03  0.20763507077E+03  0.00000000000E+00 0. -1.
</event>
<event>
 4    1  0.1780267E+004  0.2586771E+02  0.7546771E-02  0.1459326E+00
         21   -1    0    0  503  502  0.00000000000E+00  0.00000000000E+00  0.33365373769E+02  0.33365373769E+02  0.00000000000E+00 0.  1.
         21   -1    0    0  501  503 -0.00000000000E+00 -0.00000000000E+00 -0.44789558638E+02  0.44789558638E+02  0.00000000000E+00 0. -1.
          2    1    1    2  501    0  0.19844395483E+02 -0.16593326511E+02 -0.34751727479E+02  0.43322293101E+02  0.00000000000E+00 0. -1.
         -2    1    1    2    0  502 -0.19844395483E+02  0.16593326511E+02  0.23327542610E+02  0.34832639306E+02  0.00000000000E+00 0.  1.
</event>
<event>
 4    1  0.1780267E+004  0.2709519E+02  0.7546771E-02  0.1446654E+00
         21   -1    0    0  501  502  0.00000000000E+00  0.00000000000E+00  0.23854545688E+03  0.23854545688E+03  0.00000000000E+00 0.  1.
         21   -1    0    0  502  503 -0.00000000000E+00 -0.00000000000E+00 -0.30838505415E+01  0.30838505415E+01  0.00000000000E+00 0. -1.
          2    1    1    2  501    0  0.69723955213E+01 -0.26182720343E+02  0.12316695972E+03  0.12611204982E+03  0.00000000000E+00 0. -1.
         -2    1    1    2    0  503 -0.69723955213E+01  0.26182720343E+02  0.11229464662E+03  0.11551725760E+03  0.00000000000E+00 0.  1.
</event>
<event>
 4    1  0.1780267E+004  0.2923592E+02  0.7546771E-02  0.1426354E+00
         21   -1    0    0  501  502  0.00000000000E+00  0.00000000000E+00  0.59364841252E+02  0.59364841252E+02  0.00000000000E+00 0. -1.
         21   -1    0    0  502  503 -0.00000000000E+00 -0.00000000000E+00 -0.14858589210E+02  0.14858589210E+02  0.00000000000E+00 0.  1.
          2    1    1    2  501    0 -0.23962421376E+02  0.16749370428E+02  0.15719611734E+02  0.33194054302E+02  0.00000000000E+00 0.  1.
         -2    1    1    2    0  503  0.23962421376E+02 -0.16749370428E+02  0.28786640308E+02  0.41029376161E+02  0.00000000000E+00 0. -1.
</event>
<event>
 4    1  0.1780267E+004  0.3003472E+02  0.7546771E-02  0.1419295E+00
         21   -1    0    0  501  502  0.00000000000E+00  0.00000000000E+00  0.24000966524E+01  0.24000966524E+01  0.00000000000E+00 0. -1.
         21   -1    0    0  502  503 -0.00000000000E+00 -0.00000000000E+00 -0.37997488208E+03  0.37997488208E+03  0.00000000000E+00 0.  1.
          2    1    1    2  501    0 -0.13688915587E+02 -0.26733835117E+02 -0.16887553667E+03  0.17152559936E+03  0.00000000000E+00 0. -1.
         -2    1    1    2    0  503  0.13688915587E+02  0.26733835117E+02 -0.20869924876E+03  0.21084937937E+03  0.00000000000E+00 0.  1.
</event>
<event>
 4    1  0.1780267E+004  0.2753632E+02  0.7546771E-02  0.1442294E+00
         21   -1    0    0  503  502  0.00000000000E+00  0.00000000000E+00  0.31956414694E+01  0.31956414694E+01  0.00000000000E+00 0. -1.
         21   -1    0    0  501  503 -0.00000000000E+00 -0.00000000000E+00 -0.27449269301E+03  0.27449269301E+03  0.00000000000E+00 0.  1.
          2    1    1    2  501    0  0.14788398561E+01 -0.27496583243E+02 -0.18677326167E+03  0.18879221470E+03  0.00000000000E+00 0.  1.
         -2    1    1    2    0  502 -0.14788398561E+01  0.27496583243E+02 -0.84523789877E+02  0.88896119783E+02  0.00000000000E+00 0. -1.
</event>
<event>
 4    1  0.1780267E+004  0.2682576E+02  0.7546771E-02  0.1449366E+00
         21   -1    0    0  503  502  0.00000000000E+00  0.00000000000E+00  0.57100832231E+02  0.57100832231E+02  0.00000000000E+00 0. -1.
         21   -1    0    0  501  503 -0.00000000000E+00 -0.00000000000E+00 -0.16537582079E+02  0.16537582079E+02  0.00000000000E+00 0.  1.
          2    1    1    2  501    0  0.23970147174E+02  0.12043811817E+02  0.23215777785E+01  0.26926029823E+02  0.00000000000E+00 0.  1.
         -2    1    1    2    0  502 -0.23970147174E+02 -0.12043811817E+02  0.38241672373E+02  0.46712384487E+02  0.00000000000E+00 0. -1.
</event>
<event>
 4    1  0.1780267E+004  0.3450595E+02  0.7546771E-02  0.1384070E+00
         21   -1    0    0  501  502  0.00000000000E+00  0.00000000000E+00  0.17501076513E+04  0.17501076513E+04  0.00000000000E+00 0. -1.
         21   -1    0    0  502  503 -0.00000000000E+00 -0.00000000000E+00 -0.76603739901E+00  0.76603739901E+00  0.00000000000E+00 0.  1.
          2    1    1    2  501    0  0.25915390521E+02  0.22782739527E+02  0.58185495074E+03  0.58287721210E+03  0.00000000000E+00 0.  1.
         -2    1    1    2    0  503 -0.25915390521E+02 -0.22782739527E+02  0.11674866632E+04  0.11679964766E+04  0.00000000000E+00 0. -1.
</event>
<event>
 4    1  0.1780267E+004  0.2900979E+02  0.7546771E-02  0.1428401E+00
         21   -1    0    0  503  502  0.00000000000E+00  0.00000000000E+00  0.68235918860E+01  0.68235918860E+01  0.00000000000E+00 0. -1.
         21   -1    0    0  501  503 -0.00000000000E+00 -0.00000000000E+00 -0.12333766403E+03  0.12333766403E+03  0.00000000000E+00 0.  1.
          2    1    1    2  501    0  0.78035073821E+01  0.27940525985E+02 -0.57818785170E+02  0.64688326909E+02  0.00000000000E+00 0. -1.
         -2    1    1    2    0  502 -0.78035073821E+01 -0.27940525985E+02 -0.58695286977E+02  0.65472929010E+02  0.00000000000E+00 0.  1.
</event>
<event>
 4    1  0.1780267E+004  0.2420896E+02  0.7546771E-02  0.1477851E+00
         21   -1    0    0  501  502  0.00000000000E+00  0.00000000000E+00  0.16711083283E+03  0.16711083283E+03  0.00000000000E+00 0.  1.
         21   -1    0    0  502  503 -0.00000000000E+00 -0.00000000000E+00 -0.35964561782E+01  0.35964561782E+01  0.00000000000E+00 0. -1.
          2    1    1    2  501    0 -0.11937667579E+02  0.21061000200E+02  0.95211395265E+02  0.98240945766E+02  0.00000000000E+00 0.  1.
         -2    1    1    2    0  503  0.11937667579E+02 -0.21061000200E+02  0.68302981391E+02  0.72466343246E+02  0.00000000000E+00 0. -1.
</event>
<event>
 4    1  0.1780267E+004  0.2604748E+02  0.7546771E-02  0.1457418E+00
         21   -1    0    0  503  502  0.00000000000E+00  0.00000000000E+00  0.10419100994E+01  0.10419100994E+01  0.00000000000E+00 0. -1.
         21   -1    0    0  501  503 -0.00000000000E+00 -0.00000000000E+00 -0.80015226406E+03  0.80015226406E+03  0.00000000000E+00 0.  1.
          2    1    1    2  501    0 -0.25497680482E+02 -0.53235041528E+01 -0.22670348532E+03  0.22819496415E+03  0.00000000000E+00 0. -1.
         -2    1    1    2    0  502  0.25497680482E+02  0.53235041528E+01 -0.57240686864E+03  0.57299921001E+03  0.00000000000E+00 0.  1.
</event>
<event>
 4    1  0.1780267E+004  0.2087235E+02  0.7546771E-02  0.1521095E+00
         21   -1    0    0  501  502  0.00000000000E+00  0.00000000000E+00  0.11818274601E+02  0.11818274601E+02  0.00000000000E+00 0.  1.
         21   -1    0    0  502  503 -0.00000000000E+00 -0.00000000000E+00 -0.12139942958E+03  0.12139942958E+03  0.00000000000E+00 0. -1.
          2    1    1    2  501    0  0.59584855460E+01 -0.20003784286E+02  0.79294141794E+00  0.20887405101E+02  0.00000000000E+00 0.  1.
         -2    1    1    2    0  503 -0.59584855460E+01  0.20003784286E+02 -0.11037409640E+03  0.11233029908E+03  0.00000000000E+00 0. -1.
</event>
<event>
 4    1  0.1780267E+004  0.2157082E+02  0.7546771E-02  0.1511269E+00
         21   -1    0    0  503  502  0.00000000000E+00  0.00000000000E+00  0.94413914113E+01  0.94413914113E+01  0.00000000000E+00 0.  1.
         21   -1    0    0  501  503 -0.00000000000E+00 -0.00000000000E+00 -0.68077485386E+02  0.68077485386E+02  0.00000000000E+00 0. -1.
          2    1    1    2  501    0 -0.17305097908E+02 -0.12877654228E+02 -0.49683335933E+02  0.54163957217E+02  0.00000000000E+00 0. -1.
         -2    1    1    2    0  502  0.17305097908E+02  0.12877654228E+02 -0.89527580413E+01  0.23354919579E+02  0.00000000000E+00 0.  1.
</event>
<event>
 4    1  0.1780267E+004  0.3003267E+02  0.7546771E-02  0.1419313E+00
         21   -1    0    0  501  502  0.00000000000E+00  0.00000000000E+00  0.19229548028E+03  0.19229548028E+03  0.00000000000E+00 0.  1.
         21   -1    0    0  502  503 -0.00000000000E+00 -0.00000000000E+00 -0.85314049243E+01  0.85314049243E+01  0.00000000000E+00 0. -1.
          2    1    1    2  501    0 -0.20347363760E+02  0.22089496288E+02  0.15925701313E+03  0.16206405304E+03  0.00000000000E+00 0.  1.
         -2    1    1    2    0  503  0.20347363760E+02 -0.22089496288E+02  0.24507062231E+02  0.38762832164E+02  0.00000000000E+00 0. -1.
</event>
<event>
 4    1  0.1780267E+004  0.2114506E+02  0.7546771E-02  0.1517204E+00
         21   -1    0    0  503  502  0.00000000000E+00  0.00000000000E+00  0.87002423936E+01  0.87002423936E+01  0.00000000000E+00 0. -1.
         21   -1    0    0  501  503 -0.00000000000E+00 -0.00000000000E+00 -0.56277766129E+02  0.56277766129E+02  0.00000000000E+00 0.  1.
          2    1    1    2  501    0  0.15073589235E+02  0.14829039413E+02 -0.14215011567E+02  0.25479012073E+02  0.00000000000E+00 0.  1.
         -2    1    1    2    0  502 -0.15073589235E+02 -0.14829039413E+02 -0.33362512168E+02  0.39498996450E+02  0.00000000000E+00 0. -1.
</event>
<event>
 4    1  0.1780267E+004  0.2251514E+02  0.7546771E-02  0.1498678E+00
         21   -1    0    0  503  502  0.00000000000E+00  0.00000000000E+00  0.12388579698E+03  0.12388579698E+03  0.00000000000E+00 0. -1.
         21   -1    0    0  501  503 -0.00000000000E+00 -0.00000000000E+00 -0.20675505869E+02  0.20675505869E+02  0.00000000000E+00 0.  1.
          2    1    1    2  501    0  0.89050712132E+01  0.20679241770E+02 -0.13128959493E+02  0.26063401752E+02  0.00000000000E+00 0.  1.
         -2    1    1    2    0  502 -0.89050712132E+01 -0.20679241770E+02  0.11633925060E+03  0.11849790110E+03  0.00000000000E+00 0. -1.
</event>
<event>
 4    1  0.1780267E+004  0.2954524E+02  0.7546771E-02  0.1423590E+00
         21   -1    0    0  501  502  0.00000000000E+00  0.00000000000E+00  0.77114979572E+01  0.77114979572E+01  0.00000000000E+00 0.  1.
         21   -1    0    0  502  503 -0.00000000000E+00 -0.00000000000E+00 -0.12890496618E+03  0.12890496618E+03  0.00000000000E+00 0. -1.
          2    1    1    2  501    0 -0.23696097921E+02  0.17646989392E+02 -0.36751967407E+02  0.47155364484E+02  0.00000000000E+00 0. -1.
         -2    1    1    2    0  503  0.23696097921E+02 -0.17646989392E+02 -0.84441500817E+02  0.89461099655E+02  0.00000000000E+00 0.  1.
</event>
<event>
 4    1  0.1780267E+004  0.6815560E+02  0.7546771E-02  0.1234386E+00
         21   -1    0    0  503  502  0.00000000000E+00  0.00000000000E+00  0.27239912404E+03  0.27239912404E+03  0.00000000000E+00 0.  1.
         21   -1    0    0  501  503 -0.00000000000E+00 -0.00000000000E+00 -0.38447604036E+02  0.38447604036E+02  0.00000000000E+00 0. -1.
          2    1    1    2  501    0  0.21277039862E+02 -0.64749309676E+02  0.10352624959E+01  0.68163460132E+02  0.00000000000E+00 0. -1.
         -2    1    1    2    0  502 -0.21277039862E+02  0.64749309676E+02  0.23291625751E+03  0.24268326794E+03  0.00000000000E+00 0.  1.
</event>
<event>
 4    1  0.1780267E+004  0.3172899E+02  0.7546771E-02  0.1405144E+00
         21   -1    0    0  501  502  0.00000000000E+00  0.00000000000E+00  0.23530896499E+02  0.23530896499E+02  0.00000000000E+00 0. -1.
         21   -1    0    0  502  503 -0.00000000000E+00 -0.00000000000E+00 -0.49040007963E+02  0.49040007963E+02  0.00000000000E+00 0.  1.
          2    1    1    2  501    0  0.20489559506E+02  0.24226161995E+02 -0.25715327147E+02  0.40841241706E+02  0.00000000000E+00 0.  1.
         -2    1    1    2    0  503 -0.20489559506E+02 -0.24226161995E+02  0.20621568374E+00  0.31729662757E+02  0.00000000000E+00 0. -1.
</event>
<event>
 4    1  0.1780267E+004  0.2282135E+02  0.7546771E-02  0.1494754E+00
         21   -1    0    0  503  502  0.00000000000E+00  0.00000000000E+00  0.39929017521E+01  0.39929017521E+01  0.00000000000E+00 0. -1.
         21   -1    0    0  501  503 -0.00000000000E+00 -0.00000000000E+00 -0.18082623802E+03  0.18082623802E+03  0.00000000000E+00 0.  1.
          2    1    1    2  501    0 -0.11315988353E+02  0.19818239969E+02 -0.39634214028E+02  0.45734944512E+02  0.00000000000E+00 0. -1.
         -2    1    1    2    0  502  0.11315988353E+02 -0.19818239969E+02 -0.13719912224E+03  0.13908419526E+03  0.00000000000E+00 0.  1.
</event>
<event>
 4    1  0.1780267E+004  0.2290796E+02  0.7546771E-02  0.1493657E+00
         21   -1    0    0  503  502  0.00000000000E+00  0.00000000000E+00  0.34306079560E+01  0.34306079560E+01  0.00000000000E+00 0.  1.
         21   -1    0    0  501  503 -0.00000000000E+00 -0.00000000000E+00 -0.20068947934E+03  0.20068947934E+03  0.00000000000E+00 0. -1.
          2    1    1    2  501    0  0.68229803071E+01  0.21868280671E+02 -0.14839722812E+03  0.15015496020E+03  0.00000000000E+00 0. -1.
         -2    1    1    2    0  502 -0.68229803071E+01 -0.21868280671E+02 -0.48861643270E+02  0.53965127099E+02  0.00000000000E+00 0.  1.
</event>
<event>
 4    1  0.1780267E+004  0.3770060E+02  0.7546771E-02  0.1362514E+00
         21   -1    0    0  501  502  0.00000000000E+00  0.00000000000E+00  0.12150086381E+02  0.12150086381E+02  0.00000000000E+00 0.  1.
         21   -1    0    0  502  503 -0.00000000000E+00 -0.00000000000E+00 -0.15806489947E+03  0.15806489947E+03  0.00000000000E+00 0. -1.
          2    1    1    2  501    0 -0.28795180901E+02  0.24334593404E+02 -0.29568025002E+02  0.47912451219E+02  0.00000000000E+00 0.  1.
         -2    1    1    2    0  503  0.28795180901E+02 -0.24334593404E+02 -0.11634678809E+03  0.12230253464E+03  0.00000000000E+00 0. -1.
</event>
<event>
 4    1  0.1780267E+004  0.2302905E+02  0.7546771E-02  0.1492134E+00
         21   -1    0    0  501  502  0.00000000000E+00  0.00000000000E+00  0.67200564369E+01  0.67200564369E+01  0.00000000000E+00 0.  1.
         21   -1    0    0  502  503 -0.00000000000E+00 -0.00000000000E+00 -0.11744620419E+03  0.11744620419E+03  0.00000000000E+00 0. -1.
          2    1    1    2  501    0 -0.78862032152E+01 -0.21636655490E+02 -0.19804819065E+02  0.30373803189E+02  0.00000000000E+00 0.  1.
         -2    1    1    2    0  503  0.78862032152E+01  0.21636655490E+02 -0.90921328692E+02  0.93792457442E+02  0.00000000000E+00 0. -1.
</event>
<event>
 4    1  0.1780267E+004  0.2539315E+02  0.7546771E-02  0.1464453E+00
         21   -1    0    0  503  502  0.00000000000E+00  0.00000000000E+00  0.41766951540E+02  0.41766951540E+02  0.00000000000E+00 0.  1.
         21   -1    0    0  501  503 -0.00000000000E+00 -0.00000000000E+00 -0.23457117708E+02  0.23457117708E+02  0.00000000000E+00 0. -1.
          2    1    1    2  501    0 -0.24693788292E+02 -0.59185237074E+01 -0.99126311562E+01  0.27259353615E+02  0.00000000000E+00 0. -1.
         -2    1    1    2    0  502  0.24693788292E+02  0.59185237074E+01  0.28222464988E+02  0.37964715633E+02  0.00000000000E+00 0.  1.
</event>
<event>
 4    1  0.1780267E+004  0.4191721E+02  0.7546771E-02  0.1337603E+00
         21   -1    0    0  503  502  0.00000000000E+00  0.00000000000E+00  0.18191236282E+02  0.18191236282E+02  0.00000000000E+00 0. -1.
         21   -1    0    0  501  503 -0.00000000000E+00 -0.00000000000E+00 -0.52025850056E+03  0.52025850056E+03  0.00000000000E+00 0.  1.
          2    1    1    2  501    0  0.12905632279E+02  0.39881041073E+02 -0.49398523018E+03  0.49576048694E+03  0.00000000000E+00 0.  1.
         -2    1    1    2    0  502 -0.12905632279E+02 -0.39881041073E+02 -0.80820340991E+01  0.42689249897E+02  0.00000000000E+00 0. -1.
</event>
<event>
 4    1  0.1780267E+004  0.2210807E+02  0.7546771E-02  0.1504012E+00
         21   -1    0    0  501  502  0.00000000000E+00  0.00000000000E+00  0.77534065144E+01  0.77534065144E+01  0.00000000000E+00 0.  1.
         21   -1    0    0  502  503 -0.00000000000E+00 -0.00000000000E+00 -0.66933175991E+02  0.66933175991E+02  0.00000000000E+00 0. -1.
          2    1    1    2  501    0  0.17834872711E+02 -0.13064611103E+02 -0.38597325770E+02  0.44480560973E+02  0.00000000000E+00 0. -1.
         -2    1    1    2    0  503 -0.17834872711E+02  0.13064611103E+02 -0.20582443706E+02  0.30206021532E+02  0.00000000000E+00 0.  1.
</event>
<event>
 4    1  0.1780267E+004  0.2482675E+02  0.7546771E-02  0.1470751E+00
         21   -1    0    0  503  502  0.00000000000E+00  0.00000000000E+00  0.61040817452E+02  0.61040817452E+02  0.00000000000E+00 0.  1.
         21   -1    0    0  501  503 -0.00000000000E+00 -0.00000000000E+00 -0.12179462177E+03  0.12179462177E+03  0.00000000000E+00 0. -1.
          2    1    1    2  501    0 -0.23741135652E+02 -0.72612756572E+01 -0.11792305475E+03  0.12050815113E+03  0.00000000000E+00 0. -1.
         -2    1    1    2    0  502  0.23741135652E+02  0.72612756572E+01  0.57169250434E+02  0.62327288096E+02  0.00000000000E+00 0.  1.
</event>
<event>
 4    1  0.1780267E+004  0.3358683E+02  0.7546771E-02  0.1390780E+00
         21   -1    0    0  501  502  0.00000000000E+00  0.00000000000E+00  0.10534805054E+03  0.10534805054E+03  0.00000000000E+00 0. -1.
         21   -1    0    0  502  503 -0.00000000000E+00 -0.00000000000E+00 -0.12081023659E+02  0.12081023659E+02  0.00000000000E+00 0.  1.
          2    1    1    2  501    0 -0.28326549792E+02  0.18046648325E+02  0.26840097390E+02  0.42993787537E+02  0.00000000000E+00 0.  1.
         -2    1    1    2    0  503  0.28326549792E+02 -0.18046648325E+02  0.66426929492E+02  0.74435286664E+02  0.00000000000E+00 0. -1.
</event>
<event>
 4    1  0.1780267E+004  0.2118556E+02  0.7546771E-02  0.1516632E+00
         21   -1    0    0  503  502  0.00000000000E+00  0.00000000000E+00  0.19230661285E+02  0.19230661285E+02  0.00000000000E+00 0.  1.
         21   -1    0    0  501  503 -0.00000000000E+00 -0.00000000000E+00 -0.10882907746E+03  0.10882907746E+03  0.00000000000E+00 0. -1.
          2    1    1    2  501    0 -0.63582367592E+01 -0.20208930926E+02 -0.10154942343E+03  0.10373578680E+03  0.00000000000E+00 0. -1.
         -2    1    1    2    0  502  0.63582367592E+01  0.20208930926E+02  0.11951007256E+02  0.24323951946E+02  0.00000000000E+00 0.  1.
</event>
<event>
 4    1  0.1780267E+004  0.2060884E+02  0.7546771E-02  0.1524923E+00
         21   -1    0    0  501  502  0.00000000000E+00  0.00000000000E+00  0.42922709016E+01  0.42922709016E+01  0.00000000000E+00 0. -1.
         21   -1    0    0  502  503 -0.00000000000E+00 -0.00000000000E+00 -0.16091596928E+03  0.16091596928E+03  0.00000000000E+00 0.  1.
          2    1    1    2  501    0 -0.11641335541E+02 -0.17005989791E+02 -0.27052232921E+02  0.34008053281E+02  0.00000000000E+00 0. -1.
         -2    1    1    2    0  503  0.11641335541E+02  0.17005989791E+02 -0.12957146545E+03  0.13120018690E+03  0.00000000000E+00 0.  1.
</event>
<event>
 4    1  0.1780267E+004  0.8009568E+02  0.7546771E-02  0.1203626E+00
         21   -1    0    0  503  502  0.00000000000E+00  0.00000000000E+00  0.48093148185E+02  0.48093148185E+02  0.00000000000E+00 0. -1.
         21   -1    0    0  501  503 -0.00000000000E+00 -0.00000000000E+00 -0.17445991386E+03  0.17445991386E+03  0.00000000000E+00 0.  1.
          2    1    1    2  501    0  0.61828593310E+02 -0.50917020329E+02 -0.11717155714E+03  0.14193129222E+03  0.00000000000E+00 0.  1.
         -2    1    1    2    0  502 -0.61828593310E+02  0.50917020329E+02 -0.91952085405E+01  0.80621769826E+02  0.00000000000E+00 0. -1.
</event>
<event>
 4    1  0.1780267E+004  0.3207381E+02  0.7546771E-02  0.1402391E+00
         21   -1    0    0  503  502  0.00000000000E+00  0.00000000000E+00  0.13818275411E+02  0.13818275411E+02  0.00000000000E+00 0.  1.
         21   -1    0    0  501  503 -0.00000000000E+00 -0.00000000000E+00 -0.10771341685E+03  0.10771341685E+03  0.00000000000E+00 0. -1.
          2    1    1    2  501    0  0.12242311610E+02  0.29645489460E+02 -0.80717303080E+02  0.86856273552E+02  0.00000000000E+00 0. -1.
         -2    1    1    2    0  502 -0.12242311610E+02 -0.29645489460E+02 -0.13177838361E+02  0.34675418710E+02  0.00000000000E+00 0.  1.
</event>
<event>
 4    1  0.1780267E+004  0.3022352E+02  0.7546771E-02  0.1417664E+00
         21   -1    0    0  503  502  0.00000000000E+00  0.00000000000E+00  0.15827614758E+04  0.15827614758E+04  0.00000000000E+00 0. -1.
         21   -1    0    0  501  503 -0.00000000000E+00 -0.00000000000E+00 -0.62997543511E+01  0.62997543511E+01  0.00000000000E+00 0.  1.
          2    1    1    2  501    0 -0.25884879765E+02  0.15602376755E+02  0.30968450776E+02  0.43272463580E+02  0.00000000000E+00 0.  1.
         -2    1    1    2    0  502  0.25884879765E+02 -0.15602376755E+02  0.15454932706E+04  0.15457887665E+04  0.00000000000E+00 0. -1.
</event>
<event>
 4    1  0.1780267E+004  0.2581944E+02  0.7546771E-02  0.1459842E+00
         21   -1    0    0  501  502  0.00000000000E+00  0.00000000000E+00  0.14650497966E+03  0.14650497966E+03  0.00000000000E+00 0.  1.
         21   -1    0    0  502  503 -0.00000000000E+00 -0.00000000000E+00 -0.49623452354E+01  0.49623452354E+01  0.00000000000E+00 0. -1.
          2    1    1    2  501    0  0.63581358893E+01  0.25024340354E+02  0.92594149242E+02  0.96126583087E+02  0.00000000000E+00 0.  1.
         -2    1    1    2    0  503 -0.63581358893E+01 -0.25024340354E+02  0.48948485178E+02  0.55340741804E+02  0.00000000000E+00 0. -1.
</event>
<event>
 4    1  0.1780267E+004  0.2083910E+02  0.7546771E-02  0.1521574E+00
         21   -1    0    0  501  502  0.00000000000E+00  0.00000000000E+00  0.23729389396E+02  0.23729389396E+02  0.00000000000E+00 0. -1.
         21   -1    0    0  502  503 -0.00000000000E+00 -0.00000000000E+00 -0.28577767807E+02  0.28577767807E+02  0.00000000000E+00 0.  1.
          2    1    1    2  501    0  0.12556916534E+02 -0.16631058796E+02  0.13259497857E+02  0.24699849250E+02  0.00000000000E+00 0. -1.
         -2    1    1    2    0  503 -0.12556916534E+02  0.16631058796E+02 -0.18107876267E+02  0.27607307954E+02  0.00000000000E+00 0.  1.
</event>
<event>
 4    1  0.1780267E+004  0.2263912E+02  0.7546771E-02  0.1497080E+00
         21   -1    0    0  503  502  0.00000000000E+00  0.00000000000E+00  0.41427053108E+01  0.41427053108E+01  0.00000000000E+00 0.  1.
         21   -1    0    0  501  503 -0.00000000000E+00 -0.00000000000E+00 -0.46187900399E+03  0.46187900399E+03  0.00000000000E+00 0. -1.
          2    1    1    2  501    0  0.10192483543E+02 -0.20214923671E+02 -0.42824438626E+03  0.42884237690E+03  0.00000000000E+00 0. -1.
         -2    1    1    2    0  502 -0.10192483543E+02  0.20214923671E+02 -0.29491912418E+02  0.37179332402E+02  0.00000000000E+00 0.  1.
</event>
<event>
 4    1  0.1780267E+004  0.2386007E+02  0.7546771E-02  0.1481972E+00
         21   -1    0    0  501  502  0.00000000000E+00  0.00000000000E+00  0.38241001244E+02  0.38241001244E+02  0.00000000000E+00 0.  1.
         21   -1    0    0  502  503 -0.00000000000E+00 -0.00000000000E+00 -0.21659105719E+02  0.21659105719E+02  0.00000000000E+00 0. -1.
          2    1    1    2  501    0  0.23732906516E+02  0.24600708720E+01  0.25037740570E+02  0.34585997936E+02  0.00000000000E+00 0. -1.
         -2    1    1    2    0  503 -0.23732906516E+02 -0.24600708720E+01 -0.84558450456E+01  0.25314109027E+02  0.00000000000E+00 0.  1.
</event>
<event>
 4    1  0.1780267E+004  0.2064383E+02  0.7546771E-02  0.1524411E+00
         21   -1    0    0  503  502  0.00000000000E+00  0.00000000000E+00  0.19104281034E+02  0.19104281034E+02  0.00000000000E+00 0. -1.
         21   -1    0    0  501  503 -0.00000000000E+00 -0.00000000000E+00 -0.23201860646E+02  0.23201860646E+02  0.00000000000E+00 0.  1.
          2    1    1    2  501    0  0.18503379836E+02  0.91538236126E+01 -0.62019967387E+01  0.21555331490E+02  0.00000000000E+00 0. -1.
         -2    1    1    2    0  502 -0.18503379836E+02 -0.91538236126E+01  0.21044171263E+01  0.20750810190E+02  0.00000000000E+00 0.  1.
</event>
<event>
 4    1  0.1780267E+004  0.2562895E+02  0.7546771E-02  0.1461889E+00
         21   -1    0    0  503  502  0.00000000000E+00  0.00000000000E+00  0.16272195313E+03  0.16272195313E+03  0.00000000000E+00 0. -1.
         21   -1    0    0  501  503 -0.00000000000E+00 -0.00000000000E+00 -0.52863483564E+01  0.52863483564E+01  0.00000000000E+00 0.  1.
          2    1    1    2  501    0  0.24802319860E+02 -0.64566163372E+01  0.37873202472E+02  0.45729885528E+02  0.00000000000E+00 0.  1.
         -2    1    1    2    0  502 -0.24802319860E+02  0.64566163372E+01  0.11956240230E+03  0.12227841596E+03  0.00000000000E+00 0. -1.
</event>
<event>
 4    1  0.1780267E+004  0.2161918E+02  0.7546771E-02  0.1510605E+00
         21   -1    0    0  503  502  0.00000000000E+00  0.00000000000E+00  0.36600185573E+02  0.36600185573E+02  0.00000000000E+00 0. -1.
         21   -1    0    0  501  503 -0.00000000000E+00 -0.00000000000E+00 -0.20408632281E+02  0.20408632281E+02  0.00000000000E+00 0.  1.
          2    1    1    2  501    0  0.58779739192E+01  0.20804764656E+02 -0.93427360878E+01  0.23551550424E+02  0.00000000000E+00 0.  1.
         -2    1    1    2    0  502 -0.58779739192E+01 -0.20804764656E+02  0.25534289380E+02  0.33457267430E+02  0.00000000000E+00 0. -1.
</event>
<event>
 4    1  0.1780267E+004  0.2621660E+02  0.7546771E-02  0.1455640E+00
         21   -1    0    0  501  502  0.00000000000E+00  0.00000000000E+00  0.39520359269E+03  0.39520359269E+03  0.00000000000E+00 0.  1.
         21   -1    0    0  502  503 -0.00000000000E+00 -0.00000000000E+00 -0.18519441817E+01  0.18519441817E+01  0.00000000000E+00 0. -1.
          2    1    1    2  501    0  0.20555361550E+02  0.16272275963E+02  0.14767629104E+03  0.14998532191E+03  0.00000000000E+00 0. -1.
         -2    1    1    2    0  503 -0.20555361550E+02 -0.16272275963E+02  0.24567535747E+03  0.24707021496E+03  0.00000000000E+00 0.  1.
</event>
<event>
 4    1  0.1780267E+004  0.2875583E+02  0.7546771E-02  0.1430725E+00
         21   -1    0    0  503  502  0.00000000000E+00  0.00000000000E+00  0.18236151023E+03  0.18236151023E+03  0.00000000000E+00 0.  1.
         21   -1    0    0  501  503 -0.00000000000E+00 -0.00000000000E+00 -0.22729108844E+02  0.22729108844E+02  0.00000000000E+00 0. -1.
          2    1    1    2  501    0 -0.11217639499E+02 -0.26477586537E+02 -0.11931942281E+02  0.31133089653E+02  0.00000000000E+00 0. -1.
         -2    1    1    2    0  502  0.11217639499E+02  0.26477586537E+02  0.17156434366E+03  0.17395752942E+03  0.00000000000E+00 0.  1.
</event>
<event>
 4    1  0.1780267E+004  0.2343596E+02  0.7546771E-02  0.1487095E+00
         21   -1    0    0  501  502  0.00000000000E+00  0.00000000000E+00  0.10155837866E+03  0.10155837866E+03  0.00000000000E+00 0. -1.
         21   -1    0    0  502  503 -0.00000000000E+00 -0.00000000000E+00 -0.56518434788E+01  0.56518434788E+01  0.00000000000E+00 0.  1.
          2    1    1    2  501    0  0.22533150397E+02 -0.64421605062E+01  0.36822599887E+02  0.43648002946E+02  0.00000000000E+00 0.  1.
         -2    1    1    2    0  503 -0.22533150397E+02  0.64421605062E+01  0.59083935294E+02  0.63562219192E+02  0.00000000000E+00 0. -1.
</event>
<event>
 4    1  0.1780267E+004  0.2246996E+02  0.7546771E-02  0.1499263E+00
         21   -1    0    0  503  502  0.00000000000E+00  0.00000000000E+00  0.26363536184E+02  0.26363536184E+02  0.00000000000E+00 0.  1.
         21   -1    0    0  501  503 -0.00000000000E+00 -0.00000000000E+00 -0.36339048552E+02  0.36339048552E+02  0.00000000000E+00 0. -1.
          2    1    1    2  501    0  0.12122917970E+02  0.18919141894E+02 -0.26549143049E+02  0.34781547791E+02  0.00000000000E+00 0. -1.
         -2    1    1    2    0  502 -0.12122917970E+02 -0.18919141894E+02  0.16573630681E+02  0.27921036945E+02  0.00000000000E+00 0.  1.
</event>
<event>
 4    1  0.1780267E+004  0.2789395E+02  0.7546771E-02  0.1438829E+00
         21   -1    0    0  501  502  0.00000000000E+00  0.00000000000E+00  0.12035841268E+03  0.12035841268E+03  0.00000000000E+00 0.  1.
         21   -1    0    0  502  503 -0.00000000000E+00 -0.00000000000E+00 -0.68610604603E+01  0.68610604603E+01  0.00000000000E+00 0. -1.
          2    1    1    2  501    0  0.92311480813E+01 -0.26322199943E+02  0.72038864991E+02  0.77250698210E+02  0.00000000000E+00 0. -1.
         -2    1    1    2    0  503 -0.92311480813E+01  0.26322199943E+02  0.41458487227E+02  0.49968774929E+02  0.00000000000E+00 0.  1.
</event>
<event>
 4    1  0.1780267E+004  0.2507255E+02  0.7546771E-02  0.1467993E+00
         21   -1    0    0  503  502  0.00000000000E+00  0.00000000000E+00  0.11532768530E+04  0.11532768530E+04  0.00000000000E+00 0. -1.
         21   -1    0    0  501  503 -0.00000000000E+00 -0.00000000000E+00 -0.45136067513E+01  0.45136067513E+01  0.00000000000E+00 0.  1.
          2    1    1    2  501    0 -0.22461962607E+02  0.11139705496E+02  0.31565739915E+02  0.40311645204E+02  0.00000000000E+00 0.  1.
         -2    1    1    2    0  502  0.22461962607E+02 -0.11139705496E+02  0.11171975064E+04  0.11174788146E+04  0.00000000000E+00 0. -1.
</event>
<event>
 4    1  0.1780267E+004  0.2178946E+02  0.7546771E-02  0.1508285E+00
         21   -1    0    0  503  502  0.00000000000E+00  0.00000000000E+00  0.58383373491E+02  0.58383373491E+02  0.00000000000E+00 0.  1.
         21   -1    0    0  501  503 -0.00000000000E+00 -0.00000000000E+00 -0.13922765023E+02  0.13922765023E+02  0.00000000000E+00 0. -1.
          2    1    1    2  501    0 -0.11475740697E+02  0.18522637355E+02 -0.10852541430E+01  0.21816473035E+02  0.00000000000E+00 0. -1.
         -2    1    1    2    0  502  0.11475740697E+02 -0.18522637355E+02  0.45545862611E+02  0.50489665478E+02  0.00000000000E+00 0.  1.
</event>
<event>
 4    1  0.1780267E+004  0.2700536E+02  0.7546771E-02  0.1447554E+00
         21   -1    0    0  503  502  0.00000000000E+00  0.00000000000E+00  0.18711297267E+01  0.18711297267E+01  0.00000000000E+00 0. -1.
         21   -1    0    0  501  503 -0.00000000000E+00 -0.00000000000E+00 -0.39164189250E+03  0.39164189250E+03  0.00000000000E+00 0.  1.
          2    1    1    2  501    0  0.22386996758E+02  0.15103369540E+02 -0.18124228106E+03  0.18324315495E+03  0.00000000000E+00 0. -1.
         -2    1    1    2    0  502 -0.22386996758E+02 -0.15103369540E+02 -0.20852848171E+03  0.21026986727E+03  0.00000000000E+00 0.  1.
</event>
<event>
 4    1  0.1780267E+004  0.2322923E+02  0.7546771E-02  0.1489640E+00
         21   -1    0    0  501  502  0.00000000000E+00  0.00000000000E+00  0.58708602060E+02  0.58708602060E+02  0.00000000000E+00 0. -1.
         21   -1    0    0  502  503 -0.00000000000E+00 -0.00000000000E+00 -0.33922851013E+02  0.33922851013E+02  0.00000000000E+00 0.  1.
          2    1    1    2  501    0  0.22171741399E+02 -0.69289937847E+01  0.51939523284E+02  0.56897373846E+02  0.00000000000E+00 0. -1.
         -2    1    1    2    0  503 -0.22171741399E+02  0.69289937847E+01 -0.27153772237E+02  0.35734079227E+02  0.00000000000E+00 0.  1.
</event>
<event>
 4    1  0.1780267E+004  0.2051462E+02  0.7546771E-02  0.1526309E+00
         21   -1    0    0  501  502  0.00000000000E+00  0.00000000000E+00  0.11849907854E+02  0.11849907854E+02  0.00000000000E+00 0. -1.
         21   -1    0    0  502  503 -0.00000000000E+00 -0.00000000000E+00 -0.64827515986E+02  0.64827515986E+02  0.00000000000E+00 0.  1.
          2    1    1    2  501    0  0.10667071877E+02 -0.17523215133E+02 -0.70871775066E+00  0.20526854895E+02  0.00000000000E+00 0. -1.
         -2    1    1    2    0  503 -0.10667071877E+02  0.17523215133E+02 -0.52268890382E+02  0.56150568945E+02  0.00000000000E+00 0.  1.
</event>
<event>
 4    1  0.1780267E+004  0.2026088E+02  0.7546771E-02  0.1530084E+00
         21   -1    0    0  503  502  0.00000000000E+00  0.00000000000E+00  0.99166909558E+01  0.99166909558E+01  0.00000000000E+00 0.  1.
         21   -1    0    0  501  503 -0.00000000000E+00 -0.00000000000E+00 -0.41709901045E+02  0.41709901045E+02  0.00000000000E+00 0. -1.
          2    1    1    2  501    0  0.19860682970E+02  0.40070422812E+01 -0.18138901969E+02  0.27194169973E+02  0.00000000000E+00 0. -1.
         -2    1    1    2    0  502 -0.19860682970E+02 -0.40070422812E+01 -0.13654308121E+02  0.24432422028E+02  0.00000000000E+00 0.  1.
</event>
<event>
 4    1  0.1780267E+004  0.2000556E+02  0.7546771E-02  0.1533951E+00
         21   -1    0    0  501  502  0.00000000000E+00  0.00000000000E+00  0.23799885460E+03  0.23799885460E+03  0.00000000000E+00 0.  1.
         21   -1    0    0  502  503 -0.00000000000E+00 -0.00000000000E+00 -0.17632341856E+01  0.17632341856E+01  0.00000000000E+00 0. -1.
          2    1    1    2  501    0 -0.17473412908E+02  0.97417736536E+01  0.14391029100E+03  0.14529416426E+03  0.00000000000E+00 0.  1.
         -2    1    1    2    0  503  0.17473412908E+02 -0.97417736536E+01  0.92325329421E+02  0.94467924532E+02  0.00000000000E+00 0. -1.
</event>
<event>
 4    1  0.1780267E+004  0.4537411E+02  0.7546771E-02  0.1319579E+00
         21   -1    0    0  501  502  0.00000000000E+00  0.00000000000E+00  0.16105002192E+03  0.16105002192E+03  0.00000000000E+00 0. -1.
         21   -1    0    0  502  503 -0.00000000000E+00 -0.00000000000E+00 -0.15157896962E+02  0.15157896962E+02  0.00000000000E+00 0.  1.
          2    1    1    2  501    0 -0.42874126654E+02  0.14853266515E+02  0.10781487100E+03  0.11697374351E+03  0.00000000000E+00 0. -1.
         -2    1    1    2    0  503  0.42874126654E+02 -0.14853266515E+02  0.38077253953E+02  0.59234175365E+02  0.00000000000E+00 0.  1.
</event>
<event>
 4    1  0.1780267E+004  0.4600979E+02  0.7546771E-02  0.1316466E+00
         21   -1    0    0  503  502  0.00000000000E+00  0.00000000000E+00  0.27339666667E+02  0.27339666667E+02  0.00000000000E+00 0.  1.
         21   -1    0    0  501  503 -0.00000000000E+00 -0.00000000000E+00 -0.87903080253E+02  0.87903080253E+02  0.00000000000E+00 0. -1.
          2    1    1    2  501    0 -0.21477014824E+02 -0.40689540083E+02 -0.50171305404E+02  0.68073935716E+02  0.00000000000E+00 0. -1.
         -2    1    1    2    0  502  0.21477014824E+02  0.40689540083E+02 -0.10392108181E+02  0.47168811204E+02  0.00000000000E+00 0.  1.
</event>
<event>
 4    1  0.1780267E+004  0.2736002E+02  0.7546771E-02  0.1444025E+00
         21   -1    0    0  503  502  0.00000000000E+00  0.00000000000E+00  0.37642159148E+01  0.37642159148E+01  0.00000000000E+00 0. -1.
         21   -1    0    0  501  503 -0.00000000000E+00 -0.00000000000E+00 -0.59839926473E+03  0.59839926473E+03  0.00000000000E+00 0.  1.
          2    1    1    2  501    0  0.18490523369E+02  0.20166089239E+02 -0.54333498694E+03  0.54402341737E+03  0.00000000000E+00 0.  1.
         -2    1    1    2    0  502 -0.18490523369E+02 -0.20166089239E+02 -0.51300061876E+02  0.58140063279E+02  0.00000000000E+00 0. -1.
</event>
<event>
 4    1  0.1780267E+004  0.2015630E+02  0.7546771E-02  0.1531660E+00
         21   -1    0    0  503  502  0.00000000000E+00  0.00000000000E+00  0.61981156239E+02  0.61981156239E+02  0.00000000000E+00 0.  1.
         21   -1    0    0  501  503 -0.00000000000E+00 -0.00000000000E+00 -0.18908408795E+02  0.18908408795E+02  0.00000000000E+00 0. -1.
          2    1    1    2  501    0  0.77907717798E+01 -0.18589790807E+02 -0.11154856537E+02  0.23037084701E+02  0.00000000000E+00 0. -1.
         -2    1    1    2    0  502 -0.77907717798E+01  0.18589790807E+02  0.54227603981E+02  0.57852480333E+02  0.00000000000E+00 0.  1.
</event>
<event>
 4    1  0.1780267E+004  0.2260587E+02  0.7546771E-02  0.1497507E+00
         21   -1    0    0  501  502  0.00000000000E+00  0.00000000000E+00  0.91876607146E+02  0.91876607146E+02  0.00000000000E+00 0. -1.
         21   -1    0    0  502  503 -0.00000000000E+00 -0.00000000000E+00 -0.16461755756E+02  0.16461755756E+02  0.00000000000E+00 0.  1.
          2    1    1    2  501    0  0.22181018652E+02  0.43620786620E+01  0.81785328699E+02  0.84852020065E+02  0.00000000000E+00 0. -1.
         -2    1    1    2    0  503 -0.22181018652E+02 -0.43620786620E+01 -0.63704773093E+01  0.23486342837E+02  0.00000000000E+00 0.  1.
</event>
<event>
 4    1  0.1780267E+004  0.2142787E+02  0.7546771E-02  0.1513243E+00
         21   -1    0    0  503  502  0.00000000000E+00  0.00000000000E+00  0.74470810008E+02  0.74470810008E+02  0.00000000000E+00 0.  1.
         21   -1    0    0  501  503 -0.00000000000E+00 -0.00000000000E+00 -0.17421888441E+02  0.17421888441E+02  0.00000000000E+00 0. -1.
          2    1    1    2  501    0  0.18288815161E+02  0.11165691553E+02 -0.84074676709E+01  0.23018230612E+02  0.00000000000E+00 0. -1.
         -2    1    1    2    0  502 -0.18288815161E+02 -0.11165691553E+02  0.65456389237E+02  0.68874467837E+02  0.00000000000E+00 0.  1.
</event>
<event>
 4    1  0.1780267E+004  0.2076430E+02  0.7546771E-02  0.1522657E+00
         21   -1    0    0  503  502  0.00000000000E+00  0.00000000000E+00  0.21282803531E+01  0.21282803531E+01  0.00000000000E+00 0. -1.
         21   -1    0    0  501  503 -0.00000000000E+00 -0.00000000000E+00 -0.21879655289E+03  0.21879655289E+03  0.00000000000E+00 0.  1.
          2    1    1    2  501    0  0.19675052694E+02 -0.66368947691E+01 -0.78265293773E+02  0.80972910779E+02  0.00000000000E+00 0. -1.
         -2    1    1    2    0  502 -0.19675052694E+02  0.66368947691E+01 -0.13840297877E+03  0.13995192247E+03  0.00000000000E+00 0.  1.
</event>
<event>
 4    1  0.1780267E+004  0.2373795E+02  0.7546771E-02  0.1483434E+00
         21   -1    0    0  503  502  0.00000000000E+00  0.00000000000E+00  0.15634093822E+01  0.15634093822E+01  0.00000000000E+00 0. -1.
         21   -1    0    0  501  503 -0.00000000000E+00 -0.00000000000E+00 -0.49646675720E+03  0.49646675720E+03  0.00000000000E+00 0.  1.
          2    1    1    2  501    0  0.15016629809E+02 -0.18384537085E+02 -0.37780381401E+03  0.37854882414E+03  0.00000000000E+00 0.  1.
         -2    1    1    2    0  502 -0.15016629809E+02  0.18384537085E+02 -0.11709953381E+03  0.11948134245E+03  0.00000000000E+00 0. -1.
</event>
<event>
 4    1  0.1780267E+004  0.2068813E+02  0.7546771E-02  0.1523764E+00
         21   -1    0    0  503  502  0.00000000000E+00  0.00000000000E+00  0.11214774316E+03  0.11214774316E+03  0.00000000000E+00 0.  1.
         21   -1    0    0  501  503 -0.00000000000E+00 -0.00000000000E+00 -0.50920546042E+01  0.50920546042E+01  0.00000000000E+00 0. -1.
          2    1    1    2  501    0  0.18342028356E+02 -0.95691636095E+01  0.24187328338E+02  0.31828065423E+02  0.00000000000E+00 0. -1.
         -2    1    1    2    0  502 -0.18342028356E+02  0.95691636095E+01  0.82868360215E+02  0.85411732339E+02  0.00000000000E+00 0.  1.
</event>
<event>
 4    1  0.1780267E+004  0.2610653E+02  0.7546771E-02  0.1456796E+00
         21   -1    0    0  501  502  0.00000000000E+00  0.00000000000E+00  0.41351358493E+02  0.41351358493E+02  0.00000000000E+00 0. -1.
         21   -1    0    0  502  503 -0.00000000000E+00 -0.00000000000E+00 -0.73557962340E+02  0.73557962340E+02  0.00000000000E+00 0.  1.
          2    1    1    2  501    0 -0.24498918855E+02 -0.90196389336E+01  0.34506803141E+02  0.43269739710E+02  0.00000000000E+00 0. -1.
         -2    1    1    2    0  503  0.24498918855E+02  0.90196389336E+01 -0.66713406988E+02  0.71639581124E+02  0.00000000000E+00 0.  1.
</event>
<event>
 4    1  0.1780267E+004  0.6538154E+02  0.7546771E-02  0.1242568E+00
         21   -1    0    0  501  502  0.00000000000E+00  0.00000000000E+00  0.29908590314E+03  0.29908590314E+03  0.00000000000E+00 0. -1.
         21   -1    0    0  502  503 -0.00000000000E+00 -0.00000000000E+00 -0.28164968710E+02  0.28164968710E+02  0.00000000000E+00 0.  1.
          2    1    1    2  501    0 -0.56250225297E+02  0.33326535232E+02  0.25029430763E+03  0.25869284147E+03  0.00000000000E+00 0. -1.
         -2    1    1    2    0  503  0.56250225297E+02 -0.33326535232E+02  0.20626626802E+02  0.68558030381E+02  0.00000000000E+00 0.  1.
</event>
<event>
 4    1  0.1780267E+004  0.2110392E+02  0.7546771E-02  0.1517786E+00
         21   -1    0    0  501  502  0.00000000000E+00  0.00000000000E+00  0.40495438355E+01  0.40495438355E+01  0.00000000000E+00 0. -1.
         21   -1    0    0  502  503 -0.00000000000E+00 -0.00000000000E+00 -0.23394841905E+03  0.23394841905E+03  0.00000000000E+00 0.  1.
          2    1    1    2  501    0  0.12000925331E+02  0.17359525480E+02 -0.28325902086E+02  0.35323251020E+02  0.00000000000E+00 0. -1.
         -2    1    1    2    0  503 -0.12000925331E+02 -0.17359525480E+02 -0.20157297313E+03  0.20267471187E+03  0.00000000000E+00 0.  1.
</event>
<event>
 4    1  0.1780267E+004  0.2277234E+02  0.7546771E-02  0.1495377E+00
         21   -1    0    0  501  502  0.00000000000E+00  0.00000000000E+00  0.57066297328E+01  0.57066297328E+01  0.00000000000E+00 0.  1.
         21   -1    0    0  502  503 -0.00000000000E+00 -0.00000000000E+00 -0.11461478105E+03  0.11461478105E+03  0.00000000000E+00 0. -1.
          2    1    1    2  501    0  0.18824716486E+02  0.12814425122E+02 -0.27073167704E+02  0.35377052612E+02  0.00000000000E+00 0.  1.
         -2    1    1    2    0  503 -0.18824716486E+02 -0.12814425122E+02 -0.81834983612E+02  0.84944358169E+02  0.00000000000E+00 0. -1.
</event>
<event>
 4    1  0.1780267E+004  0.2324354E+02  0.7546771E-02  0.1489462E+00
         21   -1    0    0  503  502  0.00000000000E+00  0.00000000000E+00  0.83465007012E+01  0.83465007012E+01  0.00000000000E+00 0. -1.
         21   -1    0    0  501  503 -0.00000000000E+00 -0.00000000000E+00 -0.82643093141E+02  0.82643093141E+02  0.00000000000E+00 0.  1.
          2    1    1    2  501    0 -0.11421302950E+02  0.20243915952E+02 -0.58329637917E+02  0.62790197911E+02  0.00000000000E+00 0.  1.
         -2    1    1    2    0  502  0.11421302950E+02 -0.20243915952E+02 -0.15966954523E+02  0.28199395932E+02  0.00000000000E+00 0. -1.
</event>
<event>
 4    1  0.1780267E+004  0.2217739E+02  0.7546771E-02  0.1503094E+00
         21   -1    0    0  503  502  0.00000000000E+00  0.00000000000E+00  0.38592711705E+01  0.38592711705E+01  0.00000000000E+00 0. -1.
         21   -1    0    0  501  503 -0.00000000000E+00 -0.00000000000E+00 -0.21394438405E+03  0.21394438405E+03  0.00000000000E+00 0.  1.
          2    1    1    2  501    0 -0.11335837283E+02 -0.19061355509E+02 -0.17428886890E+03  0.17569418403E+03  0.00000000000E+00 0.  1.
         -2    1    1    2    0  502  0.11335837283E+02  0.19061355509E+02 -0.35796243989E+02  0.42109471197E+02  0.00000000000E+00 0. -1.
</event>
<event>
 4    1  0.1780267E+004  0.2039053E+02  0.7546771E-02  0.1528147E+00
         21   -1    0    0  501  502  0.00000000000E+00  0.00000000000E+00  0.29148472818E+03  0.29148472818E+03  0.00000000000E+00 0.  1.
         21   -1    0    0  502  503 -0.00000000000E+00 -0.00000000000E+00 -0.15557773977E+01  0.15557773977E+01  0.00000000000E+00 0. -1.
          2    1    1    2  501    0 -0.17832099114E+02  0.98888789219E+01  0.18721711944E+03  0.18832425095E+03  0.00000000000E+00 0.  1.
         -2    1    1    2    0  503  0.17832099114E+02 -0.98888789219E+01  0.10271183134E+03  0.10471625462E+03  0.00000000000E+00 0. -1.
</event>
<event>
 4    1  0.1780267E+004  0.2221438E+02  0.7546771E-02  0.1502606E+00
         21   -1    0    0  501  502  0.00000000000E+00  0.00000000000E+00  0.50599862615E+02  0.50599862615E+02  0.00000000000E+00 0.  1.
         21   -1    0    0  502  503 -0.00000000000E+00 -0.00000000000E+00 -0.20162972387E+02  0.20162972387E+02  0.00000000000E+00 0. -1.
          2    1    1    2  501    0  0.10458827478E+02  0.19598250898E+02  0.40641737242E+02  0.46316620305E+02  0.00000000000E+00 0.  1.
         -2    1    1    2    0  503 -0.10458827478E+02 -0.19598250898E+02 -0.10204847014E+02  0.24446214697E+02  0.00000000000E+00 0. -1.
</event>
<event>
 4    1  0.1780267E+004  0.2648363E+02  0.7546771E-02  0.1452865E+00
         21   -1    0    0  503  502  0.00000000000E+00  0.00000000000E+00  0.14677355772E+03  0.14677355772E+03  0.00000000000E+00 0. -1.
         21   -1    0    0  501  503 -0.00000000000E+00 -0.00000000000E+00 -0.80587555422E+01  0.80587555422E+01  0.00000000000E+00 0.  1.
          2    1    1    2  501    0  0.18378710263E+02  0.19068450721E+02  0.19967288376E+02  0.33167384717E+02  0.00000000000E+00 0.  1.
         -2    1    1    2    0  502 -0.18378710263E+02 -0.19068450721E+02  0.11874751380E+03  0.12166492854E+03  0.00000000000E+00 0. -1.
</event>
<event>
 4    1  0.1780267E+004  0.2157528E+02  0.7546771E-02  0.1511208E+00
         21   -1    0    0  503  502  0.00000000000E+00  0.00000000000E+00  0.43844487609E+02  0.43844487609E+02  0.00000000000E+00 0. -1.
         21   -1    0    0  501  503 -0.00000000000E+00 -0.00000000000E+00 -0.14279413539E+02  0.14279413539E+02  0.00000000000E+00 0.  1.
          2    1    1    2  501    0  0.20875081617E+02 -0.54519615041E+01  0.64201992283E-01  0.21575380383E+02  0.00000000000E+00 0.  1.
         -2    1    1    2    0  502 -0.20875081617E+02  0.54519615041E+01  0.29500872078E+02  0.36548520765E+02  0.00000000000E+00 0. -1.
</event>
<event>
 4    1  0.1780267E+004  0.2054472E+02  0.7546771E-02  0.1525865E+00
         21   -1    0    0  501  502  0.00000000000E+00  0.00000000000E+00  0.16189870858E+02  0.16189870858E+02  0.00000000000E+00 0. -1.
         21   -1    0    0  502  503 -0.00000000000E+00 -0.00000000000E+00 -0.27484118168E+02  0.27484118168E+02  0.00000000000E+00 0.  1.
          2    1    1    2  501    0 -0.51858248366E+01  0.19879453401E+02 -0.69550009047E+00  0.20556487228E+02  0.00000000000E+00 0. -1.
         -2    1    1    2    0  503  0.51858248366E+01 -0.19879453401E+02 -0.10598747220E+02  0.23117501798E+02  0.00000000000E+00 0.  1.
</event>
<event>
 4    1  0.1780267E+004  0.2054158E+02  0.7546771E-02  0.1525912E+00
         21   -1    0    0  501  502  0.00000000000E+00  0.00000000000E+00  0.92845200554E+02  0.92845200554E+02  0.00000000000E+00 0. -1.
         21   -1    0    0  502  503 -0.00000000000E+00 -0.00000000000E+00 -0.60646287464E+01  0.60646287464E+01  0.00000000000E+00 0.  1.
          2    1    1    2  501    0 -0.70227249895E+01 -0.19303826407E+02  0.68148234488E+02  0.71176809735E+02  0.00000000000E+00 0. -1.
         -2    1    1    2    0  503  0.70227249895E+01  0.19303826407E+02  0.18632337320E+02  0.27733019565E+02  0.00000000000E+00 0.  1.
</event>
<event>
 4    1  0.1780267E+004  0.2073656E+02  0.7546771E-02  0.1523060E+00
         21   -1    0    0  503  502  0.00000000000E+00  0.00000000000E+00  0.48084096273E+02  0.48084096273E+02  0.00000000000E+00 0.  1.
         21   -1    0    0  501  503 -0.00000000000E+00 -0.00000000000E+00 -0.10046104105E+02  0.10046104105E+02  0.00000000000E+00 0. -1.
          2    1    1    2  501    0  0.36877236479E+01  0.20406014281E+02  0.93867472828E+01  0.22762156073E+02  0.00000000000E+00 0. -1.
         -2    1    1    2    0  502 -0.36877236479E+01 -0.20406014281E+02  0.28651244885E+02  0.35368044305E+02  0.00000000000E+00 0.  1.
</event>
<event>
 4    1  0.1780267E+004  0.2317968E+02  0.7546771E-02  0.1490254E+00
         21   -1    0    0  503  502  0.00000000000E+00  0.00000000000E+00  0.90332593212E+00  0.90332593212E+00  0.00000000000E+00 0.  1.
         21   -1    0    0  501  503 -0.00000000000E+00 -0.00000000000E+00 -0.69804568733E+03  0.69804568733E+03  0.00000000000E+00 0. -1.
          2    1    1    2  501    0 -0.14075220374E+02 -0.18417001167E+02 -0.48297472126E+03  0.48353063929E+03  0.00000000000E+00 0. -1.
         -2    1    1    2    0  502  0.14075220374E+02  0.18417001167E+02 -0.21416764014E+03  0.21541837397E+03  0.00000000000E+00 0.  1.
</event>
<event>
 4    1  0.1780267E+004  0.7541627E+02  0.7546771E-02  0.1214908E+00
         21   -1    0    0  503  502  0.00000000000E+00  0.00000000000E+00  0.10577499046E+04  0.10577499046E+04  0.00000000000E+00 0.  1.
         21   -1    0    0  501  503 -0.00000000000E+00 -0.00000000000E+00 -0.98696022724E+01  0.98696022724E+01  0.00000000000E+00 0. -1.
          2    1    1    2  501    0 -0.73121705192E+02  0.18461584665E+02  0.16379179927E+03  0.18032018020E+03  0.00000000000E+00 0. -1.
         -2    1    1    2    0  502  0.73121705192E+02 -0.18461584665E+02  0.88408850304E+03  0.88729932666E+03  0.00000000000E+00 0.  1.
</event>
<event>
 4    1  0.1780267E+004  0.2052293E+02  0.7546771E-02  0.1526186E+00
         21   -1    0    0  503  502  0.00000000000E+00  0.00000000000E+00  0.61414420703E+01  0.61414420703E+01  0.00000000000E+00 0. -1.
         21   -1    0    0  501  503 -0.00000000000E+00 -0.00000000000E+00 -0.70860582777E+02  0.70860582777E+02  0.00000000000E+00 0.  1.
          2    1    1    2  501    0  0.26269029019E+01  0.20354116205E+02 -0.39264015784E+02  0.44304103657E+02  0.00000000000E+00 0.  1.
         -2    1    1    2    0  502 -0.26269029019E+01 -0.20354116205E+02 -0.25455124923E+02  0.32697921190E+02  0.00000000000E+00 0. -1.
</event>
<event>
 4    1  0.1780267E+004  0.2450101E+02  0.7546771E-02  0.1474464E+00
         21   -1    0    0  503  502  0.00000000000E+00  0.00000000000E+00  0.21631354094E+03  0.21631354094E+03  0.00000000000E+00 0.  1.
         21   -1    0    0  501  503 -0.00000000000E+00 -0.00000000000E+00 -0.50732250551E+01  0.50732250551E+01  0.00000000000E+00 0. -1.
          2    1    1    2  501    0  0.23132761993E+02  0.80731020509E+01  0.31119011856E+02  0.39606723584E+02  0.00000000000E+00 0. -1.
         -2    1    1    2    0  502 -0.23132761993E+02 -0.80731020509E+01  0.18012130403E+03  0.18178004241E+03  0.00000000000E+00 0.  1.
</event>
<event>
 4    1  0.1780267E+004  0.2620375E+02  0.7546771E-02  0.1455775E+00
         21   -1    0    0  501  502  0.00000000000E+00  0.00000000000E+00  0.49337032531E+03  0.49337032531E+03  0.00000000000E+00 0. -1.
         21   -1    0    0  502  503 -0.00000000000E+00 -0.00000000000E+00 -0.14006283815E+01  0.14006283815E+01  0.00000000000E+00 0.  1.
          2    1    1    2  501    0 -0.13845869475E+02 -0.22246985609E+02  0.26570716328E+03  0.26699612935E+03  0.00000000000E+00 0.  1.
         -2    1    1    2    0  503  0.13845869475E+02  0.22246985609E+02  0.22626253365E+03  0.22777482434E+03  0.00000000000E+00 0. -1.
</event>
<event>
 4    1  0.1780267E+004  0.2023487E+02  0.7546771E-02  0.1530475E+00
         21   -1    0    0  503  502  0.00000000000E+00  0.00000000000E+00  0.10444090744E+04  0.10444090744E+04  0.00000000000E+00 0. -1.
         21   -1    0    0  501  503 -0.00000000000E+00 -0.00000000000E+00 -0.49107779688E+00  0.49107779688E+00  0.00000000000E+00 0.  1.
          2    1    1    2  501    0  0.18782494966E+02  0.75278168341E+01  0.28733625307E+03  0.28804786490E+03  0.00000000000E+00 0.  1.
         -2    1    1    2    0  502 -0.18782494966E+02 -0.75278168341E+01  0.75658174352E+03  0.75685228729E+03  0.00000000000E+00 0. -1.
</event>
<event>
 4    1  0.1780267E+004  0.2132519E+02  0.7546771E-02  0.1514672E+00
         21   -1    0    0  501  502  0.00000000000E+00  0.00000000000E+00  0.11721105085E+04  0.11721105085E+04  0.00000000000E+00 0.  1.
         21   -1    0    0  502  503 -0.00000000000E+00 -0.00000000000E+00 -0.55247448031E+00  0.55247448031E+00  0.00000000000E+00 0. -1.
          2    1    1    2  501    0  0.11857047484E+02 -0.17724963308E+02  0.90570774641E+03  0.90595876606E+03  0.00000000000E+00 0. -1.
         -2    1    1    2    0  503 -0.11857047484E+02  0.17724963308E+02  0.26585028760E+03  0.26670421691E+03  0.00000000000E+00 0.  1.
</event>
<event>
 4    1  0.1780267E+004  0.2913205E+02  0.7546771E-02  0.1427292E+00
         21   -1    0    0  501  502  0.00000000000E+00  0.00000000000E+00  0.46204166860E+01  0.46204166860E+01  0.00000000000E+00 0.  1.
         21   -1    0    0  502  503 -0.00000000000E+00 -0.00000000000E+00 -0.38408652822E+03  0.38408652822E+03  0.00000000000E+00 0. -1.
          2    1    1    2  501    0  0.23394904405E+01 -0.29037964367E+02 -0.49343738461E+02  0.57301667650E+02  0.00000000000E+00 0.  1.
         -2    1    1    2    0  503 -0.23394904405E+01  0.29037964367E+02 -0.33012237307E+03  0.33140527726E+03  0.00000000000E+00 0. -1.
</event>
<event>
 4    1  0.1780267E+004  0.3937470E+02  0.7546771E-02  0.1352190E+00
         21   -1    0    0  501  502  0.00000000000E+00  0.00000000000E+00  0.48599179280E+02  0.48599179280E+02  0.00000000000E+00 0. -1.
         21   -1    0    0  502  503 -0.00000000000E+00 -0.00000000000E+00 -0.55874228475E+02  0.55874228475E+02  0.00000000000E+00 0.  1.
          2    1    1    2  501    0  0.20258635518E+02  0.33763211424E+02  0.30578728427E+02  0.49854040869E+02  0.00000000000E+00 0. -1.
         -2    1    1    2    0  503 -0.20258635518E+02 -0.33763211424E+02 -0.37853777622E+02  0.54619366886E+02  0.00000000000E+00 0.  1.
</event>
<event>
 4    1  0.1780267E+004  0.2416622E+02  0.7546771E-02  0.1478351E+00
         21   -1    0    0  501  502  0.00000000000E+00  0.00000000000E+00  0.28372098819E+03  0.28372098819E+03  0.00000000000E+00 0. -1.
         21   -1    0    0  502  503 -0.00000000000E+00 -0.00000000000E+00 -0.43069282180E+02  0.43069282180E+02  0.00000000000E+00 0.  1.
          2    1    1    2  501    0  0.21513572276E+02  0.11007843623E+02  0.27976866744E+03  0.28081045866E+03  0.00000000000E+00 0. -1.
         -2    1    1    2    0  503 -0.21513572276E+02 -0.11007843623E+02 -0.39116961428E+02  0.45979811708E+02  0.00000000000E+00 0.  1.
</event>
<event>
 4    1  0.1780267E+004  0.2459320E+02  0.7546771E-02  0.1473406E+00
         21   -1    0    0  501  502  0.00000000000E+00  0.00000000000E+00  0.18448836336E+02  0.18448836336E+02  0.00000000000E+00 0.  1.
         21   -1    0    0  502  503 -0.00000000000E+00 -0.00000000000E+00 -0.37255739050E+02  0.37255739050E+02  0.00000000000E+00 0. -1.
          2    1    1    2  501    0  0.24590726872E+02  0.34885902506E+00 -0.19052964492E+02  0.31110143148E+02  0.00000000000E+00 0. -1.
         -2    1    1    2    0  503 -0.24590726872E+02 -0.34885902506E+00  0.24606177893E+00  0.24594432238E+02  0.00000000000E+00 0.  1.
</event>
<event>
 4    1  0.1780267E+004  0.3703078E+02  0.7546771E-02  0.1366822E+00
         21   -1    0    0  501  502  0.00000000000E+00  0.00000000000E+00  0.10497814252E+02  0.10497814252E+02  0.00000000000E+00 0. -1.
         21   -1    0    0  502  503 -0.00000000000E+00 -0.00000000000E+00 -0.18617204696E+03  0.18617204696E+03  0.00000000000E+00 0.  1.
          2    1    1    2  501    0  0.61394971129E+01 -0.36518289228E+02 -0.34123998289E+02  0.50355994004E+02  0.00000000000E+00 0. -1.
         -2    1    1    2    0  503 -0.61394971129E+01  0.36518289228E+02 -0.14155023442E+03  0.14631386721E+03  0.00000000000E+00 0.  1.
</event>
<event>
 4    1  0.1780267E+004  0.2351519E+02  0.7546771E-02  0.1486128E+00
         21   -1    0    0  501  502  0.00000000000E+00  0.00000000000E+00  0.39579877165E+02  0.39579877165E+02  0.00000000000E+00 0.  1.
         21   -1    0    0  502  503 -0.00000000000E+00 -0.00000000000E+00 -0.18082206383E+02  0.18082206383E+02  0.00000000000E+00 0. -1.
          2    1    1    2  501    0 -0.23370932677E+02  0.26006819108E+01  0.24496465401E+02  0.33956455318E+02  0.00000000000E+00 0.  1.
         -2    1    1    2    0  503  0.23370932677E+02 -0.26006819108E+01 -0.29987946189E+01  0.23705628230E+02  0.00000000000E+00 0. -1.
</event>
<event>
 4    1  0.1780267E+004  0.2223453E+02  0.7546771E-02  0.1502341E+00
         21   -1    0    0  501  502  0.00000000000E+00  0.00000000000E+00  0.85953803478E+01  0.85953803478E+01  0.00000000000E+00 0. -1.
         21   -1    0    0  502  503 -0.00000000000E+00 -0.00000000000E+00 -0.75528003924E+02  0.75528003924E+02  0.00000000000E+00 0.  1.
          2    1    1    2  501    0 -0.65613417217E+01 -0.21244363378E+02 -0.12925833641E+02  0.25718696621E+02  0.00000000000E+00 0. -1.
         -2    1    1    2    0  503  0.65613417217E+01  0.21244363378E+02 -0.54006789935E+02  0.58404687651E+02  0.00000000000E+00 0.  1.
</event>
<event>
 4    1  0.1780267E+004  0.2515488E+02  0.7546771E-02  0.1467078E+00
         21   -1    0    0  501  502  0.00000000000E+00  0.00000000000E+00  0.62428523315E+01  0.62428523315E+01  0.00000000000E+00 0. -1.
         21   -1    0    0  502  503 -0.00000000000E+00 -0.00000000000E+00 -0.10239995456E+03  0.10239995456E+03  0.00000000000E+00 0.  1.
          2    1    1    2  501    0  0.13766692687E+02 -0.21053412816E+02 -0.53556005561E+02  0.59169364966E+02  0.00000000000E+00 0.  1.
         -2    1    1    2    0  503 -0.13766692687E+02  0.21053412816E+02 -0.42601096669E+02  0.49473441928E+02  0.00000000000E+00 0. -1.
</event>
<event>
 4    1  0.1780267E+004  0.2423061E+02  0.7546771E-02  0.1477598E+00
         21   -1    0    0  501  502  0.00000000000E+00  0.00000000000E+00  0.18749999987E+03  0.18749999987E+03  0.00000000000E+00 0. -1.
         21   -1    0    0  502  503 -0.00000000000E+00 -0.00000000000E+00 -0.44769806024E+01  0.44769806024E+01  0.00000000000E+00 0.  1.
          2    1    1    2  501    0 -0.23835373261E+02 -0.43586028572E+01  0.14413678446E+03  0.14615927980E+03  0.00000000000E+00 0. -1.
         -2    1    1    2    0  503  0.23835373261E+02  0.43586028572E+01  0.38886234807E+02  0.45817700671E+02  0.00000000000E+00 0.  1.
</event>
<event>
 4    1  0.1780267E+004  0.2057183E+02  0.7546771E-02  0.1525467E+00
         21   -1    0    0  501  502  0.00000000000E+00  0.00000000000E+00  0.35044365882E+03  0.35044365882E+03  0.00000000000E+00 0. -1.
         21   -1    0    0  502  503 -0.00000000000E+00 -0.00000000000E+00 -0.20408186841E+01  0.20408186841E+01  0.00000000000E+00 0.  1.
          2    1    1    2  501    0 -0.19688254654E+02  0.59643121499E+01  0.28681320651E+03  0.28755002316E+03  0.00000000000E+00 0. -1.
         -2    1    1    2    0  503  0.19688254654E+02 -0.59643121499E+01  0.61589633619E+02  0.64934454337E+02  0.00000000000E+00 0.  1.
</event>
<event>
 4    1  0.1780267E+004  0.3243526E+02  0.7546771E-02  0.1399550E+00
         21   -1    0    0  501  502  0.00000000000E+00  0.00000000000E+00  0.17156371503E+02  0.17156371503E+02  0.00000000000E+00 0. -1.
         21   -1    0    0  502  503 -0.00000000000E+00 -0.00000000000E+00 -0.25486280142E+03  0.25486280142E+03  0.00000000000E+00 0.  1.
          2    1    1    2  501    0 -0.31877594244E+02 -0.59887667529E+01 -0.32993766753E+00  0.32436941916E+02  0.00000000000E+00 0. -1.
         -2    1    1    2    0  503  0.31877594244E+02  0.59887667529E+01 -0.23737649225E+03  0.23958223100E+03  0.00000000000E+00 0.  1.
</event>
<event>
 4    1  0.1780267E+004  0.3200814E+02  0.7546771E-02  0.1402912E+00
         21   -1    0    0  501  502  0.00000000000E+00  0.00000000000E+00  0.17654793349E+03  0.17654793349E+03  0.00000000000E+00 0. -1.
         21   -1    0    0  502  503 -0.00000000000E+00 -0.00000000000E+00 -0.63116991171E+01  0.63116991171E+01  0.00000000000E+00 0.  1.
          2    1    1    2  501    0  0.44671914559E+00 -0.32005021982E+02  0.11107263459E+03  0.11559260853E+03  0.00000000000E+00 0. -1.
         -2    1    1    2    0  503 -0.44671914559E+00  0.32005021982E+02  0.59163599782E+02  0.67267024085E+02  0.00000000000E+00 0.  1.
</event>
<event>
 4    1  0.1780267E+004  0.2259512E+02  0.7546771E-02  0.1497646E+00
         21   -1    0    0  501  502  0.00000000000E+00  0.00000000000E+00  0.12594418785E+02  0.12594418785E+02  0.00000000000E+00 0.  1.
         21   -1    0    0  502  503 -0.00000000000E+00 -0.00000000000E+00 -0.43266120174E+02  0.43266120174E+02  0.00000000000E+00 0. -1.
          2    1    1    2  501    0  0.21701590791E+02 -0.62912849963E+01 -0.83210303676E+01  0.24078597470E+02  0.00000000000E+00 0.  1.
         -2    1    1    2    0  503 -0.21701590791E+02  0.62912849963E+01 -0.22350671021E+02  0.31781941489E+02  0.00000000000E+00 0. -1.
</event>
<event>
 4    1  0.1780267E+004  0.3238377E+02  0.7546771E-02  0.1399952E+00
         21   -1    0    0  503  502  0.00000000000E+00  0.00000000000E+00  0.91008390647E+02  0.91008390647E+02  0.00000000000E+00 0.  1.
         21   -1    0    0  501  503 -0.00000000000E+00 -0.00000000000E+00 -0.17077767291E+02  0.17077767291E+02  0.00000000000E+00 0. -1.
          2    1    1    2  501    0 -0.22730928888E+02 -0.23065410856E+02  0.61441165904E+01  0.32961469548E+02  0.00000000000E+00 0. -1.
         -2    1    1    2    0  502  0.22730928888E+02  0.23065410856E+02  0.67786506766E+02  0.75124688390E+02  0.00000000000E+00 0.  1.
</event>
<event>
 4    1  0.1780267E+004  0.2459819E+02  0.7546771E-02  0.1473349E+00
         21   -1    0    0  501  502  0.00000000000E+00  0.00000000000E+00  0.28629503171E+03  0.28629503171E+03  0.00000000000E+00 0.  1.
         21   -1    0    0  502  503 -0.00000000000E+00 -0.00000000000E+00 -0.33143392231E+01  0.33143392231E+01  0.00000000000E+00 0. -1.
          2    1    1    2  501    0  0.67804259224E+01  0.23645231010E+02  0.22865392391E+03  0.22997323332E+03  0.00000000000E+00 0. -1.
         -2    1    1    2    0  503 -0.67804259224E+01 -0.23645231010E+02  0.54326768580E+02  0.59636137614E+02  0.00000000000E+00 0.  1.
</event>
<event>
 4    1  0.1780267E+004  0.2636198E+02  0.7546771E-02  0.1454125E+00
         21   -1    0    0  501  502  0.00000000000E+00  0.00000000000E+00  0.38740025873E+01  0.38740025873E+01  0.00000000000E+00 0. -1.
         21   -1    0    0  502  503 -0.00000000000E+00 -0.00000000000E+00 -0.40634130106E+03  0.40634130106E+03  0.00000000000E+00 0.  1.
          2    1    1    2  501    0 -0.25571902538E+02 -0.64055863777E+01 -0.47947256644E+02  0.54716479747E+02  0.00000000000E+00 0. -1.
         -2    1    1    2    0  503  0.25571902538E+02  0.64055863777E+01 -0.35452004183E+03  0.35549882390E+03  0.00000000000E+00 0.  1.
</event>
<event>
 4    1  0.1780267E+004  0.2084394E+02  0.7546771E-02  0.1521505E+00
         21   -1    0    0  503  502  0.00000000000E+00  0.00000000000E+00  0.76433989442E+01  0.76433989442E+01  0.00000000000E+00 0. -1.
         21   -1    0    0  501  503 -0.00000000000E+00 -0.00000000000E+00 -0.93749710451E+02  0.93749710451E+02  0.00000000000E+00 0.  1.
          2    1    1    2  501    0  0.12242711224E+02 -0.16869673925E+02 -0.74862089435E+02  0.77709731122E+02  0.00000000000E+00 0.  1.
         -2    1    1    2    0  502 -0.12242711224E+02  0.16869673925E+02 -0.11244222072E+02  0.23683378274E+02  0.00000000000E+00 0. -1.
</event>
<event>
 4    1  0.1780267E+004  0.2866339E+02  0.7546771E-02  0.1431578E+00
         21   -1    0    0  501  502  0.00000000000E+00  0.00000000000E+00  0.37342358436E+02  0.37342358436E+02  0.00000000000E+00 0.  1.
         21   -1    0    0  502  503 -0.00000000000E+00 -0.00000000000E+00 -0.56502703624E+02  0.56502703624E+02  0.00000000000E+00 0. -1.
          2    1    1    2  501    0  0.25510700023E+02 -0.13068829466E+02  0.27085829982E+02  0.39436433727E+02  0.00000000000E+00 0.  1.
         -2    1    1    2    0  503 -0.25510700023E+02  0.13068829466E+02 -0.46246175170E+02  0.54408628334E+02  0.00000000000E+00 0. -1.
</event>
<event>
 4    1  0.1780267E+004  0.2634803E+02  0.7546771E-02  0.1454270E+00
         21   -1    0    0  501  502  0.00000000000E+00  0.00000000000E+00  0.29099641404E+01  0.29099641404E+01  0.00000000000E+00 0. -1.
         21   -1    0    0  502  503 -0.00000000000E+00 -0.00000000000E+00 -0.50499868987E+03  0.50499868987E+03  0.00000000000E+00 0.  1.
          2    1    1    2  501    0 -0.20364766021E+02  0.16718102304E+02 -0.66583511721E+02  0.71607141214E+02  0.00000000000E+00 0. -1.
         -2    1    1    2    0  503  0.20364766021E+02 -0.16718102304E+02 -0.43550521401E+03  0.43630151280E+03  0.00000000000E+00 0.  1.
</event>
<event>
 4    1  0.1780267E+004  0.6287743E+02  0.7546771E-02  0.1250357E+00
         21   -1    0    0  503  502  0.00000000000E+00  0.00000000000E+00  0.33652228195E+01  0.33652228195E+01  0.00000000000E+00 0.  1.
         21   -1    0    0  501  503 -0.00000000000E+00 -0.00000000000E+00 -0.12248554591E+04  0.12248554591E+04  0.00000000000E+00 0. -1.
          2    1    1    2  501    0  0.46150688736E+02  0.42704625313E+02 -0.73485070016E+03  0.73753584497E+03  0.00000000000E+00 0. -1.
         -2    1    1    2    0  502 -0.46150688736E+02 -0.42704625313E+02 -0.48663953612E+03  0.49068483695E+03  0.00000000000E+00 0.  1.
</event>
<event>
 4    1  0.1780267E+004  0.2985338E+02  0.7546771E-02  0.1420875E+00
         21   -1    0    0  501  502  0.00000000000E+00  0.00000000000E+00  0.30897507005E+02  0.30897507005E+02  0.00000000000E+00 0.  1.
         21   -1    0    0  502  503 -0.00000000000E+00 -0.00000000000E+00 -0.43601298633E+02  0.43601298633E+02  0.00000000000E+00 0. -1.
          2    1    1    2  501    0 -0.76456832289E+01  0.28857715455E+02  0.15318416329E+02  0.33554106934E+02  0.00000000000E+00 0.  1.
         -2    1    1    2    0  503  0.76456832289E+01 -0.28857715455E+02 -0.28022207956E+02  0.40944698705E+02  0.00000000000E+00 0. -1.
</event>
<event>
 4    1  0.1780267E+004  0.2628269E+02  0.7546771E-02  0.1454950E+00
         21   -1    0    0  503  502  0.00000000000E+00  0.00000000000E+00  0.10932083828E+03  0.10932083828E+03  0.00000000000E+00 0.  1.
         21   -1    0    0  501  503 -0.00000000000E+00 -0.00000000000E+00 -0.74511233292E+01  0.74511233292E+01  0.00000000000E+00 0. -1.
          2    1    1    2  501    0  0.23861997682E+02  0.11017472055E+02  0.28174584078E+02  0.38530336254E+02  0.00000000000E+00 0. -1.
         -2    1    1    2    0  502 -0.23861997682E+02 -0.11017472055E+02  0.73695130876E+02  0.78241625358E+02  0.00000000000E+00 0.  1.
</event>
<event>
 4    1  0.1780267E+004  0.6139441E+02  0.7546771E-02  0.1255167E+00
         21   -1    0    0  503  502  0.00000000000E+00  0.00000000000E+00  0.35590205072E+02  0.35590205072E+02  0.00000000000E+00 0. -1.
         21   -1    0    0  501  503 -0.00000000000E+00 -0.00000000000E+00 -0.26324493754E+03  0.26324493754E+03  0.00000000000E+00 0.  1.
          2    1    1    2  501    0 -0.34953842696E+02  0.50472790998E+02 -0.22934214111E+03  0.23741754661E+03  0.00000000000E+00 0.  1.
         -2    1    1    2    0  502  0.34953842696E+02 -0.50472790998E+02  0.16874086423E+01  0.61417595999E+02  0.00000000000E+00 0. -1.
</event>
<event>
 4    1  0.1780267E+004  0.4888769E+02  0.7546771E-02  0.1303068E+00
         21   -1    0    0  501  502  0.00000000000E+00  0.00000000000E+00  0.42781197742E+02  0.42781197742E+02  0.00000000000E+00 0. -1.
         21   -1    0    0  502  503 -0.00000000000E+00 -0.00000000000E+00 -0.64759855340E+03  0.64759855340E+03  0.00000000000E+00 0.  1.
          2    1    1    2  501    0 -0.45062108114E+02 -0.18958189517E+02  0.27556350212E+02  0.56119149801E+02  0.00000000000E+00 0. -1.
         -2    1    1    2    0  503  0.45062108114E+02  0.18958189517E+02 -0.63237370587E+03  0.63426060135E+03  0.00000000000E+00 0.  1.
</event>
<event>
 4    1  0.1780267E+004  0.3765537E+02  0.7546771E-02  0.1362801E+00
         21   -1    0    0  503  502  0.00000000000E+00  0.00000000000E+00  0.56931504253E+01  0.56931504253E+01  0.00000000000E+00 0. -1.
         21   -1    0    0  501  503 -0.00000000000E+00 -0.00000000000E+00 -0.25996471992E+03  0.25996471992E+03  0.00000000000E+00 0.  1.
          2    1    1    2  501    0 -0.28975202324E+02 -0.24049204905E+02 -0.15434247759E+03  0.15886952822E+03  0.00000000000E+00 0.  1.
         -2    1    1    2    0  502  0.28975202324E+02  0.24049204905E+02 -0.99929091906E+02  0.10678834213E+03  0.00000000000E+00 0. -1.
</event>
<event>
 4    1  0.1780267E+004  0.2163587E+02  0.7546771E-02  0.1510377E+00
         21   -1    0    0  501  502  0.00000000000E+00  0.00000000000E+00  0.39567119141E+01  0.39567119141E+01  0.00000000000E+00 0. -1.
         21   -1    0    0  502  503 -0.00000000000E+00 -0.00000000000E+00 -0.12849472465E+03  0.12849472465E+03  0.00000000000E+00 0.  1.
          2    1    1    2  501    0 -0.16227438909E+02 -0.14310179634E+02 -0.43622414223E+02  0.48693182658E+02  0.00000000000E+00 0.  1.
         -2    1    1    2    0  503  0.16227438909E+02  0.14310179634E+02 -0.80915598518E+02  0.83758253911E+02  0.00000000000E+00 0. -1.
</event>
<event>
 4    1  0.1780267E+004  0.2026020E+02  0.7546771E-02  0.1530095E+00
         21   -1    0    0  503  502  0.00000000000E+00  0.00000000000E+00  0.96115341953E+01  0.96115341953E+01  0.00000000000E+00 0. -1.
         21   -1    0    0  501  503 -0.00000000000E+00 -0.00000000000E+00 -0.61422040041E+02  0.61422040041E+02  0.00000000000E+00 0.  1.
          2    1    1    2  501    0 -0.16823518161E+02  0.11289144643E+02 -0.45510487970E+02  0.49816463799E+02  0.00000000000E+00 0.  1.
         -2    1    1    2    0  502  0.16823518161E+02 -0.11289144643E+02 -0.63000178748E+01  0.21217110437E+02  0.00000000000E+00 0. -1.
</event>
<event>
 4    1  0.1780267E+004  0.5725682E+02  0.7546771E-02  0.1269449E+00
         21   -1    0    0  503  502  0.00000000000E+00  0.00000000000E+00  0.17356824186E+03  0.17356824186E+03  0.00000000000E+00 0.  1.
         21   -1    0    0  501  503 -0.00000000000E+00 -0.00000000000E+00 -0.84516360254E+02  0.84516360254E+02  0.00000000000E+00 0. -1.
          2    1    1    2  501    0  0.49834861398E+01 -0.57039537440E+02 -0.69186434155E+02  0.89805938760E+02  0.00000000000E+00 0. -1.
         -2    1    1    2    0  502 -0.49834861398E+01  0.57039537440E+02  0.15823831576E+03  0.16827866336E+03  0.00000000000E+00 0.  1.
</event>
<event>
 4    1  0.1780267E+004  0.2129386E+02  0.7546771E-02  0.1515110E+00
         21   -1    0    0  501  502  0.00000000000E+00  0.00000000000E+00  0.16162568540E+02  0.16162568540E+02  0.00000000000E+00 0.  1.
         21   -1    0    0  502  503 -0.00000000000E+00 -0.00000000000E+00 -0.30018807664E+02  0.30018807664E+02  0.00000000000E+00 0. -1.
          2    1    1    2  501    0 -0.16406223789E+02  0.13574391330E+02 -0.12835238135E+02  0.24863057273E+02  0.00000000000E+00 0.  1.
         -2    1    1    2    0  503  0.16406223789E+02 -0.13574391330E+02 -0.10210009897E+01  0.21318318930E+02  0.00000000000E+00 0. -1.
</event>
<event>
 4    1  0.1780267E+004  0.4430350E+02  0.7546771E-02  0.1324959E+00
         21   -1    0    0  503  502  0.00000000000E+00  0.00000000000E+00  0.14840810312E+02  0.14840810312E+02  0.00000000000E+00 0.  1.
         21   -1    0    0  501  503 -0.00000000000E+00 -0.00000000000E+00 -0.14749656120E+03  0.14749656120E+03  0.00000000000E+00 0. -1.
          2    1    1    2  501    0  0.63712626840E+01  0.43842984769E+02 -0.92418502432E+02  0.10248892571E+03  0.00000000000E+00 0.  1.
         -2    1    1    2    0  502 -0.63712626840E+01 -0.43842984769E+02 -0.40237248460E+02  0.59848445805E+02  0.00000000000E+00 0. -1.
</event>
<event>
 4    1  0.1780267E+004  0.2292533E+02  0.7546771E-02  0.1493438E+00
         21   -1    0    0  501  502  0.00000000000E+00  0.00000000000E+00  0.33695872968E+02  0.33695872968E+02  0.00000000000E+00 0. -1.
         21   -1    0    0  502  503 -0.00000000000E+00 -0.00000000000E+00 -0.19154123066E+02  0.19154123066E+02  0.00000000000E+00 0.  1.
          2    1    1    2  501    0 -0.87305117553E+01 -0.21197854574E+02  0.18657726564E+02  0.29558106073E+02  0.00000000000E+00 0. -1.
         -2    1    1    2    0  503  0.87305117553E+01  0.21197854574E+02 -0.41159766632E+01  0.23291889961E+02  0.00000000000E+00 0.  1.
</event>
<event>
 4    1  0.1780267E+004  0.2015607E+02  0.7546771E-02  0.1531663E+00
         21   -1    0    0  503  502  0.00000000000E+00  0.00000000000E+00  0.21616238085E+02  0.21616238085E+02  0.00000000000E+00 0. -1.
         21   -1    0    0  501  503 -0.00000000000E+00 -0.00000000000E+00 -0.19815347400E+02  0.19815347400E+02  0.00000000000E+00 0.  1.
          2    1    1    2  501    0 -0.19205711214E+02 -0.61162016379E+01 -0.38014447717E+01  0.20511417505E+02  0.00000000000E+00 0. -1.
         -2    1    1    2    0  502  0.19205711214E+02  0.61162016379E+01  0.56023354569E+01  0.20920167979E+02  0.00000000000E+00 0.  1.
</event>
<event>
 4    1  0.1780267E+004  0.2016463E+02  0.7546771E-02  0.1531534E+00
         21   -1    0    0  503  502  0.00000000000E+00  0.00000000000E+00  0.11681251117E+02  0.11681251117E+02  0.00000000000E+00 0. -1.
         21   -1    0    0  501  503 -0.00000000000E+00 -0.00000000000E+00 -0.47360573151E+02  0.47360573151E+02  0.00000000000E+00 0.  1.
          2    1    1    2  501    0  0.30968864048E+00 -0.20162250543E+02 -0.33037120508E+02  0.38704826385E+02  0.00000000000E+00 0. -1.
         -2    1    1    2    0  502 -0.30968864048E+00  0.20162250543E+02 -0.26422015265E+01  0.20336997884E+02  0.00000000000E+00 0.  1.
</event>
<event>
 4    1  0.1780267E+004  0.2170495E+02  0.7546771E-02  0.1509433E+00
         21   -1    0    0  503  502  0.00000000000E+00  0.00000000000E+00  0.13635323822E+02  0.13635323822E+02  0.00000000000E+00 0. -1.
         21   -1    0    0  501  503 -0.00000000000E+00 -0.00000000000E+00 -0.57318619378E+02  0.57318619378E+02  0.00000000000E+00 0.  1.
          2    1    1    2  501    0  0.69821892128E+01  0.20551248281E+02 -0.44201246072E+02  0.49242815988E+02  0.00000000000E+00 0.  1.
         -2    1    1    2    0  502 -0.69821892128E+01 -0.20551248281E+02  0.51795051629E+00  0.21711127212E+02  0.00000000000E+00 0. -1.
</event>
<event>
 4    1  0.1780267E+004  0.3283808E+02  0.7546771E-02  0.1396434E+00
         21   -1    0    0  503  502  0.00000000000E+00  0.00000000000E+00  0.29727801353E+02  0.29727801353E+02  0.00000000000E+00 0.  1.
         21   -1    0    0  501  503 -0.00000000000E+00 -0.00000000000E+00 -0.46573998966E+02  0.46573998966E+02  0.00000000000E+00 0. -1.
          2    1    1    2  501    0  0.34832380633E+01  0.32652820015E+02 -0.26364499321E+02  0.42112069847E+02  0.00000000000E+00 0. -1.
         -2    1    1    2    0  502 -0.34832380633E+01 -0.32652820015E+02  0.95183017078E+01  0.34189730472E+02  0.00000000000E+00 0.  1.
</event>
<event>
 4    1  0.1780267E+004  0.2599680E+02  0.7546771E-02  0.1457954E+00
         21   -1    0    0  501  502  0.00000000000E+00  0.00000000000E+00  0.53299801210E+02  0.53299801210E+02  0.00000000000E+00 0. -1.
         21   -1    0    0  502  503 -0.00000000000E+00 -0.00000000000E+00 -0.25647539502E+02  0.25647539502E+02  0.00000000000E+00 0.  1.
          2    1    1    2  501    0  0.12269514068E+02 -0.22919264136E+02  0.41894417802E+02  0.49304927614E+02  0.00000000000E+00 0. -1.
         -2    1    1    2    0  503 -0.12269514068E+02  0.22919264136E+02 -0.14242156095E+02  0.29642413098E+02  0.00000000000E+00 0.  1.
</event>
<event>
 4    1  0.1780267E+004  0.2379906E+02  0.7546771E-02  0.1482701E+00
         21   -1    0    0  501  502  0.00000000000E+00  0.00000000000E+00  0.12133567008E+03  0.12133567008E+03  0.00000000000E+00 0.  1.
         21   -1    0    0  502  503 -0.00000000000E+00 -0.00000000000E+00 -0.55891102912E+01  0.55891102912E+01  0.00000000000E+00 0. -1.
          2    1    1    2  501    0 -0.35216197940E+01  0.23537069065E+02  0.83636485265E+02  0.86956639158E+02  0.00000000000E+00 0.  1.
         -2    1    1    2    0  503  0.35216197940E+01 -0.23537069065E+02  0.32110074527E+02  0.39968141216E+02  0.00000000000E+00 0. -1.
</event>
<event>
 4    1  0.1780267E+004  0.4144522E+02  0.7546771E-02  0.1340219E+00
         21   -1    0    0  503  502  0.00000000000E+00  0.00000000000E+00  0.42674642383E+02  0.42674642383E+02  0.00000000000E+00 0. -1.
         21   -1    0    0  501  503 -0.00000000000E+00 -0.00000000000E+00 -0.28069111946E+03  0.28069111946E+03  0.00000000000E+00 0.  1.
          2    1    1    2  501    0  0.16625406849E+02  0.37964486200E+02 -0.26865005546E+03  0.27182817857E+03  0.00000000000E+00 0.  1.
         -2    1    1    2    0  502 -0.16625406849E+02 -0.37964486200E+02  0.30633578382E+02  0.51537583275E+02  0.00000000000E+00 0. -1.
</event>
<event>
 4    1  0.1780267E+004  0.2723760E+02  0.7546771E-02  0.1445236E+00
         21   -1    0    0  503  502  0.00000000000E+00  0.00000000000E+00  0.81473747046E+02  0.81473747046E+02  0.00000000000E+00 0.  1.
         21   -1    0    0  501  503 -0.00000000000E+00 -0.00000000000E+00 -0.10332708566E+02  0.10332708566E+02  0.00000000000E+00 0. -1.
          2    1    1    2  501    0 -0.26001864157E+02 -0.81110863313E+01  0.19753097875E+02  0.33646270771E+02  0.00000000000E+00 0. -1.
         -2    1    1    2    0  502  0.26001864157E+02  0.81110863313E+01  0.51387940605E+02  0.58160184841E+02  0.00000000000E+00 0.  1.
</event>
<event>
 4    1  0.1780267E+004  0.2248401E+02  0.7546771E-02  0.1499081E+00
         21   -1    0    0  503  502  0.00000000000E+00  0.00000000000E+00  0.19073826716E+02  0.19073826716E+02  0.00000000000E+00 0.  1.
         21   -1    0    0  501  503 -0.00000000000E+00 -0.00000000000E+00 -0.46544431208E+02  0.46544431208E+02  0.00000000000E+00 0. -1.
          2    1    1    2  501    0  0.13859479382E+02  0.17704394564E+02 -0.35263886663E+02  0.41821913613E+02  0.00000000000E+00 0. -1.
         -2    1    1    2    0  502 -0.13859479382E+02 -0.17704394564E+02  0.77932821714E+01  0.23796344312E+02  0.00000000000E+00 0.  1.
</event>
<event>
 4    1  0.1780267E+004  0.3116830E+02  0.7546771E-02  0.1409708E+00
         21   -1    0    0  503  502  0.00000000000E+00  0.00000000000E+00  0.66095641661E+02  0.66095641661E+02  0.00000000000E+00 0.  1.
         21   -1    0    0  501  503 -0.00000000000E+00 -0.00000000000E+00 -0.34929623356E+02  0.34929623356E+02  0.00000000000E+00 0. -1.
          2    1    1    2  501    0 -0.31119180102E+02 -0.17491997851E+01 -0.22860245626E+02  0.38652993418E+02  0.00000000000E+00 0. -1.
         -2    1    1    2    0  502  0.31119180102E+02  0.17491997851E+01  0.54026263930E+02  0.62372271599E+02  0.00000000000E+00 0.  1.
</event>
<event>
 4    1  0.1780267E+004  0.2847200E+02  0.7546771E-02  0.1433357E+00
         21   -1    0    0  503  502  0.00000000000E+00  0.00000000000E+00  0.63166849441E+03  0.63166849441E+03  0.00000000000E+00 0. -1.
         21   -1    0    0  501  503 -0.00000000000E+00 -0.00000000000E+00 -0.15922498862E+01  0.15922498862E+01  0.00000000000E+00 0.  1.
          2    1    1    2  501    0  0.64925304797E+01 -0.27721867038E+02  0.17557724899E+03  0.17787081050E+03  0.00000000000E+00 0.  1.
         -2    1    1    2    0  502 -0.64925304797E+01  0.27721867038E+02  0.45449899554E+03  0.45538993380E+03  0.00000000000E+00 0. -1.
</event>
<event>
 4    1  0.1780267E+004  0.3188154E+02  0.7546771E-02  0.1403921E+00
         21   -1    0    0  503  502  0.00000000000E+00  0.00000000000E+00  0.34910640417E+02  0.34910640417E+02  0.00000000000E+00 0.  1.
         21   -1    0    0  501  503 -0.00000000000E+00 -0.00000000000E+00 -0.87515692704E+02  0.87515692704E+02  0.00000000000E+00 0. -1.
          2    1    1    2  501    0 -0.66489534650E+01 -0.31180509234E+02 -0.76307116327E+02  0.82699508707E+02  0.00000000000E+00 0. -1.
         -2    1    1    2    0  502  0.66489534650E+01  0.31180509234E+02  0.23702064039E+02  0.39726824414E+02  0.00000000000E+00 0.  1.
</event>
<event>
 4    1  0.1780267E+004  0.3390284E+02  0.7546771E-02  0.1388445E+00
         21   -1    0    0  503  502  0.00000000000E+00  0.00000000000E+00  0.26863259588E+01  0.26863259588E+01  0.00000000000E+00 0.  1.
         21   -1    0    0  501  503 -0.00000000000E+00 -0.00000000000E+00 -0.47352577467E+03  0.47352577467E+03  0.00000000000E+00 0. -1.
          2    1    1    2  501    0  0.18867344444E+02 -0.28167814941E+02 -0.30935284652E+03  0.31120505480E+03  0.00000000000E+00 0. -1.
         -2    1    1    2    0  502 -0.18867344444E+02  0.28167814941E+02 -0.16148660219E+03  0.16500704583E+03  0.00000000000E+00 0.  1.
</event>
<event>
 4    1  0.1780267E+004  0.2018184E+02  0.7546771E-02  0.1531274E+00
         21   -1    0    0  501  502  0.00000000000E+00  0.00000000000E+00  0.27117187879E+03  0.27117187879E+03  0.00000000000E+00 0.  1.
         21   -1    0    0  502  503 -0.00000000000E+00 -0.00000000000E+00 -0.25678330999E+01  0.25678330999E+01  0.00000000000E+00 0. -1.
          2    1    1    2  501    0 -0.70746017272E+01 -0.18901238861E+02  0.22248078807E+03  0.22339428794E+03  0.00000000000E+00 0.  1.
         -2    1    1    2    0  503  0.70746017272E+01  0.18901238861E+02  0.46123257619E+02  0.50345423958E+02  0.00000000000E+00 0. -1.
</event>
<event>
 4    1  0.1780267E+004  0.2130682E+02  0.7546771E-02  0.1514929E+00
         21   -1    0    0  503  502  0.00000000000E+00  0.00000000000E+00  0.30346512706E+01  0.30346512706E+01  0.00000000000E+00 0.  1.
         21   -1    0    0  501  503 -0.00000000000E+00 -0.00000000000E+00 -0.29119840602E+03  0.29119840602E+03  0.00000000000E+00 0. -1.
          2    1    1    2  501    0  0.99625236304E+01  0.18834246757E+02 -0.24667015111E+03  0.24758865922E+03  0.00000000000E+00 0. -1.
         -2    1    1    2    0  502 -0.99625236304E+01 -0.18834246757E+02 -0.41493603643E+02  0.46644398069E+02  0.00000000000E+00 0.  1.
</event>
<event>
 4    1  0.1780267E+004  0.2874389E+02  0.7546771E-02  0.1430835E+00
         21   -1    0    0  503  502  0.00000000000E+00  0.00000000000E+00  0.17672263781E+03  0.17672263781E+03  0.00000000000E+00 0.  1.
         21   -1    0    0  501  503 -0.00000000000E+00 -0.00000000000E+00 -0.59337760020E+01  0.59337760020E+01  0.00000000000E+00 0. -1.
          2    1    1    2  501    0 -0.14238160721E+02 -0.24969699081E+02  0.43333236363E+02  0.51999812179E+02  0.00000000000E+00 0.  1.
         -2    1    1    2    0  502  0.14238160721E+02  0.24969699081E+02  0.12745562545E+03  0.13065660164E+03  0.00000000000E+00 0. -1.
</event>
<event>
 4    1  0.1780267E+004  0.3000038E+02  0.7546771E-02  0.1419593E+00
         21   -1    0    0  501  502  0.00000000000E+00  0.00000000000E+00  0.54999319708E+02  0.54999319708E+02  0.00000000000E+00 0. -1.
         21   -1    0    0  502  503 -0.00000000000E+00 -0.00000000000E+00 -0.24600104615E+02  0.24600104615E+02  0.00000000000E+00 0.  1.
          2    1    1    2  501    0  0.28164812343E+02 -0.10332773862E+02  0.38228108530E+02  0.48594353085E+02  0.00000000000E+00 0. -1.
         -2    1    1    2    0  503 -0.28164812343E+02  0.10332773862E+02 -0.78288934364E+01  0.31005071238E+02  0.00000000000E+00 0.  1.
</event>
<event>
 4    1  0.1780267E+004  0.2010591E+02  0.7546771E-02  0.1532423E+00
         21   -1    0    0  503  502  0.00000000000E+00  0.00000000000E+00  0.13472684046E+03  0.13472684046E+03  0.00000000000E+00 0.  1.
         21   -1    0    0  501  503 -0.00000000000E+00 -0.00000000000E+00 -0.47797796745E+01  0.47797796745E+01  0.00000000000E+00 0. -1.
          2    1    1    2  501    0  0.14100205743E+02  0.14332893705E+02  0.22415334495E+02  0.30111374337E+02  0.00000000000E+00 0. -1.
         -2    1    1    2    0  502 -0.14100205743E+02 -0.14332893705E+02  0.10753172629E+03  0.10939524580E+03  0.00000000000E+00 0.  1.
</event>
<event>
 4    1  0.1780267E+004  0.2057602E+02  0.7546771E-02  0.1525405E+00
         21   -1    0    0  503  502  0.00000000000E+00  0.00000000000E+00  0.90952923716E+02  0.90952923716E+02  0.00000000000E+00 0.  1.
         21   -1    0    0  501  503 -0.00000000000E+00 -0.00000000000E+00 -0.51531705163E+01  0.51531705163E+01  0.00000000000E+00 0. -1.
          2    1    1    2  501    0  0.16623816081E+02  0.12125236484E+02  0.57842819063E+02  0.61393520326E+02  0.00000000000E+00 0.  1.
         -2    1    1    2    0  502 -0.16623816081E+02 -0.12125236484E+02  0.27956934137E+02  0.34712573906E+02  0.00000000000E+00 0. -1.
</event>
<event>
 4    1  0.1780267E+004  0.2440079E+02  0.7546771E-02  0.1475620E+00
         21   -1    0    0  503  502  0.00000000000E+00  0.00000000000E+00  0.20117467177E+01  0.20117467177E+01  0.00000000000E+00 0.  1.
         21   -1    0    0  501  503 -0.00000000000E+00 -0.00000000000E+00 -0.55341335838E+03  0.55341335838E+03  0.00000000000E+00 0. -1.
          2    1    1    2  501    0 -0.21617294046E+02  0.11317729382E+02 -0.46511791305E+03  0.46575752430E+03  0.00000000000E+00 0. -1.
         -2    1    1    2    0  502  0.21617294046E+02 -0.11317729382E+02 -0.86283698611E+02  0.89667580798E+02  0.00000000000E+00 0.  1.
</event>
<event>
 4    1  0.1780267E+004  0.2818315E+02  0.7546771E-02  0.1436072E+00
         21   -1    0    0  503  502  0.00000000000E+00  0.00000000000E+00  0.27764223387E+02  0.27764223387E+02  0.00000000000E+00 0.  1.
         21   -1    0    0  501  503 -0.00000000000E+00 -0.00000000000E+00 -0.35157228512E+02  0.35157228512E+02  0.00000000000E+00 0. -1.
          2    1    1    2  501    0  0.26751350816E+02 -0.88687695360E+01 -0.17274740966E+02  0.33056111674E+02  0.00000000000E+00 0.  1.
         -2    1    1    2    0  502 -0.26751350816E+02  0.88687695360E+01  0.98817358416E+01  0.29865340226E+02  0.00000000000E+00 0. -1.
</event>
<event>
 4    1  0.1780267E+004  0.3080758E+02  0.7546771E-02  0.1412706E+00
         21   -1    0    0  503  502  0.00000000000E+00  0.00000000000E+00  0.12459389627E+03  0.12459389627E+03  0.00000000000E+00 0. -1.
         21   -1    0    0  501  503 -0.00000000000E+00 -0.00000000000E+00 -0.51037888501E+02  0.51037888501E+02  0.00000000000E+00 0.  1.
          2    1    1    2  501    0  0.29415931953E+02  0.91547861388E+01 -0.44219772037E+02  0.53893370658E+02  0.00000000000E+00 0.  1.
         -2    1    1    2    0  502 -0.29415931953E+02 -0.91547861388E+01  0.11777577981E+03  0.12173841411E+03  0.00000000000E+00 0. -1.
</event>
<event>
 4    1  0.1780267E+004  0.2787887E+02  0.7546771E-02  0.1438974E+00
         21   -1    0    0  503  502  0.00000000000E+00  0.00000000000E+00  0.44045760263E+03  0.44045760263E+03  0.00000000000E+00 0.  1.
         21   -1    0    0  501  503 -0.00000000000E+00 -0.00000000000E+00 -0.17744058053E+01  0.17744058053E+01  0.00000000000E+00 0. -1.
          2    1    1    2  501    0  0.18546878434E+02  0.20814532536E+02  0.20290407426E+03  0.20481038747E+03  0.00000000000E+00 0.  1.
         -2    1    1    2    0  502 -0.18546878434E+02 -0.20814532536E+02  0.23577912256E+03  0.23742162096E+03  0.00000000000E+00 0. -1.
</event>
<event>
 4    1  0.1780267E+004  0.3282206E+02  0.7546771E-02  0.1396557E+00
         21   -1    0    0  503  502  0.00000000000E+00  0.00000000000E+00  0.67089847601E+02  0.67089847601E+02  0.00000000000E+00 0. -1.
         21   -1    0    0  501  503 -0.00000000000E+00 -0.00000000000E+00 -0.19565816735E+02  0.19565816735E+02  0.00000000000E+00 0.  1.
          2    1    1    2  501    0  0.11461673481E+02 -0.30755774660E+02  0.54146220332E+01  0.33265684506E+02  0.00000000000E+00 0.  1.
         -2    1    1    2    0  502 -0.11461673481E+02  0.30755774660E+02  0.42109408833E+02  0.53389979829E+02  0.00000000000E+00 0. -1.
</event>
<event>
 4    1  0.1780267E+004  0.2267817E+02  0.7546771E-02  0.1496579E+00
         21   -1    0    0  503  502  0.00000000000E+00  0.00000000000E+00  0.87627237672E+03  0.87627237672E+03  0.00000000000E+00 0. -1.
         21   -1    0    0  501  503 -0.00000000000E+00 -0.00000000000E+00 -0.11491140532E+01  0.11491140532E+01  0.00000000000E+00 0.  1.
          2    1    1    2  501    0  0.17762938931E+02  0.14098841525E+02  0.13070118804E+03  0.13265406095E+03  0.00000000000E+00 0.  1.
         -2    1    1    2    0  502 -0.17762938931E+02 -0.14098841525E+02  0.74442207463E+03  0.74476742982E+03  0.00000000000E+00 0. -1.
</event>
<event>
 4    1  0.1780267E+004  0.2195777E+02  0.7546771E-02  0.1506017E+00
         21   -1    0    0  503  502  0.00000000000E+00  0.00000000000E+00  0.86963046772E+01  0.86963046772E+01  0.00000000000E+00 0. -1.
         21   -1    0    0  501  503 -0.00000000000E+00 -0.00000000000E+00 -0.20672087547E+03  0.20672087547E+03  0.00000000000E+00 0.  1.
          2    1    1    2  501    0  0.73855170017E+01 -0.20678434304E+02 -0.19115199191E+03  0.19240901101E+03  0.00000000000E+00 0.  1.
         -2    1    1    2    0  502 -0.73855170017E+01  0.20678434304E+02 -0.68725788852E+01  0.23008169140E+02  0.00000000000E+00 0. -1.
</event>
<event>
 4    1  0.1780267E+004  0.2879805E+02  0.7546771E-02  0.1430337E+00
         21   -1    0    0  501  502  0.00000000000E+00  0.00000000000E+00  0.31627225120E+01  0.31627225120E+01  0.00000000000E+00 0.  1.
         21   -1    0    0  502  503 -0.00000000000E+00 -0.00000000000E+00 -0.34341833265E+03  0.34341833265E+03  0.00000000000E+00 0. -1.
          2    1    1    2  501    0 -0.11576201457E+02  0.26368909145E+02 -0.85864647251E+02  0.90565255243E+02  0.00000000000E+00 0.  1.
         -2    1    1    2    0  503  0.11576201457E+02 -0.26368909145E+02 -0.25439096289E+03  0.25601579992E+03  0.00000000000E+00 0. -1.
</event>
<event>
 4    1  0.1780267E+004  0.2526786E+02  0.7546771E-02  0.1465829E+00
         21   -1    0    0  501  502  0.00000000000E+00  0.00000000000E+00  0.37377499792E+02  0.37377499792E+02  0.00000000000E+00 0. -1.
         21   -1    0    0  502  503 -0.00000000000E+00 -0.00000000000E+00 -0.18893477785E+02  0.18893477785E+02  0.00000000000E+00 0.  1.
          2    1    1    2  501    0  0.23138653293E+01  0.25161691149E+02  0.52892456370E+00  0.25273393825E+02  0.00000000000E+00 0.  1.
         -2    1    1    2    0  503 -0.23138653293E+01 -0.25161691149E+02  0.17955097443E+02  0.30997583752E+02  0.00000000000E+00 0. -1.
</event>
<event>
 4    1  0.1780267E+004  0.2582880E+02  0.7546771E-02  0.1459741E+00
         21   -1    0    0  501  502  0.00000000000E+00  0.00000000000E+00  0.71975024953E+03  0.71975024953E+03  0.00000000000E+00 0. -1.
         21   -1    0    0  502  503 -0.00000000000E+00 -0.00000000000E+00 -0.10216811080E+01  0.10216811080E+01  0.00000000000E+00 0.  1.
          2    1    1    2  501    0  0.25559505909E+02 -0.37200561802E+01  0.24958994640E+03  0.25092283377E+03  0.00000000000E+00 0. -1.
         -2    1    1    2    0  503 -0.25559505909E+02  0.37200561802E+01  0.46913862202E+03  0.46984909687E+03  0.00000000000E+00 0.  1.
</event>
<event>
 4    1  0.1780267E+004  0.2147892E+02  0.7546771E-02  0.1512536E+00
         21   -1    0    0  503  502  0.00000000000E+00  0.00000000000E+00  0.10101040144E+03  0.10101040144E+03  0.00000000000E+00 0.  1.
         21   -1    0    0  501  503 -0.00000000000E+00 -0.00000000000E+00 -0.18598814328E+02  0.18598814328E+02  0.00000000000E+00 0. -1.
          2    1    1    2  501    0 -0.20808943701E+02 -0.53227653155E+01 -0.10739286294E+02  0.24014084173E+02  0.00000000000E+00 0. -1.
         -2    1    1    2    0  502  0.20808943701E+02  0.53227653155E+01  0.93150873408E+02  0.95595131598E+02  0.00000000000E+00 0.  1.
</event>
<event>
 4    1  0.1780267E+004  0.7139077E+02  0.7546771E-02  0.1225381E+00
         21   -1    0    0  503  502  0.00000000000E+00  0.00000000000E+00  0.96720067071E+02  0.96720067071E+02  0.00000000000E+00 0. -1.
         21   -1    0    0  501  503 -0.00000000000E+00 -0.00000000000E+00 -0.55092792148E+02  0.55092792148E+02  0.00000000000E+00 0.  1.
          2    1    1    2  501    0 -0.71220943108E+02  0.49212611415E+01  0.49771850974E+01  0.71564054663E+02  0.00000000000E+00 0. -1.
         -2    1    1    2    0  502  0.71220943108E+02 -0.49212611415E+01  0.36650089826E+02  0.80248804556E+02  0.00000000000E+00 0.  1.
</event>
<event>
 4    1  0.1780267E+004  0.2148223E+02  0.7546771E-02  0.1512490E+00
         21   -1    0    0  503  502  0.00000000000E+00  0.00000000000E+00  0.94059679667E+01  0.94059679667E+01  0.00000000000E+00 0. -1.
         21   -1    0    0  501  503 -0.00000000000E+00 -0.00000000000E+00 -0.12913165413E+03  0.12913165413E+03  0.00000000000E+00 0.  1.
          2    1    1    2  501    0  0.21256985211E+02 -0.31027379793E+01 -0.11440750293E+03  0.11640688609E+03  0.00000000000E+00 0.  1.
         -2    1    1    2    0  502 -0.21256985211E+02  0.31027379793E+01 -0.53181832351E+01  0.22130736005E+02  0.00000000000E+00 0. -1.
</event>
<event>
 4    1  0.1780267E+004  0.2408228E+02  0.7546771E-02  0.1479337E+00
         21   -1    0    0  503  502  0.00000000000E+00  0.00000000000E+00  0.15063691349E+02  0.15063691349E+02  0.00000000000E+00 0. -1.
         21   -1    0    0  501  503 -0.00000000000E+00 -0.00000000000E+00 -0.82427394146E+02  0.82427394146E+02  0.00000000000E+00 0.  1.
          2    1    1    2  501    0 -0.99277867336E+01  0.21940718531E+02 -0.69266734655E+02  0.73333734454E+02  0.00000000000E+00 0.  1.
         -2    1    1    2    0  502  0.99277867336E+01 -0.21940718531E+02  0.19030318579E+01  0.24157351042E+02  0.00000000000E+00 0. -1.
</event>
<event>
 4    1  0.1780267E+004  0.2427188E+02  0.7546771E-02  0.1477116E+00
         21   -1    0    0  503  502  0.00000000000E+00  0.00000000000E+00  0.16290639768E+03  0.16290639768E+03  0.00000000000E+00 0. -1.
         21   -1    0    0  501  503 -0.00000000000E+00 -0.00000000000E+00 -0.52267571832E+01  0.52267571832E+01  0.00000000000E+00 0.  1.
          2    1    1    2  501    0  0.25165590618E+01  0.24141070694E+02  0.32176368136E+02  0.40304379789E+02  0.00000000000E+00 0.  1.
         -2    1    1    2    0  502 -0.25165590618E+01 -0.24141070694E+02  0.12550327237E+03  0.12782877508E+03  0.00000000000E+00 0. -1.
</event>
<event>
 4    1  0.1780267E+004  0.2137825E+02  0.7546771E-02  0.1513932E+00
         21   -1    0    0  503  502  0.00000000000E+00  0.00000000000E+00  0.19550022294E+02  0.19550022294E+02  0.00000000000E+00 0.  1.
         21   -1    0    0  501  503 -0.00000000000E+00 -0.00000000000E+00 -0.23801594809E+02  0.23801594809E+02  0.00000000000E+00 0. -1.
          2    1    1    2  501    0 -0.88401791970E+01 -0.19464860201E+02  0.76777339881E+00  0.21392031855E+02  0.00000000000E+00 0.  1.
         -2    1    1    2    0  502  0.88401791970E+01  0.19464860201E+02 -0.50193459131E+01  0.21959585248E+02  0.00000000000E+00 0. -1.
</event>
<event>
 4    1  0.1780267E+004  0.2762837E+02  0.7546771E-02  0.1441396E+00
         21   -1    0    0  503  502  0.00000000000E+00  0.00000000000E+00  0.55231109571E+03  0.55231109571E+03  0.00000000000E+00 0.  1.
         21   -1    0    0  501  503 -0.00000000000E+00 -0.00000000000E+00 -0.15253515027E+01  0.15253515027E+01  0.00000000000E+00 0. -1.
          2    1    1    2  501    0  0.25148154350E+02  0.11441018518E+02  0.19051818954E+03  0.19251105713E+03  0.00000000000E+00 0. -1.
         -2    1    1    2    0  502 -0.25148154350E+02 -0.11441018518E+02  0.36026755467E+03  0.36132539008E+03  0.00000000000E+00 0.  1.
</event>
<event>
 4    1  0.1780267E+004  0.3651538E+02  0.7546771E-02  0.1370212E+00
         21   -1    0    0  503  502  0.00000000000E+00  0.00000000000E+00  0.19851176652E+02  0.19851176652E+02  0.00000000000E+00 0. -1.
         21   -1    0    0  501  503 -0.00000000000E+00 -0.00000000000E+00 -0.67269400235E+02  0.67269400235E+02  0.00000000000E+00 0.  1.
          2    1    1    2  501    0  0.22347470851E+02  0.28878423080E+02 -0.25396577347E+02  0.44478746767E+02  0.00000000000E+00 0. -1.
         -2    1    1    2    0  502 -0.22347470851E+02 -0.28878423080E+02 -0.22021646236E+02  0.42641830120E+02  0.00000000000E+00 0.  1.
</event>
<event>
 4    1  0.1780267E+004  0.2118481E+02  0.7546771E-02  0.1516642E+00
         21   -1    0    0  503  502  0.00000000000E+00  0.00000000000E+00  0.22396216053E+02  0.22396216053E+02  0.00000000000E+00 0.  1.
         21   -1    0    0  501  503 -0.00000000000E+00 -0.00000000000E+00 -0.26140128079E+02  0.26140128079E+02  0.00000000000E+00 0. -1.
          2    1    1    2  501    0  0.88454960228E+01 -0.19249765467E+02  0.98524451421E+01  0.23363795619E+02  0.00000000000E+00 0.  1.
         -2    1    1    2    0  502 -0.88454960228E+01  0.19249765467E+02 -0.13596357168E+02  0.25172548514E+02  0.00000000000E+00 0. -1.
</event>
<event>
 4    1  0.1780267E+004  0.2794335E+02  0.7546771E-02  0.1438355E+00
         21   -1    0    0  501  502  0.00000000000E+00  0.00000000000E+00  0.34779807805E+02  0.34779807805E+02  0.00000000000E+00 0. -1.
         21   -1    0    0  502  503 -0.00000000000E+00 -0.00000000000E+00 -0.24552969222E+02  0.24552969222E+02  0.00000000000E+00 0.  1.
          2    1    1    2  501    0  0.27904519194E+02 -0.14727050378E+01  0.13794159828E+02  0.31162636232E+02  0.00000000000E+00 0. -1.
         -2    1    1    2    0  503 -0.27904519194E+02  0.14727050378E+01 -0.35673212454E+01  0.28170140795E+02  0.00000000000E+00 0.  1.
</event>
<event>
 4    1  0.1780267E+004  0.2051272E+02  0.7546771E-02  0.1526337E+00
         21   -1    0    0  501  502  0.00000000000E+00  0.00000000000E+00  0.97127433238E+02  0.97127433238E+02  0.00000000000E+00 0.  1.
         21   -1    0    0  502  503 -0.00000000000E+00 -0.00000000000E+00 -0.76956245174E+01  0.76956245174E+01  0.00000000000E+00 0. -1.
          2    1    1    2  501    0  0.18622020892E+02 -0.86018713293E+01  0.79365497440E+02  0.81973495938E+02  0.00000000000E+00 0.  1.
         -2    1    1    2    0  503 -0.18622020892E+02  0.86018713293E+01  0.10066311281E+02  0.22849561818E+02  0.00000000000E+00 0. -1.
</event>
<event>
 4    1  0.1780267E+004  0.2148523E+02  0.7546771E-02  0.1512449E+00
         21   -1    0    0  503  502  0.00000000000E+00  0.00000000000E+00  0.11914679406E+04  0.11914679406E+04  0.00000000000E+00 0.  1.
         21   -1    0    0  501  503 -0.00000000000E+00 -0.00000000000E+00 -0.17538273952E+01  0.17538273952E+01  0.00000000000E+00 0. -1.
          2    1    1    2  501    0 -0.12443976137E+02  0.17514637779E+02  0.68251255409E+02  0.71553119733E+02  0.00000000000E+00 0. -1.
         -2    1    1    2    0  502  0.12443976137E+02 -0.17514637779E+02  0.11214628578E+04  0.11216686483E+04  0.00000000000E+00 0.  1.
</event>
<event>
 4    1  0.1780267E+004  0.2213282E+02  0.7546771E-02  0.1503684E+00
         21   -1    0    0  503  502  0.00000000000E+00  0.00000000000E+00  0.12039349482E+03  0.12039349482E+03  0.00000000000E+00 0.  1.
         21   -1    0    0  501  503 -0.00000000000E+00 -0.00000000000E+00 -0.43766252879E+02  0.43766252879E+02  0.00000000000E+00 0. -1.
          2    1    1    2  501    0 -0.36796738075E+01  0.21824800330E+02 -0.39857816452E+02  0.45590650808E+02  0.00000000000E+00 0. -1.
         -2    1    1    2    0  502  0.36796738075E+01 -0.21824800330E+02  0.11648505839E+03  0.11856909689E+03  0.00000000000E+00 0.  1.
</event>
<event>
 4    1  0.1780267E+004  0.2060122E+02  0.7546771E-02  0.1525035E+00
         21   -1    0    0  503  502  0.00000000000E+00  0.00000000000E+00  0.25615352731E+03  0.25615352731E+03  0.00000000000E+00 0.  1.
         21   -1    0    0  501  503 -0.00000000000E+00 -0.00000000000E+00 -0.16732797503E+01  0.16732797503E+01  0.00000000000E+00 0. -1.
          2    1    1    2  501    0  0.19440995018E+02  0.68160078637E+01  0.11446951298E+03  0.11630855365E+03  0.00000000000E+00 0.  1.
         -2    1    1    2    0  502 -0.19440995018E+02 -0.68160078637E+01  0.14001073458E+03  0.14151825341E+03  0.00000000000E+00 0. -1.
</event>
<event>
 4    1  0.1780267E+004  0.2936009E+02  0.7546771E-02  0.1425240E+00
         21   -1    0    0  503  502  0.00000000000E+00  0.00000000000E+00  0.65856657347E+02  0.65856657347E+02  0.00000000000E+00 0. -1.
         21   -1    0    0  501  503 -0.00000000000E+00 -0.00000000000E+00 -0.65954617248E+02  0.65954617248E+02  0.00000000000E+00 0.  1.
          2    1    1    2  501    0  0.25591665041E+02  0.14390324220E+02 -0.59053537408E+02  0.65949488482E+02  0.00000000000E+00 0.  1.
         -2    1    1    2    0  502 -0.25591665041E+02 -0.14390324220E+02  0.58955577507E+02  0.65861786112E+02  0.00000000000E+00 0. -1.
</event>
<event>
 4    1  0.1780267E+004  0.2758084E+02  0.7546771E-02  0.1441859E+00
         21   -1    0    0  501  502  0.00000000000E+00  0.00000000000E+00  0.13197663893E+02  0.13197663893E+02  0.00000000000E+00 0.  1.
         21   -1    0    0  502  503 -0.00000000000E+00 -0.00000000000E+00 -0.78771821941E+02  0.78771821941E+02  0.00000000000E+00 0. -1.
          2    1    1    2  501    0 -0.14900793901E+02  0.23209251040E+02 -0.56605054873E+02  0.62966937593E+02  0.00000000000E+00 0. -1.
         -2    1    1    2    0  503  0.14900793901E+02 -0.23209251040E+02 -0.89691031755E+01  0.29002548241E+02  0.00000000000E+00 0.  1.
</event>
<event>
 4    1  0.1780267E+004  0.2001222E+02  0.7546771E-02  0.1533849E+00
         21   -1    0    0  501  502  0.00000000000E+00  0.00000000000E+00  0.72297985144E+02  0.72297985144E+02  0.00000000000E+00 0. -1.
         21   -1    0    0  502  503 -0.00000000000E+00 -0.00000000000E+00 -0.57524892938E+01  0.57524892938E+01  0.00000000000E+00 0.  1.
          2    1    1    2  501    0  0.17012519144E+02  0.10538643096E+02  0.40783431578E+02  0.45428813513E+02  0.00000000000E+00 0.  1.
         -2    1    1    2    0  503 -0.17012519144E+02 -0.10538643096E+02  0.25762064272E+02  0.32621660924E+02  0.00000000000E+00 0. -1.
</event>
<event>
 4    1  0.1780267E+004  0.2099891E+02  0.7546771E-02  0.1519280E+00
         21   -1    0    0  501  502  0.00000000000E+00  0.00000000000E+00  0.14371527656E+03  0.14371527656E+03  0.00000000000E+00 0. -1.
         21   -1    0    0  502  503 -0.00000000000E+00 -0.00000000000E+00 -0.58437856739E+01  0.58437856739E+01  0.00000000000E+00 0.  1.
          2    1    1    2  501    0  0.20772226182E+02 -0.30771225557E+01  0.12047156495E+03  0.12228798806E+03  0.00000000000E+00 0. -1.
         -2    1    1    2    0  503 -0.20772226182E+02  0.30771225557E+01  0.17399925942E+02  0.27271074174E+02  0.00000000000E+00 0.  1.
</event>
<event>
 4    1  0.1780267E+004  0.3491430E+02  0.7546771E-02  0.1381167E+00
         21   -1    0    0  503  502  0.00000000000E+00  0.00000000000E+00  0.11401925524E+03  0.11401925524E+03  0.00000000000E+00 0. -1.
         21   -1    0    0  501  503 -0.00000000000E+00 -0.00000000000E+00 -0.26373094512E+02  0.26373094512E+02  0.00000000000E+00 0.  1.
          2    1    1    2  501    0 -0.18866428329E+02 -0.29377992751E+02 -0.10306099565E+02  0.36403629822E+02  0.00000000000E+00 0.  1.
         -2    1    1    2    0  502  0.18866428329E+02  0.29377992751E+02  0.97952260295E+02  0.10398871993E+03  0.00000000000E+00 0. -1.
</event>
<event>
 4    1  0.1780267E+004  0.2514431E+02  0.7546771E-02  0.1467195E+00
         21   -1    0    0  501  502  0.00000000000E+00  0.00000000000E+00  0.34893319210E+02  0.34893319210E+02  0.00000000000E+00 0. -1.
         21   -1    0    0  502  503 -0.00000000000E+00 -0.00000000000E+00 -0.27238946053E+02  0.27238946053E+02  0.00000000000E+00 0.  1.
          2    1    1    2  501    0  0.14368765942E+02 -0.20634318415E+02  0.21802857945E+02  0.33280642207E+02  0.00000000000E+00 0. -1.
         -2    1    1    2    0  503 -0.14368765942E+02  0.20634318415E+02 -0.14148484787E+02  0.28851623056E+02  0.00000000000E+00 0.  1.
</event>
<event>
 4    1  0.1780267E+004  0.4153134E+02  0.7546771E-02  0.1339739E+00
         21   -1    0    0  503  502  0.00000000000E+00  0.00000000000E+00  0.30588639205E+03  0.30588639205E+03  0.00000000000E+00 0.  1.
         21   -1    0    0  501  503 -0.00000000000E+00 -0.00000000000E+00 -0.64201423943E+01  0.64201423943E+01  0.00000000000E+00 0. -1.
          2    1    1    2  501    0 -0.33746289998E+02 -0.24208262163E+02  0.95260111928E+02  0.10391987765E+03  0.00000000000E+00 0. -1.
         -2    1    1    2    0  502  0.33746289998E+02  0.24208262163E+02  0.20420613773E+03  0.20838665680E+03  0.00000000000E+00 0.  1.
</event>
<event>
 4    1  0.1780267E+004  0.2788585E+02  0.7546771E-02  0.1438907E+00
         21   -1    0    0  503  502  0.00000000000E+00  0.00000000000E+00  0.56277112430E+02  0.56277112430E+02  0.00000000000E+00 0.  1.
         21   -1    0    0  501  503 -0.00000000000E+00 -0.00000000000E+00 -0.28435248659E+02  0.28435248659E+02  0.00000000000E+00 0. -1.
          2    1    1    2  501    0 -0.23787247047E+02 -0.14552915319E+02 -0.16447718672E+02  0.32375112600E+02  0.00000000000E+00 0. -1.
         -2    1    1    2    0  502  0.23787247047E+02  0.14552915319E+02  0.44289582443E+02  0.52337248488E+02  0.00000000000E+00 0.  1.
</event>
<event>
 4    1  0.1780267E+004  0.2112045E+02  0.7546771E-02  0.1517552E+00
         21   -1    0    0  503  502  0.00000000000E+00  0.00000000000E+00  0.10491363094E+04  0.10491363094E+04  0.00000000000E+00 0. -1.
         21   -1    0    0  501  503 -0.00000000000E+00 -0.00000000000E+00 -0.10829981544E+01  0.10829981544E+01  0.00000000000E+00 0.  1.
          2    1    1    2  501    0 -0.78697866229E+01 -0.19599490423E+02  0.11477682488E+03  0.11670386924E+03  0.00000000000E+00 0.  1.
         -2    1    1    2    0  502  0.78697866229E+01  0.19599490423E+02  0.93327648638E+03  0.93351543833E+03  0.00000000000E+00 0. -1.
</event>
<event>
 4    1  0.1780267E+004  0.3613041E+02  0.7546771E-02  0.1372786E+00
         21   -1    0    0  501  502  0.00000000000E+00  0.00000000000E+00  0.71236318422E+01  0.71236318422E+01  0.00000000000E+00 0.  1.
         21   -1    0    0  502  503 -0.00000000000E+00 -0.00000000000E+00 -0.26954982446E+03  0.26954982446E+03  0.00000000000E+00 0. -1.
          2    1    1    2  501    0 -0.31373448221E+01 -0.35993933689E+02 -0.52938164807E+02  0.64092554077E+02  0.00000000000E+00 0.  1.
         -2    1    1    2    0  503  0.31373448221E+01  0.35993933689E+02 -0.20948802781E+03  0.21258090223E+03  0.00000000000E+00 0. -1.
</event>
<event>
 4    1  0.1780267E+004  0.2098620E+02  0.7546771E-02  0.1519462E+00
         21   -1    0    0  503  502  0.00000000000E+00  0.00000000000E+00  0.31204338719E+01  0.31204338719E+01  0.00000000000E+00 0. -1.
         21   -1    0    0  501  503 -0.00000000000E+00 -0.00000000000E+00 -0.32132185701E+03  0.32132185701E+03  0.00000000000E+00 0.  1.
          2    1    1    2  501    0  0.67693614540E+01 -0.19864453850E+02 -0.28057707964E+03  0.28136083310E+03  0.00000000000E+00 0.  1.
         -2    1    1    2    0  502 -0.67693614540E+01  0.19864453850E+02 -0.37624343496E+02  0.43081457784E+02  0.00000000000E+00 0. -1.
</event>
<event>
 4    1  0.1780267E+004  0.2974595E+02  0.7546771E-02  0.1421817E+00
         21   -1    0    0  503  502  0.00000000000E+00  0.00000000000E+00  0.18134172100E+03  0.18134172100E+03  0.00000000000E+00 0.  1.
         21   -1    0    0  501  503 -0.00000000000E+00 -0.00000000000E+00 -0.53064934382E+01  0.53064934382E+01  0.00000000000E+00 0. -1.
          2    1    1    2  501    0 -0.47773347036E+00  0.29742114902E+02  0.11449649302E+03  0.11829737336E+03  0.00000000000E+00 0.  1.
         -2    1    1    2    0  502  0.47773347036E+00 -0.29742114902E+02  0.61538734539E+02  0.68350841083E+02  0.00000000000E+00 0. -1.
</event>
<event>
 4    1  0.1780267E+004  0.2019303E+02  0.7546771E-02  0.1531105E+00
         21   -1    0    0  503  502  0.00000000000E+00  0.00000000000E+00  0.17576168464E+03  0.17576168464E+03  0.00000000000E+00 0. -1.
         21   -1    0    0  501  503 -0.00000000000E+00 -0.00000000000E+00 -0.33171475620E+01  0.33171475620E+01  0.00000000000E+00 0.  1.
          2    1    1    2  501    0  0.89833642825E+01  0.18084730971E+02  0.37128942464E+02  0.42264839958E+02  0.00000000000E+00 0.  1.
         -2    1    1    2    0  502 -0.89833642825E+01 -0.18084730971E+02  0.13531559462E+03  0.13681399225E+03  0.00000000000E+00 0. -1.
</event>
<event>
 4    1  0.1780267E+004  0.5715752E+02  0.7546771E-02  0.1269809E+00
         21   -1    0    0  503  502  0.00000000000E+00  0.00000000000E+00  0.41323779242E+02  0.41323779242E+02  0.00000000000E+00 0.  1.
         21   -1    0    0  501  503 -0.00000000000E+00 -0.00000000000E+00 -0.22680096456E+03  0.22680096456E+03  0.00000000000E+00 0. -1.
          2    1    1    2  501    0  0.96824979743E+00  0.57149314095E+02 -0.20094117654E+03  0.20891227355E+03  0.00000000000E+00 0. -1.
         -2    1    1    2    0  502 -0.96824979743E+00 -0.57149314095E+02  0.15463991221E+02  0.59212470255E+02  0.00000000000E+00 0.  1.
</event>
<event>
 4    1  0.1780267E+004  0.2898871E+02  0.7546771E-02  0.1428593E+00
         21   -1    0    0  501  502  0.00000000000E+00  0.00000000000E+00  0.28201212704E+03  0.28201212704E+03  0.00000000000E+00 0.  1.
         21   -1    0    0  502  503 -0.00000000000E+00 -0.00000000000E+00 -0.33137935651E+01  0.33137935651E+01  0.00000000000E+00 0. -1.
          2    1    1    2  501    0  0.22516413473E+02  0.18258052552E+02  0.94058929711E+02  0.98424730718E+02  0.00000000000E+00 0. -1.
         -2    1    1    2    0  503 -0.22516413473E+02 -0.18258052552E+02  0.18463940376E+03  0.18690118988E+03  0.00000000000E+00 0.  1.
</event>
<event>
 4    1  0.1780267E+004  0.3181045E+02  0.7546771E-02  0.1404490E+00
         21   -1    0    0  501  502  0.00000000000E+00  0.00000000000E+00  0.44542232250E+02  0.44542232250E+02  0.00000000000E+00 0.  1.
         21   -1    0    0  502  503 -0.00000000000E+00 -0.00000000000E+00 -0.23236221675E+02  0.23236221675E+02  0.00000000000E+00 0. -1.
          2    1    1    2  501    0  0.31807949344E+02 -0.39894678520E+00  0.55913837234E+01  0.32298117158E+02  0.00000000000E+00 0. -1.
         -2    1    1    2    0  503 -0.31807949344E+02  0.39894678520E+00  0.15714626852E+02  0.35480336767E+02  0.00000000000E+00 0.  1.
</event>
<event>
 4    1  0.1780267E+004  0.3644477E+02  0.7546771E-02  0.1370681E+00
         21   -1    0    0  503  502  0.00000000000E+00  0.00000000000E+00  0.49823857094E+02  0.49823857094E+02  0.00000000000E+00 0.  1.
         21   -1    0    0  501  503 -0.00000000000E+00 -0.00000000000E+00 -0.40061319174E+02  0.40061319174E+02  0.00000000000E+00 0. -1.
          2    1    1    2  501    0  0.19437863434E+02 -0.30828403003E+02  0.30876653303E+02  0.47765978329E+02  0.00000000000E+00 0.  1.
         -2    1    1    2    0  502 -0.19437863434E+02  0.30828403003E+02 -0.21114115383E+02  0.42119197939E+02  0.00000000000E+00 0. -1.
</event>
<event>
 4    1  0.1780267E+004  0.2431594E+02  0.7546771E-02  0.1476603E+00
         21   -1    0    0  503  502  0.00000000000E+00  0.00000000000E+00  0.35981919526E+03  0.35981919526E+03  0.00000000000E+00 0. -1.
         21   -1    0    0  501  503 -0.00000000000E+00 -0.00000000000E+00 -0.98583128202E+01  0.98583128202E+01  0.00000000000E+00 0.  1.
          2    1    1    2  501    0 -0.63641773740E+01 -0.23468322573E+02  0.62483204461E+01  0.25105904215E+02  0.00000000000E+00 0.  1.
         -2    1    1    2    0  502  0.63641773740E+01  0.23468322573E+02  0.34371256199E+03  0.34457160386E+03  0.00000000000E+00 0. -1.
</event>
<event>
 4    1  0.1780267E+004  0.2025097E+02  0.7546771E-02  0.1530233E+00
         21   -1    0    0  503  502  0.00000000000E+00  0.00000000000E+00  0.12902372650E+01  0.12902372650E+01  0.00000000000E+00 0. -1.
         21   -1    0    0  501  503 -0.00000000000E+00 -0.00000000000E+00 -0.32979702512E+03  0.32979702512E+03  0.00000000000E+00 0.  1.
          2    1    1    2  501    0 -0.16728804593E+02  0.11412663730E+02 -0.19576138133E+03  0.19680604721E+03  0.00000000000E+00 0.  1.
         -2    1    1    2    0  502  0.16728804593E+02 -0.11412663730E+02 -0.13274540652E+03  0.13428121517E+03  0.00000000000E+00 0. -1.
</event>
<event>
 4    1  0.1780267E+004  0.2117526E+02  0.7546771E-02  0.1516777E+00
         21   -1    0    0  501  502  0.00000000000E+00  0.00000000000E+00  0.57914224189E+02  0.57914224189E+02  0.00000000000E+00 0. -1.
         21   -1    0    0  502  503 -0.00000000000E+00 -0.00000000000E+00 -0.27652093328E+02  0.27652093328E+02  0.00000000000E+00 0.  1.
          2    1    1    2  501    0 -0.18895474644E+02 -0.95578620978E+01  0.51434002654E+02  0.55622372467E+02  0.00000000000E+00 0. -1.
         -2    1    1    2    0  503  0.18895474644E+02  0.95578620978E+01 -0.21171871794E+02  0.29943945050E+02  0.00000000000E+00 0.  1.
</event>
<event>
 4    1  0.1780267E+004  0.2019017E+02  0.7546771E-02  0.1531148E+00
         21   -1    0    0  503  502  0.00000000000E+00  0.00000000000E+00  0.17931516264E+02  0.17931516264E+02  0.00000000000E+00 0. -1.
         21   -1    0    0  501  503 -0.00000000000E+00 -0.00000000000E+00 -0.28656812129E+02  0.28656812129E+02  0.00000000000E+00 0.  1.
          2    1    1    2  501    0  0.10573453522E+02  0.17200145163E+02 -0.15953284623E+02  0.25732279403E+02  0.00000000000E+00 0.  1.
         -2    1    1    2    0  502 -0.10573453522E+02 -0.17200145163E+02  0.52279887587E+01  0.20856048990E+02  0.00000000000E+00 0. -1.
</event>
<event>
 4    1  0.1780267E+004  0.2095867E+02  0.7546771E-02  0.1519856E+00
         21   -1    0    0  501  502  0.00000000000E+00  0.00000000000E+00  0.46884838116E+02  0.46884838116E+02  0.00000000000E+00 0. -1.
         21   -1    0    0  502  503 -0.00000000000E+00 -0.00000000000E+00 -0.11254100139E+02  0.11254100139E+02  0.00000000000E+00 0.  1.
          2    1    1    2  501    0 -0.38897252695E+01 -0.20594555308E+02  0.29712573825E+02  0.36360730387E+02  0.00000000000E+00 0. -1.
         -2    1    1    2    0  503  0.38897252695E+01  0.20594555308E+02  0.59181641512E+01  0.21778207867E+02  0.00000000000E+00 0.  1.
</event>
<event>
 4    1  0.1780267E+004  0.2875512E+02  0.7546771E-02  0.1430732E+00
         21   -1    0    0  501  502  0.00000000000E+00  0.00000000000E+00  0.31776245527E+02  0.31776245527E+02  0.00000000000E+00 0. -1.
         21   -1    0    0  502  503 -0.00000000000E+00 -0.00000000000E+00 -0.10840553562E+03  0.10840553562E+03  0.00000000000E+00 0.  1.
          2    1    1    2  501    0  0.87104974440E+01  0.27404093949E+02  0.22787728337E+02  0.36689749163E+02  0.00000000000E+00 0. -1.
         -2    1    1    2    0  503 -0.87104974440E+01 -0.27404093949E+02 -0.99417018429E+02  0.10349203198E+03  0.00000000000E+00 0.  1.
</event>
<event>
 4    1  0.1780267E+004  0.2057078E+02  0.7546771E-02  0.1525482E+00
         21   -1    0    0  503  502  0.00000000000E+00  0.00000000000E+00  0.93060520310E+01  0.93060520310E+01  0.00000000000E+00 0.  1.
         21   -1    0    0  501  503 -0.00000000000E+00 -0.00000000000E+00 -0.29153890575E+03  0.29153890575E+03  0.00000000000E+00 0. -1.
          2    1    1    2  501    0  0.15613807116E+02  0.13392766773E+02 -0.27931126089E+03  0.28006773758E+03  0.00000000000E+00 0. -1.
         -2    1    1    2    0  502 -0.15613807116E+02 -0.13392766773E+02 -0.29215928274E+01  0.20777220197E+02  0.00000000000E+00 0.  1.
</event>
<event>
 4    1  0.1780267E+004  0.2059611E+02  0.7546771E-02  0.1525110E+00
         21   -1    0    0  503  502  0.00000000000E+00  0.00000000000E+00  0.80620924826E+02  0.80620924826E+02  0.00000000000E+00 0.  1.
         21   -1    0    0  501  503 -0.00000000000E+00 -0.00000000000E+00 -0.77579338540E+01  0.77579338540E+01  0.00000000000E+00 0. -1.
          2    1    1    2  501    0 -0.13270591422E+02  0.15750909300E+02  0.11365114399E+02  0.23523723467E+02  0.00000000000E+00 0. -1.
         -2    1    1    2    0  502  0.13270591422E+02 -0.15750909300E+02  0.61497876573E+02  0.64855135213E+02  0.00000000000E+00 0.  1.
</event>
<event>
 4    1  0.1780267E+004  0.2026465E+02  0.7546771E-02  0.1530028E+00
         21   -1    0    0  501  502  0.00000000000E+00  0.00000000000E+00  0.79383875069E+03  0.79383875069E+03  0.00000000000E+00 0. -1.
         21   -1    0    0  502  503 -0.00000000000E+00 -0.00000000000E+00 -0.10910550172E+01  0.10910550172E+01  0.00000000000E+00 0.  1.
          2    1    1    2  501    0  0.18853907284E+02  0.74287482244E+01  0.68460247850E+03  0.68490233588E+03  0.00000000000E+00 0. -1.
         -2    1    1    2    0  503 -0.18853907284E+02 -0.74287482244E+01  0.10814521717E+03  0.11002746983E+03  0.00000000000E+00 0.  1.
</event>
<event>
 4    1  0.1780267E+004  0.3133818E+02  0.7546771E-02  0.1408313E+00
         21   -1    0    0  501  502  0.00000000000E+00  0.00000000000E+00  0.25690651756E+03  0.25690651756E+03  0.00000000000E+00 0. -1.
         21   -1    0    0  502  503 -0.00000000000E+00 -0.00000000000E+00 -0.69453774938E+01  0.69453774938E+01  0.00000000000E+00 0.  1.
          2    1    1    2  501    0 -0.25122000437E+02  0.18734108595E+02  0.21344006533E+03  0.21572840152E+03  0.00000000000E+00 0. -1.
         -2    1    1    2    0  503  0.25122000437E+02 -0.18734108595E+02  0.36521074737E+02  0.48123493543E+02  0.00000000000E+00 0.  1.
</event>
<event>
 4    1  0.1780267E+004  0.2212948E+02  0.7546771E-02  0.1503728E+00
         21   -1    0    0  503  502  0.00000000000E+00  0.00000000000E+00  0.72186912198E+02  0.72186912198E+02  0.00000000000E+00 0.  1.
         21   -1    0    0  501  503 -0.00000000000E+00 -0.00000000000E+00 -0.35619276679E+02  0.35619276679E+02  0.00000000000E+00 0. -1.
          2    1    1    2  501    0 -0.15241403699E+02 -0.16044114624E+02 -0.30215253370E+02  0.37452310169E+02  0.00000000000E+00 0. -1.
         -2    1    1    2    0  502  0.15241403699E+02  0.16044114624E+02  0.66782888889E+02  0.70353878707E+02  0.00000000000E+00 0.  1.
</event>
<event>
 4    1  0.1780267E+004  0.2852438E+02  0.7546771E-02  0.1432868E+00
         21   -1    0    0  501  502  0.00000000000E+00  0.00000000000E+00  0.20959234998E+02  0.20959234998E+02  0.00000000000E+00 0. -1.
         21   -1    0    0  502  503 -0.00000000000E+00 -0.00000000000E+00 -0.47133409709E+02  0.47133409709E+02  0.00000000000E+00 0.  1.
          2    1    1    2  501    0 -0.17294357613E+02  0.22683599093E+02  0.12114517595E+01  0.28550097871E+02  0.00000000000E+00 0. -1.
         -2    1    1    2    0  503  0.17294357613E+02 -0.22683599093E+02 -0.27385626470E+02  0.39542546836E+02  0.00000000000E+00 0.  1.
</event>
<event>
 4    1  0.1780267E+004  0.2448582E+02  0.7546771E-02  0.1474638E+00
         21   -1    0    0  503  502  0.00000000000E+00  0.00000000000E+00  0.21192178288E+02  0.21192178288E+02  0.00000000000E+00 0. -1.
         21   -1    0    0  501  503 -0.00000000000E+00 -0.00000000000E+00 -0.41919776598E+02  0.41919776598E+02  0.00000000000E+00 0.  1.
          2    1    1    2  501    0 -0.33561579488E+01 -0.24254727983E+02 -0.28356435277E+02  0.37465224507E+02  0.00000000000E+00 0.  1.
         -2    1    1    2    0  502  0.33561579488E+01  0.24254727983E+02  0.76288369673E+01  0.25646730380E+02  0.00000000000E+00 0. -1.
</event>
<event>
 4    1  0.1780267E+004  0.3954358E+02  0.7546771E-02  0.1351181E+00
         21   -1    0    0  501  502  0.00000000000E+00  0.00000000000E+00  0.92889771507E+02  0.92889771507E+02  0.00000000000E+00 0.  1.
         21   -1    0    0  502  503 -0.00000000000E+00 -0.00000000000E+00 -0.17189176915E+02  0.17189176915E+02  0.00000000000E+00 0. -1.
          2    1    1    2  501    0  0.37544129072E+02 -0.12415032264E+02  0.45763394235E+02  0.60481260783E+02  0.00000000000E+00 0. -1.
         -2    1    1    2    0  503 -0.37544129072E+02  0.12415032264E+02  0.29937200357E+02  0.49597687639E+02  0.00000000000E+00 0.  1.
</event>
<event>
 4    1  0.1780267E+004  0.2149369E+02  0.7546771E-02  0.1512332E+00
         21   -1    0    0  503  502  0.00000000000E+00  0.00000000000E+00  0.21853121086E+02  0.21853121086E+02  0.00000000000E+00 0. -1.
         21   -1    0    0  501  503 -0.00000000000E+00 -0.00000000000E+00 -0.25472946443E+02  0.25472946443E+02  0.00000000000E+00 0.  1.
          2    1    1    2  501    0 -0.20777240065E+02 -0.55031754472E+01 -0.11569109746E+02  0.24409484735E+02  0.00000000000E+00 0.  1.
         -2    1    1    2    0  502  0.20777240065E+02  0.55031754472E+01  0.79492843888E+01  0.22916582795E+02  0.00000000000E+00 0. -1.
</event>
<event>
 4    1  0.1780267E+004  0.3683026E+02  0.7546771E-02  0.1368133E+00
         21   -1    0    0  501  502  0.00000000000E+00  0.00000000000E+00  0.16410704189E+03  0.16410704189E+03  0.00000000000E+00 0.  1.
         21   -1    0    0  502  503 -0.00000000000E+00 -0.00000000000E+00 -0.96075366911E+01  0.96075366911E+01  0.00000000000E+00 0. -1.
          2    1    1    2  501    0  0.34627704635E+02 -0.12545523405E+02  0.10970924211E+03  0.11572634052E+03  0.00000000000E+00 0.  1.
         -2    1    1    2    0  503 -0.34627704635E+02  0.12545523405E+02  0.44790263086E+02  0.57988238058E+02  0.00000000000E+00 0. -1.
</event>
<event>
 4    1  0.1780267E+004  0.2048445E+02  0.7546771E-02  0.1526754E+00
         21   -1    0    0  501  502  0.00000000000E+00  0.00000000000E+00  0.88376686439E+01  0.88376686439E+01  0.00000000000E+00 0.  1.
         21   -1    0    0  502  503 -0.00000000000E+00 -0.00000000000E+00 -0.23897771451E+03  0.23897771451E+03  0.00000000000E+00 0. -1.
          2    1    1    2  501    0  0.19065009633E+02  0.74925346551E+01 -0.41521988389E+01  0.20901038804E+02  0.00000000000E+00 0.  1.
         -2    1    1    2    0  503 -0.19065009633E+02 -0.74925346551E+01 -0.22598784703E+03  0.22691434435E+03  0.00000000000E+00 0. -1.
</event>
<event>
 4    1  0.1780267E+004  0.2414159E+02  0.7546771E-02  0.1478640E+00
         21   -1    0    0  501  502  0.00000000000E+00  0.00000000000E+00  0.30437181627E+03  0.30437181627E+03  0.00000000000E+00 0. -1.
         21   -1    0    0  502  503 -0.00000000000E+00 -0.00000000000E+00 -0.24663057930E+01  0.24663057930E+01  0.00000000000E+00 0.  1.
          2    1    1    2  501    0 -0.21334216693E+02  0.11298999344E+02  0.22350057841E+03  0.22480063332E+03  0.00000000000E+00 0. -1.
         -2    1    1    2    0  503  0.21334216693E+02 -0.11298999344E+02  0.78404932066E+02  0.82037488750E+02  0.00000000000E+00 0.  1.
</event>
<event>
 4    1  0.1780267E+004  0.2175639E+02  0.7546771E-02  0.1508734E+00
         21   -1    0    0  501  502  0.00000000000E+00  0.00000000000E+00  0.29964600853E+02  0.29964600853E+02  0.00000000000E+00 0.  1.
         21   -1    0    0  502  503 -0.00000000000E+00 -0.00000000000E+00 -0.15796904396E+02  0.15796904396E+02  0.00000000000E+00 0. -1.
          2    1    1    2  501    0 -0.21439423990E+00  0.21755330878E+02  0.71752194157E+01  0.22909041013E+02  0.00000000000E+00 0.  1.
         -2    1    1    2    0  503  0.21439423990E+00 -0.21755330878E+02  0.69924770414E+01  0.22852464236E+02  0.00000000000E+00 0. -1.
</event>
<event>
 4    1  0.1780267E+004  0.2142919E+02  0.7546771E-02  0.1513225E+00
         21   -1    0    0  501  502  0.00000000000E+00  0.00000000000E+00  0.97291708922E+01  0.97291708922E+01  0.00000000000E+00 0.  1.
         21   -1    0    0  502  503 -0.00000000000E+00 -0.00000000000E+00 -0.70930025342E+02  0.70930025342E+02  0.00000000000E+00 0. -1.
          2    1    1    2  501    0  0.11693323395E+02  0.17957622737E+02 -0.72731328032E+01  0.22629814122E+02  0.00000000000E+00 0.  1.
         -2    1    1    2    0  503 -0.11693323395E+02 -0.17957622737E+02 -0.53927721647E+02  0.58029382113E+02  0.00000000000E+00 0. -1.
</event>
<event>
 4    1  0.1780267E+004  0.2034894E+02  0.7546771E-02  0.1528767E+00
         21   -1    0    0  501  502  0.00000000000E+00  0.00000000000E+00  0.25322441621E+01  0.25322441621E+01  0.00000000000E+00 0.  1.
         21   -1    0    0  502  503 -0.00000000000E+00 -0.00000000000E+00 -0.16677344409E+03  0.16677344409E+03  0.00000000000E+00 0. -1.
          2    1    1    2  501    0 -0.41911727800E+01 -0.19912643995E+02 -0.70301846686E+02  0.73187628515E+02  0.00000000000E+00 0. -1.
         -2    1    1    2    0  503  0.41911727800E+01  0.19912643995E+02 -0.93939353242E+02  0.96118059737E+02  0.00000000000E+00 0.  1.
</event>
<event>
 4    1  0.1780267E+004  0.4294696E+02  0.7546771E-02  0.1332031E+00
         21   -1    0    0  501  502  0.00000000000E+00  0.00000000000E+00  0.11158973069E+02  0.11158973069E+02  0.00000000000E+00 0. -1.
         21   -1    0    0  502  503 -0.00000000000E+00 -0.00000000000E+00 -0.19072180334E+03  0.19072180334E+03  0.00000000000E+00 0.  1.
          2    1    1    2  501    0 -0.42512016263E+02  0.60966936364E+01 -0.52919927715E+02  0.68153943022E+02  0.00000000000E+00 0. -1.
         -2    1    1    2    0  503  0.42512016263E+02 -0.60966936364E+01 -0.12664290256E+03  0.13372683339E+03  0.00000000000E+00 0.  1.
</event>
<event>
 4    1  0.1780267E+004  0.2352036E+02  0.7546771E-02  0.1486065E+00
         21   -1    0    0  503  502  0.00000000000E+00  0.00000000000E+00  0.10609028560E+02  0.10609028560E+02  0.00000000000E+00 0.  1.
         21   -1    0    0  501  503 -0.00000000000E+00 -0.00000000000E+00 -0.61006176854E+02  0.61006176854E+02  0.00000000000E+00 0. -1.
          2    1    1    2  501    0 -0.20419765194E+02  0.11672208124E+02 -0.38845514514E+02  0.45411245864E+02  0.00000000000E+00 0. -1.
         -2    1    1    2    0  502  0.20419765194E+02 -0.11672208124E+02 -0.11551633780E+02  0.26203959550E+02  0.00000000000E+00 0.  1.
</event>
<event>
 4    1  0.1780267E+004  0.3573500E+02  0.7546771E-02  0.1375468E+00
         21   -1    0    0  503  502  0.00000000000E+00  0.00000000000E+00  0.41257538709E+02  0.41257538709E+02  0.00000000000E+00 0. -1.
         21   -1    0    0  501  503 -0.00000000000E+00 -0.00000000000E+00 -0.70662262313E+02  0.70662262313E+02  0.00000000000E+00 0.  1.
          2    1    1    2  501    0  0.28413106954E+02 -0.21672224729E+02 -0.56652781916E+02  0.66981547237E+02  0.00000000000E+00 0.  1.
         -2    1    1    2    0  502 -0.28413106954E+02  0.21672224729E+02  0.27248058312E+02  0.44938253785E+02  0.00000000000E+00 0. -1.
</event>
<event>
 4    1  0.1780267E+004  0.2207846E+02  0.7546771E-02  0.1504406E+00
         21   -1    0    0  501  502  0.00000000000E+00  0.00000000000E+00  0.20945247148E+02  0.20945247148E+02  0.00000000000E+00 0.  1.
         21   -1    0    0  502  503 -0.00000000000E+00 -0.00000000000E+00 -0.28906015420E+02  0.28906015420E+02  0.00000000000E+00 0. -1.
          2    1    1    2  501    0 -0.12724598181E+02  0.18042805933E+02  0.70229278497E+01  0.23168507945E+02  0.00000000000E+00 0.  1.
         -2    1    1    2    0  503  0.12724598181E+02 -0.18042805933E+02 -0.14983696122E+02  0.26682754623E+02  0.00000000000E+00 0. -1.
</event>
<event>
 4    1  0.1780267E+004  0.2059402E+02  0.7546771E-02  0.1525141E+00
         21   -1    0    0  501  502  0.00000000000E+00  0.00000000000E+00  0.96636597347E+02  0.96636597347E+02  0.00000000000E+00 0.  1.
         21   -1    0    0  502  503 -0.00000000000E+00 -0.00000000000E+00 -0.46203781468E+01  0.46203781468E+01  0.00000000000E+00 0. -1.
          2    1    1    2  501    0 -0.47277688140E+01 -0.20044002676E+02  0.57343907828E+02  0.60929776024E+02  0.00000000000E+00 0. -1.
         -2    1    1    2    0  503  0.47277688140E+01  0.20044002676E+02  0.34672311372E+02  0.40327199471E+02  0.00000000000E+00 0.  1.
</event>
<event>
 4    1  0.1780267E+004  0.2062499E+02  0.7546771E-02  0.1524687E+00
         21   -1    0    0  501  502  0.00000000000E+00  0.00000000000E+00  0.21429912798E+02  0.21429912798E+02  0.00000000000E+00 0.  1.
         21   -1    0    0  502  503 -0.00000000000E+00 -0.00000000000E+00 -0.14469402476E+03  0.14469402476E+03  0.00000000000E+00 0. -1.
          2    1    1    2  501    0  0.36351191523E+01  0.20302116386E+02  0.15522272448E+02  0.25813387282E+02  0.00000000000E+00 0.  1.
         -2    1    1    2    0  503 -0.36351191523E+01 -0.20302116386E+02 -0.13878638441E+03  0.14031055027E+03  0.00000000000E+00 0. -1.
</event>
<event>
 4    1  0.1780267E+004  0.2015486E+02  0.7546771E-02  0.1531682E+00
         21   -1    0    0  503  502  0.00000000000E+00  0.00000000000E+00  0.17328397991E+02  0.17328397991E+02  0.00000000000E+00 0. -1.
         21   -1    0    0  501  503 -0.00000000000E+00 -0.00000000000E+00 -0.24806563829E+02  0.24806563829E+02  0.00000000000E+00 0.  1.
          2    1    1    2  501    0 -0.11945922629E+02  0.16233088475E+02 -0.86795934538E+01  0.21944328912E+02  0.00000000000E+00 0. -1.
         -2    1    1    2    0  502  0.11945922629E+02 -0.16233088475E+02  0.12014276167E+01  0.20190632908E+02  0.00000000000E+00 0.  1.
</event>
<event>
 4    1  0.1780267E+004  0.2509912E+02  0.7546771E-02  0.1467698E+00
         21   -1    0    0  503  502  0.00000000000E+00  0.00000000000E+00  0.47119228348E+01  0.47119228348E+01  0.00000000000E+00 0.  1.
         21   -1    0    0  501  503 -0.00000000000E+00 -0.00000000000E+00 -0.20162727275E+03  0.20162727275E+03  0.00000000000E+00 0. -1.
          2    1    1    2  501    0  0.54162493363E+01  0.24507757564E+02 -0.15834177109E+03  0.16031869014E+03  0.00000000000E+00 0. -1.
         -2    1    1    2    0  502 -0.54162493363E+01 -0.24507757564E+02 -0.38573578831E+02  0.46020505446E+02  0.00000000000E+00 0.  1.
</event>
<event>
 4    1  0.1780267E+004  0.2897170E+02  0.7546771E-02  0.1428748E+00
         21   -1    0    0  503  502  0.00000000000E+00  0.00000000000E+00  0.30554907388E+02  0.30554907388E+02  0.00000000000E+00 0.  1.
         21   -1    0    0  501  503 -0.00000000000E+00 -0.00000000000E+00 -0.24326793875E+03  0.24326793875E+03  0.00000000000E+00 0. -1.
          2    1    1    2  501    0  0.31969014446E+00 -0.28969933605E+02 -0.23530622507E+03  0.23708306311E+03  0.00000000000E+00 0. -1.
         -2    1    1    2    0  502 -0.31969014446E+00  0.28969933605E+02  0.22593193713E+02  0.36739783029E+02  0.00000000000E+00 0.  1.
</event>
<event>
 4    1  0.1780267E+004  0.2552255E+02  0.7546771E-02  0.1463042E+00
         21   -1    0    0  501  502  0.00000000000E+00  0.00000000000E+00  0.27562639489E+01  0.27562639489E+01  0.00000000000E+00 0.  1.
         21   -1    0    0  502  503 -0.00000000000E+00 -0.00000000000E+00 -0.30395180460E+03  0.30395180460E+03  0.00000000000E+00 0. -1.
          2    1    1    2  501    0 -0.97532996643E+01 -0.23585454450E+02 -0.78267269197E+02  0.82323544284E+02  0.00000000000E+00 0. -1.
         -2    1    1    2    0  503  0.97532996643E+01  0.23585454450E+02 -0.22292827146E+03  0.22438452427E+03  0.00000000000E+00 0.  1.
</event>
<event>
 4    1  0.1780267E+004  0.2088999E+02  0.7546771E-02  0.1520841E+00
         21   -1    0    0  501  502  0.00000000000E+00  0.00000000000E+00  0.12182577925E+04  0.12182577925E+04  0.00000000000E+00 0.  1.
         21   -1    0    0  502  503 -0.00000000000E+00 -0.00000000000E+00 -0.42042498163E+00  0.42042498163E+00  0.00000000000E+00 0. -1.
          2    1    1    2  501    0 -0.10545842177E+02 -0.18032660131E+02  0.84332198947E+03  0.84358068348E+03  0.00000000000E+00 0.  1.
         -2    1    1    2    0  503  0.10545842177E+02  0.18032660131E+02  0.37451537802E+03  0.37509753397E+03  0.00000000000E+00 0. -1.
</event>
<event>
 4    1  0.1780267E+004  0.4893978E+02  0.7546771E-02  0.1302836E+00
         21   -1    0    0  503  502  0.00000000000E+00  0.00000000000E+00  0.33122836574E+01  0.33122836574E+01  0.00000000000E+00 0. -1.
         21   -1    0    0  501  503 -0.00000000000E+00 -0.00000000000E+00 -0.73795208916E+03  0.73795208916E+03  0.00000000000E+00 0.  1.
          2    1    1    2  501    0 -0.34548096534E+02  0.34663112263E+02 -0.41990551077E+03  0.42274784482E+03  0.00000000000E+00 0.  1.
         -2    1    1    2    0  502  0.34548096534E+02 -0.34663112263E+02 -0.31473429473E+03  0.31851652799E+03  0.00000000000E+00 0. -1.
</event>
<event>
 4    1  0.1780267E+004  0.2344179E+02  0.7546771E-02  0.1487024E+00
         21   -1    0    0  501  502  0.00000000000E+00  0.00000000000E+00  0.33838471201E+02  0.33838471201E+02  0.00000000000E+00 0. -1.
         21   -1    0    0  502  503 -0.00000000000E+00 -0.00000000000E+00 -0.47961933404E+02  0.47961933404E+02  0.00000000000E+00 0.  1.
          2    1    1    2  501    0  0.92859973339E+01 -0.21524125462E+02  0.26201221217E+02  0.35157100516E+02  0.00000000000E+00 0. -1.
         -2    1    1    2    0  503 -0.92859973339E+01  0.21524125462E+02 -0.40324683420E+02  0.46643304089E+02  0.00000000000E+00 0.  1.
</event>
<event>
 4    1  0.1780267E+004  0.2428689E+02  0.7546771E-02  0.1476941E+00
         21   -1    0    0  503  502  0.00000000000E+00  0.00000000000E+00  0.65161387040E+00  0.65161387040E+00  0.00000000000E+00 0. -1.
         21   -1    0    0  501  503 -0.00000000000E+00 -0.00000000000E+00 -0.90608126784E+03  0.90608126784E+03  0.00000000000E+00 0.  1.
          2    1    1    2  501    0 -0.22360575915E+02 -0.94793271245E+01 -0.46670382623E+03  0.46733533401E+03  0.00000000000E+00 0. -1.
         -2    1    1    2    0  502  0.22360575915E+02  0.94793271245E+01 -0.43872582775E+03  0.43939754770E+03  0.00000000000E+00 0.  1.
</event>
<event>
 4    1  0.1780267E+004  0.3202623E+02  0.7546771E-02  0.1402769E+00
         21   -1    0    0  503  502  0.00000000000E+00  0.00000000000E+00  0.30343102293E+02  0.30343102293E+02  0.00000000000E+00 0.  1.
         21   -1    0    0  501  503 -0.00000000000E+00 -0.00000000000E+00 -0.43848908060E+02  0.43848908060E+02  0.00000000000E+00 0. -1.
          2    1    1    2  501    0 -0.99440865824E+01  0.30443300595E+02 -0.24509035942E+02  0.40328305840E+02  0.00000000000E+00 0. -1.
         -2    1    1    2    0  502  0.99440865824E+01 -0.30443300595E+02  0.11003230176E+02  0.33863704514E+02  0.00000000000E+00 0.  1.
</event>
<event>
 4    1  0.1780267E+004  0.2116102E+02  0.7546771E-02  0.1516978E+00
         21   -1    0    0  501  502  0.00000000000E+00  0.00000000000E+00  0.23479564345E+03  0.23479564345E+03  0.00000000000E+00 0. -1.
         21   -1    0    0  502  503 -0.00000000000E+00 -0.00000000000E+00 -0.22710842494E+01  0.22710842494E+01  0.00000000000E+00 0.  1.
          2    1    1    2  501    0  0.62447341148E+01  0.20218601628E+02  0.16371273884E+03  0.16507467830E+03  0.00000000000E+00 0. -1.
         -2    1    1    2    0  503 -0.62447341148E+01 -0.20218601628E+02  0.68811820356E+02  0.71992049399E+02  0.00000000000E+00 0.  1.
</event>
<event>
 4    1  0.1780267E+004  0.2044509E+02  0.7546771E-02  0.1527337E+00
         21   -1    0    0  503  502  0.00000000000E+00  0.00000000000E+00  0.46231011025E+01  0.46231011025E+01  0.00000000000E+00 0. -1.
         21   -1    0    0  501  503 -0.00000000000E+00 -0.00000000000E+00 -0.11789093959E+03  0.11789093959E+03  0.00000000000E+00 0.  1.
          2    1    1    2  501    0  0.15747712835E+02  0.13038841294E+02 -0.86206200354E+02  0.88597465096E+02  0.00000000000E+00 0.  1.
         -2    1    1    2    0  502 -0.15747712835E+02 -0.13038841294E+02 -0.27061638136E+02  0.33916575600E+02  0.00000000000E+00 0. -1.
</event>
<event>
 4    1  0.1780267E+004  0.2310457E+02  0.7546771E-02  0.1491189E+00
         21   -1    0    0  503  502  0.00000000000E+00  0.00000000000E+00  0.52602231419E+00  0.52602231419E+00  0.00000000000E+00 0.  1.
         21   -1    0    0  501  503 -0.00000000000E+00 -0.00000000000E+00 -0.10155850050E+04  0.10155850050E+04  0.00000000000E+00 0. -1.
          2    1    1    2  501    0  0.13971477398E+02 -0.18401605391E+02 -0.52141618461E+03  0.52192782914E+03  0.00000000000E+00 0. -1.
         -2    1    1    2    0  502 -0.13971477398E+02  0.18401605391E+02 -0.49364279808E+03  0.49418319818E+03  0.00000000000E+00 0.  1.
</event>
<event>
 4    1  0.1780267E+004  0.5578016E+02  0.7546771E-02  0.1274886E+00
         21   -1    0    0  503  502  0.00000000000E+00  0.00000000000E+00  0.50751886926E+03  0.50751886926E+03  0.00000000000E+00 0.  1.
         21   -1    0    0  501  503 -0.00000000000E+00 -0.00000000000E+00 -0.52693998663E+02  0.52693998663E+02  0.00000000000E+00 0. -1.
          2    1    1    2  501    0 -0.68946297339E+01  0.55352417325E+02 -0.35895870725E+02  0.66332040207E+02  0.00000000000E+00 0. -1.
         -2    1    1    2    0  502  0.68946297339E+01 -0.55352417325E+02  0.49072074132E+03  0.49388082771E+03  0.00000000000E+00 0.  1.
</event>
<event>
 4    1  0.1780267E+004  0.2435602E+02  0.7546771E-02  0.1476138E+00
         21   -1    0    0  501  502  0.00000000000E+00  0.00000000000E+00  0.90246408846E+02  0.90246408846E+02  0.00000000000E+00 0. -1.
         21   -1    0    0  502  503 -0.00000000000E+00 -0.00000000000E+00 -0.11150899525E+02  0.11150899525E+02  0.00000000000E+00 0.  1.
          2    1    1    2  501    0  0.22925836491E+02 -0.82232420537E+01  0.72031112703E+02  0.76037470275E+02  0.00000000000E+00 0. -1.
         -2    1    1    2    0  503 -0.22925836491E+02  0.82232420537E+01  0.70643966180E+01  0.25359838096E+02  0.00000000000E+00 0.  1.
</event>
<event>
 4    1  0.1780267E+004  0.2210555E+02  0.7546771E-02  0.1504046E+00
         21   -1    0    0  501  502  0.00000000000E+00  0.00000000000E+00  0.15471327802E+01  0.15471327802E+01  0.00000000000E+00 0.  1.
         21   -1    0    0  502  503 -0.00000000000E+00 -0.00000000000E+00 -0.36783863392E+03  0.36783863392E+03  0.00000000000E+00 0. -1.
          2    1    1    2  501    0  0.43496306581E+01  0.21673399060E+02 -0.11370843806E+03  0.11583723235E+03  0.00000000000E+00 0.  1.
         -2    1    1    2    0  503 -0.43496306581E+01 -0.21673399060E+02 -0.25258306309E+03  0.25354853435E+03  0.00000000000E+00 0. -1.
</event>
<event>
 4    1  0.1780267E+004  0.2167787E+02  0.7546771E-02  0.1509803E+00
         21   -1    0    0  503  502  0.00000000000E+00  0.00000000000E+00  0.26405514890E+03  0.26405514890E+03  0.00000000000E+00 0. -1.
         21   -1    0    0  501  503 -0.00000000000E+00 -0.00000000000E+00 -0.19802525964E+01  0.19802525964E+01  0.00000000000E+00 0.  1.
          2    1    1    2  501    0 -0.16887895816E+02 -0.13591500046E+02  0.17337252876E+03  0.17472253325E+03  0.00000000000E+00 0. -1.
         -2    1    1    2    0  502  0.16887895816E+02  0.13591500046E+02  0.88702367548E+02  0.91312868246E+02  0.00000000000E+00 0.  1.
</event>
<event>
 4    1  0.1780267E+004  0.7220790E+02  0.7546771E-02  0.1223193E+00
         21   -1    0    0  503  502  0.00000000000E+00  0.00000000000E+00  0.64905690198E+02  0.64905690198E+02  0.00000000000E+00 0.  1.
         21   -1    0    0  501  503 -0.00000000000E+00 -0.00000000000E+00 -0.82277954197E+02  0.82277954197E+02  0.00000000000E+00 0. -1.
          2    1    1    2  501    0 -0.33230537091E+02 -0.64107038153E+02 -0.20004755311E+02  0.74927773030E+02  0.00000000000E+00 0.  1.
         -2    1    1    2    0  502  0.33230537091E+02  0.64107038153E+02  0.26324913121E+01  0.72255871365E+02  0.00000000000E+00 0. -1.
</event>
<event>
 4    1  0.1780267E+004  0.2134496E+02  0.7546771E-02  0.1514396E+00
         21   -1    0    0  503  502  0.00000000000E+00  0.00000000000E+00  0.29521404327E+03  0.29521404327E+03  0.00000000000E+00 0. -1.
         21   -1    0    0  501  503 -0.00000000000E+00 -0.00000000000E+00 -0.30315172733E+01  0.30315172733E+01  0.00000000000E+00 0.  1.
          2    1    1    2  501    0  0.20519085839E+02 -0.58800209822E+01  0.41608340550E+02  0.46763891345E+02  0.00000000000E+00 0.  1.
         -2    1    1    2    0  502 -0.20519085839E+02  0.58800209822E+01  0.25057418545E+03  0.25148166920E+03  0.00000000000E+00 0. -1.
</event>
<event>
 4    1  0.1780267E+004  0.2097140E+02  0.7546771E-02  0.1519673E+00
         21   -1    0    0  501  502  0.00000000000E+00  0.00000000000E+00  0.21112462227E+02  0.21112462227E+02  0.00000000000E+00 0. -1.
         21   -1    0    0  502  503 -0.00000000000E+00 -0.00000000000E+00 -0.20911193740E+02  0.20911193740E+02  0.00000000000E+00 0.  1.
          2    1    1    2  501    0 -0.19508957624E+02  0.76941689749E+01  0.13995425818E+01  0.21018048987E+02  0.00000000000E+00 0. -1.
         -2    1    1    2    0  503  0.19508957624E+02 -0.76941689749E+01 -0.11982740947E+01  0.21005606980E+02  0.00000000000E+00 0.  1.
</event>
<event>
 4    1  0.1780267E+004  0.2208137E+02  0.7546771E-02  0.1504367E+00
         21   -1    0    0  503  502  0.00000000000E+00  0.00000000000E+00  0.49572255598E+02  0.49572255598E+02  0.00000000000E+00 0. -1.
         21   -1    0    0  501  503 -0.00000000000E+00 -0.00000000000E+00 -0.98542188825E+01  0.98542188825E+01  0.00000000000E+00 0.  1.
          2    1    1    2  501    0  0.14121454666E+02 -0.16975608350E+02  0.21140830872E+02  0.30569944238E+02  0.00000000000E+00 0.  1.
         -2    1    1    2    0  502 -0.14121454666E+02  0.16975608350E+02  0.18577205843E+02  0.28856530243E+02  0.00000000000E+00 0. -1.
</event>
<event>
 4    1  0.1780267E+004  0.2553123E+02  0.7546771E-02  0.1462947E+00
         21   -1    0    0  501  502  0.00000000000E+00  0.00000000000E+00  0.29188597013E+02  0.29188597013E+02  0.00000000000E+00 0.  1.
         21   -1    0    0  502  503 -0.00000000000E+00 -0.00000000000E+00 -0.22952677117E+02  0.22952677117E+02  0.00000000000E+00 0. -1.
          2    1    1    2  501    0  0.17506443826E+02 -0.18584084508E+02 -0.11687056034E+01  0.25557966375E+02  0.00000000000E+00 0. -1.
         -2    1    1    2    0  503 -0.17506443826E+02  0.18584084508E+02  0.74046254990E+01  0.26583307755E+02  0.00000000000E+00 0.  1.
</event>
<event>
 4    1  0.1780267E+004  0.2099294E+02  0.7546771E-02  0.1519366E+00
         21   -1    0    0  501  502  0.00000000000E+00  0.00000000000E+00  0.89826101854E+01  0.89826101854E+01  0.00000000000E+00 0.  1.
         21   -1    0    0  502  503 -0.00000000000E+00 -0.00000000000E+00 -0.64063695998E+02  0.64063695998E+02  0.00000000000E+00 0. -1.
          2    1    1    2  501    0  0.37526173453E+00 -0.20989584297E+02 -0.98665520903E+01  0.23195954830E+02  0.00000000000E+00 0.  1.
         -2    1    1    2    0  503 -0.37526173453E+00  0.20989584297E+02 -0.45214533722E+02  0.49850351353E+02  0.00000000000E+00 0. -1.
</event>
<event>
 4    1  0.1780267E+004  0.3422256E+02  0.7546771E-02  0.1386113E+00
         21   -1    0    0  501  502  0.00000000000E+00  0.00000000000E+00  0.48727259527E+01  0.48727259527E+01  0.00000000000E+00 0. -1.
         21   -1    0    0  502  503 -0.00000000000E+00 -0.00000000000E+00 -0.26615199510E+03  0.26615199510E+03  0.00000000000E+00 0.  1.
          2    1    1    2  501    0  0.28681154589E+02  0.18670168516E+02 -0.17282861184E+03  0.17618431511E+03  0.00000000000E+00 0.  1.
         -2    1    1    2    0  503 -0.28681154589E+02 -0.18670168516E+02 -0.88450657311E+02  0.94840405944E+02  0.00000000000E+00 0. -1.
</event>
<event>
 4    1  0.1780267E+004  0.3122060E+02  0.7546771E-02  0.1409278E+00
         21   -1    0    0  501  502  0.00000000000E+00  0.00000000000E+00  0.27127124113E+02  0.27127124113E+02  0.00000000000E+00 0.  1.
         21   -1    0    0  502  503 -0.00000000000E+00 -0.00000000000E+00 -0.67632753193E+02  0.67632753193E+02  0.00000000000E+00 0. -1.
          2    1    1    2  501    0 -0.30803284716E+02 -0.50875761190E+01  0.12185051586E+02  0.33514194936E+02  0.00000000000E+00 0.  1.
         -2    1    1    2    0  503  0.30803284716E+02  0.50875761190E+01 -0.52690680666E+02  0.61245682371E+02  0.00000000000E+00 0. -1.
</event>
<event>
 4    1  0.1780267E+004  0.2851796E+02  0.7546771E-02  0.1432928E+00
         21   -1    0    0  501  502  0.00000000000E+00  0.00000000000E+00  0.19695425074E+02  0.19695425074E+02  0.00000000000E+00 0. -1.
         21   -1    0    0  502  503 -0.00000000000E+00 -0.00000000000E+00 -0.41373587842E+02  0.41373587842E+02  0.00000000000E+00 0.  1.
          2    1    1    2  501    0  0.22085023509E+02  0.18042331083E+02 -0.94875662693E+01  0.30054748177E+02  0.00000000000E+00 0. -1.
         -2    1    1    2    0  503 -0.22085023509E+02 -0.18042331083E+02 -0.12190596499E+02  0.31014264739E+02  0.00000000000E+00 0.  1.
</event>
<event>
 4    1  0.1780267E+004  0.2144146E+02  0.7546771E-02  0.1513054E+00
         21   -1    0    0  503  502  0.00000000000E+00  0.00000000000E+00  0.18693635219E+02  0.18693635219E+02  0.00000000000E+00 0.  1.
         21   -1    0    0  501  503 -0.00000000000E+00 -0.00000000000E+00 -0.38103110423E+02  0.38103110423E+02  0.00000000000E+00 0. -1.
          2    1    1    2  501    0 -0.13590944875E+02  0.16583796568E+02 -0.26614584064E+02  0.34177070912E+02  0.00000000000E+00 0. -1.
         -2    1    1    2    0  502  0.13590944875E+02 -0.16583796568E+02  0.72051088609E+01  0.22619674730E+02  0.00000000000E+00 0.  1.
</event>
<event>
 4    1  0.1780267E+004  0.2537680E+02  0.7546771E-02  0.1464632E+00
         21   -1    0    0  503  502  0.00000000000E+00  0.00000000000E+00  0.55883007842E+01  0.55883007842E+01  0.00000000000E+00 0. -1.
         21   -1    0    0  501  503 -0.00000000000E+00 -0.00000000000E+00 -0.84370572990E+03  0.84370572990E+03  0.00000000000E+00 0.  1.
          2    1    1    2  501    0 -0.15574180673E+02  0.20035641182E+02 -0.81364126308E+03  0.81403690765E+03  0.00000000000E+00 0.  1.
         -2    1    1    2    0  502  0.15574180673E+02 -0.20035641182E+02 -0.24476166035E+02  0.35257123039E+02  0.00000000000E+00 0. -1.
</event>
<event>
 4    1  0.1780267E+004  0.2439209E+02  0.7546771E-02  0.1475720E+00
         21   -1    0    0  503  502  0.00000000000E+00  0.00000000000E+00  0.53783509721E+02  0.53783509721E+02  0.00000000000E+00 0. -1.
         21   -1    0    0  501  503 -0.00000000000E+00 -0.00000000000E+00 -0.17202787448E+02  0.17202787448E+02  0.00000000000E+00 0.  1.
          2    1    1    2  501    0 -0.14330529250E+02 -0.19738539431E+02 -0.29148918005E+01  0.24565638637E+02  0.00000000000E+00 0.  1.
         -2    1    1    2    0  502  0.14330529250E+02  0.19738539431E+02  0.39495614074E+02  0.46420658531E+02  0.00000000000E+00 0. -1.
</event>
<event>
 4    1  0.1780267E+004  0.2018281E+02  0.7546771E-02  0.1531259E+00
         21   -1    0    0  501  502  0.00000000000E+00  0.00000000000E+00  0.12626926659E+03  0.12626926659E+03  0.00000000000E+00 0.  1.
         21   -1    0    0  502  503 -0.00000000000E+00 -0.00000000000E+00 -0.61840259451E+01  0.61840259451E+01  0.00000000000E+00 0. -1.
          2    1    1    2  501    0  0.89666972518E+01  0.18081598025E+02  0.10584598767E+03  0.10775304614E+03  0.00000000000E+00 0.  1.
         -2    1    1    2    0  503 -0.89666972518E+01 -0.18081598025E+02  0.14239252979E+02  0.24700246398E+02  0.00000000000E+00 0. -1.
</event>
<event>
 4    1  0.1780267E+004  0.4556592E+02  0.7546771E-02  0.1318634E+00
         21   -1    0    0  501  502  0.00000000000E+00  0.00000000000E+00  0.21332677155E+03  0.21332677155E+03  0.00000000000E+00 0. -1.
         21   -1    0    0  502  503 -0.00000000000E+00 -0.00000000000E+00 -0.11347203207E+02  0.11347203207E+02  0.00000000000E+00 0.  1.
          2    1    1    2  501    0  0.38059728654E+02 -0.25054137612E+02  0.14336317495E+03  0.15043022532E+03  0.00000000000E+00 0. -1.
         -2    1    1    2    0  503 -0.38059728654E+02  0.25054137612E+02  0.58616393393E+02  0.74243749441E+02  0.00000000000E+00 0.  1.
</event>
<event>
 4    1  0.1780267E+004  0.2363460E+02  0.7546771E-02  0.1484680E+00
         21   -1    0    0  501  502  0.00000000000E+00  0.00000000000E+00  0.20570670230E+03  0.20570670230E+03  0.00000000000E+00 0.  1.
         21   -1    0    0  502  503 -0.00000000000E+00 -0.00000000000E+00 -0.39330303300E+01  0.39330303300E+01  0.00000000000E+00 0. -1.
          2    1    1    2  501    0  0.22822889260E+02  0.61408395882E+01  0.15920742462E+03  0.16095216133E+03  0.00000000000E+00 0.  1.
         -2    1    1    2    0  503 -0.22822889260E+02 -0.61408395882E+01  0.42566247357E+02  0.48687571300E+02  0.00000000000E+00 0. -1.
</event>
<event>
 4    1  0.1780267E+004  0.2322128E+02  0.7546771E-02  0.1489738E+00
         21   -1    0    0  501  502  0.00000000000E+00  0.00000000000E+00  0.24391217873E+01  0.24391217873E+01  0.00000000000E+00 0. -1.
         21   -1    0    0  502  503 -0.00000000000E+00 -0.00000000000E+00 -0.26868900048E+03  0.26868900048E+03  0.00000000000E+00 0.  1.
          2    1    1    2  501    0  0.21311219438E+02 -0.92227952392E+01 -0.19019239393E+03  0.19160473568E+03  0.00000000000E+00 0. -1.
         -2    1    1    2    0  503 -0.21311219438E+02  0.92227952392E+01 -0.76057484765E+02  0.79523386590E+02  0.00000000000E+00 0.  1.
</event>
<event>
 4    1  0.1780267E+004  0.2127374E+02  0.7546771E-02  0.1515392E+00
         21   -1    0    0  503  502  0.00000000000E+00  0.00000000000E+00  0.12334599389E+02  0.12334599389E+02  0.00000000000E+00 0.  1.
         21   -1    0    0  501  503 -0.00000000000E+00 -0.00000000000E+00 -0.49156123974E+02  0.49156123974E+02  0.00000000000E+00 0. -1.
          2    1    1    2  501    0 -0.18744387979E+02 -0.10060810026E+02 -0.33893030354E+02  0.40016365223E+02  0.00000000000E+00 0. -1.
         -2    1    1    2    0  502  0.18744387979E+02  0.10060810026E+02 -0.29284942314E+01  0.21474358140E+02  0.00000000000E+00 0.  1.
</event>
<event>
 4    1  0.1780267E+004  0.3022097E+02  0.7546771E-02  0.1417686E+00
         21   -1    0    0  501  502  0.00000000000E+00  0.00000000000E+00  0.76336505352E+03  0.76336505352E+03  0.00000000000E+00 0. -1.
         21   -1    0    0  502  503 -0.00000000000E+00 -0.00000000000E+00 -0.12463101574E+01  0.12463101574E+01  0.00000000000E+00 0.  1.
          2    1    1    2  501    0  0.15153523794E+02  0.26147231265E+02  0.45754767656E+03  0.45854463612E+03  0.00000000000E+00 0.  1.
         -2    1    1    2    0  503 -0.15153523794E+02 -0.26147231265E+02  0.30457106680E+03  0.30606672756E+03  0.00000000000E+00 0. -1.
</event>
<event>
 4    1  0.1780267E+004  0.2607377E+02  0.7546771E-02  0.1457141E+00
         21   -1    0    0  503  502  0.00000000000E+00  0.00000000000E+00  0.23581262301E+01  0.23581262301E+01  0.00000000000E+00 0.  1.
         21   -1    0    0  501  503 -0.00000000000E+00 -0.00000000000E+00 -0.29614543518E+03  0.29614543518E+03  0.00000000000E+00 0. -1.
          2    1    1    2  501    0  0.12258326286E+02 -0.23012497341E+02 -0.17119040637E+03  0.17316465237E+03  0.00000000000E+00 0.  1.
         -2    1    1    2    0  502 -0.12258326286E+02  0.23012497341E+02 -0.12259690257E+03  0.12533890903E+03  0.00000000000E+00 0. -1.
</event>
<event>
 4    1  0.1780267E+004  0.2321550E+02  0.7546771E-02  0.1489810E+00
         21   -1    0    0  503  502  0.00000000000E+00  0.00000000000E+00  0.20612214351E+03  0.20612214351E+03  0.00000000000E+00 0.  1.
         21   -1    0    0  501  503 -0.00000000000E+00 -0.00000000000E+00 -0.62323798003E+01  0.62323798003E+01  0.00000000000E+00 0. -1.
          2    1    1    2  501    0 -0.22068612428E+02 -0.72066578642E+01  0.19050915159E+02  0.30031599033E+02  0.00000000000E+00 0. -1.
         -2    1    1    2    0  502  0.22068612428E+02  0.72066578642E+01  0.18083884855E+03  0.18232292428E+03  0.00000000000E+00 0.  1.
</event>
<event>
 4    1  0.1780267E+004  0.2054505E+02  0.7546771E-02  0.1525860E+00
         21   -1    0    0  501  502  0.00000000000E+00  0.00000000000E+00  0.87364004487E+02  0.87364004487E+02  0.00000000000E+00 0.  1.
         21   -1    0    0  502  503 -0.00000000000E+00 -0.00000000000E+00 -0.71795483799E+01  0.71795483799E+01  0.00000000000E+00 0. -1.
          2    1    1    2  501    0 -0.19217793302E+02 -0.72646830961E+01  0.67126013795E+02  0.70199721708E+02  0.00000000000E+00 0.  1.
         -2    1    1    2    0  503  0.19217793302E+02  0.72646830961E+01  0.13058442313E+02  0.24343831160E+02  0.00000000000E+00 0. -1.
</event>
<event>
 4    1  0.1780267E+004  0.2416189E+02  0.7546771E-02  0.1478402E+00
         21   -1    0    0  503  502  0.00000000000E+00  0.00000000000E+00  0.20803278807E+03  0.20803278807E+03  0.00000000000E+00 0.  1.
         21   -1    0    0  501  503 -0.00000000000E+00 -0.00000000000E+00 -0.51888102538E+01  0.51888102538E+01  0.00000000000E+00 0. -1.
          2    1    1    2  501    0 -0.21854141487E+02 -0.10305015613E+02  0.29180426199E+02  0.37885275769E+02  0.00000000000E+00 0. -1.
         -2    1    1    2    0  502  0.21854141487E+02  0.10305015613E+02  0.17366355162E+03  0.17533632256E+03  0.00000000000E+00 0.  1.
</event>
<event>
 4    1  0.1780267E+004  0.3355215E+02  0.7546771E-02  0.1391038E+00
         21   -1    0    0  503  502  0.00000000000E+00  0.00000000000E+00  0.39727360967E+03  0.39727360967E+03  0.00000000000E+00 0. -1.
         21   -1    0    0  501  503 -0.00000000000E+00 -0.00000000000E+00 -0.14465496650E+02  0.14465496650E+02  0.00000000000E+00 0.  1.
          2    1    1    2  501    0  0.30942327384E+02 -0.12973777025E+02  0.67966120354E+01  0.34233615780E+02  0.00000000000E+00 0.  1.
         -2    1    1    2    0  502 -0.30942327384E+02  0.12973777025E+02  0.37601150098E+03  0.37750549054E+03  0.00000000000E+00 0. -1.
</event>
<event>
 4    1  0.1780267E+004  0.2062479E+02  0.7546771E-02  0.1524690E+00
         21   -1    0    0  501  502  0.00000000000E+00  0.00000000000E+00  0.38895292279E+01  0.38895292279E+01  0.00000000000E+00 0.  1.
         21   -1    0    0  502  503 -0.00000000000E+00 -0.00000000000E+00 -0.29362323983E+03  0.29362323983E+03  0.00000000000E+00 0. -1.
          2    1    1    2  501    0 -0.10625644797E+02  0.17677032002E+02 -0.27026831115E+02  0.33997520319E+02  0.00000000000E+00 0.  1.
         -2    1    1    2    0  503  0.10625644797E+02 -0.17677032002E+02 -0.26270687949E+03  0.26351524874E+03  0.00000000000E+00 0. -1.
</event>
<event>
 4    1  0.1780267E+004  0.5332520E+02  0.7546771E-02  0.1284365E+00
         21   -1    0    0  501  502  0.00000000000E+00  0.00000000000E+00  0.17833861112E+03  0.17833861112E+03  0.00000000000E+00 0.  1.
         21   -1    0    0  502  503 -0.00000000000E+00 -0.00000000000E+00 -0.18247976026E+02  0.18247976026E+02  0.00000000000E+00 0. -1.
          2    1    1    2  501    0 -0.32960494211E+02 -0.41918762582E+02  0.11496564697E+03  0.12673072563E+03  0.00000000000E+00 0.  1.
         -2    1    1    2    0  503  0.32960494211E+02  0.41918762582E+02  0.45124988122E+02  0.69855861516E+02  0.00000000000E+00 0. -1.
</event>
<event>
 4    1  0.1780267E+004  0.3164291E+02  0.7546771E-02  0.1405837E+00
         21   -1    0    0  501  502  0.00000000000E+00  0.00000000000E+00  0.30536963907E+02  0.30536963907E+02  0.00000000000E+00 0.  1.
         21   -1    0    0  502  503 -0.00000000000E+00 -0.00000000000E+00 -0.40666332290E+02  0.40666332290E+02  0.00000000000E+00 0. -1.
          2    1    1    2  501    0  0.17036113230E+02 -0.26665420912E+02 -0.20733804155E+02  0.37830734346E+02  0.00000000000E+00 0. -1.
         -2    1    1    2    0  503 -0.17036113230E+02  0.26665420912E+02  0.10604435773E+02  0.33372561851E+02  0.00000000000E+00 0.  1.
</event>
<event>
 4    1  0.1780267E+004  0.3371309E+02  0.7546771E-02  0.1389843E+00
         21   -1    0    0  501  502  0.00000000000E+00  0.00000000000E+00  0.15432682308E+02  0.15432682308E+02  0.00000000000E+00 0. -1.
         21   -1    0    0  502  503 -0.00000000000E+00 -0.00000000000E+00 -0.97833750389E+02  0.97833750389E+02  0.00000000000E+00 0.  1.
          2    1    1    2  501    0  0.33093604731E+02  0.64331754495E+01 -0.69359368051E+02  0.77118703029E+02  0.00000000000E+00 0.  1.
         -2    1    1    2    0  503 -0.33093604731E+02 -0.64331754495E+01 -0.13041700030E+02  0.36147729667E+02  0.00000000000E+00 0. -1.
</event>
<event>
 4    1  0.1780267E+004  0.2755504E+02  0.7546771E-02  0.1442111E+00
         21   -1    0    0  503  502  0.00000000000E+00  0.00000000000E+00  0.13496027955E+02  0.13496027955E+02  0.00000000000E+00 0. -1.
         21   -1    0    0  501  503 -0.00000000000E+00 -0.00000000000E+00 -0.12262976742E+03  0.12262976742E+03  0.00000000000E+00 0.  1.
          2    1    1    2  501    0 -0.25018508701E+02  0.11547931064E+02 -0.10463934899E+03  0.10820662570E+03  0.00000000000E+00 0.  1.
         -2    1    1    2    0  502  0.25018508701E+02 -0.11547931064E+02 -0.44943904793E+01  0.27919169674E+02  0.00000000000E+00 0. -1.
</event>
<event>
 4    1  0.1780267E+004  0.3263481E+02  0.7546771E-02  0.1398000E+00
         21   -1    0    0  501  502  0.00000000000E+00  0.00000000000E+00  0.12899485026E+03  0.12899485026E+03  0.00000000000E+00 0.  1.
         21   -1    0    0  502  503 -0.00000000000E+00 -0.00000000000E+00 -0.92844211056E+01  0.92844211056E+01  0.00000000000E+00 0. -1.
          2    1    1    2  501    0 -0.10467693478E+02  0.30910488423E+02  0.82861910765E+02  0.89056875967E+02  0.00000000000E+00 0.  1.
         -2    1    1    2    0  503  0.10467693478E+02 -0.30910488423E+02  0.36848518389E+02  0.49222395399E+02  0.00000000000E+00 0. -1.
</event>
<event>
 4    1  0.1780267E+004  0.2147643E+02  0.7546771E-02  0.1512570E+00
         21   -1    0    0  503  502  0.00000000000E+00  0.00000000000E+00  0.22293193572E+02  0.22293193572E+02  0.00000000000E+00 0.  1.
         21   -1    0    0  501  503 -0.00000000000E+00 -0.00000000000E+00 -0.54303747318E+02  0.54303747318E+02  0.00000000000E+00 0. -1.
          2    1    1    2  501    0 -0.17086230704E+02 -0.13011439865E+02 -0.46137258796E+02  0.50890897970E+02  0.00000000000E+00 0. -1.
         -2    1    1    2    0  502  0.17086230704E+02  0.13011439865E+02  0.14126705050E+02  0.25706042920E+02  0.00000000000E+00 0.  1.
</event>
<event>
 4    1  0.1780267E+004  0.2095216E+02  0.7546771E-02  0.1519949E+00
         21   -1    0    0  503  502  0.00000000000E+00  0.00000000000E+00  0.25698470147E+02  0.25698470147E+02  0.00000000000E+00 0.  1.
         21   -1    0    0  501  503 -0.00000000000E+00 -0.00000000000E+00 -0.17250544556E+02  0.17250544556E+02  0.00000000000E+00 0. -1.
          2    1    1    2  501    0  0.18548237594E+02  0.97445216989E+01  0.63437836006E+01  0.21891468917E+02  0.00000000000E+00 0.  1.
         -2    1    1    2    0  502 -0.18548237594E+02 -0.97445216989E+01  0.21041419896E+01  0.21057545785E+02  0.00000000000E+00 0. -1.
</event>
<event>
 4    1  0.1780267E+004  0.2569407E+02  0.7546771E-02  0.1461187E+00
         21   -1    0    0  503  502  0.00000000000E+00  0.00000000000E+00  0.53381118154E+01  0.53381118154E+01  0.00000000000E+00 0. -1.
         21   -1    0    0  501  503 -0.00000000000E+00 -0.00000000000E+00 -0.12415293219E+03  0.12415293219E+03  0.00000000000E+00 0.  1.
          2    1    1    2  501    0 -0.20231474889E+02 -0.15838966732E+02 -0.63428881917E+02  0.68435433107E+02  0.00000000000E+00 0.  1.
         -2    1    1    2    0  502  0.20231474889E+02  0.15838966732E+02 -0.55385938459E+02  0.61055610900E+02  0.00000000000E+00 0. -1.
</event>
<event>
 4    1  0.1780267E+004  0.2481843E+02  0.7546771E-02  0.1470845E+00
         21   -1    0    0  501  502  0.00000000000E+00  0.00000000000E+00  0.70140239425E+02  0.70140239425E+02  0.00000000000E+00 0.  1.
         21   -1    0    0  502  503 -0.00000000000E+00 -0.00000000000E+00 -0.93118714952E+01  0.93118714952E+01  0.00000000000E+00 0. -1.
          2    1    1    2  501    0  0.16183488568E+02 -0.18816199446E+02  0.39892715640E+02  0.46982799246E+02  0.00000000000E+00 0.  1.
         -2    1    1    2    0  503 -0.16183488568E+02  0.18816199446E+02  0.20935652289E+02  0.32469311674E+02  0.00000000000E+00 0. -1.
</event>
<event>
 4    1  0.1780267E+004  0.2405426E+02  0.7546771E-02  0.1479668E+00
         21   -1    0    0  503  502  0.00000000000E+00  0.00000000000E+00  0.37055198235E+02  0.37055198235E+02  0.00000000000E+00 0. -1.
         21   -1    0    0  501  503 -0.00000000000E+00 -0.00000000000E+00 -0.38733181618E+02  0.38733181618E+02  0.00000000000E+00 0.  1.
          2    1    1    2  501    0 -0.11053972493E+01  0.24028844693E+02 -0.30114896110E+02  0.38542369518E+02  0.00000000000E+00 0.  1.
         -2    1    1    2    0  502  0.11053972493E+01 -0.24028844693E+02  0.28436912727E+02  0.37246010334E+02  0.00000000000E+00 0. -1.
</event>
<event>
 4    1  0.1780267E+004  0.2961779E+02  0.7546771E-02  0.1422947E+00
         21   -1    0    0  503  502  0.00000000000E+00  0.00000000000E+00  0.31417754956E+03  0.31417754956E+03  0.00000000000E+00 0. -1.
         21   -1    0    0  501  503 -0.00000000000E+00 -0.00000000000E+00 -0.33997024913E+01  0.33997024913E+01  0.00000000000E+00 0.  1.
          2    1    1    2  501    0 -0.27681696567E+02 -0.10532683867E+02  0.88259907886E+02  0.93096858671E+02  0.00000000000E+00 0. -1.
         -2    1    1    2    0  502  0.27681696567E+02  0.10532683867E+02  0.22251793918E+03  0.22448039338E+03  0.00000000000E+00 0.  1.
</event>
<event>
 4    1  0.1780267E+004  0.2413655E+02  0.7546771E-02  0.1478699E+00
         21   -1    0    0  501  502  0.00000000000E+00  0.00000000000E+00  0.50179578959E+02  0.50179578959E+02  0.00000000000E+00 0.  1.
         21   -1    0    0  502  503 -0.00000000000E+00 -0.00000000000E+00 -0.15994572497E+02  0.15994572497E+02  0.00000000000E+00 0. -1.
          2    1    1    2  501    0  0.22557674326E+02  0.85862841863E+01  0.34416476422E+02  0.42036493627E+02  0.00000000000E+00 0.  1.
         -2    1    1    2    0  503 -0.22557674326E+02 -0.85862841863E+01 -0.23146995960E+00  0.24137657829E+02  0.00000000000E+00 0. -1.
</event>
<event>
 4    1  0.1780267E+004  0.2405608E+02  0.7546771E-02  0.1479646E+00
         21   -1    0    0  503  502  0.00000000000E+00  0.00000000000E+00  0.40315944165E+02  0.40315944165E+02  0.00000000000E+00 0. -1.
         21   -1    0    0  501  503 -0.00000000000E+00 -0.00000000000E+00 -0.33629648102E+02  0.33629648102E+02  0.00000000000E+00 0.  1.
          2    1    1    2  501    0  0.56763845839E+01 -0.23376779664E+02 -0.24648315066E+02  0.34441756706E+02  0.00000000000E+00 0.  1.
         -2    1    1    2    0  502 -0.56763845839E+01  0.23376779664E+02  0.31334611130E+02  0.39503835561E+02  0.00000000000E+00 0. -1.
</event>
<event>
 4    1  0.1780267E+004  0.3014586E+02  0.7546771E-02  0.1418333E+00
         21   -1    0    0  503  502  0.00000000000E+00  0.00000000000E+00  0.23424777438E+03  0.23424777438E+03  0.00000000000E+00 0. -1.
         21   -1    0    0  501  503 -0.00000000000E+00 -0.00000000000E+00 -0.19551275832E+02  0.19551275832E+02  0.00000000000E+00 0.  1.
          2    1    1    2  501    0 -0.25348396950E+02  0.16316598371E+02 -0.62655428865E+01  0.30790089932E+02  0.00000000000E+00 0.  1.
         -2    1    1    2    0  502  0.25348396950E+02 -0.16316598371E+02  0.22096204144E+03  0.22300896028E+03  0.00000000000E+00 0. -1.
</event>
<event>
 4    1  0.1780267E+004  0.4199968E+02  0.7546771E-02  0.1337150E+00
         21   -1    0    0  503  502  0.00000000000E+00  0.00000000000E+00  0.42730930013E+02  0.42730930013E+02  0.00000000000E+00 0.  1.
         21   -1    0    0  501  503 -0.00000000000E+00 -0.00000000000E+00 -0.51556077061E+02  0.51556077061E+02  0.00000000000E+00 0. -1.
          2    1    1    2  501    0 -0.40889954359E+02  0.95908842588E+01 -0.25458861171E+02  0.49113409986E+02  0.00000000000E+00 0. -1.
         -2    1    1    2    0  502  0.40889954359E+02 -0.95908842588E+01  0.16633714124E+02  0.45173597088E+02  0.00000000000E+00 0.  1.
</event>
<event>
 4    1  0.1780267E+004  0.2604540E+02  0.7546771E-02  0.1457440E+00
         21   -1    0    0  501  502  0.00000000000E+00  0.00000000000E+00  0.15188256961E+03  0.15188256961E+03  0.00000000000E+00 0.  1.
         21   -1    0    0  502  503 -0.00000000000E+00 -0.00000000000E+00 -0.60027470360E+01  0.60027470360E+01  0.00000000000E+00 0. -1.
          2    1    1    2  501    0 -0.25990377138E+02  0.16920122915E+01  0.11287794627E+03  0.11584383179E+03  0.00000000000E+00 0.  1.
         -2    1    1    2    0  503  0.25990377138E+02 -0.16920122915E+01  0.33001876301E+02  0.42041484854E+02  0.00000000000E+00 0. -1.
</event>
<event>
 4    1  0.1780267E+004  0.3641505E+02  0.7546771E-02  0.1370879E+00
         21   -1    0    0  503  502  0.00000000000E+00  0.00000000000E+00  0.34214937990E+03  0.34214937990E+03  0.00000000000E+00 0. -1.
         21   -1    0    0  501  503 -0.00000000000E+00 -0.00000000000E+00 -0.45169708072E+01  0.45169708072E+01  0.00000000000E+00 0.  1.
          2    1    1    2  501    0  0.12600614125E-01  0.36415043954E+02  0.10350443949E+03  0.10972340033E+03  0.00000000000E+00 0.  1.
         -2    1    1    2    0  502 -0.12600614125E-01 -0.36415043954E+02  0.23412796960E+03  0.23694295037E+03  0.00000000000E+00 0. -1.
</event>
<event>
 4    1  0.1780267E+004  0.2189567E+02  0.7546771E-02  0.1506851E+00
         21   -1    0    0  501  502  0.00000000000E+00  0.00000000000E+00  0.20392421490E+04  0.20392421490E+04  0.00000000000E+00 0.  1.
         21   -1    0    0  502  503 -0.00000000000E+00 -0.00000000000E+00 -0.26178080710E+00  0.26178080710E+00  0.00000000000E+00 0. -1.
          2    1    1    2  501    0  0.21727142257E+02  0.27114126422E+01  0.69391857770E+03  0.69426393609E+03  0.00000000000E+00 0. -1.
         -2    1    1    2    0  503 -0.21727142257E+02 -0.27114126422E+01  0.13450617905E+04  0.13452399937E+04  0.00000000000E+00 0.  1.
</event>
<event>
 4    1  0.1780267E+004  0.2414731E+02  0.7546771E-02  0.1478573E+00
         21   -1    0    0  503  502  0.00000000000E+00  0.00000000000E+00  0.12370242561E+04  0.12370242561E+04  0.00000000000E+00 0.  1.
         21   -1    0    0  501  503 -0.00000000000E+00 -0.00000000000E+00 -0.71328421393E+00  0.71328421393E+00  0.00000000000E+00 0. -1.
          2    1    1    2  501    0  0.20171146836E+02  0.13274685948E+02  0.25774234363E+03  0.25887102610E+03  0.00000000000E+00 0. -1.
         -2    1    1    2    0  502 -0.20171146836E+02 -0.13274685948E+02  0.97856862829E+03  0.97886651425E+03  0.00000000000E+00 0.  1.
</event>
<event>
 4    1  0.1780267E+004  0.4768025E+02  0.7546771E-02  0.1308556E+00
         21   -1    0    0  501  502  0.00000000000E+00  0.00000000000E+00  0.29271389214E+03  0.29271389214E+03  0.00000000000E+00 0. -1.
         21   -1    0    0  502  503 -0.00000000000E+00 -0.00000000000E+00 -0.13459046441E+02  0.13459046441E+02  0.00000000000E+00 0.  1.
          2    1    1    2  501    0 -0.13533822255E+01 -0.47661036521E+02  0.23918567646E+03  0.24389176671E+03  0.00000000000E+00 0. -1.
         -2    1    1    2    0  503  0.13533822255E+01  0.47661036521E+02  0.40069169234E+02  0.62281171864E+02  0.00000000000E+00 0.  1.
</event>
<event>
 4    1  0.1780267E+004  0.2044310E+02  0.7546771E-02  0.1527366E+00
         21   -1    0    0  501  502  0.00000000000E+00  0.00000000000E+00  0.17061141192E+01  0.17061141192E+01  0.00000000000E+00 0.  1.
         21   -1    0    0  502  503 -0.00000000000E+00 -0.00000000000E+00 -0.56041217745E+03  0.56041217745E+03  0.00000000000E+00 0. -1.
          2    1    1    2  501    0 -0.20389338440E+02  0.14815942170E+01 -0.68483163646E+02  0.71469321715E+02  0.00000000000E+00 0.  1.
         -2    1    1    2    0  503  0.20389338440E+02 -0.14815942170E+01 -0.49022289969E+03  0.49064896986E+03  0.00000000000E+00 0. -1.
</event>
<event>
 4    1  0.1780267E+004  0.2330201E+02  0.7546771E-02  0.1488740E+00
         21   -1    0    0  501  502  0.00000000000E+00  0.00000000000E+00  0.20843110028E+02  0.20843110028E+02  0.00000000000E+00 0.  1.
         21   -1    0    0  502  503 -0.00000000000E+00 -0.00000000000E+00 -0.35661000189E+02  0.35661000189E+02  0.00000000000E+00 0. -1.
          2    1    1    2  501    0 -0.19139541124E+02 -0.13291410923E+02  0.72571745133E+01  0.24405946420E+02  0.00000000000E+00 0.  1.
         -2    1    1    2    0  503  0.19139541124E+02  0.13291410923E+02 -0.22075064674E+02  0.32098163797E+02  0.00000000000E+00 0. -1.
</event>
<event>
 4    1  0.1780267E+004  0.2039271E+02  0.7546771E-02  0.1528115E+00
         21   -1    0    0  503  502  0.00000000000E+00  0.00000000000E+00  0.11047665299E+02  0.11047665299E+02  0.00000000000E+00 0. -1.
         21   -1    0    0  501  503 -0.00000000000E+00 -0.00000000000E+00 -0.46525831388E+02  0.46525831388E+02  0.00000000000E+00 0.  1.
          2    1    1    2  501    0 -0.13754065080E+02 -0.15056170418E+02 -0.30317663411E+02  0.36537970505E+02  0.00000000000E+00 0.  1.
         -2    1    1    2    0  502  0.13754065080E+02  0.15056170418E+02 -0.51605026781E+01  0.21035526182E+02  0.00000000000E+00 0. -1.
</event>
<event>
 4    1  0.1780267E+004  0.2592064E+02  0.7546771E-02  0.1458762E+00
         21   -1    0    0  501  502  0.00000000000E+00  0.00000000000E+00  0.19563035852E+02  0.19563035852E+02  0.00000000000E+00 0.  1.
         21   -1    0    0  502  503 -0.00000000000E+00 -0.00000000000E+00 -0.39219235495E+02  0.39219235495E+02  0.00000000000E+00 0. -1.
          2    1    1    2  501    0  0.38556953526E+01 -0.25632272764E+02  0.53402731701E+00  0.25926144698E+02  0.00000000000E+00 0. -1.
         -2    1    1    2    0  503 -0.38556953526E+01  0.25632272764E+02 -0.20190226960E+02  0.32856126649E+02  0.00000000000E+00 0.  1.
</event>
<event>
 4    1  0.1780267E+004  0.2052861E+02  0.7546771E-02  0.1526103E+00
         21   -1    0    0  501  502  0.00000000000E+00  0.00000000000E+00  0.76391465972E+02  0.76391465972E+02  0.00000000000E+00 0. -1.
         21   -1    0    0  502  503 -0.00000000000E+00 -0.00000000000E+00 -0.87975369570E+01  0.87975369570E+01  0.00000000000E+00 0.  1.
          2    1    1    2  501    0  0.20355716720E+02 -0.26586550470E+01  0.59808726776E+02  0.63233752446E+02  0.00000000000E+00 0. -1.
         -2    1    1    2    0  503 -0.20355716720E+02  0.26586550470E+01  0.77852022389E+01  0.21955250483E+02  0.00000000000E+00 0.  1.
</event>
<event>
 4    1  0.1780267E+004  0.2789666E+02  0.7546771E-02  0.1438803E+00
         21   -1    0    0  503  502  0.00000000000E+00  0.00000000000E+00  0.25183270542E+03  0.25183270542E+03  0.00000000000E+00 0.  1.
         21   -1    0    0  501  503 -0.00000000000E+00 -0.00000000000E+00 -0.37407021145E+01  0.37407021145E+01  0.00000000000E+00 0. -1.
          2    1    1    2  501    0  0.26746518185E+02 -0.79276393457E+01  0.70759176937E+02  0.76059745078E+02  0.00000000000E+00 0. -1.
         -2    1    1    2    0  502 -0.26746518185E+02  0.79276393457E+01  0.17733282637E+03  0.17951366246E+03  0.00000000000E+00 0.  1.
</event>
<event>
 4    1  0.1780267E+004  0.3734556E+02  0.7546771E-02  0.1364784E+00
         21   -1    0    0  503  502  0.00000000000E+00  0.00000000000E+00  0.31251457869E+02  0.31251457869E+02  0.00000000000E+00 0. -1.
         21   -1    0    0  501  503 -0.00000000000E+00 -0.00000000000E+00 -0.12444738527E+03  0.12444738527E+03  0.00000000000E+00 0.  1.
          2    1    1    2  501    0 -0.37294302021E+02 -0.19560775211E+01 -0.10894511171E+03  0.11516826199E+03  0.00000000000E+00 0.  1.
         -2    1    1    2    0  502  0.37294302021E+02  0.19560775211E+01  0.15749184309E+02  0.40530581157E+02  0.00000000000E+00 0. -1.
</event>
<event>
 4    1  0.1780267E+004  0.2537649E+02  0.7546771E-02  0.1464635E+00
         21   -1    0    0  503  502  0.00000000000E+00  0.00000000000E+00  0.28170402925E+02  0.28170402925E+02  0.00000000000E+00 0.  1.
         21   -1    0    0  501  503 -0.00000000000E+00 -0.00000000000E+00 -0.30540210369E+02  0.30540210369E+02  0.00000000000E+00 0. -1.
          2    1    1    2  501    0 -0.22372560027E+02 -0.11976433236E+02 -0.15906205505E+02  0.29949520344E+02  0.00000000000E+00 0. -1.
         -2    1    1    2    0  502  0.22372560027E+02  0.11976433236E+02  0.13536398061E+02  0.28761092950E+02  0.00000000000E+00 0.  1.
</event>
<event>
 4    1  0.1780267E+004  0.2434880E+02  0.7546771E-02  0.1476222E+00
         21   -1    0    0  503  502  0.00000000000E+00  0.00000000000E+00  0.15575903403E+02  0.15575903403E+02  0.00000000000E+00 0. -1.
         21   -1    0    0  501  503 -0.00000000000E+00 -0.00000000000E+00 -0.12823008324E+03  0.12823008324E+03  0.00000000000E+00 0.  1.
          2    1    1    2  501    0  0.24078581175E+02  0.36174373097E+01 -0.11662139302E+03  0.11913611221E+03  0.00000000000E+00 0.  1.
         -2    1    1    2    0  502 -0.24078581175E+02 -0.36174373097E+01  0.39672131772E+01  0.24669874432E+02  0.00000000000E+00 0. -1.
</event>
<event>
 4    1  0.1780267E+004  0.3426681E+02  0.7546771E-02  0.1385792E+00
         21   -1    0    0  503  502  0.00000000000E+00  0.00000000000E+00  0.53518522479E+02  0.53518522479E+02  0.00000000000E+00 0. -1.
         21   -1    0    0  501  503 -0.00000000000E+00 -0.00000000000E+00 -0.25868426391E+02  0.25868426391E+02  0.00000000000E+00 0.  1.
          2    1    1    2  501    0  0.18678346754E+02 -0.28728626182E+02 -0.16426114909E+01  0.34306162308E+02  0.00000000000E+00 0.  1.
         -2    1    1    2    0  502 -0.18678346754E+02  0.28728626182E+02  0.29292707579E+02  0.45080786563E+02  0.00000000000E+00 0. -1.
</event>
<event>
 4    1  0.1780267E+004  0.2123892E+02  0.7546771E-02  0.1515881E+00
         21   -1    0    0  503  502  0.00000000000E+00  0.00000000000E+00  0.98396278755E+01  0.98396278755E+01  0.00000000000E+00 0. -1.
         21   -1    0    0  501  503 -0.00000000000E+00 -0.00000000000E+00 -0.94744606126E+02  0.94744606126E+02  0.00000000000E+00 0.  1.
          2    1    1    2  501    0 -0.11132400196E+02  0.18087604063E+02 -0.80020167614E+02  0.82790814586E+02  0.00000000000E+00 0.  1.
         -2    1    1    2    0  502  0.11132400196E+02 -0.18087604063E+02 -0.48848106370E+01  0.21793419416E+02  0.00000000000E+00 0. -1.
</event>
<event>
 4    1  0.1780267E+004  0.2101740E+02  0.7546771E-02  0.1519016E+00
         21   -1    0    0  503  502  0.00000000000E+00  0.00000000000E+00  0.34076533336E+02  0.34076533336E+02  0.00000000000E+00 0.  1.
         21   -1    0    0  501  503 -0.00000000000E+00 -0.00000000000E+00 -0.14207893841E+02  0.14207893841E+02  0.00000000000E+00 0. -1.
          2    1    1    2  501    0  0.20992444055E+02  0.10239958466E+01  0.17080810964E+02  0.27082935182E+02  0.00000000000E+00 0.  1.
         -2    1    1    2    0  502 -0.20992444055E+02 -0.10239958466E+01  0.27878285309E+01  0.21201491995E+02  0.00000000000E+00 0. -1.
</event>
<event>
 4    1  0.1780267E+004  0.2248092E+02  0.7546771E-02  0.1499121E+00
         21   -1    0    0  503  502  0.00000000000E+00  0.00000000000E+00  0.17439230726E+03  0.17439230726E+03  0.00000000000E+00 0.  1.
         21   -1    0    0  501  503 -0.00000000000E+00 -0.00000000000E+00 -0.34307705451E+01  0.34307705451E+01  0.00000000000E+00 0. -1.
          2    1    1    2  501    0  0.21817241858E+02 -0.54221654808E+01  0.50443894557E+02  0.55226609699E+02  0.00000000000E+00 0. -1.
         -2    1    1    2    0  502 -0.21817241858E+02  0.54221654808E+01  0.12051764216E+03  0.12259646811E+03  0.00000000000E+00 0.  1.
</event>
<event>
 4    1  0.1780267E+004  0.2354048E+02  0.7546771E-02  0.1485821E+00
         21   -1    0    0  501  502  0.00000000000E+00  0.00000000000E+00  0.38478065614E+02  0.38478065614E+02  0.00000000000E+00 0.  1.
         21   -1    0    0  502  503 -0.00000000000E+00 -0.00000000000E+00 -0.16142863099E+02  0.16142863099E+02  0.00000000000E+00 0. -1.
          2    1    1    2  501    0  0.21276480838E+02 -0.10073018953E+02  0.21986223286E+01  0.23642933148E+02  0.00000000000E+00 0. -1.
         -2    1    1    2    0  503 -0.21276480838E+02  0.10073018953E+02  0.20136580186E+02  0.30977995565E+02  0.00000000000E+00 0.  1.
</event>
<event>
 4    1  0.1780267E+004  0.2923708E+02  0.7546771E-02  0.1426344E+00
         21   -1    0    0  503  502  0.00000000000E+00  0.00000000000E+00  0.74525244922E+01  0.74525244922E+01  0.00000000000E+00 0.  1.
         21   -1    0    0  501  503 -0.00000000000E+00 -0.00000000000E+00 -0.24038212559E+03  0.24038212559E+03  0.00000000000E+00 0. -1.
          2    1    1    2  501    0  0.22736318366E+02 -0.18381152207E+02 -0.20606668703E+03  0.20813045532E+03  0.00000000000E+00 0. -1.
         -2    1    1    2    0  502 -0.22736318366E+02  0.18381152207E+02 -0.26862914070E+02  0.39704194761E+02  0.00000000000E+00 0.  1.
</event>
<event>
 4    1  0.1780267E+004  0.3312987E+02  0.7546771E-02  0.1394210E+00
         21   -1    0    0  501  502  0.00000000000E+00  0.00000000000E+00  0.34926103565E+01  0.34926103565E+01  0.00000000000E+00 0.  1.
         21   -1    0    0  502  503 -0.00000000000E+00 -0.00000000000E+00 -0.40675442339E+03  0.40675442339E+03  0.00000000000E+00 0. -1.
          2    1    1    2  501    0  0.19325999761E+02 -0.26908989268E+02 -0.10381557632E+03  0.10897367506E+03  0.00000000000E+00 0.  1.
         -2    1    1    2    0  503 -0.19325999761E+02  0.26908989268E+02 -0.29944623671E+03  0.30127335868E+03  0.00000000000E+00 0. -1.
</event>
<event>
 4    1  0.1780267E+004  0.3047108E+02  0.7546771E-02  0.1415546E+00
         21   -1    0    0  501  502  0.00000000000E+00  0.00000000000E+00  0.58909098670E+01  0.58909098670E+01  0.00000000000E+00 0.  1.
         21   -1    0    0  502  503 -0.00000000000E+00 -0.00000000000E+00 -0.36805682923E+03  0.36805682923E+03  0.00000000000E+00 0. -1.
          2    1    1    2  501    0 -0.23409686581E+02 -0.19505717894E+02 -0.39701930287E+02  0.50047274900E+02  0.00000000000E+00 0.  1.
         -2    1    1    2    0  503  0.23409686581E+02  0.19505717894E+02 -0.32246398908E+03  0.32390046420E+03  0.00000000000E+00 0. -1.
</event>
<event>
 4    1  0.1780267E+004  0.3982556E+02  0.7546771E-02  0.1349511E+00
         21   -1    0    0  503  502  0.00000000000E+00  0.00000000000E+00  0.17272932750E+02  0.17272932750E+02  0.00000000000E+00 0.  1.
         21   -1    0    0  501  503 -0.00000000000E+00 -0.00000000000E+00 -0.11746227904E+03  0.11746227904E+03  0.00000000000E+00 0. -1.
          2    1    1    2  501    0 -0.29876511955E+02  0.26333807881E+02 -0.81568067104E+02  0.90771278361E+02  0.00000000000E+00 0. -1.
         -2    1    1    2    0  502  0.29876511955E+02 -0.26333807881E+02 -0.18621279187E+02  0.43963933431E+02  0.00000000000E+00 0.  1.
</event>
<event>
 4    1  0.1780267E+004  0.5988913E+02  0.7546771E-02  0.1260210E+00
         21   -1    0    0  503  502  0.00000000000E+00  0.00000000000E+00  0.32376004333E+03  0.32376004333E+03  0.00000000000E+00 0. -1.
         21   -1    0    0  501  503 -0.00000000000E+00 -0.00000000000E+00 -0.16715789091E+02  0.16715789091E+02  0.00000000000E+00 0.  1.
          2    1    1    2  501    0 -0.65043737869E+00  0.59885596636E+02  0.54658603894E+02  0.81081876723E+02  0.00000000000E+00 0.  1.
         -2    1    1    2    0  502  0.65043737869E+00 -0.59885596636E+02  0.25238565035E+03  0.25939395570E+03  0.00000000000E+00 0. -1.
</event>
<event>
 4    1  0.1780267E+004  0.2242097E+02  0.7546771E-02  0.1499900E+00
         21   -1    0    0  503  502  0.00000000000E+00  0.00000000000E+00  0.64470220603E+02  0.64470220603E+02  0.00000000000E+00 0.  1.
         21   -1    0    0  501  503 -0.00000000000E+00 -0.00000000000E+00 -0.98729164854E+01  0.98729164854E+01  0.00000000000E+00 0. -1.
          2    1    1    2  501    0  0.22373290692E+02 -0.14614432889E+01  0.10255438525E+02  0.24655100328E+02  0.00000000000E+00 0. -1.
         -2    1    1    2    0  502 -0.22373290692E+02  0.14614432889E+01  0.44341865593E+02  0.49688036761E+02  0.00000000000E+00 0.  1.
</event>
<event>
 4    1  0.1780267E+004  0.2289069E+02  0.7546771E-02  0.1493875E+00
         21   -1    0    0  501  502  0.00000000000E+00  0.00000000000E+00  0.15440226539E+03  0.15440226539E+03  0.00000000000E+00 0. -1.
         21   -1    0    0  502  503 -0.00000000000E+00 -0.00000000000E+00 -0.50554133827E+01  0.50554133827E+01  0.00000000000E+00 0.  1.
          2    1    1    2  501    0  0.11449600178E+02 -0.19821465475E+02  0.12038483244E+03  0.12254179581E+03  0.00000000000E+00 0. -1.
         -2    1    1    2    0  503 -0.11449600178E+02  0.19821465475E+02  0.28962019569E+02  0.36915882968E+02  0.00000000000E+00 0.  1.
</event>
<event>
 4    1  0.1780267E+004  0.2132122E+02  0.7546771E-02  0.1514728E+00
         21   -1    0    0  501  502  0.00000000000E+00  0.00000000000E+00  0.15831003111E+02  0.15831003111E+02  0.00000000000E+00 0. -1.
         21   -1    0    0  502  503 -0.00000000000E+00 -0.00000000000E+00 -0.34193897879E+02  0.34193897879E+02  0.00000000000E+00 0.  1.
          2    1    1    2  501    0 -0.99757278946E+01 -0.18843543453E+02  0.83032477867E+00  0.21337378380E+02  0.00000000000E+00 0.  1.
         -2    1    1    2    0  503  0.99757278946E+01  0.18843543453E+02 -0.19193219547E+02  0.28687522610E+02  0.00000000000E+00 0. -1.
</event>
<event>
 4    1  0.1780267E+004  0.2043747E+02  0.7546771E-02  0.1527450E+00
         21   -1    0    0  503  502  0.00000000000E+00  0.00000000000E+00  0.63278826084E+02  0.63278826084E+02  0.00000000000E+00 0. -1.
         21   -1    0    0  501  503 -0.00000000000E+00 -0.00000000000E+00 -0.66017657501E+01  0.66017657501E+01  0.00000000000E+00 0.  1.
          2    1    1    2  501    0 -0.46987063247E+01  0.19890000871E+02  0.27912832236E+02  0.34595031135E+02  0.00000000000E+00 0. -1.
         -2    1    1    2    0  502  0.46987063247E+01 -0.19890000871E+02  0.28764228097E+02  0.35285560698E+02  0.00000000000E+00 0.  1.
</event>
<event>
 4    1  0.1780267E+004  0.5194737E+02  0.7546771E-02  0.1289943E+00
         21   -1    0    0  501  502  0.00000000000E+00  0.00000000000E+00  0.13587404247E+03  0.13587404247E+03  0.00000000000E+00 0. -1.
         21   -1    0    0  502  503 -0.00000000000E+00 -0.00000000000E+00 -0.58430248680E+02  0.58430248680E+02  0.00000000000E+00 0.  1.
          2    1    1    2  501    0 -0.46804514972E+02  0.22535900301E+02  0.11765456969E+03  0.12861231353E+03  0.00000000000E+00 0. -1.
         -2    1    1    2    0  503  0.46804514972E+02 -0.22535900301E+02 -0.40210775900E+02  0.65691977613E+02  0.00000000000E+00 0.  1.
</event>
<event>
 4    1  0.1780267E+004  0.2522356E+02  0.7546771E-02  0.1466318E+00
         21   -1    0    0  503  502  0.00000000000E+00  0.00000000000E+00  0.35369407323E+02  0.35369407323E+02  0.00000000000E+00 0. -1.
         21   -1    0    0  501  503 -0.00000000000E+00 -0.00000000000E+00 -0.29963600537E+02  0.29963600537E+02  0.00000000000E+00 0.  1.
          2    1    1    2  501    0  0.13045061028E+02  0.21588297010E+02 -0.17948645221E+02  0.30957746209E+02  0.00000000000E+00 0.  1.
         -2    1    1    2    0  502 -0.13045061028E+02 -0.21588297010E+02  0.23354452007E+02  0.34375261651E+02  0.00000000000E+00 0. -1.
</event>
<event>
 4    1  0.1780267E+004  0.3334371E+02  0.7546771E-02  0.1392597E+00
         21   -1    0    0  501  502  0.00000000000E+00  0.00000000000E+00  0.36676855470E+02  0.36676855470E+02  0.00000000000E+00 0. -1.
         21   -1    0    0  502  503 -0.00000000000E+00 -0.00000000000E+00 -0.31373643012E+02  0.31373643012E+02  0.00000000000E+00 0.  1.
          2    1    1    2  501    0 -0.33330586258E+02  0.93556916713E+00  0.89062755363E+01  0.34512679031E+02  0.00000000000E+00 0. -1.
         -2    1    1    2    0  503  0.33330586258E+02 -0.93556916713E+00 -0.36030630785E+01  0.33537819451E+02  0.00000000000E+00 0.  1.
</event>
<event>
 4    1  0.1780267E+004  0.2168872E+02  0.7546771E-02  0.1509655E+00
         21   -1    0    0  501  502  0.00000000000E+00  0.00000000000E+00  0.22701726957E+02  0.22701726957E+02  0.00000000000E+00 0.  1.
         21   -1    0    0  502  503 -0.00000000000E+00 -0.00000000000E+00 -0.26782743765E+02  0.26782743765E+02  0.00000000000E+00 0. -1.
          2    1    1    2  501    0  0.15432260273E+02 -0.15239623298E+02 -0.13811495521E+02  0.25712996401E+02  0.00000000000E+00 0. -1.
         -2    1    1    2    0  503 -0.15432260273E+02  0.15239623298E+02  0.97304787125E+01  0.23771474321E+02  0.00000000000E+00 0.  1.
</event>
<event>
 4    1  0.1780267E+004  0.2245756E+02  0.7546771E-02  0.1499424E+00
         21   -1    0    0  503  502  0.00000000000E+00  0.00000000000E+00  0.30380027127E+02  0.30380027127E+02  0.00000000000E+00 0.  1.
         21   -1    0    0  501  503 -0.00000000000E+00 -0.00000000000E+00 -0.18728913299E+02  0.18728913299E+02  0.00000000000E+00 0. -1.
          2    1    1    2  501    0 -0.18920864195E+02 -0.12097234575E+02  0.14101928293E+02  0.26518042307E+02  0.00000000000E+00 0.  1.
         -2    1    1    2    0  502  0.18920864195E+02  0.12097234575E+02 -0.24508144652E+01  0.22590898118E+02  0.00000000000E+00 0. -1.
</event>
<event>
 4    1  0.1780267E+004  0.2133781E+02  0.7546771E-02  0.1514496E+00
         21   -1    0    0  501  502  0.00000000000E+00  0.00000000000E+00  0.61628366017E+01  0.61628366017E+01  0.00000000000E+00 0. -1.
         21   -1    0    0  502  503 -0.00000000000E+00 -0.00000000000E+00 -0.28006804027E+03  0.28006804027E+03  0.00000000000E+00 0.  1.
          2    1    1    2  501    0  0.11053353745E+02 -0.18251721216E+02 -0.25974963721E+03  0.26062458823E+03  0.00000000000E+00 0.  1.
         -2    1    1    2    0  503 -0.11053353745E+02  0.18251721216E+02 -0.14155566450E+02  0.25606288639E+02  0.00000000000E+00 0. -1.
</event>
<event>
 4    1  0.1780267E+004  0.2163990E+02  0.7546771E-02  0.1510322E+00
         21   -1    0    0  501  502  0.00000000000E+00  0.00000000000E+00  0.82402474515E+02  0.82402474515E+02  0.00000000000E+00 0. -1.
         21   -1    0    0  502  503 -0.00000000000E+00 -0.00000000000E+00 -0.11458890341E+02  0.11458890341E+02  0.00000000000E+00 0.  1.
          2    1    1    2  501    0  0.26859027756E+01  0.21472564527E+02  0.68791315513E+02  0.72114701630E+02  0.00000000000E+00 0. -1.
         -2    1    1    2    0  503 -0.26859027756E+01 -0.21472564527E+02  0.21522686612E+01  0.21746663227E+02  0.00000000000E+00 0.  1.
</event>
<event>
 4    1  0.1780267E+004  0.2399411E+02  0.7546771E-02  0.1480379E+00
         21   -1    0    0  501  502  0.00000000000E+00  0.00000000000E+00  0.13423957532E+02  0.13423957532E+02  0.00000000000E+00 0.  1.
         21   -1    0    0  502  503 -0.00000000000E+00 -0.00000000000E+00 -0.74659547663E+02  0.74659547663E+02  0.00000000000E+00 0. -1.
          2    1    1    2  501    0 -0.16415292201E+02  0.17500158048E+02 -0.18871182485E+01  0.24068206519E+02  0.00000000000E+00 0.  1.
         -2    1    1    2    0  503  0.16415292201E+02 -0.17500158048E+02 -0.59348471882E+02  0.64015298676E+02  0.00000000000E+00 0. -1.
</event>
<event>
 4    1  0.1780267E+004  0.2214215E+02  0.7546771E-02  0.1503561E+00
         21   -1    0    0  503  502  0.00000000000E+00  0.00000000000E+00  0.36755722613E+02  0.36755722613E+02  0.00000000000E+00 0.  1.
         21   -1    0    0  501  503 -0.00000000000E+00 -0.00000000000E+00 -0.34844279455E+02  0.34844279455E+02  0.00000000000E+00 0. -1.
          2    1    1    2  501    0 -0.39961275119E+01  0.21778565735E+02 -0.27169275370E+02  0.35049172382E+02  0.00000000000E+00 0. -1.
         -2    1    1    2    0  502  0.39961275119E+01 -0.21778565735E+02  0.29080718528E+02  0.36550829685E+02  0.00000000000E+00 0.  1.
</event>
<event>
 4    1  0.1780267E+004  0.3069715E+02  0.7546771E-02  0.1413633E+00
         21   -1    0    0  503  502  0.00000000000E+00  0.00000000000E+00  0.51238422734E+03  0.51238422734E+03  0.00000000000E+00 0.  1.
         21   -1    0    0  501  503 -0.00000000000E+00 -0.00000000000E+00 -0.38986470271E+01  0.38986470271E+01  0.00000000000E+00 0. -1.
          2    1    1    2  501    0  0.23652974993E+02 -0.19566597088E+02  0.66618586765E+02  0.73350876275E+02  0.00000000000E+00 0. -1.
         -2    1    1    2    0  502 -0.23652974993E+02  0.19566597088E+02  0.44186699355E+03  0.44293199810E+03  0.00000000000E+00 0.  1.
</event>
<event>
 4    1  0.1780267E+004  0.2506876E+02  0.7546771E-02  0.1468036E+00
         21   -1    0    0  501  502  0.00000000000E+00  0.00000000000E+00  0.35339206914E+01  0.35339206914E+01  0.00000000000E+00 0.  1.
         21   -1    0    0  502  503 -0.00000000000E+00 -0.00000000000E+00 -0.21700603218E+03  0.21700603218E+03  0.00000000000E+00 0. -1.
          2    1    1    2  501    0  0.49638235754E+01 -0.24572408315E+02 -0.59884642464E+02  0.64920052356E+02  0.00000000000E+00 0.  1.
         -2    1    1    2    0  503 -0.49638235754E+01  0.24572408315E+02 -0.15358746902E+03  0.15561990052E+03  0.00000000000E+00 0. -1.
</event>
<event>
 4    1  0.1780267E+004  0.3593030E+02  0.7546771E-02  0.1374138E+00
         21   -1    0    0  501  502  0.00000000000E+00  0.00000000000E+00  0.33370413343E+01  0.33370413343E+01  0.00000000000E+00 0. -1.
         21   -1    0    0  502  503 -0.00000000000E+00 -0.00000000000E+00 -0.64814290872E+03  0.64814290872E+03  0.00000000000E+00 0.  1.
          2    1    1    2  501    0 -0.35930258158E+02  0.57985699494E-01 -0.11558583556E+03  0.12104161349E+03  0.00000000000E+00 0. -1.
         -2    1    1    2    0  503  0.35930258158E+02 -0.57985699494E-01 -0.52922003183E+03  0.53043833657E+03  0.00000000000E+00 0.  1.
</event>
<event>
 4    1  0.1780267E+004  0.2982675E+02  0.7546771E-02  0.1421108E+00
         21   -1    0    0  501  502  0.00000000000E+00  0.00000000000E+00  0.27132608655E+03  0.27132608655E+03  0.00000000000E+00 0.  1.
         21   -1    0    0  502  503 -0.00000000000E+00 -0.00000000000E+00 -0.38344147312E+01  0.38344147312E+01  0.00000000000E+00 0. -1.
          2    1    1    2  501    0  0.28636643253E+02 -0.83413094594E+01  0.18611526770E+03  0.18849012614E+03  0.00000000000E+00 0.  1.
         -2    1    1    2    0  503 -0.28636643253E+02  0.83413094594E+01  0.81376404120E+02  0.86670375145E+02  0.00000000000E+00 0. -1.
</event>
<event>
 4    1  0.1780267E+004  0.2405509E+02  0.7546771E-02  0.1479658E+00
         21   -1    0    0  501  502  0.00000000000E+00  0.00000000000E+00  0.16057331375E+03  0.16057331375E+03  0.00000000000E+00 0.  1.
         21   -1    0    0  502  503 -0.00000000000E+00 -0.00000000000E+00 -0.83327152616E+01  0.83327152616E+01  0.00000000000E+00 0. -1.
          2    1    1    2  501    0 -0.87864599032E+01  0.22392975409E+02  0.13974274186E+03  0.14179802935E+03  0.00000000000E+00 0.  1.
         -2    1    1    2    0  503  0.87864599032E+01 -0.22392975409E+02  0.12497856629E+02  0.27107999661E+02  0.00000000000E+00 0. -1.
</event>
<event>
 4    1  0.1780267E+004  0.2859604E+02  0.7546771E-02  0.1432202E+00
         21   -1    0    0  503  502  0.00000000000E+00  0.00000000000E+00  0.20905882006E+03  0.20905882006E+03  0.00000000000E+00 0.  1.
         21   -1    0    0  501  503 -0.00000000000E+00 -0.00000000000E+00 -0.40504759403E+01  0.40504759403E+01  0.00000000000E+00 0. -1.
          2    1    1    2  501    0 -0.28307817477E+02 -0.40498023879E+01  0.82766757446E+02  0.87567514341E+02  0.00000000000E+00 0. -1.
         -2    1    1    2    0  502  0.28307817477E+02  0.40498023879E+01  0.12224158667E+03  0.12554178166E+03  0.00000000000E+00 0.  1.
</event>
<event>
 4    1  0.1780267E+004  0.2029123E+02  0.7546771E-02  0.1529629E+00
         21   -1    0    0  503  502  0.00000000000E+00  0.00000000000E+00  0.24967286081E+03  0.24967286081E+03  0.00000000000E+00 0. -1.
         21   -1    0    0  501  503 -0.00000000000E+00 -0.00000000000E+00 -0.16764731726E+01  0.16764731726E+01  0.00000000000E+00 0.  1.
          2    1    1    2  501    0  0.11041481007E+00 -0.20290933675E+02  0.10793786675E+03  0.10982858125E+03  0.00000000000E+00 0.  1.
         -2    1    1    2    0  502 -0.11041481007E+00  0.20290933675E+02  0.14005852089E+03  0.14152075273E+03  0.00000000000E+00 0. -1.
</event>
<event>
 4    1  0.1780267E+004  0.3968686E+02  0.7546771E-02  0.1350331E+00
         21   -1    0    0  501  502  0.00000000000E+00  0.00000000000E+00  0.66906235732E+01  0.66906235732E+01  0.00000000000E+00 0. -1.
         21   -1    0    0  502  503 -0.00000000000E+00 -0.00000000000E+00 -0.23606531876E+03  0.23606531876E+03  0.00000000000E+00 0.  1.
          2    1    1    2  501    0 -0.18759712695E+02 -0.34973132921E+02 -0.10829742477E+03  0.11534027510E+03  0.00000000000E+00 0.  1.
         -2    1    1    2    0  503  0.18759712695E+02  0.34973132921E+02 -0.12107727041E+03  0.12741566723E+03  0.00000000000E+00 0. -1.
</event>
<event>
 4    1  0.1780267E+004  0.2032626E+02  0.7546771E-02  0.1529105E+00
         21   -1    0    0  503  502  0.00000000000E+00  0.00000000000E+00  0.54662590791E+03  0.54662590791E+03  0.00000000000E+00 0. -1.
         21   -1    0    0  501  503 -0.00000000000E+00 -0.00000000000E+00 -0.10443038692E+01  0.10443038692E+01  0.00000000000E+00 0.  1.
          2    1    1    2  501    0 -0.73189580219E+01  0.18962847128E+02  0.12886843593E+03  0.13046160545E+03  0.00000000000E+00 0.  1.
         -2    1    1    2    0  502  0.73189580219E+01 -0.18962847128E+02  0.41671316811E+03  0.41720860633E+03  0.00000000000E+00 0. -1.
</event>
<event>
 4    1  0.1780267E+004  0.4829687E+02  0.7546771E-02  0.1305730E+00
         21   -1    0    0  501  502  0.00000000000E+00  0.00000000000E+00  0.37319822280E+02  0.37319822280E+02  0.00000000000E+00 0. -1.
         21   -1    0    0  502  503 -0.00000000000E+00 -0.00000000000E+00 -0.14403576834E+03  0.14403576834E+03  0.00000000000E+00 0.  1.
          2    1    1    2  501    0  0.48172345047E+02 -0.34658928752E+01  0.14865345587E+02  0.50532818447E+02  0.00000000000E+00 0. -1.
         -2    1    1    2    0  503 -0.48172345047E+02  0.34658928752E+01 -0.12158129164E+03  0.13082277217E+03  0.00000000000E+00 0.  1.
</event>
<event>
 4    1  0.1780267E+004  0.2037822E+02  0.7546771E-02  0.1528330E+00
         21   -1    0    0  503  502  0.00000000000E+00  0.00000000000E+00  0.47272596304E+00  0.47272596304E+00  0.00000000000E+00 0.  1.
         21   -1    0    0  501  503 -0.00000000000E+00 -0.00000000000E+00 -0.91788248040E+03  0.91788248040E+03  0.00000000000E+00 0. -1.
          2    1    1    2  501    0 -0.67476761876E+01 -0.19228639615E+02 -0.55386369542E+03  0.55423845484E+03  0.00000000000E+00 0. -1.
         -2    1    1    2    0  502  0.67476761876E+01  0.19228639615E+02 -0.36354605902E+03  0.36411675153E+03  0.00000000000E+00 0.  1.
</event>
<event>
 4    1  0.1780267E+004  0.8311100E+02  0.7546771E-02  0.1196804E+00
         21   -1    0    0  501  502  0.00000000000E+00  0.00000000000E+00  0.21466735850E+04  0.21466735850E+04  0.00000000000E+00 0.  1.
         21   -1    0    0  502  503 -0.00000000000E+00 -0.00000000000E+00 -0.67005851769E+01  0.67005851769E+01  0.00000000000E+00 0. -1.
          2    1    1    2  501    0  0.83040895452E+02 -0.34129461132E+01  0.18462339587E+04  0.18481036954E+04  0.00000000000E+00 0.  1.
         -2    1    1    2    0  503 -0.83040895452E+02  0.34129461132E+01  0.29373904109E+03  0.30527047479E+03  0.00000000000E+00 0. -1.
</event>
<event>
 4    1  0.1780267E+004  0.2666999E+02  0.7546771E-02  0.1450952E+00
         21   -1    0    0  501  502  0.00000000000E+00  0.00000000000E+00  0.51846845977E+01  0.51846845977E+01  0.00000000000E+00 0.  1.
         21   -1    0    0  502  503 -0.00000000000E+00 -0.00000000000E+00 -0.40629091288E+03  0.40629091288E+03  0.00000000000E+00 0. -1.
          2    1    1    2  501    0 -0.23189363486E+02 -0.13173530816E+02 -0.33115560987E+02  0.42519746854E+02  0.00000000000E+00 0.  1.
         -2    1    1    2    0  503  0.23189363486E+02  0.13173530816E+02 -0.36799066729E+03  0.36895585062E+03  0.00000000000E+00 0. -1.
</event>
<event>
 4    1  0.1780267E+004  0.2543049E+02  0.7546771E-02  0.1464045E+00
         21   -1    0    0  503  502  0.00000000000E+00  0.00000000000E+00  0.21043255328E+02  0.21043255328E+02  0.00000000000E+00 0. -1.
         21   -1    0    0  501  503 -0.00000000000E+00 -0.00000000000E+00 -0.90107335077E+02  0.90107335077E+02  0.00000000000E+00 0.  1.
          2    1    1    2  501    0 -0.20036354292E+02 -0.15660590203E+02 -0.79645205955E+02  0.83606628986E+02  0.00000000000E+00 0.  1.
         -2    1    1    2    0  502  0.20036354292E+02  0.15660590203E+02  0.10581126205E+02  0.27543961418E+02  0.00000000000E+00 0. -1.
</event>
<event>
 4    1  0.1780267E+004  0.2308252E+02  0.7546771E-02  0.1491465E+00
         21   -1    0    0  503  502  0.00000000000E+00  0.00000000000E+00  0.67585541275E+01  0.67585541275E+01  0.00000000000E+00 0.  1.
         21   -1    0    0  501  503 -0.00000000000E+00 -0.00000000000E+00 -0.88742561671E+02  0.88742561671E+02  0.00000000000E+00 0. -1.
          2    1    1    2  501    0 -0.21755850528E+02  0.77126924618E+01 -0.56947916984E+02  0.61448091150E+02  0.00000000000E+00 0. -1.
         -2    1    1    2    0  502  0.21755850528E+02 -0.77126924618E+01 -0.25036090559E+02  0.34053024648E+02  0.00000000000E+00 0.  1.
</event>
<event>
 4    1  0.1780267E+004  0.2683882E+02  0.7546771E-02  0.1449234E+00
         21   -1    0    0  503  502  0.00000000000E+00  0.00000000000E+00  0.43043845561E+03  0.43043845561E+03  0.00000000000E+00 0.  1.
         21   -1    0    0  501  503 -0.00000000000E+00 -0.00000000000E+00 -0.44854198975E+01  0.44854198975E+01  0.00000000000E+00 0. -1.
          2    1    1    2  501    0 -0.17810631726E+02 -0.20077435377E+02  0.40795140752E+02  0.48832013299E+02  0.00000000000E+00 0. -1.
         -2    1    1    2    0  502  0.17810631726E+02  0.20077435377E+02  0.38515789496E+03  0.38609186221E+03  0.00000000000E+00 0.  1.
</event>
<event>
 4    1  0.1780267E+004  0.3144045E+02  0.7546771E-02  0.1407479E+00
         21   -1    0    0  503  502  0.00000000000E+00  0.00000000000E+00  0.57965818943E+02  0.57965818943E+02  0.00000000000E+00 0.  1.
         21   -1    0    0  501  503 -0.00000000000E+00 -0.00000000000E+00 -0.19039096181E+02  0.19039096181E+02  0.00000000000E+00 0. -1.
          2    1    1    2  501    0  0.31369250202E+02  0.21147283314E+01  0.70283837383E+01  0.32216457163E+02  0.00000000000E+00 0. -1.
         -2    1    1    2    0  502 -0.31369250202E+02 -0.21147283314E+01  0.31898339023E+02  0.44788457962E+02  0.00000000000E+00 0.  1.
</event>
<event>
 4    1  0.1780267E+004  0.2014192E+02  0.7546771E-02  0.1531877E+00
         21   -1    0    0  501  502  0.00000000000E+00  0.00000000000E+00  0.52988992691E+02  0.52988992691E+02  0.00000000000E+00 0. -1.
         21   -1    0    0  502  503 -0.00000000000E+00 -0.00000000000E+00 -0.81479513438E+01  0.81479513438E+01  0.00000000000E+00 0.  1.
          2    1    1    2  501    0  0.13527348741E+02 -0.14923396795E+02  0.29929839498E+02  0.36076200302E+02  0.00000000000E+00 0.  1.
         -2    1    1    2    0  503 -0.13527348741E+02  0.14923396795E+02  0.14911201848E+02  0.25060743732E+02  0.00000000000E+00 0. -1.
</event>
<event>
 4    1  0.1780267E+004  0.2154495E+02  0.7546771E-02  0.1511625E+00
         21   -1    0    0  503  502  0.00000000000E+00  0.00000000000E+00  0.49799840412E+02  0.49799840412E+02  0.00000000000E+00 0.  1.
         21   -1    0    0  501  503 -0.00000000000E+00 -0.00000000000E+00 -0.98502862224E+01  0.98502862224E+01  0.00000000000E+00 0. -1.
          2    1    1    2  501    0 -0.19225841800E+02 -0.97237866537E+01  0.13061301775E+02  0.25194892813E+02  0.00000000000E+00 0.  1.
         -2    1    1    2    0  502  0.19225841800E+02  0.97237866537E+01  0.26888252414E+02  0.34455233821E+02  0.00000000000E+00 0. -1.
</event>
<event>
 4    1  0.1780267E+004  0.3433656E+02  0.7546771E-02  0.1385288E+00
         21   -1    0    0  501  502  0.00000000000E+00  0.00000000000E+00  0.19549894057E+03  0.19549894057E+03  0.00000000000E+00 0. -1.
         21   -1    0    0  502  503 -0.00000000000E+00 -0.00000000000E+00 -0.69503387841E+01  0.69503387841E+01  0.00000000000E+00 0.  1.
          2    1    1    2  501    0  0.16772833515E+02 -0.29961159840E+02  0.57453980338E+02  0.66932495096E+02  0.00000000000E+00 0. -1.
         -2    1    1    2    0  503 -0.16772833515E+02  0.29961159840E+02  0.13109462145E+03  0.13551678426E+03  0.00000000000E+00 0.  1.
</event>
<event>
 4    1  0.1780267E+004  0.2078897E+02  0.7546771E-02  0.1522299E+00
         21   -1    0    0  503  502  0.00000000000E+00  0.00000000000E+00  0.40243172531E+01  0.40243172531E+01  0.00000000000E+00 0.  1.
         21   -1    0    0  501  503 -0.00000000000E+00 -0.00000000000E+00 -0.17342943739E+03  0.17342943739E+03  0.00000000000E+00 0. -1.
          2    1    1    2  501    0  0.56721083255E+01 -0.20000207022E+02 -0.13945299526E+03  0.14099403882E+03  0.00000000000E+00 0. -1.
         -2    1    1    2    0  502 -0.56721083255E+01  0.20000207022E+02 -0.29952124875E+02  0.36459715829E+02  0.00000000000E+00 0.  1.
</event>
<event>
 4    1  0.1780267E+004  0.2091545E+02  0.7546771E-02  0.1520475E+00
         21   -1    0    0  503  502  0.00000000000E+00  0.00000000000E+00  0.54911772600E+01  0.54911772600E+01  0.00000000000E+00 0. -1.
         21   -1    0    0  501  503 -0.00000000000E+00 -0.00000000000E+00 -0.14260899816E+03  0.14260899816E+03  0.00000000000E+00 0.  1.
          2    1    1    2  501    0 -0.16222157771E+02 -0.13202175813E+02 -0.11775476557E+03  0.11959782884E+03  0.00000000000E+00 0. -1.
         -2    1    1    2    0  502  0.16222157771E+02  0.13202175813E+02 -0.19363055338E+02  0.28502346587E+02  0.00000000000E+00 0.  1.
</event>
<event>
 4    1  0.1780267E+004  0.2432356E+02  0.7546771E-02  0.1476515E+00
         21   -1    0    0  503  502  0.00000000000E+00  0.00000000000E+00  0.30915622417E+01  0.30915622417E+01  0.00000000000E+00 0. -1.
         21   -1    0    0  501  503 -0.00000000000E+00 -0.00000000000E+00 -0.27134223922E+03  0.27134223922E+03  0.00000000000E+00 0.  1.
          2    1    1    2  501    0  0.23852012605E+02  0.47662255537E+01 -0.20861839076E+03  0.21003158899E+03  0.00000000000E+00 0.  1.
         -2    1    1    2    0  502 -0.23852012605E+02 -0.47662255537E+01 -0.59632286219E+02  0.64402212470E+02  0.00000000000E+00 0. -1.
</event>
<event>
 4    1  0.1780267E+004  0.2125640E+02  0.7546771E-02  0.1515635E+00
         21   -1    0    0  501  502  0.00000000000E+00  0.00000000000E+00  0.43339280805E+01  0.43339280805E+01  0.00000000000E+00 0.  1.
         21   -1    0    0  502  503 -0.00000000000E+00 -0.00000000000E+00 -0.12178671703E+03  0.12178671703E+03  0.00000000000E+00 0. -1.
          2    1    1    2  501    0  0.16383117555E+02  0.13543555057E+02 -0.34800603620E+02  0.40778872431E+02  0.00000000000E+00 0. -1.
         -2    1    1    2    0  503 -0.16383117555E+02 -0.13543555057E+02 -0.82652185326E+02  0.85341772676E+02  0.00000000000E+00 0.  1.
</event>
<event>
 4    1  0.1780267E+004  0.3097996E+02  0.7546771E-02  0.1411267E+00
         21   -1    0    0  503  502  0.00000000000E+00  0.00000000000E+00  0.65318982806E+01  0.65318982806E+01  0.00000000000E+00 0.  1.
         21   -1    0    0  501  503 -0.00000000000E+00 -0.00000000000E+00 -0.18807800279E+03  0.18807800279E+03  0.00000000000E+00 0. -1.
          2    1    1    2  501    0  0.30796070612E+02 -0.33704105110E+01 -0.13628437465E+03  0.13976118347E+03  0.00000000000E+00 0.  1.
         -2    1    1    2    0  502 -0.30796070612E+02  0.33704105110E+01 -0.45261729857E+02  0.54848717595E+02  0.00000000000E+00 0. -1.
</event>
<event>
 4    1  0.1780267E+004  0.2065944E+02  0.7546771E-02  0.1524183E+00
         21   -1    0    0  503  502  0.00000000000E+00  0.00000000000E+00  0.19461416575E+03  0.19461416575E+03  0.00000000000E+00 0.  1.
         21   -1    0    0  501  503 -0.00000000000E+00 -0.00000000000E+00 -0.22095433594E+01  0.22095433594E+01  0.00000000000E+00 0. -1.
          2    1    1    2  501    0 -0.13090379349E+02 -0.15982943437E+02  0.87718182878E+02  0.90118211921E+02  0.00000000000E+00 0.  1.
         -2    1    1    2    0  502  0.13090379349E+02  0.15982943437E+02  0.10468643951E+03  0.10670549719E+03  0.00000000000E+00 0. -1.
</event>
<event>
 4    1  0.1780267E+004  0.2247495E+02  0.7546771E-02  0.1499199E+00
         21   -1    0    0  503  502  0.00000000000E+00  0.00000000000E+00  0.33195195993E+03  0.33195195993E+03  0.00000000000E+00 0. -1.
         21   -1    0    0  501  503 -0.00000000000E+00 -0.00000000000E+00 -0.16598765569E+01  0.16598765569E+01  0.00000000000E+00 0.  1.
          2    1    1    2  501    0  0.17853788091E+02  0.13651579786E+02  0.11701467175E+03  0.11915350093E+03  0.00000000000E+00 0.  1.
         -2    1    1    2    0  502 -0.17853788091E+02 -0.13651579786E+02  0.21327741163E+03  0.21445833556E+03  0.00000000000E+00 0. -1.
</event>
<event>
 4    1  0.1780267E+004  0.2708607E+02  0.7546771E-02  0.1446745E+00
         21   -1    0    0  503  502  0.00000000000E+00  0.00000000000E+00  0.51540443531E+02  0.51540443531E+02  0.00000000000E+00 0.  1.
         21   -1    0    0  501  503 -0.00000000000E+00 -0.00000000000E+00 -0.14384210897E+02  0.14384210897E+02  0.00000000000E+00 0. -1.
          2    1    1    2  501    0 -0.24076410603E+02  0.12408938354E+02  0.21940298072E+02  0.34857308819E+02  0.00000000000E+00 0.  1.
         -2    1    1    2    0  502  0.24076410603E+02 -0.12408938354E+02  0.15215934562E+02  0.31067345609E+02  0.00000000000E+00 0. -1.
</event>
<event>
 4    1  0.1780267E+004  0.2041114E+02  0.7546771E-02  0.1527841E+00
         21   -1    0    0  503  502  0.00000000000E+00  0.00000000000E+00  0.62679603326E+00  0.62679603326E+00  0.00000000000E+00 0.  1.
         21   -1    0    0  501  503 -0.00000000000E+00 -0.00000000000E+00 -0.66477991934E+03  0.66477991934E+03  0.00000000000E+00 0. -1.
          2    1    1    2  501    0 -0.11753606535E+02  0.16687342111E+02 -0.32786519090E+03  0.32849992094E+03  0.00000000000E+00 0. -1.
         -2    1    1    2    0  502  0.11753606535E+02 -0.16687342111E+02 -0.33628793240E+03  0.33690679443E+03  0.00000000000E+00 0.  1.
</event>
<event>
 4    1  0.1780267E+004  0.3934621E+02  0.7546771E-02  0.1352360E+00
         21   -1    0    0  501  502  0.00000000000E+00  0.00000000000E+00  0.94892363747E+00  0.94892363747E+00  0.00000000000E+00 0. -1.
         21   -1    0    0  502  503 -0.00000000000E+00 -0.00000000000E+00 -0.16511425320E+04  0.16511425320E+04  0.00000000000E+00 0.  1.
          2    1    1    2  501    0  0.37470952811E+02 -0.12002150015E+02 -0.91530255325E+03  0.91614785264E+03  0.00000000000E+00 0.  1.
         -2    1    1    2    0  503 -0.37470952811E+02  0.12002150015E+02 -0.73489105510E+03  0.73594360299E+03  0.00000000000E+00 0. -1.
</event>
<event>
 4    1  0.1780267E+004  0.4639002E+02  0.7546771E-02  0.1314632E+00
         21   -1    0    0  501  502  0.00000000000E+00  0.00000000000E+00  0.45467454942E+02  0.45467454942E+02  0.00000000000E+00 0.  1.
         21   -1    0    0  502  503 -0.00000000000E+00 -0.00000000000E+00 -0.47346733022E+02  0.47346733022E+02  0.00000000000E+00 0. -1.
          2    1    1    2  501    0 -0.29782430267E+02 -0.35567410181E+02 -0.10183329541E+00  0.46390130304E+02  0.00000000000E+00 0. -1.
         -2    1    1    2    0  503  0.29782430267E+02  0.35567410181E+02 -0.17774447854E+01  0.46424057660E+02  0.00000000000E+00 0.  1.
</event>
<event>
 4    1  0.1780267E+004  0.3043229E+02  0.7546771E-02  0.1415876E+00
         21   -1    0    0  501  502  0.00000000000E+00  0.00000000000E+00  0.74811327566E+01  0.74811327566E+01  0.00000000000E+00 0.  1.
         21   -1    0    0  502  503 -0.00000000000E+00 -0.00000000000E+00 -0.34344452856E+03  0.34344452856E+03  0.00000000000E+00 0. -1.
          2    1    1    2  501    0  0.49455732177E+00 -0.30428270950E+02 -0.27660815312E+02  0.41124748797E+02  0.00000000000E+00 0.  1.
         -2    1    1    2    0  503 -0.49455732177E+00  0.30428270950E+02 -0.30830258049E+03  0.30980091252E+03  0.00000000000E+00 0. -1.
</event>
<event>
 4    1  0.1780267E+004  0.6461024E+02  0.7546771E-02  0.1244925E+00
         21   -1    0    0  501  502  0.00000000000E+00  0.00000000000E+00  0.45545353981E+02  0.45545353981E+02  0.00000000000E+00 0.  1.
         21   -1    0    0  502  503 -0.00000000000E+00 -0.00000000000E+00 -0.10228039205E+03  0.10228039205E+03  0.00000000000E+00 0. -1.
          2    1    1    2  501    0 -0.58455889924E+02 -0.27520763834E+02 -0.45451162177E+01  0.64769912693E+02  0.00000000000E+00 0.  1.
         -2    1    1    2    0  503  0.58455889924E+02  0.27520763834E+02 -0.52189921855E+02  0.83055833341E+02  0.00000000000E+00 0. -1.
</event>
<event>
 4    1  0.1780267E+004  0.2136412E+02  0.7546771E-02  0.1514129E+00
         21   -1    0    0  503  502  0.00000000000E+00  0.00000000000E+00  0.35025975059E+02  0.35025975059E+02  0.00000000000E+00 0.  1.
         21   -1    0    0  501  503 -0.00000000000E+00 -0.00000000000E+00 -0.13414755777E+02  0.13414755777E+02  0.00000000000E+00 0. -1.
          2    1    1    2  501    0  0.13245129162E+02 -0.16762815570E+02  0.67093710716E+01  0.22392880399E+02  0.00000000000E+00 0.  1.
         -2    1    1    2    0  502 -0.13245129162E+02  0.16762815570E+02  0.14901848210E+02  0.26047850438E+02  0.00000000000E+00 0. -1.
</event>
<event>
 4    1  0.1780267E+004  0.2978828E+02  0.7546771E-02  0.1421445E+00
         21   -1    0    0  501  502  0.00000000000E+00  0.00000000000E+00  0.11810788490E+03  0.11810788490E+03  0.00000000000E+00 0. -1.
         21   -1    0    0  502  503 -0.00000000000E+00 -0.00000000000E+00 -0.99021341942E+01  0.99021341942E+01  0.00000000000E+00 0.  1.
          2    1    1    2  501    0  0.29634966243E+02  0.30183925448E+01  0.22663648870E+02  0.37429706089E+02  0.00000000000E+00 0.  1.
         -2    1    1    2    0  503 -0.29634966243E+02 -0.30183925448E+01  0.85542101840E+02  0.90580313010E+02  0.00000000000E+00 0. -1.
</event>
<event>
 4    1  0.1780267E+004  0.3470697E+02  0.7546771E-02  0.1382635E+00
         21   -1    0    0  503  502  0.00000000000E+00  0.00000000000E+00  0.27922120481E+03  0.27922120481E+03  0.00000000000E+00 0.  1.
         21   -1    0    0  501  503 -0.00000000000E+00 -0.00000000000E+00 -0.46313739725E+01  0.46313739725E+01  0.00000000000E+00 0. -1.
          2    1    1    2  501    0  0.26001054759E+02  0.22989540733E+02  0.10014478338E+03  0.10598844970E+03  0.00000000000E+00 0. -1.
         -2    1    1    2    0  502 -0.26001054759E+02 -0.22989540733E+02  0.17444504746E+03  0.17786412908E+03  0.00000000000E+00 0.  1.
</event>
<event>
 4    1  0.1780267E+004  0.2054886E+02  0.7546771E-02  0.1525805E+00
         21   -1    0    0  501  502  0.00000000000E+00  0.00000000000E+00  0.10611456631E+03  0.10611456631E+03  0.00000000000E+00 0. -1.
         21   -1    0    0  502  503 -0.00000000000E+00 -0.00000000000E+00 -0.25355797607E+02  0.25355797607E+02  0.00000000000E+00 0.  1.
          2    1    1    2  501    0 -0.19202039140E+02 -0.73169077703E+01  0.10073644815E+03  0.10281093051E+03  0.00000000000E+00 0. -1.
         -2    1    1    2    0  503  0.19202039140E+02  0.73169077703E+01 -0.19977679454E+02  0.28659433401E+02  0.00000000000E+00 0.  1.
</event>
<event>
 4    1  0.1780267E+004  0.2670756E+02  0.7546771E-02  0.1450568E+00
         21   -1    0    0  501  502  0.00000000000E+00  0.00000000000E+00  0.59170438541E+02  0.59170438541E+02  0.00000000000E+00 0. -1.
         21   -1    0    0  502  503 -0.00000000000E+00 -0.00000000000E+00 -0.29371047281E+02  0.29371047281E+02  0.00000000000E+00 0.  1.
          2    1    1    2  501    0  0.17801227699E+02  0.19910049676E+02  0.48892165029E+02  0.55711198039E+02  0.00000000000E+00 0. -1.
         -2    1    1    2    0  503 -0.17801227699E+02 -0.19910049676E+02 -0.19092773769E+02  0.32830287783E+02  0.00000000000E+00 0.  1.
</event>
<event>
 4    1  0.1780267E+004  0.2372789E+02  0.7546771E-02  0.1483555E+00
         21   -1    0    0  501  502  0.00000000000E+00  0.00000000000E+00  0.13802234468E+03  0.13802234468E+03  0.00000000000E+00 0. -1.
         21   -1    0    0  502  503 -0.00000000000E+00 -0.00000000000E+00 -0.42439032701E+01  0.42439032701E+01  0.00000000000E+00 0.  1.
          2    1    1    2  501    0  0.21484078074E+02 -0.10072096915E+02  0.80904981366E+02  0.84312684436E+02  0.00000000000E+00 0. -1.
         -2    1    1    2    0  503 -0.21484078074E+02  0.10072096915E+02  0.52873460042E+02  0.57953563512E+02  0.00000000000E+00 0.  1.
</event>
<event>
 4    1  0.1780267E+004  0.2175552E+02  0.7546771E-02  0.1508746E+00
         21   -1    0    0  501  502  0.00000000000E+00  0.00000000000E+00  0.96944504215E+02  0.96944504215E+02  0.00000000000E+00 0.  1.
         21   -1    0    0  502  503 -0.00000000000E+00 -0.00000000000E+00 -0.97245069742E+01  0.97245069742E+01  0.00000000000E+00 0. -1.
          2    1    1    2  501    0 -0.87502469545E+01  0.19918223767E+02  0.81245753885E+02  0.84108114853E+02  0.00000000000E+00 0.  1.
         -2    1    1    2    0  503  0.87502469545E+01 -0.19918223767E+02  0.59742433557E+01  0.22560896336E+02  0.00000000000E+00 0. -1.
</event>
<event>
 4    1  0.1780267E+004  0.3247592E+02  0.7546771E-02  0.1399233E+00
         21   -1    0    0  503  502  0.00000000000E+00  0.00000000000E+00  0.25383665541E+02  0.25383665541E+02  0.00000000000E+00 0.  1.
         21   -1    0    0  501  503 -0.00000000000E+00 -0.00000000000E+00 -0.70020499508E+02  0.70020499508E+02  0.00000000000E+00 0. -1.
          2    1    1    2  501    0 -0.29500157924E+02  0.13580354979E+02 -0.52735955497E+02  0.61933564092E+02  0.00000000000E+00 0. -1.
         -2    1    1    2    0  502  0.29500157924E+02 -0.13580354979E+02  0.80991215301E+01  0.33470600958E+02  0.00000000000E+00 0.  1.
</event>
<event>
 4    1  0.1780267E+004  0.2294585E+02  0.7546771E-02  0.1493179E+00
         21   -1    0    0  501  502  0.00000000000E+00  0.00000000000E+00  0.89781630798E+03  0.89781630798E+03  0.00000000000E+00 0.  1.
         21   -1    0    0  502  503 -0.00000000000E+00 -0.00000000000E+00 -0.68790607522E+00  0.68790607522E+00  0.00000000000E+00 0. -1.
          2    1    1    2  501    0  0.78223447392E+00 -0.22932517530E+02  0.62110566418E+03  0.62152937044E+03  0.00000000000E+00 0.  1.
         -2    1    1    2    0  503 -0.78223447392E+00  0.22932517530E+02  0.27602273772E+03  0.27697484361E+03  0.00000000000E+00 0. -1.
</event>
<event>
 4    1  0.1780267E+004  0.3791359E+02  0.7546771E-02  0.1361166E+00
         21   -1    0    0  501  502  0.00000000000E+00  0.00000000000E+00  0.10465910232E+03  0.10465910232E+03  0.00000000000E+00 0. -1.
         21   -1    0    0  502  503 -0.00000000000E+00 -0.00000000000E+00 -0.34483911072E+02  0.34483911072E+02  0.00000000000E+00 0.  1.
          2    1    1    2  501    0 -0.30857622092E+02  0.22028326048E+02  0.89054323069E+02  0.96789009949E+02  0.00000000000E+00 0. -1.
         -2    1    1    2    0  503  0.30857622092E+02 -0.22028326048E+02 -0.18879131818E+02  0.42354003445E+02  0.00000000000E+00 0.  1.
</event>
<event>
 4    1  0.1780267E+004  0.3004082E+02  0.7546771E-02  0.1419242E+00
         21   -1    0    0  501  502  0.00000000000E+00  0.00000000000E+00  0.46162364911E+03  0.46162364911E+03  0.00000000000E+00 0. -1.
         21   -1    0    0  502  503 -0.00000000000E+00 -0.00000000000E+00 -0.40039355957E+01  0.40039355957E+01  0.00000000000E+00 0.  1.
          2    1    1    2  501    0 -0.23912474489E+02  0.18183637417E+02  0.39535601803E+03  0.39649568989E+03  0.00000000000E+00 0. -1.
         -2    1    1    2    0  503  0.23912474489E+02 -0.18183637417E+02  0.62263695483E+02  0.69131894818E+02  0.00000000000E+00 0.  1.
</event>
<event>
 4    1  0.1780267E+004  0.2245496E+02  0.7546771E-02  0.1499458E+00
         21   -1    0    0  503  502  0.00000000000E+00  0.00000000000E+00  0.86212294155E+02  0.86212294155E+02  0.00000000000E+00 0.  1.
         21   -1    0    0  501  503 -0.00000000000E+00 -0.00000000000E+00 -0.58777710257E+01  0.58777710257E+01  0.00000000000E+00 0. -1.
          2    1    1    2  501    0 -0.20703380447E+02  0.86945476772E+01  0.36925989380E+02  0.43217517432E+02  0.00000000000E+00 0. -1.
         -2    1    1    2    0  502  0.20703380447E+02 -0.86945476772E+01  0.43408533749E+02  0.48872547749E+02  0.00000000000E+00 0.  1.
</event>
<event>
 4    1  0.1780267E+004  0.2051191E+02  0.7546771E-02  0.1526349E+00
         21   -1    0    0  501  502  0.00000000000E+00  0.00000000000E+00  0.76649825833E+02  0.76649825833E+02  0.00000000000E+00 0.  1.
         21   -1    0    0  502  503 -0.00000000000E+00 -0.00000000000E+00 -0.99319172603E+01  0.99319172603E+01  0.00000000000E+00 0. -1.
          2    1    1    2  501    0 -0.19506809793E+02 -0.63421601574E+01  0.62312980730E+02  0.65602181300E+02  0.00000000000E+00 0. -1.
         -2    1    1    2    0  503  0.19506809793E+02  0.63421601574E+01  0.44049278426E+01  0.20979561794E+02  0.00000000000E+00 0.  1.
</event>
<event>
 4    1  0.1780267E+004  0.2135943E+02  0.7546771E-02  0.1514194E+00
         21   -1    0    0  501  502  0.00000000000E+00  0.00000000000E+00  0.50050501802E+03  0.50050501802E+03  0.00000000000E+00 0. -1.
         21   -1    0    0  502  503 -0.00000000000E+00 -0.00000000000E+00 -0.12038879786E+01  0.12038879786E+01  0.00000000000E+00 0.  1.
          2    1    1    2  501    0 -0.81765833705E+01  0.19732432527E+02  0.12603130283E+03  0.12782845811E+03  0.00000000000E+00 0.  1.
         -2    1    1    2    0  503  0.81765833705E+01 -0.19732432527E+02  0.37326982720E+03  0.37388044788E+03  0.00000000000E+00 0. -1.
</event>
<event>
 4    1  0.1780267E+004  0.3448598E+02  0.7546771E-02  0.1384213E+00
         21   -1    0    0  503  502  0.00000000000E+00  0.00000000000E+00  0.26720321201E+01  0.26720321201E+01  0.00000000000E+00 0.  1.
         21   -1    0    0  501  503 -0.00000000000E+00 -0.00000000000E+00 -0.56750759869E+03  0.56750759869E+03  0.00000000000E+00 0. -1.
          2    1    1    2  501    0 -0.25757810983E+02  0.22930716816E+02 -0.41482933447E+03  0.41626032640E+03  0.00000000000E+00 0. -1.
         -2    1    1    2    0  502  0.25757810983E+02 -0.22930716816E+02 -0.15000623210E+03  0.15391930441E+03  0.00000000000E+00 0.  1.
</event>
<event>
 4    1  0.1780267E+004  0.2558182E+02  0.7546771E-02  0.1462399E+00
         21   -1    0    0  501  502  0.00000000000E+00  0.00000000000E+00  0.12584922076E+01  0.12584922076E+01  0.00000000000E+00 0. -1.
         21   -1    0    0  502  503 -0.00000000000E+00 -0.00000000000E+00 -0.97361711063E+03  0.97361711063E+03  0.00000000000E+00 0.  1.
          2    1    1    2  501    0  0.15650025067E+02  0.20236254387E+02 -0.15347015403E+03  0.15558765200E+03  0.00000000000E+00 0. -1.
         -2    1    1    2    0  503 -0.15650025067E+02 -0.20236254387E+02 -0.81888846440E+03  0.81928795085E+03  0.00000000000E+00 0.  1.
</event>
<event>
 4    1  0.1780267E+004  0.2083312E+02  0.7546771E-02  0.1521661E+00
         21   -1    0    0  501  502  0.00000000000E+00  0.00000000000E+00  0.59478450007E+02  0.59478450007E+02  0.00000000000E+00 0.  1.
         21   -1    0    0  502  503 -0.00000000000E+00 -0.00000000000E+00 -0.92377667519E+01  0.92377667519E+01  0.00000000000E+00 0. -1.
          2    1    1    2  501    0 -0.16154655846E+02  0.13154690720E+02  0.40868286046E+02  0.45871947830E+02  0.00000000000E+00 0.  1.
         -2    1    1    2    0  503  0.16154655846E+02 -0.13154690720E+02  0.93723972092E+01  0.22844268928E+02  0.00000000000E+00 0. -1.
</event>
<event>
 4    1  0.1780267E+004  0.2641471E+02  0.7546771E-02  0.1453578E+00
         21   -1    0    0  503  502  0.00000000000E+00  0.00000000000E+00  0.77902684800E+03  0.77902684800E+03  0.00000000000E+00 0. -1.
         21   -1    0    0  501  503 -0.00000000000E+00 -0.00000000000E+00 -0.90997817492E+00  0.90997817492E+00  0.00000000000E+00 0.  1.
          2    1    1    2  501    0  0.21595247480E+02 -0.15211257444E+02  0.43798862280E+03  0.43878442403E+03  0.00000000000E+00 0. -1.
         -2    1    1    2    0  502 -0.21595247480E+02  0.15211257444E+02  0.34012824702E+03  0.34115240214E+03  0.00000000000E+00 0.  1.
</event>
<event>
 4    1  0.1780267E+004  0.3213954E+02  0.7546771E-02  0.1401871E+00
         21   -1    0    0  501  502  0.00000000000E+00  0.00000000000E+00  0.33795445955E+02  0.33795445955E+02  0.00000000000E+00 0. -1.
         21   -1    0    0  502  503 -0.00000000000E+00 -0.00000000000E+00 -0.36180906098E+02  0.36180906098E+02  0.00000000000E+00 0.  1.
          2    1    1    2  501    0 -0.28914847426E+02  0.14031455848E+02  0.12592063133E+02  0.34518259064E+02  0.00000000000E+00 0. -1.
         -2    1    1    2    0  503  0.28914847426E+02 -0.14031455848E+02 -0.14977523276E+02  0.35458092989E+02  0.00000000000E+00 0.  1.
</event>
<event>
 4    1  0.1780267E+004  0.2437522E+02  0.7546771E-02  0.1475916E+00
         21   -1    0    0  501  502  0.00000000000E+00  0.00000000000E+00  0.49527080834E+02  0.49527080834E+02  0.00000000000E+00 0. -1.
         21   -1    0    0  502  503 -0.00000000000E+00 -0.00000000000E+00 -0.12440845680E+02  0.12440845680E+02  0.00000000000E+00 0.  1.
          2    1    1    2  501    0  0.20926800294E+02  0.12498805801E+02  0.24398799973E+02  0.34488440921E+02  0.00000000000E+00 0. -1.
         -2    1    1    2    0  503 -0.20926800294E+02 -0.12498805801E+02  0.12687435180E+02  0.27479485593E+02  0.00000000000E+00 0.  1.
</event>
<event>
 4    1  0.1780267E+004  0.2161813E+02  0.7546771E-02  0.1510620E+00
         21   -1    0    0  501  502  0.00000000000E+00  0.00000000000E+00  0.84551817531E+03  0.84551817531E+03  0.00000000000E+00 0.  1.
         21   -1    0    0  502  503 -0.00000000000E+00 -0.00000000000E+00 -0.58603694566E+00  0.58603694566E+00  0.00000000000E+00 0. -1.
          2    1    1    2  501    0 -0.19964406450E+02  0.82925301099E+01  0.32161133153E+03  0.32233707846E+03  0.00000000000E+00 0. -1.
         -2    1    1    2    0  503  0.19964406450E+02 -0.82925301099E+01  0.52332080683E+03  0.52376713379E+03  0.00000000000E+00 0.  1.
</event>
<event>
 4    1  0.1780267E+004  0.3691646E+02  0.7546771E-02  0.1367569E+00
         21   -1    0    0  503  502  0.00000000000E+00  0.00000000000E+00  0.71702980842E+02  0.71702980842E+02  0.00000000000E+00 0.  1.
         21   -1    0    0  501  503 -0.00000000000E+00 -0.00000000000E+00 -0.23411026350E+02  0.23411026350E+02  0.00000000000E+00 0. -1.
          2    1    1    2  501    0  0.23594189296E+02  0.28392591277E+02  0.35182072863E+01  0.37083726761E+02  0.00000000000E+00 0. -1.
         -2    1    1    2    0  502 -0.23594189296E+02 -0.28392591277E+02  0.44773747206E+02  0.58030280431E+02  0.00000000000E+00 0.  1.
</event>
<event>
 4    1  0.1780267E+004  0.2268321E+02  0.7546771E-02  0.1496515E+00
         21   -1    0    0  501  502  0.00000000000E+00  0.00000000000E+00  0.13414167938E+03  0.13414167938E+03  0.00000000000E+00 0.  1.
         21   -1    0    0  502  503 -0.00000000000E+00 -0.00000000000E+00 -0.38452416581E+01  0.38452416581E+01  0.00000000000E+00 0. -1.
          2    1    1    2  501    0 -0.21543973316E+02 -0.70982558224E+01  0.68583998203E+02  0.72237752121E+02  0.00000000000E+00 0.  1.
         -2    1    1    2    0  503  0.21543973316E+02  0.70982558224E+01  0.61712439523E+02  0.65749168921E+02  0.00000000000E+00 0. -1.
</event>
<event>
 4    1  0.1780267E+004  0.2067328E+02  0.7546771E-02  0.1523981E+00
         21   -1    0    0  501  502  0.00000000000E+00  0.00000000000E+00  0.18428101563E+03  0.18428101563E+03  0.00000000000E+00 0. -1.
         21   -1    0    0  502  503 -0.00000000000E+00 -0.00000000000E+00 -0.38428456979E+01  0.38428456979E+01  0.00000000000E+00 0.  1.
          2    1    1    2  501    0  0.16240705991E+02  0.12791551704E+02  0.14944742609E+03  0.15087053221E+03  0.00000000000E+00 0. -1.
         -2    1    1    2    0  503 -0.16240705991E+02 -0.12791551704E+02  0.30990743844E+02  0.37253329114E+02  0.00000000000E+00 0.  1.
</event>
<event>
 4    1  0.1780267E+004  0.2482112E+02  0.7546771E-02  0.1470815E+00
         21   -1    0    0  503  502  0.00000000000E+00  0.00000000000E+00  0.25599538209E+01  0.25599538209E+01  0.00000000000E+00 0. -1.
         21   -1    0    0  501  503 -0.00000000000E+00 -0.00000000000E+00 -0.55859937451E+03  0.55859937451E+03  0.00000000000E+00 0.  1.
          2    1    1    2  501    0  0.16239316552E+02  0.18771587044E+02 -0.48969765966E+03  0.49032630539E+03  0.00000000000E+00 0.  1.
         -2    1    1    2    0  502 -0.16239316552E+02 -0.18771587044E+02 -0.66341761025E+02  0.70833022935E+02  0.00000000000E+00 0. -1.
</event>
<event>
 4    1  0.1780267E+004  0.2065855E+02  0.7546771E-02  0.1524196E+00
         21   -1    0    0  501  502  0.00000000000E+00  0.00000000000E+00  0.48715023350E+03  0.48715023350E+03  0.00000000000E+00 0. -1.
         21   -1    0    0  502  503 -0.00000000000E+00 -0.00000000000E+00 -0.91656008851E+00  0.91656008851E+00  0.00000000000E+00 0.  1.
          2    1    1    2  501    0  0.16377487574E+02 -0.12591809925E+02  0.29441057931E+03  0.29513448627E+03  0.00000000000E+00 0. -1.
         -2    1    1    2    0  503 -0.16377487574E+02  0.12591809925E+02  0.19182309410E+03  0.19293230732E+03  0.00000000000E+00 0.  1.
</event>
<event>
 4    1  0.1780267E+004  0.8371249E+02  0.7546771E-02  0.1195482E+00
         21   -1    0    0  503  502  0.00000000000E+00  0.00000000000E+00  0.78642146638E+02  0.78642146638E+02  0.00000000000E+00 0.  1.
         21   -1    0    0  501  503 -0.00000000000E+00 -0.00000000000E+00 -0.26090481450E+03  0.26090481450E+03  0.00000000000E+00 0. -1.
          2    1    1    2  501    0 -0.82379831223E+02  0.14877665674E+02 -0.22889482988E+03  0.24372243367E+03  0.00000000000E+00 0.  1.
         -2    1    1    2    0  502  0.82379831223E+02 -0.14877665674E+02  0.46632162025E+02  0.95824527462E+02  0.00000000000E+00 0. -1.
</event>
<event>
 4    1  0.1780267E+004  0.2539090E+02  0.7546771E-02  0.1464478E+00
         21   -1    0    0  503  502  0.00000000000E+00  0.00000000000E+00  0.11659211580E+02  0.11659211580E+02  0.00000000000E+00 0.  1.
         21   -1    0    0  501  503 -0.00000000000E+00 -0.00000000000E+00 -0.58525468659E+02  0.58525468659E+02  0.00000000000E+00 0. -1.
          2    1    1    2  501    0  0.24234752568E+01 -0.25274976963E+02 -0.15188644390E+02  0.29587034512E+02  0.00000000000E+00 0.  1.
         -2    1    1    2    0  502 -0.24234752568E+01  0.25274976963E+02 -0.31677612689E+02  0.40597645726E+02  0.00000000000E+00 0. -1.
</event>
<event>
 4    1  0.1780267E+004  0.2413484E+02  0.7546771E-02  0.1478719E+00
         21   -1    0    0  501  502  0.00000000000E+00  0.00000000000E+00  0.15018962921E+03  0.15018962921E+03  0.00000000000E+00 0. -1.
         21   -1    0    0  502  503 -0.00000000000E+00 -0.00000000000E+00 -0.38784649622E+01  0.38784649622E+01  0.00000000000E+00 0.  1.
          2    1    1    2  501    0 -0.23631683331E+02  0.49024376380E+01  0.73544700690E+02  0.77403574539E+02  0.00000000000E+00 0. -1.
         -2    1    1    2    0  503  0.23631683331E+02 -0.49024376380E+01  0.72766463560E+02  0.76664519635E+02  0.00000000000E+00 0.  1.
</event>
<event>
 4    1  0.1780267E+004  0.2508761E+02  0.7546771E-02  0.1467826E+00
         21   -1    0    0  503  502  0.00000000000E+00  0.00000000000E+00  0.96256474346E+01  0.96256474346E+01  0.00000000000E+00 0. -1.
         21   -1    0    0  501  503 -0.00000000000E+00 -0.00000000000E+00 -0.17015693880E+03  0.17015693880E+03  0.00000000000E+00 0.  1.
          2    1    1    2  501    0 -0.23950203498E+02 -0.74683118857E+01 -0.15080184621E+03  0.15287440843E+03  0.00000000000E+00 0.  1.
         -2    1    1    2    0  502  0.23950203498E+02  0.74683118857E+01 -0.97294451513E+01  0.26908177809E+02  0.00000000000E+00 0. -1.
</event>
<event>
 4    1  0.1780267E+004  0.3376603E+02  0.7546771E-02  0.1389452E+00
         21   -1    0    0  501  502  0.00000000000E+00  0.00000000000E+00  0.32444194530E+02  0.32444194530E+02  0.00000000000E+00 0. -1.
         21   -1    0    0  502  503 -0.00000000000E+00 -0.00000000000E+00 -0.35153481991E+02  0.35153481991E+02  0.00000000000E+00 0.  1.
          2    1    1    2  501    0 -0.17767090515E+02 -0.28713676704E+02 -0.19729373433E+01  0.33823619218E+02  0.00000000000E+00 0. -1.
         -2    1    1    2    0  503  0.17767090515E+02  0.28713676704E+02 -0.73635011744E+00  0.33774057303E+02  0.00000000000E+00 0.  1.
</event>
<event>
 4    1  0.1780267E+004  0.3847940E+02  0.7546771E-02  0.1357634E+00
         21   -1    0    0  503  502  0.00000000000E+00  0.00000000000E+00  0.82523850033E+02  0.82523850033E+02  0.00000000000E+00 0.  1.
         21   -1    0    0  501  503 -0.00000000000E+00 -0.00000000000E+00 -0.30168750450E+02  0.30168750450E+02  0.00000000000E+00 0. -1.
          2    1    1    2  501    0  0.38468439348E+02 -0.91824017831E+00 -0.96929751700E+01  0.39681453584E+02  0.00000000000E+00 0. -1.
         -2    1    1    2    0  502 -0.38468439348E+02  0.91824017831E+00  0.62048074753E+02  0.73011146899E+02  0.00000000000E+00 0.  1.
</event>
<event>
 4    1  0.1780267E+004  0.2296136E+02  0.7546771E-02  0.1492984E+00
         21   -1    0    0  501  502  0.00000000000E+00  0.00000000000E+00  0.46341027335E+03  0.46341027335E+03  0.00000000000E+00 0. -1.
         21   -1    0    0  502  503 -0.00000000000E+00 -0.00000000000E+00 -0.14196601361E+01  0.14196601361E+01  0.00000000000E+00 0.  1.
          2    1    1    2  501    0  0.18248898746E+02 -0.13935632667E+02  0.33457197539E+03  0.33535895825E+03  0.00000000000E+00 0. -1.
         -2    1    1    2    0  503 -0.18248898746E+02  0.13935632667E+02  0.12741863783E+03  0.12947097524E+03  0.00000000000E+00 0.  1.
</event>
<event>
 4    1  0.1780267E+004  0.2671594E+02  0.7546771E-02  0.1450483E+00
         21   -1    0    0  503  502  0.00000000000E+00  0.00000000000E+00  0.35693644755E+03  0.35693644755E+03  0.00000000000E+00 0. -1.
         21   -1    0    0  501  503 -0.00000000000E+00 -0.00000000000E+00 -0.24639363663E+01  0.24639363663E+01  0.00000000000E+00 0.  1.
          2    1    1    2  501    0  0.19464725986E+02 -0.18299340577E+02  0.99228939233E+02  0.10276246301E+03  0.00000000000E+00 0.  1.
         -2    1    1    2    0  502 -0.19464725986E+02  0.18299340577E+02  0.25524357195E+03  0.25663792090E+03  0.00000000000E+00 0. -1.
</event>
<event>
 4    1  0.1780267E+004  0.2288557E+02  0.7546771E-02  0.1493940E+00
         21   -1    0    0  501  502  0.00000000000E+00  0.00000000000E+00  0.69356761134E+02  0.69356761134E+02  0.00000000000E+00 0.  1.
         21   -1    0    0  502  503 -0.00000000000E+00 -0.00000000000E+00 -0.11757280749E+02  0.11757280749E+02  0.00000000000E+00 0. -1.
          2    1    1    2  501    0 -0.19859277768E+02 -0.11373574417E+02  0.53056611296E+02  0.57781944505E+02  0.00000000000E+00 0.  1.
         -2    1    1    2    0  503  0.19859277768E+02  0.11373574417E+02  0.45428690890E+01  0.23332097378E+02  0.00000000000E+00 0. -1.
</event>
<event>
 4    1  0.1780267E+004  0.2843559E+02  0.7546771E-02  0.1433697E+00
         21   -1    0    0  501  502  0.00000000000E+00  0.00000000000E+00  0.10389285799E+02  0.10389285799E+02  0.00000000000E+00 0.  1.
         21   -1    0    0  502  503 -0.00000000000E+00 -0.00000000000E+00 -0.19184600685E+03  0.19184600685E+03  0.00000000000E+00 0. -1.
          2    1    1    2  501    0 -0.25873692196E+02  0.11795532854E+02 -0.12774731528E+02  0.31173326880E+02  0.00000000000E+00 0.  1.
         -2    1    1    2    0  503  0.25873692196E+02 -0.11795532854E+02 -0.16868198952E+03  0.17106196577E+03  0.00000000000E+00 0. -1.
</event>
<event>
 4    1  0.1780267E+004  0.2135409E+02  0.7546771E-02  0.1514269E+00
         21   -1    0    0  501  502  0.00000000000E+00  0.00000000000E+00  0.19005652075E+03  0.19005652075E+03  0.00000000000E+00 0. -1.
         21   -1    0    0  502  503 -0.00000000000E+00 -0.00000000000E+00 -0.24724796946E+01  0.24724796946E+01  0.00000000000E+00 0.  1.
          2    1    1    2  501    0  0.13741784844E+02 -0.16345043691E+02  0.11035662388E+03  0.11240365447E+03  0.00000000000E+00 0.  1.
         -2    1    1    2    0  503 -0.13741784844E+02  0.16345043691E+02  0.77227417167E+02  0.80125345966E+02  0.00000000000E+00 0. -1.
</event>
<event>
 4    1  0.1780267E+004  0.2814757E+02  0.7546771E-02  0.1436409E+00
         21   -1    0    0  503  502  0.00000000000E+00  0.00000000000E+00  0.25777973723E+02  0.25777973723E+02  0.00000000000E+00 0.  1.
         21   -1    0    0  501  503 -0.00000000000E+00 -0.00000000000E+00 -0.88336654741E+02  0.88336654741E+02  0.00000000000E+00 0. -1.
          2    1    1    2  501    0 -0.22232532419E+02  0.17262674980E+02 -0.77353605400E+02  0.82315646834E+02  0.00000000000E+00 0. -1.
         -2    1    1    2    0  502  0.22232532419E+02 -0.17262674980E+02  0.14794924383E+02  0.31798981630E+02  0.00000000000E+00 0.  1.
</event>
<event>
 4    1  0.1780267E+004  0.2566045E+02  0.7546771E-02  0.1461549E+00
         21   -1    0    0  501  502  0.00000000000E+00  0.00000000000E+00  0.86261344680E+02  0.86261344680E+02  0.00000000000E+00 0.  1.
         21   -1    0    0  502  503 -0.00000000000E+00 -0.00000000000E+00 -0.40192403026E+02  0.40192403026E+02  0.00000000000E+00 0. -1.
          2    1    1    2  501    0  0.16569308728E+02  0.19593797117E+02  0.79941501730E+02  0.83958933867E+02  0.00000000000E+00 0.  1.
         -2    1    1    2    0  503 -0.16569308728E+02 -0.19593797117E+02 -0.33872560076E+02  0.42494813840E+02  0.00000000000E+00 0. -1.
</event>
<event>
 4    1  0.1780267E+004  0.2178450E+02  0.7546771E-02  0.1508353E+00
         21   -1    0    0  503  502  0.00000000000E+00  0.00000000000E+00  0.10105048669E+03  0.10105048669E+03  0.00000000000E+00 0. -1.
         21   -1    0    0  501  503 -0.00000000000E+00 -0.00000000000E+00 -0.20908172863E+02  0.20908172863E+02  0.00000000000E+00 0.  1.
          2    1    1    2  501    0 -0.16863602300E+02  0.13790694359E+02 -0.13624736987E+02  0.25694314379E+02  0.00000000000E+00 0.  1.
         -2    1    1    2    0  502  0.16863602300E+02 -0.13790694359E+02  0.93767050814E+02  0.96264345174E+02  0.00000000000E+00 0. -1.
</event>
<event>
 4    1  0.1780267E+004  0.2621602E+02  0.7546771E-02  0.1455646E+00
         21   -1    0    0  503  502  0.00000000000E+00  0.00000000000E+00  0.35355192093E+02  0.35355192093E+02  0.00000000000E+00 0. -1.
         21   -1    0    0  501  503 -0.00000000000E+00 -0.00000000000E+00 -0.27261099261E+02  0.27261099261E+02  0.00000000000E+00 0.  1.
          2    1    1    2  501    0  0.20293846032E+02  0.16596365993E+02 -0.12723201979E+02  0.29140340072E+02  0.00000000000E+00 0.  1.
         -2    1    1    2    0  502 -0.20293846032E+02 -0.16596365993E+02  0.20817294811E+02  0.33475951281E+02  0.00000000000E+00 0. -1.
</event>
<event>
 4    1  0.1780267E+004  0.4587957E+02  0.7546771E-02  0.1317099E+00
         21   -1    0    0  503  502  0.00000000000E+00  0.00000000000E+00  0.57821639312E+01  0.57821639312E+01  0.00000000000E+00 0. -1.
         21   -1    0    0  501  503 -0.00000000000E+00 -0.00000000000E+00 -0.53808197216E+03  0.53808197216E+03  0.00000000000E+00 0.  1.
          2    1    1    2  501    0  0.42949051158E+02  0.16134258288E+02 -0.42080491462E+03  0.42329860791E+03  0.00000000000E+00 0.  1.
         -2    1    1    2    0  502 -0.42949051158E+02 -0.16134258288E+02 -0.11149489360E+03  0.12056552818E+03  0.00000000000E+00 0. -1.
</event>
<event>
 4    1  0.1780267E+004  0.3591986E+02  0.7546771E-02  0.1374209E+00
         21   -1    0    0  501  502  0.00000000000E+00  0.00000000000E+00  0.23491601748E+03  0.23491601748E+03  0.00000000000E+00 0.  1.
         21   -1    0    0  502  503 -0.00000000000E+00 -0.00000000000E+00 -0.55097604479E+01  0.55097604479E+01  0.00000000000E+00 0. -1.
          2    1    1    2  501    0  0.33899488729E+02 -0.11876918409E+02  0.10794188783E+03  0.11376153864E+03  0.00000000000E+00 0.  1.
         -2    1    1    2    0  503 -0.33899488729E+02  0.11876918409E+02  0.12146436920E+03  0.12666423928E+03  0.00000000000E+00 0. -1.
</event>
<event>
 4    1  0.1780267E+004  0.2078261E+02  0.7546771E-02  0.1522391E+00
         21   -1    0    0  503  502  0.00000000000E+00  0.00000000000E+00  0.36885101569E+01  0.36885101569E+01  0.00000000000E+00 0. -1.
         21   -1    0    0  501  503 -0.00000000000E+00 -0.00000000000E+00 -0.17822614200E+03  0.17822614200E+03  0.00000000000E+00 0.  1.
          2    1    1    2  501    0  0.89730078961E+01  0.18745720563E+02 -0.14053760474E+03  0.14206595389E+03  0.00000000000E+00 0.  1.
         -2    1    1    2    0  502 -0.89730078961E+01 -0.18745720563E+02 -0.34000027105E+02  0.39848698264E+02  0.00000000000E+00 0. -1.
</event>
<event>
 4    1  0.1780267E+004  0.3327276E+02  0.7546771E-02  0.1393130E+00
         21   -1    0    0  501  502  0.00000000000E+00  0.00000000000E+00  0.16498808528E+01  0.16498808528E+01  0.00000000000E+00 0. -1.
         21   -1    0    0  502  503 -0.00000000000E+00 -0.00000000000E+00 -0.90089054514E+03  0.90089054514E+03  0.00000000000E+00 0.  1.
          2    1    1    2  501    0  0.60919719904E+01 -0.32710313510E+02 -0.22166099582E+03  0.22414431467E+03  0.00000000000E+00 0.  1.
         -2    1    1    2    0  503 -0.60919719904E+01  0.32710313510E+02 -0.67757966847E+03  0.67839611132E+03  0.00000000000E+00 0. -1.
</event>
<event>
 4    1  0.1780267E+004  0.2282035E+02  0.7546771E-02  0.1494766E+00
         21   -1    0    0  503  502  0.00000000000E+00  0.00000000000E+00  0.23882695051E+02  0.23882695051E+02  0.00000000000E+00 0. -1.
         21   -1    0    0  501  503 -0.00000000000E+00 -0.00000000000E+00 -0.25262686595E+02  0.25262686595E+02  0.00000000000E+00 0.  1.
          2    1    1    2  501    0 -0.18332804033E+02  0.13589571727E+02 -0.97805422145E+01  0.24827951375E+02  0.00000000000E+00 0.  1.
         -2    1    1    2    0  502  0.18332804033E+02 -0.13589571727E+02  0.84005506706E+01  0.24317430272E+02  0.00000000000E+00 0. -1.
</event>
<event>
 4    1  0.1780267E+004  0.3062444E+02  0.7546771E-02  0.1414246E+00
         21   -1    0    0  503  502  0.00000000000E+00  0.00000000000E+00  0.37047633092E+03  0.37047633092E+03  0.00000000000E+00 0.  1.
         21   -1    0    0  501  503 -0.00000000000E+00 -0.00000000000E+00 -0.47273003246E+01  0.47273003246E+01  0.00000000000E+00 0. -1.
          2    1    1    2  501    0  0.28674644114E+02 -0.10752726695E+02  0.55016470181E+02  0.62965612342E+02  0.00000000000E+00 0. -1.
         -2    1    1    2    0  502 -0.28674644114E+02  0.10752726695E+02  0.31073256042E+03  0.31223801891E+03  0.00000000000E+00 0.  1.
</event>
<event>
 4    1  0.1780267E+004  0.4777669E+02  0.7546771E-02  0.1308111E+00
         21   -1    0    0  501  502  0.00000000000E+00  0.00000000000E+00  0.50385053348E+03  0.50385053348E+03  0.00000000000E+00 0. -1.
         21   -1    0    0  502  503 -0.00000000000E+00 -0.00000000000E+00 -0.65460594439E+01  0.65460594439E+01  0.00000000000E+00 0.  1.
          2    1    1    2  501    0  0.16673787292E+02  0.44772720782E+02  0.39026532053E+03  0.39317888056E+03  0.00000000000E+00 0. -1.
         -2    1    1    2    0  503 -0.16673787292E+02 -0.44772720782E+02  0.10703915351E+03  0.11721771237E+03  0.00000000000E+00 0.  1.
</event>
<event>
 4    1  0.1780267E+004  0.2407753E+02  0.7546771E-02  0.1479393E+00
         21   -1    0    0  501  502  0.00000000000E+00  0.00000000000E+00  0.53179631645E+02  0.53179631645E+02  0.00000000000E+00 0. -1.
         21   -1    0    0  502  503 -0.00000000000E+00 -0.00000000000E+00 -0.29963976300E+02  0.29963976300E+02  0.00000000000E+00 0.  1.
          2    1    1    2  501    0  0.53490684721E+01  0.23475838137E+02  0.44766031823E+02  0.50830356235E+02  0.00000000000E+00 0. -1.
         -2    1    1    2    0  503 -0.53490684721E+01 -0.23475838137E+02 -0.21550376477E+02  0.32313251710E+02  0.00000000000E+00 0.  1.
</event>
<event>
 4    1  0.1780267E+004  0.2864844E+02  0.7546771E-02  0.1431717E+00
         21   -1    0    0  503  502  0.00000000000E+00  0.00000000000E+00  0.22840147731E+01  0.22840147731E+01  0.00000000000E+00 0.  1.
         21   -1    0    0  501  503 -0.00000000000E+00 -0.00000000000E+00 -0.44051809476E+03  0.44051809476E+03  0.00000000000E+00 0. -1.
          2    1    1    2  501    0  0.19747523246E+01  0.28580300846E+02 -0.31416059091E+03  0.31546411860E+03  0.00000000000E+00 0. -1.
         -2    1    1    2    0  502 -0.19747523246E+01 -0.28580300846E+02 -0.12407348908E+03  0.12733799093E+03  0.00000000000E+00 0.  1.
</event>
<event>
 4    1  0.1780267E+004  0.4749463E+02  0.7546771E-02  0.1309416E+00
         21   -1    0    0  503  502  0.00000000000E+00  0.00000000000E+00  0.25512157810E+03  0.25512157810E+03  0.00000000000E+00 0. -1.
         21   -1    0    0  501  503 -0.00000000000E+00 -0.00000000000E+00 -0.90837753555E+01  0.90837753555E+01  0.00000000000E+00 0.  1.
          2    1    1    2  501    0  0.17673074556E+02 -0.44084039703E+02  0.14457858352E+03  0.15217985062E+03  0.00000000000E+00 0. -1.
         -2    1    1    2    0  502 -0.17673074556E+02  0.44084039703E+02  0.10145921922E+03  0.11202550284E+03  0.00000000000E+00 0.  1.
</event>
<event>
 4    1  0.1780267E+004  0.4108060E+02  0.7546771E-02  0.1342267E+00
         21   -1    0    0  503  502  0.00000000000E+00  0.00000000000E+00  0.12952275572E+03  0.12952275572E+03  0.00000000000E+00 0. -1.
         21   -1    0    0  501  503 -0.00000000000E+00 -0.00000000000E+00 -0.17879665857E+02  0.17879665857E+02  0.00000000000E+00 0.  1.
          2    1    1    2  501    0  0.41060414214E+02 -0.12876422591E+01  0.17435479307E+02  0.44627475580E+02  0.00000000000E+00 0.  1.
         -2    1    1    2    0  502 -0.41060414214E+02  0.12876422591E+01  0.94207610552E+02  0.10277494599E+03  0.00000000000E+00 0. -1.
</event>
<event>
 4    1  0.1780267E+004  0.3419531E+02  0.7546771E-02  0.1386310E+00
         21   -1    0    0  501  502  0.00000000000E+00  0.00000000000E+00  0.94766672473E+02  0.94766672473E+02  0.00000000000E+00 0. -1.
         21   -1    0    0  502  503 -0.00000000000E+00 -0.00000000000E+00 -0.14541105856E+02  0.14541105856E+02  0.00000000000E+00 0.  1.
          2    1    1    2  501    0  0.43505047572E+01  0.33917432352E+02  0.18843708912E+02  0.39043622713E+02  0.00000000000E+00 0.  1.
         -2    1    1    2    0  503 -0.43505047572E+01 -0.33917432352E+02  0.61381857705E+02  0.70264155615E+02  0.00000000000E+00 0. -1.
</event>
<event>
 4    1  0.1780267E+004  0.3051111E+02  0.7546771E-02  0.1415206E+00
         21   -1    0    0  501  502  0.00000000000E+00  0.00000000000E+00  0.46138042806E+02  0.46138042806E+02  0.00000000000E+00 0.  1.
         21   -1    0    0  502  503 -0.00000000000E+00 -0.00000000000E+00 -0.23924352383E+02  0.23924352383E+02  0.00000000000E+00 0. -1.
          2    1    1    2  501    0  0.92276463914E+00  0.30497148893E+02  0.24971108116E+02  0.39426942891E+02  0.00000000000E+00 0.  1.
         -2    1    1    2    0  503 -0.92276463914E+00 -0.30497148893E+02 -0.27574176930E+01  0.30635452298E+02  0.00000000000E+00 0. -1.
</event>
<event>
 4    1  0.1780267E+004  0.2025431E+02  0.7546771E-02  0.1530183E+00
         21   -1    0    0  501  502  0.00000000000E+00  0.00000000000E+00  0.80477855402E+01  0.80477855402E+01  0.00000000000E+00 0.  1.
         21   -1    0    0  502  503 -0.00000000000E+00 -0.00000000000E+00 -0.12145851632E+03  0.12145851632E+03  0.00000000000E+00 0. -1.
          2    1    1    2  501    0  0.13833316029E+02  0.14794479735E+02 -0.73777447329E+01  0.21556168034E+02  0.00000000000E+00 0.  1.
         -2    1    1    2    0  503 -0.13833316029E+02 -0.14794479735E+02 -0.10603298605E+03  0.10795013383E+03  0.00000000000E+00 0. -1.
</event>
<event>
 4    1  0.1780267E+004  0.2055691E+02  0.7546771E-02  0.1525686E+00
         21   -1    0    0  503  502  0.00000000000E+00  0.00000000000E+00  0.32320190115E+02  0.32320190115E+02  0.00000000000E+00 0. -1.
         21   -1    0    0  501  503 -0.00000000000E+00 -0.00000000000E+00 -0.47745415584E+02  0.47745415584E+02  0.00000000000E+00 0.  1.
          2    1    1    2  501    0 -0.19903826948E+02 -0.51404370784E+01 -0.41826381020E+02  0.46605070215E+02  0.00000000000E+00 0.  1.
         -2    1    1    2    0  502  0.19903826948E+02  0.51404370784E+01  0.26401155550E+02  0.33460535484E+02  0.00000000000E+00 0. -1.
</event>
<event>
 4    1  0.1780267E+004  0.2014079E+02  0.7546771E-02  0.1531894E+00
         21   -1    0    0  503  502  0.00000000000E+00  0.00000000000E+00  0.41740361464E+01  0.41740361464E+01  0.00000000000E+00 0.  1.
         21   -1    0    0  501  503 -0.00000000000E+00 -0.00000000000E+00 -0.10582820042E+03  0.10582820042E+03  0.00000000000E+00 0. -1.
          2    1    1    2  501    0 -0.40551516049E+01 -0.19728336655E+02 -0.66545948954E+02  0.69527079932E+02  0.00000000000E+00 0. -1.
         -2    1    1    2    0  502  0.40551516049E+01  0.19728336655E+02 -0.35108215324E+02  0.40475156639E+02  0.00000000000E+00 0.  1.
</event>
<event>
 4    1  0.1780267E+004  0.2179993E+02  0.7546771E-02  0.1508143E+00
         21   -1    0    0  503  502  0.00000000000E+00  0.00000000000E+00  0.53607711512E+00  0.53607711512E+00  0.00000000000E+00 0. -1.
         21   -1    0    0  501  503 -0.00000000000E+00 -0.00000000000E+00 -0.93768950854E+03  0.93768950854E+03  0.00000000000E+00 0.  1.
          2    1    1    2  501    0 -0.20797689953E+02 -0.65340056939E+01 -0.57817416275E+03  0.57858499774E+03  0.00000000000E+00 0.  1.
         -2    1    1    2    0  502  0.20797689953E+02  0.65340056939E+01 -0.35897926867E+03  0.35964058791E+03  0.00000000000E+00 0. -1.
</event>
<event>
 4    1  0.1780267E+004  0.2321025E+02  0.7546771E-02  0.1489875E+00
         21   -1    0    0  503  502  0.00000000000E+00  0.00000000000E+00  0.23818653663E+02  0.23818653663E+02  0.00000000000E+00 0.  1.
         21   -1    0    0  501  503 -0.00000000000E+00 -0.00000000000E+00 -0.48205617116E+02  0.48205617116E+02  0.00000000000E+00 0. -1.
          2    1    1    2  501    0 -0.58434113580E+01 -0.22462638290E+02 -0.38430847015E+02  0.44895941660E+02  0.00000000000E+00 0. -1.
         -2    1    1    2    0  502  0.58434113580E+01  0.22462638290E+02  0.14043883562E+02  0.27128329119E+02  0.00000000000E+00 0.  1.
</event>
<event>
 4    1  0.1780267E+004  0.6226946E+02  0.7546771E-02  0.1252311E+00
         21   -1    0    0  503  502  0.00000000000E+00  0.00000000000E+00  0.34299091107E+02  0.34299091107E+02  0.00000000000E+00 0. -1.
         21   -1    0    0  501  503 -0.00000000000E+00 -0.00000000000E+00 -0.99606351286E+03  0.99606351286E+03  0.00000000000E+00 0.  1.
          2    1    1    2  501    0  0.46821118881E+02 -0.41052021063E+02 -0.96594777299E+03  0.96795278075E+03  0.00000000000E+00 0.  1.
         -2    1    1    2    0  502 -0.46821118881E+02  0.41052021063E+02  0.41833512405E+01  0.62409823219E+02  0.00000000000E+00 0. -1.
</event>
<event>
 4    1  0.1780267E+004  0.2001903E+02  0.7546771E-02  0.1533745E+00
         21   -1    0    0  503  502  0.00000000000E+00  0.00000000000E+00  0.88044530080E+02  0.88044530080E+02  0.00000000000E+00 0. -1.
         21   -1    0    0  501  503 -0.00000000000E+00 -0.00000000000E+00 -0.46462401239E+01  0.46462401239E+01  0.00000000000E+00 0.  1.
          2    1    1    2  501    0  0.91037853427E+01 -0.17829260581E+02  0.35091832530E+02  0.40400472160E+02  0.00000000000E+00 0.  1.
         -2    1    1    2    0  502 -0.91037853427E+01  0.17829260581E+02  0.48306457427E+02  0.52290298044E+02  0.00000000000E+00 0. -1.
</event>
<event>
 4    1  0.1780267E+004  0.3634904E+02  0.7546771E-02  0.1371319E+00
         21   -1    0    0  503  502  0.00000000000E+00  0.00000000000E+00  0.28268676171E+03  0.28268676171E+03  0.00000000000E+00 0.  1.
         21   -1    0    0  501  503 -0.00000000000E+00 -0.00000000000E+00 -0.69382497827E+01  0.69382497827E+01  0.00000000000E+00 0. -1.
          2    1    1    2  501    0 -0.50608818865E+01 -0.35995001990E+02  0.22060212349E+03  0.22357671968E+03  0.00000000000E+00 0.  1.
         -2    1    1    2    0  502  0.50608818865E+01  0.35995001990E+02  0.55146388429E+02  0.66048291806E+02  0.00000000000E+00 0. -1.
</event>
<event>
 4    1  0.1780267E+004  0.3289829E+02  0.7546771E-02  0.1395973E+00
         21   -1    0    0  501  502  0.00000000000E+00  0.00000000000E+00  0.57762551340E+00  0.57762551340E+00  0.00000000000E+00 0. -1.
         21   -1    0    0  502  503 -0.00000000000E+00 -0.00000000000E+00 -0.19238012927E+04  0.19238012927E+04  0.00000000000E+00 0.  1.
          2    1    1    2  501    0  0.28063314831E+02 -0.17168224824E+02 -0.80633737848E+03  0.80700821899E+03  0.00000000000E+00 0. -1.
         -2    1    1    2    0  503 -0.28063314831E+02  0.17168224824E+02 -0.11168862887E+04  0.11173706992E+04  0.00000000000E+00 0.  1.
</event>
<event>
 4    1  0.1780267E+004  0.2187289E+02  0.7546771E-02  0.1507158E+00
         21   -1    0    0  503  502  0.00000000000E+00  0.00000000000E+00  0.31683655921E+02  0.31683655921E+02  0.00000000000E+00 0. -1.
         21   -1    0    0  501  503 -0.00000000000E+00 -0.00000000000E+00 -0.20476243037E+02  0.20476243037E+02  0.00000000000E+00 0.  1.
          2    1    1    2  501    0  0.16780552409E+02 -0.14029842069E+02 -0.77598113242E+01  0.23208577713E+02  0.00000000000E+00 0.  1.
         -2    1    1    2    0  502 -0.16780552409E+02  0.14029842069E+02  0.18967224208E+02  0.28951321245E+02  0.00000000000E+00 0. -1.
</event>
<event>
 4    1  0.1780267E+004  0.5508310E+02  0.7546771E-02  0.1277520E+00
         21   -1    0    0  501  502  0.00000000000E+00  0.00000000000E+00  0.12865225684E+02  0.12865225684E+02  0.00000000000E+00 0.  1.
         21   -1    0    0  502  503 -0.00000000000E+00 -0.00000000000E+00 -0.38295299502E+03  0.38295299502E+03  0.00000000000E+00 0. -1.
          2    1    1    2  501    0 -0.42850206742E+02  0.34612247376E+02 -0.62379899142E+02  0.83218986435E+02  0.00000000000E+00 0.  1.
         -2    1    1    2    0  503  0.42850206742E+02 -0.34612247376E+02 -0.30770787020E+03  0.31259923427E+03  0.00000000000E+00 0. -1.
</event>
<event>
 4    1  0.1780267E+004  0.2418873E+02  0.7546771E-02  0.1478087E+00
         21   -1    0    0  503  502  0.00000000000E+00  0.00000000000E+00  0.24931479891E+03  0.24931479891E+03  0.00000000000E+00 0. -1.
         21   -1    0    0  501  503 -0.00000000000E+00 -0.00000000000E+00 -0.20707106293E+02  0.20707106293E+02  0.00000000000E+00 0.  1.
          2    1    1    2  501    0 -0.23097125863E+02  0.71845214923E+01 -0.12826471505E+02  0.27379060310E+02  0.00000000000E+00 0.  1.
         -2    1    1    2    0  502  0.23097125863E+02 -0.71845214923E+01  0.24143416412E+03  0.24264284490E+03  0.00000000000E+00 0. -1.
</event>
<event>
 4    1  0.1780267E+004  0.2431817E+02  0.7546771E-02  0.1476578E+00
         21   -1    0    0  503  502  0.00000000000E+00  0.00000000000E+00  0.94757307601E+02  0.94757307601E+02  0.00000000000E+00 0. -1.
         21   -1    0    0  501  503 -0.00000000000E+00 -0.00000000000E+00 -0.62471807124E+01  0.62471807124E+01  0.00000000000E+00 0.  1.
          2    1    1    2  501    0 -0.21284929760E+02 -0.11761164389E+02  0.42656915390E+02  0.49101788697E+02  0.00000000000E+00 0.  1.
         -2    1    1    2    0  502  0.21284929760E+02  0.11761164389E+02  0.45853211499E+02  0.51902699616E+02  0.00000000000E+00 0. -1.
</event>
<event>
 4    1  0.1780267E+004  0.3193024E+02  0.7546771E-02  0.1403532E+00
         21   -1    0    0  501  502  0.00000000000E+00  0.00000000000E+00  0.41930272898E+03  0.41930272898E+03  0.00000000000E+00 0. -1.
         21   -1    0    0  502  503 -0.00000000000E+00 -0.00000000000E+00 -0.10656424408E+02  0.10656424408E+02  0.00000000000E+00 0.  1.
          2    1    1    2  501    0 -0.31470594283E+02 -0.53983496746E+01  0.39319056689E+03  0.39448493302E+03  0.00000000000E+00 0. -1.
         -2    1    1    2    0  503  0.31470594283E+02  0.53983496746E+01  0.15455737680E+02  0.35474220371E+02  0.00000000000E+00 0.  1.
</event>
<event>
 4    1  0.1780267E+004  0.2174504E+02  0.7546771E-02  0.1508888E+00
         21   -1    0    0  501  502  0.00000000000E+00  0.00000000000E+00  0.63343516827E+01  0.63343516827E+01  0.00000000000E+00 0. -1.
         21   -1    0    0  502  503 -0.00000000000E+00 -0.00000000000E+00 -0.98737827553E+02  0.98737827553E+02  0.00000000000E+00 0.  1.
          2    1    1    2  501    0  0.16246886824E+02  0.14452863562E+02 -0.72151473154E+02  0.75357028039E+02  0.00000000000E+00 0.  1.
         -2    1    1    2    0  503 -0.16246886824E+02 -0.14452863562E+02 -0.20252002716E+02  0.29715151197E+02  0.00000000000E+00 0. -1.
</event>
<event>
 4    1  0.1780267E+004  0.3894900E+02  0.7546771E-02  0.1354757E+00
         21   -1    0    0  503  502  0.00000000000E+00  0.00000000000E+00  0.32557410046E+02  0.32557410046E+02  0.00000000000E+00 0.  1.
         21   -1    0    0  501  503 -0.00000000000E+00 -0.00000000000E+00 -0.66799882484E+02  0.66799882484E+02  0.00000000000E+00 0. -1.
          2    1    1    2  501    0  0.11647188607E+02  0.37166757758E+02 -0.44442827284E+02  0.59094752574E+02  0.00000000000E+00 0. -1.
         -2    1    1    2    0  502 -0.11647188607E+02 -0.37166757758E+02  0.10200354846E+02  0.40262539956E+02  0.00000000000E+00 0.  1.
</event>
<event>
 4    1  0.1780267E+004  0.3355055E+02  0.7546771E-02  0.1391050E+00
         21   -1    0    0  503  502  0.00000000000E+00  0.00000000000E+00  0.39796528761E+03  0.39796528761E+03  0.00000000000E+00 0. -1.
         21   -1    0    0  501  503 -0.00000000000E+00 -0.00000000000E+00 -0.33239026434E+01  0.33239026434E+01  0.00000000000E+00 0.  1.
          2    1    1    2  501    0 -0.33342981583E+02 -0.37262554829E+01  0.11985873954E+03  0.12446588627E+03  0.00000000000E+00 0.  1.
         -2    1    1    2    0  502  0.33342981583E+02  0.37262554829E+01  0.27478264544E+03  0.27682330399E+03  0.00000000000E+00 0. -1.
</event>
<event>
 4    1  0.1780267E+004  0.2253387E+02  0.7546771E-02  0.1498436E+00
         21   -1    0    0  503  502  0.00000000000E+00  0.00000000000E+00  0.67090302558E+02  0.67090302558E+02  0.00000000000E+00 0.  1.
         21   -1    0    0  501  503 -0.00000000000E+00 -0.00000000000E+00 -0.94822872259E+01  0.94822872259E+01  0.00000000000E+00 0. -1.
          2    1    1    2  501    0 -0.22079779390E+02  0.45009707432E+01  0.11603966555E+02  0.25346152279E+02  0.00000000000E+00 0. -1.
         -2    1    1    2    0  502  0.22079779390E+02 -0.45009707432E+01  0.46004048777E+02  0.51226437505E+02  0.00000000000E+00 0.  1.
</event>
<event>
 4    1  0.1780267E+004  0.5021119E+02  0.7546771E-02  0.1297259E+00
         21   -1    0    0  501  502  0.00000000000E+00  0.00000000000E+00  0.10269091503E+03  0.10269091503E+03  0.00000000000E+00 0.  1.
         21   -1    0    0  502  503 -0.00000000000E+00 -0.00000000000E+00 -0.68903889104E+02  0.68903889104E+02  0.00000000000E+00 0. -1.
          2    1    1    2  501    0 -0.26304503179E+02  0.42769575878E+02  0.85729141458E+02  0.99351140926E+02  0.00000000000E+00 0.  1.
         -2    1    1    2    0  503  0.26304503179E+02 -0.42769575878E+02 -0.51942115530E+02  0.72243663210E+02  0.00000000000E+00 0. -1.
</event>
<event>
 4    1  0.1780267E+004  0.2180219E+02  0.7546771E-02  0.1508113E+00
         21   -1    0    0  501  502  0.00000000000E+00  0.00000000000E+00  0.72642268384E+02  0.72642268384E+02  0.00000000000E+00 0. -1.
         21   -1    0    0  502  503 -0.00000000000E+00 -0.00000000000E+00 -0.70898211005E+01  0.70898211005E+01  0.00000000000E+00 0.  1.
          2    1    1    2  501    0  0.22327911177E+01  0.21687559944E+02  0.43842573949E+02  0.48964343179E+02  0.00000000000E+00 0. -1.
         -2    1    1    2    0  503 -0.22327911177E+01 -0.21687559944E+02  0.21709873335E+02  0.30767746305E+02  0.00000000000E+00 0.  1.
</event>
<event>
 4    1  0.1780267E+004  0.2080600E+02  0.7546771E-02  0.1522053E+00
         21   -1    0    0  503  502  0.00000000000E+00  0.00000000000E+00  0.28178740962E+02  0.28178740962E+02  0.00000000000E+00 0. -1.
         21   -1    0    0  501  503 -0.00000000000E+00 -0.00000000000E+00 -0.16662726027E+02  0.16662726027E+02  0.00000000000E+00 0.  1.
          2    1    1    2  501    0  0.14502287870E+02  0.14918893188E+02 -0.50557565192E+00  0.20812143910E+02  0.00000000000E+00 0.  1.
         -2    1    1    2    0  502 -0.14502287870E+02 -0.14918893188E+02  0.12021590587E+02  0.24029323079E+02  0.00000000000E+00 0. -1.
</event>
<event>
 4    1  0.1780267E+004  0.3245321E+02  0.7546771E-02  0.1399410E+00
         21   -1    0    0  501  502  0.00000000000E+00  0.00000000000E+00  0.24856823888E+03  0.24856823888E+03  0.00000000000E+00 0.  1.
         21   -1    0    0  502  503 -0.00000000000E+00 -0.00000000000E+00 -0.11970071490E+02  0.11970071490E+02  0.00000000000E+00 0. -1.
          2    1    1    2  501    0 -0.28901571338E+02 -0.14761765809E+02  0.22300378813E+03  0.22535283463E+03  0.00000000000E+00 0.  1.
         -2    1    1    2    0  503  0.28901571338E+02  0.14761765809E+02  0.13594379262E+02  0.35185475741E+02  0.00000000000E+00 0. -1.
</event>
<event>
 4    1  0.1780267E+004  0.2628207E+02  0.7546771E-02  0.1454956E+00
         21   -1    0    0  503  502  0.00000000000E+00  0.00000000000E+00  0.35204197068E+02  0.35204197068E+02  0.00000000000E+00 0.  1.
         21   -1    0    0  501  503 -0.00000000000E+00 -0.00000000000E+00 -0.21914410442E+02  0.21914410442E+02  0.00000000000E+00 0. -1.
          2    1    1    2  501    0 -0.71666379470E+01  0.25286088736E+02 -0.25937670510E+01  0.26409744613E+02  0.00000000000E+00 0. -1.
         -2    1    1    2    0  502  0.71666379470E+01 -0.25286088736E+02  0.15883553676E+02  0.30708862897E+02  0.00000000000E+00 0.  1.
</event>
<event>
 4    1  0.1780267E+004  0.2548809E+02  0.7546771E-02  0.1463417E+00
         21   -1    0    0  501  502  0.00000000000E+00  0.00000000000E+00  0.48259191313E+01  0.48259191313E+01  0.00000000000E+00 0. -1.
         21   -1    0    0  502  503 -0.00000000000E+00 -0.00000000000E+00 -0.19324310119E+03  0.19324310119E+03  0.00000000000E+00 0.  1.
          2    1    1    2  501    0 -0.21723953406E+02 -0.13330892912E+02 -0.39659674720E+02  0.47143744615E+02  0.00000000000E+00 0. -1.
         -2    1    1    2    0  503  0.21723953406E+02  0.13330892912E+02 -0.14875750734E+03  0.15092527571E+03  0.00000000000E+00 0.  1.
</event>
<event>
 4    1  0.1780267E+004  0.2031145E+02  0.7546771E-02  0.1529327E+00
         21   -1    0    0  501  502  0.00000000000E+00  0.00000000000E+00  0.51694342048E+00  0.51694342048E+00  0.00000000000E+00 0.  1.
         21   -1    0    0  502  503 -0.00000000000E+00 -0.00000000000E+00 -0.11377168160E+04  0.11377168160E+04  0.00000000000E+00 0. -1.
          2    1    1    2  501    0 -0.19209257993E+02 -0.65999696213E+01 -0.25764286845E+03  0.25844226213E+03  0.00000000000E+00 0.  1.
         -2    1    1    2    0  503  0.19209257993E+02  0.65999696213E+01 -0.87955700410E+03  0.87979149726E+03  0.00000000000E+00 0. -1.
</event>
<event>
 4    1  0.1780267E+004  0.2102852E+02  0.7546771E-02  0.1518858E+00
         21   -1    0    0  501  502  0.00000000000E+00  0.00000000000E+00  0.14922499238E+02  0.14922499238E+02  0.00000000000E+00 0. -1.
         21   -1    0    0  502  503 -0.00000000000E+00 -0.00000000000E+00 -0.65844584383E+02  0.65844584383E+02  0.00000000000E+00 0.  1.
          2    1    1    2  501    0 -0.62886534714E+00 -0.21019115094E+02  0.44869721595E+01  0.21501897361E+02  0.00000000000E+00 0. -1.
         -2    1    1    2    0  503  0.62886534714E+00  0.21019115094E+02 -0.55409057304E+02  0.59265186259E+02  0.00000000000E+00 0.  1.
</event>
<event>
 4    1  0.1780267E+004  0.3093688E+02  0.7546771E-02  0.1411626E+00
         21   -1    0    0  503  502  0.00000000000E+00  0.00000000000E+00  0.10506338476E+03  0.10506338476E+03  0.00000000000E+00 0.  1.
         21   -1    0    0  501  503 -0.00000000000E+00 -0.00000000000E+00 -0.22519790347E+02  0.22519790347E+02  0.00000000000E+00 0. -1.
          2    1    1    2  501    0  0.30779369706E+02  0.31177999918E+01 -0.79545896080E+01  0.31943164717E+02  0.00000000000E+00 0. -1.
         -2    1    1    2    0  502 -0.30779369706E+02 -0.31177999918E+01  0.90498184017E+02  0.95640010386E+02  0.00000000000E+00 0.  1.
</event>
<event>
 4    1  0.1780267E+004  0.3611079E+02  0.7546771E-02  0.1372918E+00
         21   -1    0    0  503  502  0.00000000000E+00  0.00000000000E+00  0.61400696399E+03  0.61400696399E+03  0.00000000000E+00 0.  1.
         21   -1    0    0  501  503 -0.00000000000E+00 -0.00000000000E+00 -0.23772778599E+01  0.23772778599E+01  0.00000000000E+00 0. -1.
          2    1    1    2  501    0 -0.96635485135E+01  0.34793744441E+02  0.20516659598E+03  0.20832023648E+03  0.00000000000E+00 0.  1.
         -2    1    1    2    0  502  0.96635485135E+01 -0.34793744441E+02  0.40646309015E+03  0.40806400536E+03  0.00000000000E+00 0. -1.
</event>
<event>
 4    1  0.1780267E+004  0.2007735E+02  0.7546771E-02  0.1532857E+00
         21   -1    0    0  503  502  0.00000000000E+00  0.00000000000E+00  0.79683174986E+02  0.79683174986E+02  0.00000000000E+00 0. -1.
         21   -1    0    0  501  503 -0.00000000000E+00 -0.00000000000E+00 -0.50766558529E+01  0.50766558529E+01  0.00000000000E+00 0.  1.
          2    1    1    2  501    0 -0.19679362470E+02 -0.39777735485E+01  0.34788750966E+02  0.40166617774E+02  0.00000000000E+00 0. -1.
         -2    1    1    2    0  502  0.19679362470E+02  0.39777735485E+01  0.39817768167E+02  0.44593213065E+02  0.00000000000E+00 0.  1.
</event>
<event>
 4    1  0.1780267E+004  0.4584166E+02  0.7546771E-02  0.1317284E+00
         21   -1    0    0  503  502  0.00000000000E+00  0.00000000000E+00  0.82730128589E+02  0.82730128589E+02  0.00000000000E+00 0.  1.
         21   -1    0    0  501  503 -0.00000000000E+00 -0.00000000000E+00 -0.26731366419E+02  0.26731366419E+02  0.00000000000E+00 0. -1.
          2    1    1    2  501    0 -0.22432438172E+02  0.39978035549E+02  0.15791283135E+02  0.48485278505E+02  0.00000000000E+00 0.  1.
         -2    1    1    2    0  502  0.22432438172E+02 -0.39978035549E+02  0.40207479034E+02  0.60976216503E+02  0.00000000000E+00 0. -1.
</event>
<event>
 4    1  0.1780267E+004  0.2099274E+02  0.7546771E-02  0.1519368E+00
         21   -1    0    0  501  502  0.00000000000E+00  0.00000000000E+00  0.24535866986E+01  0.24535866986E+01  0.00000000000E+00 0. -1.
         21   -1    0    0  502  503 -0.00000000000E+00 -0.00000000000E+00 -0.19448951703E+03  0.19448951703E+03  0.00000000000E+00 0.  1.
          2    1    1    2  501    0 -0.12564978423E+02  0.16817150850E+02 -0.68783540406E+02  0.71915719257E+02  0.00000000000E+00 0.  1.
         -2    1    1    2    0  503  0.12564978423E+02 -0.16817150850E+02 -0.12325238993E+03  0.12502738447E+03  0.00000000000E+00 0. -1.
</event>
<event>
 4    1  0.1780267E+004  0.2217476E+02  0.7546771E-02  0.1503129E+00
         21   -1    0    0  503  502  0.00000000000E+00  0.00000000000E+00  0.17143699209E+03  0.17143699209E+03  0.00000000000E+00 0. -1.
         21   -1    0    0  501  503 -0.00000000000E+00 -0.00000000000E+00 -0.35830792505E+01  0.35830792505E+01  0.00000000000E+00 0.  1.
          2    1    1    2  501    0  0.17015802390E+02  0.14219086224E+02  0.44839422718E+02  0.50022932477E+02  0.00000000000E+00 0.  1.
         -2    1    1    2    0  502 -0.17015802390E+02 -0.14219086224E+02  0.12301449012E+03  0.12499713886E+03  0.00000000000E+00 0. -1.
</event>
<event>
 4    1  0.1780267E+004  0.2296295E+02  0.7546771E-02  0.1492964E+00
         21   -1    0    0  503  502  0.00000000000E+00  0.00000000000E+00  0.66059586556E+02  0.66059586556E+02  0.00000000000E+00 0.  1.
         21   -1    0    0  501  503 -0.00000000000E+00 -0.00000000000E+00 -0.30013160969E+02  0.30013160969E+02  0.00000000000E+00 0. -1.
          2    1    1    2  501    0  0.12781615515E+02  0.19076886719E+02 -0.23132638921E+02  0.32594727880E+02  0.00000000000E+00 0. -1.
         -2    1    1    2    0  502 -0.12781615515E+02 -0.19076886719E+02  0.59179064508E+02  0.63478019646E+02  0.00000000000E+00 0.  1.
</event>
<event>
 4    1  0.1780267E+004  0.2525871E+02  0.7546771E-02  0.1465930E+00
         21   -1    0    0  501  502  0.00000000000E+00  0.00000000000E+00  0.73457007234E+02  0.73457007234E+02  0.00000000000E+00 0. -1.
         21   -1    0    0  502  503 -0.00000000000E+00 -0.00000000000E+00 -0.36577885919E+02  0.36577885919E+02  0.00000000000E+00 0.  1.
          2    1    1    2  501    0  0.11307429615E+02 -0.22586378775E+02  0.66483083967E+02  0.71119638106E+02  0.00000000000E+00 0. -1.
         -2    1    1    2    0  503 -0.11307429615E+02  0.22586378775E+02 -0.29603962651E+02  0.38915255046E+02  0.00000000000E+00 0.  1.
</event>
<event>
 4    1  0.1780267E+004  0.3420324E+02  0.7546771E-02  0.1386253E+00
         21   -1    0    0  503  502  0.00000000000E+00  0.00000000000E+00  0.10138447696E+02  0.10138447696E+02  0.00000000000E+00 0. -1.
         21   -1    0    0  501  503 -0.00000000000E+00 -0.00000000000E+00 -0.12499023787E+03  0.12499023787E+03  0.00000000000E+00 0.  1.
          2    1    1    2  501    0  0.28262788135E+02 -0.19263337727E+02 -0.76152195006E+02  0.83480645528E+02  0.00000000000E+00 0.  1.
         -2    1    1    2    0  502 -0.28262788135E+02  0.19263337727E+02 -0.38699595166E+02  0.51648040036E+02  0.00000000000E+00 0. -1.
</event>
<event>
 4    1  0.1780267E+004  0.2661036E+02  0.7546771E-02  0.1451562E+00
         21   -1    0    0  501  502  0.00000000000E+00  0.00000000000E+00  0.43347822909E+01  0.43347822909E+01  0.00000000000E+00 0. -1.
         21   -1    0    0  502  503 -0.00000000000E+00 -0.00000000000E+00 -0.22840960912E+03  0.22840960912E+03  0.00000000000E+00 0.  1.
          2    1    1    2  501    0  0.70127851012E+01  0.25669670658E+02 -0.49932074753E+02  0.56580237148E+02  0.00000000000E+00 0. -1.
         -2    1    1    2    0  503 -0.70127851012E+01 -0.25669670658E+02 -0.17414275208E+03  0.17616415426E+03  0.00000000000E+00 0.  1.
</event>
<event>
 4    1  0.1780267E+004  0.2313852E+02  0.7546771E-02  0.1490766E+00
         21   -1    0    0  503  502  0.00000000000E+00  0.00000000000E+00  0.95073458453E+01  0.95073458453E+01  0.00000000000E+00 0.  1.
         21   -1    0    0  501  503 -0.00000000000E+00 -0.00000000000E+00 -0.61649807620E+02  0.61649807620E+02  0.00000000000E+00 0. -1.
          2    1    1    2  501    0  0.10892151377E+02  0.20414512710E+02 -0.36538799846E+02  0.43248990567E+02  0.00000000000E+00 0. -1.
         -2    1    1    2    0  502 -0.10892151377E+02 -0.20414512710E+02 -0.15603661928E+02  0.27908162899E+02  0.00000000000E+00 0.  1.
</event>
<event>
 4    1  0.1780267E+004  0.2112506E+02  0.7546771E-02  0.1517487E+00
         21   -1    0    0  503  502  0.00000000000E+00  0.00000000000E+00  0.65694529145E+01  0.65694529145E+01  0.00000000000E+00 0.  1.
         21   -1    0    0  501  503 -0.00000000000E+00 -0.00000000000E+00 -0.67986043045E+02  0.67986043045E+02  0.00000000000E+00 0. -1.
          2    1    1    2  501    0  0.20742245546E+02  0.40034133561E+01 -0.29645493153E+02  0.36402243517E+02  0.00000000000E+00 0.  1.
         -2    1    1    2    0  502 -0.20742245546E+02 -0.40034133561E+01 -0.31771096978E+02  0.38153252443E+02  0.00000000000E+00 0. -1.
</event>
<event>
 4    1  0.1780267E+004  0.5073828E+02  0.7546771E-02  0.1295003E+00
         21   -1    0    0  503  502  0.00000000000E+00  0.00000000000E+00  0.80495190520E+01  0.80495190520E+01  0.00000000000E+00 0.  1.
         21   -1    0    0  501  503 -0.00000000000E+00 -0.00000000000E+00 -0.68058872520E+03  0.68058872520E+03  0.00000000000E+00 0. -1.
          2    1    1    2  501    0  0.22157390268E+02  0.45644534851E+02 -0.58695843033E+03  0.58914732660E+03  0.00000000000E+00 0. -1.
         -2    1    1    2    0  502 -0.22157390268E+02 -0.45644534851E+02 -0.85580775811E+02  0.99490917644E+02  0.00000000000E+00 0.  1.
</event>
<event>
 4    1  0.1780267E+004  0.2954235E+02  0.7546771E-02  0.1423616E+00
         21   -1    0    0  503  502  0.00000000000E+00  0.00000000000E+00  0.74271562116E+01  0.74271562116E+01  0.00000000000E+00 0. -1.
         21   -1    0    0  501  503 -0.00000000000E+00 -0.00000000000E+00 -0.11790630107E+03  0.11790630107E+03  0.00000000000E+00 0.  1.
          2    1    1    2  501    0 -0.29219613422E+02 -0.43548260735E+01 -0.58881831522E+02  0.65877313258E+02  0.00000000000E+00 0.  1.
         -2    1    1    2    0  502  0.29219613422E+02  0.43548260735E+01 -0.51597313337E+02  0.59456144024E+02  0.00000000000E+00 0. -1.
</event>
<event>
 4    1  0.1780267E+004  0.2025908E+02  0.7546771E-02  0.1530111E+00
         21   -1    0    0  503  502  0.00000000000E+00  0.00000000000E+00  0.43940288383E+03  0.43940288383E+03  0.00000000000E+00 0. -1.
         21   -1    0    0  501  503 -0.00000000000E+00 -0.00000000000E+00 -0.11388114955E+01  0.11388114955E+01  0.00000000000E+00 0.  1.
          2    1    1    2  501    0 -0.12304752879E+02  0.16094197421E+02  0.31253078957E+03  0.31318672476E+03  0.00000000000E+00 0. -1.
         -2    1    1    2    0  502  0.12304752879E+02 -0.16094197421E+02  0.12573328276E+03  0.12735497056E+03  0.00000000000E+00 0.  1.
</event>
<event>
 4    1  0.1780267E+004  0.2742977E+02  0.7546771E-02  0.1443338E+00
         21   -1    0    0  503  502  0.00000000000E+00  0.00000000000E+00  0.28955928502E+03  0.28955928502E+03  0.00000000000E+00 0.  1.
         21   -1    0    0  501  503 -0.00000000000E+00 -0.00000000000E+00 -0.35544878379E+01  0.35544878379E+01  0.00000000000E+00 0. -1.
          2    1    1    2  501    0 -0.12961290242E+02  0.24174304671E+02  0.66993285434E+02  0.72391244942E+02  0.00000000000E+00 0. -1.
         -2    1    1    2    0  502  0.12961290242E+02 -0.24174304671E+02  0.21901151174E+03  0.22072252791E+03  0.00000000000E+00 0.  1.
</event>
<event>
 4    1  0.1780267E+004  0.2238040E+02  0.7546771E-02  0.1500429E+00
         21   -1    0    0  503  502  0.00000000000E+00  0.00000000000E+00  0.32928870914E+02  0.32928870914E+02  0.00000000000E+00 0.  1.
         21   -1    0    0  501  503 -0.00000000000E+00 -0.00000000000E+00 -0.20393090341E+02  0.20393090341E+02  0.00000000000E+00 0. -1.
          2    1    1    2  501    0  0.18799273490E+02  0.12143712112E+02 -0.71716787212E+01  0.23501391518E+02  0.00000000000E+00 0. -1.
         -2    1    1    2    0  502 -0.18799273490E+02 -0.12143712112E+02  0.19707459294E+02  0.29820569737E+02  0.00000000000E+00 0.  1.
</event>
<event>
 4    1  0.1780267E+004  0.2642980E+02  0.7546771E-02  0.1453422E+00
         21   -1    0    0  501  502  0.00000000000E+00  0.00000000000E+00  0.74209223181E+01  0.74209223181E+01  0.00000000000E+00 0.  1.
         21   -1    0    0  502  503 -0.00000000000E+00 -0.00000000000E+00 -0.26888606493E+03  0.26888606493E+03  0.00000000000E+00 0. -1.
          2    1    1    2  501    0 -0.22709337047E+02 -0.13521098863E+02 -0.19356113165E+02  0.32759627904E+02  0.00000000000E+00 0.  1.
         -2    1    1    2    0  503  0.22709337047E+02  0.13521098863E+02 -0.24210902945E+03  0.24354735934E+03  0.00000000000E+00 0. -1.
</event>
<event>
 4    1  0.1780267E+004  0.2048095E+02  0.7546771E-02  0.1526806E+00
         21   -1    0    0  503  502  0.00000000000E+00  0.00000000000E+00  0.57075301485E+00  0.57075301485E+00  0.00000000000E+00 0. -1.
         21   -1    0    0  501  503 -0.00000000000E+00 -0.00000000000E+00 -0.73498766246E+03  0.73498766246E+03  0.00000000000E+00 0.  1.
          2    1    1    2  501    0 -0.10950363982E+02 -0.17307768285E+02 -0.37016501570E+03  0.37073118046E+03  0.00000000000E+00 0.  1.
         -2    1    1    2    0  502  0.10950363982E+02  0.17307768285E+02 -0.36425189374E+03  0.36482723502E+03  0.00000000000E+00 0. -1.
</event>
<event>
 4    1  0.1780267E+004  0.2727225E+02  0.7546771E-02  0.1444892E+00
         21   -1    0    0  501  502  0.00000000000E+00  0.00000000000E+00  0.20795373969E+03  0.20795373969E+03  0.00000000000E+00 0.  1.
         21   -1    0    0  502  503 -0.00000000000E+00 -0.00000000000E+00 -0.36731981803E+01  0.36731981803E+01  0.00000000000E+00 0. -1.
          2    1    1    2  501    0  0.12599376326E+02 -0.24187416081E+02  0.11929628385E+03  0.12237392991E+03  0.00000000000E+00 0. -1.
         -2    1    1    2    0  503 -0.12599376326E+02  0.24187416081E+02  0.84984257658E+02  0.89253007962E+02  0.00000000000E+00 0.  1.
</event>
<event>
 4    1  0.1780267E+004  0.2287507E+02  0.7546771E-02  0.1494073E+00
         21   -1    0    0  503  502  0.00000000000E+00  0.00000000000E+00  0.14729641550E+02  0.14729641550E+02  0.00000000000E+00 0.  1.
         21   -1    0    0  501  503 -0.00000000000E+00 -0.00000000000E+00 -0.70127333532E+02  0.70127333532E+02  0.00000000000E+00 0. -1.
          2    1    1    2  501    0 -0.22816104199E+02 -0.16414122626E+01 -0.57502347690E+02  0.61885287710E+02  0.00000000000E+00 0. -1.
         -2    1    1    2    0  502  0.22816104199E+02  0.16414122626E+01  0.21046557078E+01  0.22971687372E+02  0.00000000000E+00 0.  1.
</event>
<event>
 4    1  0.1780267E+004  0.2114342E+02  0.7546771E-02  0.1517227E+00
         21   -1    0    0  503  502  0.00000000000E+00  0.00000000000E+00  0.26913654939E+03  0.26913654939E+03  0.00000000000E+00 0.  1.
         21   -1    0    0  501  503 -0.00000000000E+00 -0.00000000000E+00 -0.22742529922E+01  0.22742529922E+01  0.00000000000E+00 0. -1.
          2    1    1    2  501    0  0.10443683422E+02 -0.18384065894E+02  0.62964067943E+02  0.66419261168E+02  0.00000000000E+00 0. -1.
         -2    1    1    2    0  502 -0.10443683422E+02  0.18384065894E+02  0.20389822846E+03  0.20499154122E+03  0.00000000000E+00 0.  1.
</event>
<event>
 4    1  0.1780267E+004  0.2360603E+02  0.7546771E-02  0.1485025E+00
         21   -1    0    0  501  502  0.00000000000E+00  0.00000000000E+00  0.30402216261E+02  0.30402216261E+02  0.00000000000E+00 0.  1.
         21   -1    0    0  502  503 -0.00000000000E+00 -0.00000000000E+00 -0.37122341453E+02  0.37122341453E+02  0.00000000000E+00 0. -1.
          2    1    1    2  501    0  0.15349950913E+02 -0.17933863506E+02  0.20662272797E+02  0.31371547148E+02  0.00000000000E+00 0.  1.
         -2    1    1    2    0  503 -0.15349950913E+02  0.17933863506E+02 -0.27382397990E+02  0.36153010566E+02  0.00000000000E+00 0. -1.
</event>
<event>
 4    1  0.1780267E+004  0.2256636E+02  0.7546771E-02  0.1498016E+00
         21   -1    0    0  501  502  0.00000000000E+00  0.00000000000E+00  0.99156482343E+02  0.99156482343E+02  0.00000000000E+00 0.  1.
         21   -1    0    0  502  503 -0.00000000000E+00 -0.00000000000E+00 -0.79275411904E+01  0.79275411904E+01  0.00000000000E+00 0. -1.
          2    1    1    2  501    0  0.17347356707E+02 -0.14432939669E+02  0.13840699777E+02  0.26472731300E+02  0.00000000000E+00 0. -1.
         -2    1    1    2    0  503 -0.17347356707E+02  0.14432939669E+02  0.77388241376E+02  0.80611292233E+02  0.00000000000E+00 0.  1.
</event>
<event>
 4    1  0.1780267E+004  0.2637193E+02  0.7546771E-02  0.1454021E+00
         21   -1    0    0  503  502  0.00000000000E+00  0.00000000000E+00  0.78295656937E+02  0.78295656937E+02  0.00000000000E+00 0.  1.
         21   -1    0    0  501  503 -0.00000000000E+00 -0.00000000000E+00 -0.20478451942E+02  0.20478451942E+02  0.00000000000E+00 0. -1.
          2    1    1    2  501    0 -0.10978029326E+02 -0.23978356799E+02 -0.82546374028E+01  0.27633634602E+02  0.00000000000E+00 0. -1.
         -2    1    1    2    0  502  0.10978029326E+02  0.23978356799E+02  0.66071842397E+02  0.71140474277E+02  0.00000000000E+00 0.  1.
</event>
<event>
 4    1  0.1780267E+004  0.2548378E+02  0.7546771E-02  0.1463463E+00
         21   -1    0    0  503  502  0.00000000000E+00  0.00000000000E+00  0.96908480177E+00  0.96908480177E+00  0.00000000000E+00 0. -1.
         21   -1    0    0  501  503 -0.00000000000E+00 -0.00000000000E+00 -0.72202070325E+03  0.72202070325E+03  0.00000000000E+00 0.  1.
          2    1    1    2  501    0  0.95756146369E+00 -0.25465786508E+02 -0.45742656648E+03  0.45813588260E+03  0.00000000000E+00 0.  1.
         -2    1    1    2    0  502 -0.95756146369E+00  0.25465786508E+02 -0.26362505197E+03  0.26485390545E+03  0.00000000000E+00 0. -1.
</event>
<event>
 4    1  0.1780267E+004  0.2268417E+02  0.7546771E-02  0.1496503E+00
         21   -1    0    0  501  502  0.00000000000E+00  0.00000000000E+00  0.21627126522E+02  0.21627126522E+02  0.00000000000E+00 0.  1.
         21   -1    0    0  502  503 -0.00000000000E+00 -0.00000000000E+00 -0.41661539778E+02  0.41661539778E+02  0.00000000000E+00 0. -1.
          2    1    1    2  501    0 -0.22263766271E+02 -0.43469600080E+01  0.10706833984E+02  0.25084011717E+02  0.00000000000E+00 0.  1.
         -2    1    1    2    0  503  0.22263766271E+02  0.43469600080E+01 -0.30741247240E+02  0.38204654582E+02  0.00000000000E+00 0. -1.
</event>
<event>
 4    1  0.1780267E+004  0.2141328E+02  0.7546771E-02  0.1513445E+00
         21   -1    0    0  503  502  0.00000000000E+00  0.00000000000E+00  0.14232315162E+02  0.14232315162E+02  0.00000000000E+00 0.  1.
         21   -1    0    0  501  503 -0.00000000000E+00 -0.00000000000E+00 -0.11836514458E+03  0.11836514458E+03  0.00000000000E+00 0. -1.
          2    1    1    2  501    0 -0.39323386950E+00  0.21409673243E+02 -0.10862716349E+03  0.11071761102E+03  0.00000000000E+00 0. -1.
         -2    1    1    2    0  502  0.39323386950E+00 -0.21409673243E+02  0.44943340779E+01  0.21879848721E+02  0.00000000000E+00 0.  1.
</event>
<event>
 4    1  0.1780267E+004  0.4255342E+02  0.7546771E-02  0.1334139E+00
         21   -1    0    0  503  502  0.00000000000E+00  0.00000000000E+00  0.51374021267E+03  0.51374021267E+03  0.00000000000E+00 0. -1.
         21   -1    0    0  501  503 -0.00000000000E+00 -0.00000000000E+00 -0.35742416944E+01  0.35742416944E+01  0.00000000000E+00 0.  1.
          2    1    1    2  501    0 -0.41917027195E+02  0.73318518313E+01  0.28552731089E+03  0.28868085923E+03  0.00000000000E+00 0. -1.
         -2    1    1    2    0  502  0.41917027195E+02 -0.73318518313E+01  0.22463866008E+03  0.22863359514E+03  0.00000000000E+00 0.  1.
</event>
<event>
 4    1  0.1780267E+004  0.2743910E+02  0.7546771E-02  0.1443246E+00
         21   -1    0    0  503  502  0.00000000000E+00  0.00000000000E+00  0.21123372506E+02  0.21123372506E+02  0.00000000000E+00 0.  1.
         21   -1    0    0  501  503 -0.00000000000E+00 -0.00000000000E+00 -0.51777473032E+02  0.51777473032E+02  0.00000000000E+00 0. -1.
          2    1    1    2  501    0  0.10446003739E+02  0.25372924459E+02 -0.35674361920E+02  0.45006270542E+02  0.00000000000E+00 0. -1.
         -2    1    1    2    0  502 -0.10446003739E+02 -0.25372924459E+02  0.50202613939E+01  0.27894574995E+02  0.00000000000E+00 0.  1.
</event>
<event>
 4    1  0.1780267E+004  0.2201922E+02  0.7546771E-02  0.1505195E+00
         21   -1    0    0  501  502  0.00000000000E+00  0.00000000000E+00  0.91608398419E+01  0.91608398419E+01  0.00000000000E+00 0.  1.
         21   -1    0    0  502  503 -0.00000000000E+00 -0.00000000000E+00 -0.13046027839E+03  0.13046027839E+03  0.00000000000E+00 0. -1.
          2    1    1    2  501    0 -0.21131105551E+02 -0.61905279120E+01 -0.68315465680E+01  0.23054636977E+02  0.00000000000E+00 0.  1.
         -2    1    1    2    0  503  0.21131105551E+02  0.61905279120E+01 -0.11446789198E+03  0.11656648125E+03  0.00000000000E+00 0. -1.
</event>
<event>
 4    1  0.1780267E+004  0.2361813E+02  0.7546771E-02  0.1484879E+00
         21   -1    0    0  501  502  0.00000000000E+00  0.00000000000E+00  0.68831996288E+01  0.68831996288E+01  0.00000000000E+00 0. -1.
         21   -1    0    0  502  503 -0.00000000000E+00 -0.00000000000E+00 -0.81751615378E+02  0.81751615378E+02  0.00000000000E+00 0.  1.
          2    1    1    2  501    0 -0.21958047699E+02  0.86982919079E+01 -0.33300155355E+02  0.40825439220E+02  0.00000000000E+00 0. -1.
         -2    1    1    2    0  503  0.21958047699E+02 -0.86982919079E+01 -0.41568260394E+02  0.47809375786E+02  0.00000000000E+00 0.  1.
</event>
<event>
 4    1  0.1780267E+004  0.2089978E+02  0.7546771E-02  0.1520701E+00
         21   -1    0    0  503  502  0.00000000000E+00  0.00000000000E+00  0.71108722830E+02  0.71108722830E+02  0.00000000000E+00 0. -1.
         21   -1    0    0  501  503 -0.00000000000E+00 -0.00000000000E+00 -0.66273370882E+01  0.66273370882E+01  0.00000000000E+00 0.  1.
          2    1    1    2  501    0  0.20042182501E+02  0.59255126059E+01  0.21730187749E+02  0.30149657355E+02  0.00000000000E+00 0. -1.
         -2    1    1    2    0  502 -0.20042182501E+02 -0.59255126059E+01  0.42751197993E+02  0.47586402563E+02  0.00000000000E+00 0.  1.
</event>
<event>
 4    1  0.1780267E+004  0.2199340E+02  0.7546771E-02  0.1505540E+00
         21   -1    0    0  501  502  0.00000000000E+00  0.00000000000E+00  0.89774999738E+01  0.89774999738E+01  0.00000000000E+00 0. -1.
         21   -1    0    0  502  503 -0.00000000000E+00 -0.00000000000E+00 -0.30718730053E+03  0.30718730053E+03  0.00000000000E+00 0.  1.
          2    1    1    2  501    0 -0.20598034462E+02  0.77091308750E+01 -0.55541215574E+01  0.22683870676E+02  0.00000000000E+00 0. -1.
         -2    1    1    2    0  503  0.20598034462E+02 -0.77091308750E+01 -0.29265567899E+03  0.29348092982E+03  0.00000000000E+00 0.  1.
</event>
<event>
 4    1  0.1780267E+004  0.5591666E+02  0.7546771E-02  0.1274375E+00
         21   -1    0    0  503  502  0.00000000000E+00  0.00000000000E+00  0.34113589318E+02  0.34113589318E+02  0.00000000000E+00 0.  1.
         21   -1    0    0  501  503 -0.00000000000E+00 -0.00000000000E+00 -0.91667077222E+02  0.91667077222E+02  0.00000000000E+00 0. -1.
          2    1    1    2  501    0 -0.39344742250E+02 -0.39732402467E+02 -0.28047479486E+02  0.62556643564E+02  0.00000000000E+00 0. -1.
         -2    1    1    2    0  502  0.39344742250E+02  0.39732402467E+02 -0.29506008417E+02  0.63224022976E+02  0.00000000000E+00 0.  1.
</event>
<event>
 4    1  0.1780267E+004  0.2275915E+02  0.7546771E-02  0.1495545E+00
         21   -1    0    0  503  502  0.00000000000E+00  0.00000000000E+00  0.22958779008E+03  0.22958779008E+03  0.00000000000E+00 0.  1.
         21   -1    0    0  501  503 -0.00000000000E+00 -0.00000000000E+00 -0.24307095413E+01  0.24307095413E+01  0.00000000000E+00 0. -1.
          2    1    1    2  501    0 -0.35376849775E+01  0.22482517338E+02  0.82487967803E+02  0.85570109461E+02  0.00000000000E+00 0.  1.
         -2    1    1    2    0  502  0.35376849775E+01 -0.22482517338E+02  0.14466911273E+03  0.14644839016E+03  0.00000000000E+00 0. -1.
</event>
<event>
 4    1  0.1780267E+004  0.2997217E+02  0.7546771E-02  0.1419839E+00
         21   -1    0    0  501  502  0.00000000000E+00  0.00000000000E+00  0.48217646191E+03  0.48217646191E+03  0.00000000000E+00 0.  1.
         21   -1    0    0  502  503 -0.00000000000E+00 -0.00000000000E+00 -0.46458230398E+01  0.46458230398E+01  0.00000000000E+00 0. -1.
          2    1    1    2  501    0 -0.20436783656E+02 -0.21924162276E+02  0.42715020195E+03  0.42820045078E+03  0.00000000000E+00 0.  1.
         -2    1    1    2    0  503  0.20436783656E+02  0.21924162276E+02  0.50380436916E+02  0.58621834171E+02  0.00000000000E+00 0. -1.
</event>
<event>
 4    1  0.1780267E+004  0.2055913E+02  0.7546771E-02  0.1525653E+00
         21   -1    0    0  503  502  0.00000000000E+00  0.00000000000E+00  0.15200886782E+03  0.15200886782E+03  0.00000000000E+00 0. -1.
         21   -1    0    0  501  503 -0.00000000000E+00 -0.00000000000E+00 -0.30723891372E+01  0.30723891372E+01  0.00000000000E+00 0.  1.
          2    1    1    2  501    0 -0.51818735252E+01  0.19895374588E+02  0.50572716595E+02  0.54591917048E+02  0.00000000000E+00 0.  1.
         -2    1    1    2    0  502  0.51818735252E+01 -0.19895374588E+02  0.98363762087E+02  0.10048933991E+03  0.00000000000E+00 0. -1.
</event>
<event>
 4    1  0.1780267E+004  0.2770500E+02  0.7546771E-02  0.1440652E+00
         21   -1    0    0  501  502  0.00000000000E+00  0.00000000000E+00  0.21026012935E+03  0.21026012935E+03  0.00000000000E+00 0.  1.
         21   -1    0    0  502  503 -0.00000000000E+00 -0.00000000000E+00 -0.37431091874E+01  0.37431091874E+01  0.00000000000E+00 0. -1.
          2    1    1    2  501    0 -0.25558292895E+02  0.10693033008E+02  0.12008368525E+03  0.12323821954E+03  0.00000000000E+00 0.  1.
         -2    1    1    2    0  503  0.25558292895E+02 -0.10693033008E+02  0.86433334908E+02  0.90765018999E+02  0.00000000000E+00 0. -1.
</event>
<event>
 4    1  0.1780267E+004  0.2721441E+02  0.7546771E-02  0.1445466E+00
         21   -1    0    0  501  502  0.00000000000E+00  0.00000000000E+00  0.33390050469E+03  0.33390050469E+03  0.00000000000E+00 0. -1.
         21   -1    0    0  502  503 -0.00000000000E+00 -0.00000000000E+00 -0.46588920704E+01  0.46588920704E+01  0.00000000000E+00 0.  1.
          2    1    1    2  501    0 -0.13961149183E+02  0.23360451558E+02  0.28714702489E+03  0.28843376759E+03  0.00000000000E+00 0. -1.
         -2    1    1    2    0  503  0.13961149183E+02 -0.23360451558E+02  0.42094587730E+02  0.50125629170E+02  0.00000000000E+00 0.  1.
</event>
<event>
 4    1  0.1780267E+004  0.2662546E+02  0.7546771E-02  0.1451407E+00
         21   -1    0    0  501  502  0.00000000000E+00  0.00000000000E+00  0.78598404088E+02  0.78598404088E+02  0.00000000000E+00 0. -1.
         21   -1    0    0  502  503 -0.00000000000E+00 -0.00000000000E+00 -0.11139723694E+02  0.11139723694E+02  0.00000000000E+00 0.  1.
          2    1    1    2  501    0  0.26622056404E+02 -0.42576025432E+00  0.53304474097E+02  0.59584243872E+02  0.00000000000E+00 0. -1.
         -2    1    1    2    0  503 -0.26622056404E+02  0.42576025432E+00  0.14154206297E+02  0.30153883910E+02  0.00000000000E+00 0.  1.
</event>
<event>
 4    1  0.1780267E+004  0.2051399E+02  0.7546771E-02  0.1526318E+00
         21   -1    0    0  501  502  0.00000000000E+00  0.00000000000E+00  0.18515353863E+03  0.18515353863E+03  0.00000000000E+00 0.  1.
         21   -1    0    0  502  503 -0.00000000000E+00 -0.00000000000E+00 -0.59126631949E+01  0.59126631949E+01  0.00000000000E+00 0. -1.
          2    1    1    2  501    0  0.18366834434E+02  0.91369127041E+01  0.16457578796E+03  0.16584937071E+03  0.00000000000E+00 0.  1.
         -2    1    1    2    0  503 -0.18366834434E+02 -0.91369127041E+01  0.14665087469E+02  0.25216831112E+02  0.00000000000E+00 0. -1.
</event>
<event>
 4    1  0.1780267E+004  0.2289507E+02  0.7546771E-02  0.1493820E+00
         21   -1    0    0  503  502  0.00000000000E+00  0.00000000000E+00  0.87760696540E+01  0.87760696540E+01  0.00000000000E+00 0.  1.
         21   -1    0    0  501  503 -0.00000000000E+00 -0.00000000000E+00 -0.99866162633E+02  0.99866162633E+02  0.00000000000E+00 0. -1.
          2    1    1    2  501    0 -0.19566609657E+02  0.11888318046E+02 -0.79982718875E+02  0.83195069795E+02  0.00000000000E+00 0. -1.
         -2    1    1    2    0  502  0.19566609657E+02 -0.11888318046E+02 -0.11107374104E+02  0.25447162493E+02  0.00000000000E+00 0.  1.
</event>
<event>
 4    1  0.1780267E+004  0.2075564E+02  0.7546771E-02  0.1522782E+00
         21   -1    0    0  503  502  0.00000000000E+00  0.00000000000E+00  0.26097468210E+02  0.26097468210E+02  0.00000000000E+00 0.  1.
         21   -1    0    0  501  503 -0.00000000000E+00 -0.00000000000E+00 -0.56404990179E+02  0.56404990179E+02  0.00000000000E+00 0. -1.
          2    1    1    2  501    0 -0.55742550806E+01 -0.19993106364E+02 -0.49847607113E+02  0.53996116126E+02  0.00000000000E+00 0. -1.
         -2    1    1    2    0  502  0.55742550806E+01  0.19993106364E+02  0.19540085144E+02  0.28506342263E+02  0.00000000000E+00 0.  1.
</event>
<event>
 4    1  0.1780267E+004  0.3883920E+02  0.7546771E-02  0.1355426E+00
         21   -1    0    0  503  502  0.00000000000E+00  0.00000000000E+00  0.43398386723E+02  0.43398386723E+02  0.00000000000E+00 0. -1.
         21   -1    0    0  501  503 -0.00000000000E+00 -0.00000000000E+00 -0.59948098786E+02  0.59948098786E+02  0.00000000000E+00 0.  1.
          2    1    1    2  501    0 -0.15014966492E+02 -0.35819468027E+02 -0.41770206477E+02  0.57037125257E+02  0.00000000000E+00 0.  1.
         -2    1    1    2    0  502  0.15014966492E+02  0.35819468027E+02  0.25220494414E+02  0.46309360252E+02  0.00000000000E+00 0. -1.
</event>
<event>
 4    1  0.1780267E+004  0.2035084E+02  0.7546771E-02  0.1528738E+00
         21   -1    0    0  501  502  0.00000000000E+00  0.00000000000E+00  0.14002954551E+03  0.14002954551E+03  0.00000000000E+00 0.  1.
         21   -1    0    0  502  503 -0.00000000000E+00 -0.00000000000E+00 -0.81176041492E+01  0.81176041492E+01  0.00000000000E+00 0. -1.
          2    1    1    2  501    0  0.20152136959E+02 -0.28369433056E+01  0.12501315620E+03  0.12665877820E+03  0.00000000000E+00 0.  1.
         -2    1    1    2    0  503 -0.20152136959E+02  0.28369433056E+01  0.68987851582E+01  0.21488371459E+02  0.00000000000E+00 0. -1.
</event>
<event>
 4    1  0.1780267E+004  0.2118113E+02  0.7546771E-02  0.1516694E+00
         21   -1    0    0  501  502  0.00000000000E+00  0.00000000000E+00  0.92985436916E+01  0.92985436916E+01  0.00000000000E+00 0. -1.
         21   -1    0    0  502  503 -0.00000000000E+00 -0.00000000000E+00 -0.52943631089E+02  0.52943631089E+02  0.00000000000E+00 0.  1.
          2    1    1    2  501    0 -0.11367636880E+02  0.17872240155E+02 -0.12554779188E+02  0.24622400712E+02  0.00000000000E+00 0. -1.
         -2    1    1    2    0  503  0.11367636880E+02 -0.17872240155E+02 -0.31090308209E+02  0.37619774068E+02  0.00000000000E+00 0.  1.
</event>
<event>
 4    1  0.1780267E+004  0.2344623E+02  0.7546771E-02  0.1486970E+00
         21   -1    0    0  501  502  0.00000000000E+00  0.00000000000E+00  0.46251804271E+01  0.46251804271E+01  0.00000000000E+00 0. -1.
         21   -1    0    0  502  503 -0.00000000000E+00 -0.00000000000E+00 -0.12656274144E+03  0.12656274144E+03  0.00000000000E+00 0.  1.
          2    1    1    2  501    0  0.21906246699E+02 -0.83571622302E+01 -0.44781474436E+02  0.50548058891E+02  0.00000000000E+00 0.  1.
         -2    1    1    2    0  503 -0.21906246699E+02  0.83571622302E+01 -0.77156086572E+02  0.80639862972E+02  0.00000000000E+00 0. -1.
</event>
<event>
 4    1  0.1780267E+004  0.5513232E+02  0.7546771E-02  0.1277333E+00
         21   -1    0    0  503  502  0.00000000000E+00  0.00000000000E+00  0.34871236981E+02  0.34871236981E+02  0.00000000000E+00 0. -1.
         21   -1    0    0  501  503 -0.00000000000E+00 -0.00000000000E+00 -0.29511053741E+03  0.29511053741E+03  0.00000000000E+00 0.  1.
          2    1    1    2  501    0  0.54814934818E+02  0.59072387586E+01 -0.26861709710E+03  0.27421655203E+03  0.00000000000E+00 0.  1.
         -2    1    1    2    0  502 -0.54814934818E+02 -0.59072387586E+01  0.83777966697E+01  0.55765222369E+02  0.00000000000E+00 0. -1.
</event>
<event>
 4    1  0.1780267E+004  0.2037648E+02  0.7546771E-02  0.1528356E+00
         21   -1    0    0  501  502  0.00000000000E+00  0.00000000000E+00  0.45375749784E+02  0.45375749784E+02  0.00000000000E+00 0.  1.
         21   -1    0    0  502  503 -0.00000000000E+00 -0.00000000000E+00 -0.18856563886E+02  0.18856563886E+02  0.00000000000E+00 0. -1.
          2    1    1    2  501    0 -0.17525522153E+02 -0.10395055189E+02  0.36301512000E+02  0.41629327073E+02  0.00000000000E+00 0.  1.
         -2    1    1    2    0  503  0.17525522153E+02  0.10395055189E+02 -0.97823261013E+01  0.22602986596E+02  0.00000000000E+00 0. -1.
</event>
<event>
 4    1  0.1780267E+004  0.2027329E+02  0.7546771E-02  0.1529898E+00
         21   -1    0    0  503  502  0.00000000000E+00  0.00000000000E+00  0.94783815168E+01  0.94783815168E+01  0.00000000000E+00 0.  1.
         21   -1    0    0  501  503 -0.00000000000E+00 -0.00000000000E+00 -0.78530524672E+02  0.78530524672E+02  0.00000000000E+00 0. -1.
          2    1    1    2  501    0 -0.16164840224E+02 -0.12235375723E+02 -0.63973763552E+02  0.67109231120E+02  0.00000000000E+00 0. -1.
         -2    1    1    2    0  502  0.16164840224E+02  0.12235375723E+02 -0.50783796028E+01  0.20899675068E+02  0.00000000000E+00 0.  1.
</event>
<event>
 4    1  0.1780267E+004  0.2409196E+02  0.7546771E-02  0.1479223E+00
         21   -1    0    0  503  502  0.00000000000E+00  0.00000000000E+00  0.14577624418E+02  0.14577624418E+02  0.00000000000E+00 0. -1.
         21   -1    0    0  501  503 -0.00000000000E+00 -0.00000000000E+00 -0.55377089198E+02  0.55377089198E+02  0.00000000000E+00 0.  1.
          2    1    1    2  501    0  0.10464106458E+02 -0.21700806271E+02 -0.38941113932E+02  0.45791187701E+02  0.00000000000E+00 0. -1.
         -2    1    1    2    0  502 -0.10464106458E+02  0.21700806271E+02 -0.18583508487E+01  0.24163525915E+02  0.00000000000E+00 0.  1.
</event>
<event>
 4    1  0.1780267E+004  0.3812521E+02  0.7546771E-02  0.1359837E+00
         21   -1    0    0  501  502  0.00000000000E+00  0.00000000000E+00  0.89596425270E+01  0.89596425270E+01  0.00000000000E+00 0.  1.
         21   -1    0    0  502  503 -0.00000000000E+00 -0.00000000000E+00 -0.16380837568E+03  0.16380837568E+03  0.00000000000E+00 0. -1.
          2    1    1    2  501    0  0.13652935224E+02  0.35596756887E+02 -0.68947540556E+02  0.78786388988E+02  0.00000000000E+00 0.  1.
         -2    1    1    2    0  503 -0.13652935224E+02 -0.35596756887E+02 -0.85901192601E+02  0.93981629223E+02  0.00000000000E+00 0. -1.
</event>
<event>
 4    1  0.1780267E+004  0.2424575E+02  0.7546771E-02  0.1477421E+00
         21   -1    0    0  501  502  0.00000000000E+00  0.00000000000E+00  0.40016539206E+02  0.40016539206E+02  0.00000000000E+00 0. -1.
         21   -1    0    0  502  503 -0.00000000000E+00 -0.00000000000E+00 -0.17573913853E+02  0.17573913853E+02  0.00000000000E+00 0.  1.
          2    1    1    2  501    0  0.17303628073E+02 -0.16983546240E+02  0.22885436719E+02  0.33340659879E+02  0.00000000000E+00 0. -1.
         -2    1    1    2    0  503 -0.17303628073E+02  0.16983546240E+02 -0.44281136588E+00  0.24249793180E+02  0.00000000000E+00 0.  1.
</event>
<event>
 4    1  0.1780267E+004  0.2550934E+02  0.7546771E-02  0.1463185E+00
         21   -1    0    0  501  502  0.00000000000E+00  0.00000000000E+00  0.24169993656E+03  0.24169993656E+03  0.00000000000E+00 0. -1.
         21   -1    0    0  502  503 -0.00000000000E+00 -0.00000000000E+00 -0.41749524670E+01  0.41749524670E+01  0.00000000000E+00 0.  1.
          2    1    1    2  501    0  0.28143182429E+01  0.25353619575E+02  0.19202461607E+03  0.19371158868E+03  0.00000000000E+00 0. -1.
         -2    1    1    2    0  503 -0.28143182429E+01 -0.25353619575E+02  0.45500368024E+02  0.52163300346E+02  0.00000000000E+00 0.  1.
</event>
<event>
 4    1  0.1780267E+004  0.2211055E+02  0.7546771E-02  0.1503979E+00
         21   -1    0    0  501  502  0.00000000000E+00  0.00000000000E+00  0.27710923235E+01  0.27710923235E+01  0.00000000000E+00 0. -1.
         21   -1    0    0  502  503 -0.00000000000E+00 -0.00000000000E+00 -0.17903263272E+03  0.17903263272E+03  0.00000000000E+00 0.  1.
          2    1    1    2  501    0  0.27303237907E+01 -0.21941328681E+02 -0.99111518292E+02  0.10154786867E+03  0.00000000000E+00 0.  1.
         -2    1    1    2    0  503 -0.27303237907E+01  0.21941328681E+02 -0.77150022106E+02  0.80255856380E+02  0.00000000000E+00 0. -1.
</event>
<event>
 4    1  0.1780267E+004  0.2316630E+02  0.7546771E-02  0.1490420E+00
         21   -1    0    0  503  502  0.00000000000E+00  0.00000000000E+00  0.55100684215E+02  0.55100684215E+02  0.00000000000E+00 0.  1.
         21   -1    0    0  501  503 -0.00000000000E+00 -0.00000000000E+00 -0.11868113615E+02  0.11868113615E+02  0.00000000000E+00 0. -1.
          2    1    1    2  501    0 -0.18870784983E+02  0.13437667894E+02  0.74369775869E+01  0.24330764064E+02  0.00000000000E+00 0. -1.
         -2    1    1    2    0  502  0.18870784983E+02 -0.13437667894E+02  0.35795593013E+02  0.42638033767E+02  0.00000000000E+00 0.  1.
</event>
<event>
 4    1  0.1780267E+004  0.2972378E+02  0.7546771E-02  0.1422012E+00
         21   -1    0    0  501  502  0.00000000000E+00  0.00000000000E+00  0.45002005321E+01  0.45002005321E+01  0.00000000000E+00 0. -1.
         21   -1    0    0  502  503 -0.00000000000E+00 -0.00000000000E+00 -0.38538838192E+03  0.38538838192E+03  0.00000000000E+00 0.  1.
          2    1    1    2  501    0  0.24954785881E+02 -0.16148123694E+02 -0.53902620503E+02  0.61554818937E+02  0.00000000000E+00 0. -1.
         -2    1    1    2    0  503 -0.24954785881E+02  0.16148123694E+02 -0.32698556088E+03  0.32833376351E+03  0.00000000000E+00 0.  1.
</event>
<event>
 4    1  0.1780267E+004  0.2396278E+02  0.7546771E-02  0.1480750E+00
         21   -1    0    0  503  502  0.00000000000E+00  0.00000000000E+00  0.31515088019E+02  0.31515088019E+02  0.00000000000E+00 0.  1.
         21   -1    0    0  501  503 -0.00000000000E+00 -0.00000000000E+00 -0.24349850933E+02  0.24349850933E+02  0.00000000000E+00 0. -1.
          2    1    1    2  501    0  0.21870835187E+02  0.97918956243E+01  0.17597040151E+02  0.29729959195E+02  0.00000000000E+00 0.  1.
         -2    1    1    2    0  502 -0.21870835187E+02 -0.97918956243E+01 -0.10431803065E+02  0.26134979756E+02  0.00000000000E+00 0. -1.
</event>
<event>
 4    1  0.1780267E+004  0.2731334E+02  0.7546771E-02  0.1444486E+00
         21   -1    0    0  503  502  0.00000000000E+00  0.00000000000E+00  0.72617222803E+01  0.72617222803E+01  0.00000000000E+00 0.  1.
         21   -1    0    0  501  503 -0.00000000000E+00 -0.00000000000E+00 -0.12477163181E+03  0.12477163181E+03  0.00000000000E+00 0. -1.
          2    1    1    2  501    0 -0.49155443060E+01 -0.26867378396E+02 -0.86500159596E+02  0.90709956497E+02  0.00000000000E+00 0. -1.
         -2    1    1    2    0  502  0.49155443060E+01  0.26867378396E+02 -0.31009749937E+02  0.41323397596E+02  0.00000000000E+00 0.  1.
</event>
<event>
 4    1  0.1780267E+004  0.2540165E+02  0.7546771E-02  0.1464360E+00
         21   -1    0    0  501  502  0.00000000000E+00  0.00000000000E+00  0.20805812702E+03  0.20805812702E+03  0.00000000000E+00 0.  1.
         21   -1    0    0  502  503 -0.00000000000E+00 -0.00000000000E+00 -0.12094454743E+02  0.12094454743E+02  0.00000000000E+00 0. -1.
          2    1    1    2  501    0 -0.19613789273E+02 -0.16141341697E+02  0.19290178358E+03  0.19456706235E+03  0.00000000000E+00 0.  1.
         -2    1    1    2    0  503  0.19613789273E+02  0.16141341697E+02  0.30618886959E+01  0.25585519416E+02  0.00000000000E+00 0. -1.
</event>
<event>
 4    1  0.1780267E+004  0.3760869E+02  0.7546771E-02  0.1363099E+00
         21   -1    0    0  501  502  0.00000000000E+00  0.00000000000E+00  0.13561965779E+02  0.13561965779E+02  0.00000000000E+00 0. -1.
         21   -1    0    0  502  503 -0.00000000000E+00 -0.00000000000E+00 -0.16941902903E+03  0.16941902903E+03  0.00000000000E+00 0.  1.
          2    1    1    2  501    0  0.36514871653E+02  0.90043319796E+01 -0.21203696946E+02  0.43174189169E+02  0.00000000000E+00 0. -1.
         -2    1    1    2    0  503 -0.36514871653E+02 -0.90043319796E+01 -0.13465336631E+03  0.13980680564E+03  0.00000000000E+00 0.  1.
</event>
<event>
 4    1  0.1780267E+004  0.2527300E+02  0.7546771E-02  0.1465772E+00
         21   -1    0    0  501  502  0.00000000000E+00  0.00000000000E+00  0.61906989053E+01  0.61906989053E+01  0.00000000000E+00 0.  1.
         21   -1    0    0  502  503 -0.00000000000E+00 -0.00000000000E+00 -0.10414238926E+03  0.10414238926E+03  0.00000000000E+00 0. -1.
          2    1    1    2  501    0 -0.11064330720E+02  0.22722349252E+02 -0.43658543819E+02  0.50445941543E+02  0.00000000000E+00 0.  1.
         -2    1    1    2    0  503  0.11064330720E+02 -0.22722349252E+02 -0.54293146536E+02  0.59887146623E+02  0.00000000000E+00 0. -1.
</event>
<event>
 4    1  0.1780267E+004  0.2522814E+02  0.7546771E-02  0.1466267E+00
         21   -1    0    0  501  502  0.00000000000E+00  0.00000000000E+00  0.41070083360E+02  0.41070083360E+02  0.00000000000E+00 0.  1.
         21   -1    0    0  502  503 -0.00000000000E+00 -0.00000000000E+00 -0.16266875217E+02  0.16266875217E+02  0.00000000000E+00 0. -1.
          2    1    1    2  501    0  0.14300727054E+02  0.20783369447E+02  0.18638796490E+02  0.31366606040E+02  0.00000000000E+00 0.  1.
         -2    1    1    2    0  503 -0.14300727054E+02 -0.20783369447E+02  0.61644116533E+01  0.25970352537E+02  0.00000000000E+00 0. -1.
</event>
<event>
 4    1  0.1780267E+004  0.5840416E+02  0.7546771E-02  0.1265353E+00
         21   -1    0    0  503  502  0.00000000000E+00  0.00000000000E+00  0.19867191925E+03  0.19867191925E+03  0.00000000000E+00 0.  1.
         21   -1    0    0  501  503 -0.00000000000E+00 -0.00000000000E+00 -0.20923232066E+02  0.20923232066E+02  0.00000000000E+00 0. -1.
          2    1    1    2  501    0 -0.39323768374E+02  0.43182028272E+02  0.42366638958E+02  0.72152466496E+02  0.00000000000E+00 0. -1.
         -2    1    1    2    0  502  0.39323768374E+02 -0.43182028272E+02  0.13538204822E+03  0.14744268482E+03  0.00000000000E+00 0.  1.
</event>
<event>
 4    1  0.1780267E+004  0.4945411E+02  0.7546771E-02  0.1300557E+00
         21   -1    0    0  503  502  0.00000000000E+00  0.00000000000E+00  0.12161157953E+03  0.12161157953E+03  0.00000000000E+00 0.  1.
         21   -1    0    0  501  503 -0.00000000000E+00 -0.00000000000E+00 -0.48568596520E+02  0.48568596520E+02  0.00000000000E+00 0. -1.
          2    1    1    2  501    0 -0.97662198844E+01 -0.48480201172E+02 -0.28611594417E+02  0.57134335487E+02  0.00000000000E+00 0. -1.
         -2    1    1    2    0  502  0.97662198844E+01  0.48480201172E+02  0.10165457742E+03  0.11304584056E+03  0.00000000000E+00 0.  1.
</event>
<event>
 4    1  0.1780267E+004  0.4366450E+02  0.7546771E-02  0.1328254E+00
         21   -1    0    0  503  502  0.00000000000E+00  0.00000000000E+00  0.11330336471E+02  0.11330336471E+02  0.00000000000E+00 0.  1.
         21   -1    0    0  501  503 -0.00000000000E+00 -0.00000000000E+00 -0.17150477724E+03  0.17150477724E+03  0.00000000000E+00 0. -1.
          2    1    1    2  501    0 -0.75011454025E+01  0.43015357696E+02 -0.92636571647E+02  0.10241153542E+03  0.00000000000E+00 0. -1.
         -2    1    1    2    0  502  0.75011454025E+01 -0.43015357696E+02 -0.67537869123E+02  0.80423578295E+02  0.00000000000E+00 0.  1.
</event>
<event>
 4    1  0.1780267E+004  0.3468175E+02  0.7546771E-02  0.1382814E+00
         21   -1    0    0  503  502  0.00000000000E+00  0.00000000000E+00  0.20563442041E+01  0.20563442041E+01  0.00000000000E+00 0. -1.
         21   -1    0    0  501  503 -0.00000000000E+00 -0.00000000000E+00 -0.73801974546E+03  0.73801974546E+03  0.00000000000E+00 0.  1.
          2    1    1    2  501    0 -0.34635943621E+02  0.17819385787E+01 -0.53651315450E+03  0.53763294993E+03  0.00000000000E+00 0.  1.
         -2    1    1    2    0  502  0.34635943621E+02 -0.17819385787E+01 -0.19945024676E+03  0.20244313974E+03  0.00000000000E+00 0. -1.
</event>
<event>
 4    1  0.1780267E+004  0.2104558E+02  0.7546771E-02  0.1518615E+00
         21   -1    0    0  503  502  0.00000000000E+00  0.00000000000E+00  0.47255284829E+02  0.47255284829E+02  0.00000000000E+00 0.  1.
         21   -1    0    0  501  503 -0.00000000000E+00 -0.00000000000E+00 -0.11816607957E+02  0.11816607957E+02  0.00000000000E+00 0. -1.
          2    1    1    2  501    0  0.12696504249E+02 -0.16784369543E+02  0.42875342164E+01  0.21477877706E+02  0.00000000000E+00 0.  1.
         -2    1    1    2    0  502 -0.12696504249E+02  0.16784369543E+02  0.31151142655E+02  0.37594015080E+02  0.00000000000E+00 0. -1.
</event>
<event>
 4    1  0.1780267E+004  0.2386598E+02  0.7546771E-02  0.1481901E+00
         21   -1    0    0  503  502  0.00000000000E+00  0.00000000000E+00  0.79157783215E+02  0.79157783215E+02  0.00000000000E+00 0. -1.
         21   -1    0    0  501  503 -0.00000000000E+00 -0.00000000000E+00 -0.92868500608E+01  0.92868500608E+01  0.00000000000E+00 0.  1.
          2    1    1    2  501    0 -0.57903172054E+01 -0.23152912169E+02  0.13950237918E+02  0.27644063616E+02  0.00000000000E+00 0.  1.
         -2    1    1    2    0  502  0.57903172054E+01  0.23152912169E+02  0.55920695236E+02  0.60800569659E+02  0.00000000000E+00 0. -1.
</event>
<event>
 4    1  0.1780267E+004  0.3179732E+02  0.7546771E-02  0.1404595E+00
         21   -1    0    0  503  502  0.00000000000E+00  0.00000000000E+00  0.11151525759E+03  0.11151525759E+03  0.00000000000E+00 0. -1.
         21   -1    0    0  501  503 -0.00000000000E+00 -0.00000000000E+00 -0.15919589524E+02  0.15919589524E+02  0.00000000000E+00 0.  1.
          2    1    1    2  501    0  0.20900632826E+02 -0.23963167523E+02  0.59925948961E+01  0.32357086455E+02  0.00000000000E+00 0.  1.
         -2    1    1    2    0  502 -0.20900632826E+02  0.23963167523E+02  0.89603073170E+02  0.95077760658E+02  0.00000000000E+00 0. -1.
</event>
<event>
 4    1  0.1780267E+004  0.2218771E+02  0.7546771E-02  0.1502958E+00
         21   -1    0    0  503  502  0.00000000000E+00  0.00000000000E+00  0.81528328744E+01  0.81528328744E+01  0.00000000000E+00 0.  1.
         21   -1    0    0  501  503 -0.00000000000E+00 -0.00000000000E+00 -0.71567778119E+02  0.71567778119E+02  0.00000000000E+00 0. -1.
          2    1    1    2  501    0 -0.14536864806E+02 -0.16762285443E+02 -0.47465085838E+02  0.52394933202E+02  0.00000000000E+00 0. -1.
         -2    1    1    2    0  502  0.14536864806E+02  0.16762285443E+02 -0.15949859407E+02  0.27325677791E+02  0.00000000000E+00 0.  1.
</event>
<event>
 4    1  0.1780267E+004  0.2334237E+02  0.7546771E-02  0.1488243E+00
         21   -1    0    0  501  502  0.00000000000E+00  0.00000000000E+00  0.65188256398E+02  0.65188256398E+02  0.00000000000E+00 0.  1.
         21   -1    0    0  502  503 -0.00000000000E+00 -0.00000000000E+00 -0.87792129991E+01  0.87792129991E+01  0.00000000000E+00 0. -1.
          2    1    1    2  501    0 -0.23251829692E+02  0.20539646164E+01  0.36302052682E+02  0.43159070698E+02  0.00000000000E+00 0.  1.
         -2    1    1    2    0  503  0.23251829692E+02 -0.20539646164E+01  0.20106990717E+02  0.30808398698E+02  0.00000000000E+00 0. -1.
</event>
<event>
 4    1  0.1780267E+004  0.2314616E+02  0.7546771E-02  0.1490671E+00
         21   -1    0    0  503  502  0.00000000000E+00  0.00000000000E+00  0.40491778059E+01  0.40491778059E+01  0.00000000000E+00 0.  1.
         21   -1    0    0  501  503 -0.00000000000E+00 -0.00000000000E+00 -0.15939966189E+03  0.15939966189E+03  0.00000000000E+00 0. -1.
          2    1    1    2  501    0  0.22795079064E+02 -0.40161067881E+01 -0.11136623763E+03  0.11374613676E+03  0.00000000000E+00 0. -1.
         -2    1    1    2    0  502 -0.22795079064E+02  0.40161067881E+01 -0.43984246448E+02  0.49702702933E+02  0.00000000000E+00 0.  1.
</event>
<event>
 4    1  0.1780267E+004  0.2230227E+02  0.7546771E-02  0.1501450E+00
         21   -1    0    0  501  502  0.00000000000E+00  0.00000000000E+00  0.22848370825E+01  0.22848370825E+01  0.00000000000E+00 0.  1.
         21   -1    0    0  502  503 -0.00000000000E+00 -0.00000000000E+00 -0.63469256358E+03  0.63469256358E+03  0.00000000000E+00 0. -1.
          2    1    1    2  501    0  0.22302067382E+02  0.94631288104E-01 -0.58048857243E+02  0.62185697647E+02  0.00000000000E+00 0.  1.
         -2    1    1    2    0  503 -0.22302067382E+02 -0.94631288104E-01 -0.57435886925E+03  0.57479170301E+03  0.00000000000E+00 0. -1.
</event>
<event>
 4    1  0.1780267E+004  0.2577286E+02  0.7546771E-02  0.1460340E+00
         21   -1    0    0  501  502  0.00000000000E+00  0.00000000000E+00  0.21979869857E+03  0.21979869857E+03  0.00000000000E+00 0.  1.
         21   -1    0    0  502  503 -0.00000000000E+00 -0.00000000000E+00 -0.78995746857E+01  0.78995746857E+01  0.00000000000E+00 0. -1.
          2    1    1    2  501    0 -0.17004867512E+02 -0.19366852176E+02  0.19540939128E+03  0.19710167600E+03  0.00000000000E+00 0.  1.
         -2    1    1    2    0  503  0.17004867512E+02  0.19366852176E+02  0.16489732609E+02  0.30596597258E+02  0.00000000000E+00 0. -1.
</event>
<event>
 4    1  0.1780267E+004  0.2219643E+02  0.7546771E-02  0.1502843E+00
         21   -1    0    0  501  502  0.00000000000E+00  0.00000000000E+00  0.35027327766E+01  0.35027327766E+01  0.00000000000E+00 0.  1.
         21   -1    0    0  502  503 -0.00000000000E+00 -0.00000000000E+00 -0.19204740550E+03  0.19204740550E+03  0.00000000000E+00 0. -1.
          2    1    1    2  501    0  0.53614500392E+01 -0.21539182283E+02 -0.43693622254E+02  0.49008306904E+02  0.00000000000E+00 0. -1.
         -2    1    1    2    0  503 -0.53614500392E+01  0.21539182283E+02 -0.14485105047E+03  0.14654183138E+03  0.00000000000E+00 0.  1.
</event>
<event>
 4    1  0.1780267E+004  0.2047079E+02  0.7546771E-02  0.1526956E+00
         21   -1    0    0  503  502  0.00000000000E+00  0.00000000000E+00  0.45574204995E+02  0.45574204995E+02  0.00000000000E+00 0. -1.
         21   -1    0    0  501  503 -0.00000000000E+00 -0.00000000000E+00 -0.15044732534E+02  0.15044732534E+02  0.00000000000E+00 0.  1.
          2    1    1    2  501    0  0.20447007959E+02 -0.98642070161E+00 -0.36349868684E+01  0.20791014641E+02  0.00000000000E+00 0.  1.
         -2    1    1    2    0  502 -0.20447007959E+02  0.98642070161E+00  0.34164459329E+02  0.39827922887E+02  0.00000000000E+00 0. -1.
</event>
<event>
 4    1  0.1780267E+004  0.2152533E+02  0.7546771E-02  0.1511895E+00
         21   -1    0    0  501  502  0.00000000000E+00  0.00000000000E+00  0.51070078033E+01  0.51070078033E+01  0.00000000000E+00 0. -1.
         21   -1    0    0  502  503 -0.00000000000E+00 -0.00000000000E+00 -0.15345193044E+03  0.15345193044E+03  0.00000000000E+00 0.  1.
          2    1    1    2  501    0 -0.20676810211E+02 -0.59840759208E+01 -0.23485382782E+02  0.31857539917E+02  0.00000000000E+00 0. -1.
         -2    1    1    2    0  503  0.20676810211E+02  0.59840759208E+01 -0.12485953986E+03  0.12670139833E+03  0.00000000000E+00 0.  1.
</event>
<event>
 4    1  0.1780267E+004  0.2085120E+02  0.7546771E-02  0.1521400E+00
         21   -1    0    0  501  502  0.00000000000E+00  0.00000000000E+00  0.27629703479E+03  0.27629703479E+03  0.00000000000E+00 0. -1.
         21   -1    0    0  502  503 -0.00000000000E+00 -0.00000000000E+00 -0.17103202166E+01  0.17103202166E+01  0.00000000000E+00 0.  1.
          2    1    1    2  501    0 -0.19047620136E+00  0.20850330213E+02  0.97987924176E+02  0.10018186381E+03  0.00000000000E+00 0.  1.
         -2    1    1    2    0  503  0.19047620136E+00 -0.20850330213E+02  0.17659879040E+03  0.17782549120E+03  0.00000000000E+00 0. -1.
</event>
<event>
 4    1  0.1780267E+004  0.2175090E+02  0.7546771E-02  0.1508808E+00
         21   -1    0    0  501  502  0.00000000000E+00  0.00000000000E+00  0.32823924107E+01  0.32823924107E+01  0.00000000000E+00 0.  1.
         21   -1    0    0  502  503 -0.00000000000E+00 -0.00000000000E+00 -0.34692505478E+03  0.34692505478E+03  0.00000000000E+00 0. -1.
          2    1    1    2  501    0  0.11203794894E+02 -0.18643404997E+02 -0.37945292925E+02  0.43737247571E+02  0.00000000000E+00 0.  1.
         -2    1    1    2    0  503 -0.11203794894E+02  0.18643404997E+02 -0.30569736945E+03  0.30647019962E+03  0.00000000000E+00 0. -1.
</event>
<event>
 4    1  0.1780267E+004  0.2972351E+02  0.7546771E-02  0.1422015E+00
         21   -1    0    0  503  502  0.00000000000E+00  0.00000000000E+00  0.43976512209E+02  0.43976512209E+02  0.00000000000E+00 0. -1.
         21   -1    0    0  501  503 -0.00000000000E+00 -0.00000000000E+00 -0.10750226414E+03  0.10750226414E+03  0.00000000000E+00 0.  1.
          2    1    1    2  501    0  0.20832753250E+02  0.21201028159E+02 -0.10005949802E+03  0.10438098652E+03  0.00000000000E+00 0.  1.
         -2    1    1    2    0  502 -0.20832753250E+02 -0.21201028159E+02  0.36533746092E+02  0.47097789826E+02  0.00000000000E+00 0. -1.
</event>
<event>
 4    1  0.1780267E+004  0.2003193E+02  0.7546771E-02  0.1533548E+00
         21   -1    0    0  503  502  0.00000000000E+00  0.00000000000E+00  0.50903516749E+01  0.50903516749E+01  0.00000000000E+00 0. -1.
         21   -1    0    0  501  503 -0.00000000000E+00 -0.00000000000E+00 -0.25040506603E+03  0.25040506603E+03  0.00000000000E+00 0.  1.
          2    1    1    2  501    0 -0.15301736148E+02 -0.12928078289E+02 -0.22840170939E+03  0.22927847520E+03  0.00000000000E+00 0.  1.
         -2    1    1    2    0  502  0.15301736148E+02  0.12928078289E+02 -0.16913004963E+02  0.26216942504E+02  0.00000000000E+00 0. -1.
</event>
<event>
 4    1  0.1780267E+004  0.2443077E+02  0.7546771E-02  0.1475273E+00
         21   -1    0    0  501  502  0.00000000000E+00  0.00000000000E+00  0.27631776485E+02  0.27631776485E+02  0.00000000000E+00 0. -1.
         21   -1    0    0  502  503 -0.00000000000E+00 -0.00000000000E+00 -0.32052780482E+02  0.32052780482E+02  0.00000000000E+00 0.  1.
          2    1    1    2  501    0  0.23051910606E+02  0.80914609582E+01  0.14830810740E+02  0.28579980235E+02  0.00000000000E+00 0. -1.
         -2    1    1    2    0  503 -0.23051910606E+02 -0.80914609582E+01 -0.19251814737E+02  0.31104576732E+02  0.00000000000E+00 0.  1.
</event>
<event>
 4    1  0.1780267E+004  0.3430797E+02  0.7546771E-02  0.1385495E+00
         21   -1    0    0  503  502  0.00000000000E+00  0.00000000000E+00  0.24705224737E+03  0.24705224737E+03  0.00000000000E+00 0.  1.
         21   -1    0    0  501  503 -0.00000000000E+00 -0.00000000000E+00 -0.18945247003E+02  0.18945247003E+02  0.00000000000E+00 0. -1.
          2    1    1    2  501    0  0.16296509183E+02  0.30190408528E+02 -0.10132008180E+01  0.34322930448E+02  0.00000000000E+00 0. -1.
         -2    1    1    2    0  502 -0.16296509183E+02 -0.30190408528E+02  0.22912020118E+03  0.23167456392E+03  0.00000000000E+00 0.  1.
</event>
<event>
 4    1  0.1780267E+004  0.2473128E+02  0.7546771E-02  0.1471832E+00
         21   -1    0    0  501  502  0.00000000000E+00  0.00000000000E+00  0.49655529685E+02  0.49655529685E+02  0.00000000000E+00 0. -1.
         21   -1    0    0  502  503 -0.00000000000E+00 -0.00000000000E+00 -0.19019887942E+02  0.19019887942E+02  0.00000000000E+00 0.  1.
          2    1    1    2  501    0  0.34707568274E+01 -0.24486523894E+02  0.35701355496E+02  0.43430666466E+02  0.00000000000E+00 0. -1.
         -2    1    1    2    0  503 -0.34707568274E+01  0.24486523894E+02 -0.50657137528E+01  0.25244751161E+02  0.00000000000E+00 0.  1.
</event>
<event>
 4    1  0.1780267E+004  0.2448808E+02  0.7546771E-02  0.1474612E+00
         21   -1    0    0  501  502  0.00000000000E+00  0.00000000000E+00  0.14570573774E+02  0.14570573774E+02  0.00000000000E+00 0. -1.
         21   -1    0    0  502  503 -0.00000000000E+00 -0.00000000000E+00 -0.45276559790E+02  0.45276559790E+02  0.00000000000E+00 0.  1.
          2    1    1    2  501    0 -0.22638209689E+02 -0.93368951596E+01 -0.63257288503E+01  0.25291915598E+02  0.00000000000E+00 0. -1.
         -2    1    1    2    0  503  0.22638209689E+02  0.93368951596E+01 -0.24380257166E+02  0.34555217965E+02  0.00000000000E+00 0.  1.
</event>
<event>
 4    1  0.1780267E+004  0.2197551E+02  0.7546771E-02  0.1505780E+00
         21   -1    0    0  503  502  0.00000000000E+00  0.00000000000E+00  0.85829809356E+01  0.85829809356E+01  0.00000000000E+00 0.  1.
         21   -1    0    0  501  503 -0.00000000000E+00 -0.00000000000E+00 -0.63319376245E+02  0.63319376245E+02  0.00000000000E+00 0. -1.
          2    1    1    2  501    0 -0.21798782901E+02 -0.27813563391E+01 -0.39367856624E+02  0.45086040126E+02  0.00000000000E+00 0. -1.
         -2    1    1    2    0  502  0.21798782901E+02  0.27813563391E+01 -0.15368538685E+02  0.26816317055E+02  0.00000000000E+00 0.  1.
</event>
<event>
 4    1  0.1780267E+004  0.2571144E+02  0.7546771E-02  0.1461000E+00
         21   -1    0    0  501  502  0.00000000000E+00  0.00000000000E+00  0.71049851305E+01  0.71049851305E+01  0.00000000000E+00 0.  1.
         21   -1    0    0  502  503 -0.00000000000E+00 -0.00000000000E+00 -0.11526689475E+03  0.11526689475E+03  0.00000000000E+00 0. -1.
          2    1    1    2  501    0 -0.79677986314E+01  0.24445700754E+02 -0.27215321016E+02  0.37439975940E+02  0.00000000000E+00 0.  1.
         -2    1    1    2    0  503  0.79677986314E+01 -0.24445700754E+02 -0.80946588606E+02  0.84931903942E+02  0.00000000000E+00 0. -1.
</event>
<event>
 4    1  0.1780267E+004  0.2840524E+02  0.7546771E-02  0.1433981E+00
         21   -1    0    0  503  502  0.00000000000E+00  0.00000000000E+00  0.55668192338E+02  0.55668192338E+02  0.00000000000E+00 0. -1.
         21   -1    0    0  501  503 -0.00000000000E+00 -0.00000000000E+00 -0.20817544664E+02  0.20817544664E+02  0.00000000000E+00 0.  1.
          2    1    1    2  501    0 -0.18061342039E+02  0.21923635248E+02 -0.36519337678E+01  0.28639037676E+02  0.00000000000E+00 0.  1.
         -2    1    1    2    0  502  0.18061342039E+02 -0.21923635248E+02  0.38502581442E+02  0.47846699326E+02  0.00000000000E+00 0. -1.
</event>
<event>
 4    1  0.1780267E+004  0.4626903E+02  0.7546771E-02  0.1315213E+00
         21   -1    0    0  501  502  0.00000000000E+00  0.00000000000E+00  0.23162384521E+02  0.23162384521E+02  0.00000000000E+00 0.  1.
         21   -1    0    0  502  503 -0.00000000000E+00 -0.00000000000E+00 -0.11392336826E+03  0.11392336826E+03  0.00000000000E+00 0. -1.
          2    1    1    2  501    0 -0.23169267524E+02 -0.40050072409E+02 -0.15606211077E+02  0.48830083777E+02  0.00000000000E+00 0.  1.
         -2    1    1    2    0  503  0.23169267524E+02  0.40050072409E+02 -0.75154772663E+02  0.88255669005E+02  0.00000000000E+00 0. -1.
</event>
<event>
 4    1  0.1780267E+004  0.2758344E+02  0.7546771E-02  0.1441834E+00
         21   -1    0    0  503  502  0.00000000000E+00  0.00000000000E+00  0.25930239966E+01  0.25930239966E+01  0.00000000000E+00 0.  1.
         21   -1    0    0  501  503 -0.00000000000E+00 -0.00000000000E+00 -0.31121188561E+03  0.31121188561E+03  0.00000000000E+00 0. -1.
          2    1    1    2  501    0  0.52977111061E+01 -0.27069918066E+02 -0.11679421629E+03  0.12000722964E+03  0.00000000000E+00 0.  1.
         -2    1    1    2    0  502 -0.52977111061E+01  0.27069918066E+02 -0.19182464533E+03  0.19379767997E+03  0.00000000000E+00 0. -1.
</event>
<event>
 4    1  0.1780267E+004  0.2222881E+02  0.7546771E-02  0.1502416E+00
         21   -1    0    0  501  502  0.00000000000E+00  0.00000000000E+00  0.70182045631E+03  0.70182045631E+03  0.00000000000E+00 0. -1.
         21   -1    0    0  502  503 -0.00000000000E+00 -0.00000000000E+00 -0.10179035004E+01  0.10179035004E+01  0.00000000000E+00 0.  1.
          2    1    1    2  501    0 -0.18106948485E+02 -0.12894117939E+02  0.54553508522E+03  0.54598777373E+03  0.00000000000E+00 0. -1.
         -2    1    1    2    0  503  0.18106948485E+02  0.12894117939E+02  0.15526746759E+03  0.15685058607E+03  0.00000000000E+00 0.  1.
</event>
<event>
 4    1  0.1780267E+004  0.2072778E+02  0.7546771E-02  0.1523187E+00
         21   -1    0    0  503  502  0.00000000000E+00  0.00000000000E+00  0.62809735243E+02  0.62809735243E+02  0.00000000000E+00 0.  1.
         21   -1    0    0  501  503 -0.00000000000E+00 -0.00000000000E+00 -0.78234968468E+01  0.78234968468E+01  0.00000000000E+00 0. -1.
          2    1    1    2  501    0  0.69729572979E+00 -0.20716051318E+02  0.14973638718E+02  0.25570507621E+02  0.00000000000E+00 0. -1.
         -2    1    1    2    0  502 -0.69729572979E+00  0.20716051318E+02  0.40012599678E+02  0.45062724468E+02  0.00000000000E+00 0.  1.
</event>
<event>
 4    1  0.1780267E+004  0.2095206E+02  0.7546771E-02  0.1519950E+00
         21   -1    0    0  501  502  0.00000000000E+00  0.00000000000E+00  0.30878278520E+03  0.30878278520E+03  0.00000000000E+00 0. -1.
         21   -1    0    0  502  503 -0.00000000000E+00 -0.00000000000E+00 -0.18409174918E+02  0.18409174918E+02  0.00000000000E+00 0.  1.
          2    1    1    2  501    0  0.66487739389E+01 -0.19869135556E+02  0.30233890936E+03  0.30306402765E+03  0.00000000000E+00 0. -1.
         -2    1    1    2    0  503 -0.66487739389E+01  0.19869135556E+02 -0.11965299085E+02  0.24127932461E+02  0.00000000000E+00 0.  1.
</event>
<event>
 4    1  0.1780267E+004  0.4151290E+02  0.7546771E-02  0.1339841E+00
         21   -1    0    0  501  502  0.00000000000E+00  0.00000000000E+00  0.55511917263E+02  0.55511917263E+02  0.00000000000E+00 0. -1.
         21   -1    0    0  502  503 -0.00000000000E+00 -0.00000000000E+00 -0.53789301383E+02  0.53789301383E+02  0.00000000000E+00 0.  1.
          2    1    1    2  501    0 -0.34793059772E+02  0.22644281404E+02  0.36399181483E+02  0.55210695533E+02  0.00000000000E+00 0. -1.
         -2    1    1    2    0  503  0.34793059772E+02 -0.22644281404E+02 -0.34676565603E+02  0.54090523113E+02  0.00000000000E+00 0.  1.
</event>
<event>
 4    1  0.1780267E+004  0.2539037E+02  0.7546771E-02  0.1464483E+00
         21   -1    0    0  503  502  0.00000000000E+00  0.00000000000E+00  0.11874507456E+02  0.11874507456E+02  0.00000000000E+00 0. -1.
         21   -1    0    0  501  503 -0.00000000000E+00 -0.00000000000E+00 -0.78792389835E+02  0.78792389835E+02  0.00000000000E+00 0.  1.
          2    1    1    2  501    0 -0.24334704408E+02 -0.72451974563E+01 -0.58738999523E+02  0.63991724385E+02  0.00000000000E+00 0.  1.
         -2    1    1    2    0  502  0.24334704408E+02  0.72451974563E+01 -0.81788828561E+01  0.26675172906E+02  0.00000000000E+00 0. -1.
</event>
<event>
 4    1  0.1780267E+004  0.4716104E+02  0.7546771E-02  0.1310974E+00
         21   -1    0    0  503  502  0.00000000000E+00  0.00000000000E+00  0.15929825709E+03  0.15929825709E+03  0.00000000000E+00 0.  1.
         21   -1    0    0  501  503 -0.00000000000E+00 -0.00000000000E+00 -0.36453082566E+02  0.36453082566E+02  0.00000000000E+00 0. -1.
          2    1    1    2  501    0 -0.38423665450E+02 -0.27345670958E+02 -0.15456865092E+02  0.49629411293E+02  0.00000000000E+00 0. -1.
         -2    1    1    2    0  502  0.38423665450E+02  0.27345670958E+02  0.13830203962E+03  0.14612192836E+03  0.00000000000E+00 0.  1.
</event>
<event>
 4    1  0.1780267E+004  0.2035664E+02  0.7546771E-02  0.1528652E+00
         21   -1    0    0  501  502  0.00000000000E+00  0.00000000000E+00  0.37589008582E+01  0.37589008582E+01  0.00000000000E+00 0. -1.
         21   -1    0    0  502  503 -0.00000000000E+00 -0.00000000000E+00 -0.11703065410E+03  0.11703065410E+03  0.00000000000E+00 0.  1.
          2    1    1    2  501    0  0.20192444648E+02  0.25803276019E+01 -0.42091135978E+02  0.46755284614E+02  0.00000000000E+00 0.  1.
         -2    1    1    2    0  503 -0.20192444648E+02 -0.25803276019E+01 -0.71180617266E+02  0.74034270347E+02  0.00000000000E+00 0. -1.
</event>
<event>
 4    1  0.1780267E+004  0.2443867E+02  0.7546771E-02  0.1475182E+00
         21   -1    0    0  503  502  0.00000000000E+00  0.00000000000E+00  0.35740680839E+01  0.35740680839E+01  0.00000000000E+00 0.  1.
         21   -1    0    0  501  503 -0.00000000000E+00 -0.00000000000E+00 -0.29012997695E+03  0.29012997695E+03  0.00000000000E+00 0. -1.
          2    1    1    2  501    0  0.21866790510E+02 -0.10912930516E+02 -0.23890447071E+03  0.24015119135E+03  0.00000000000E+00 0. -1.
         -2    1    1    2    0  502 -0.21866790510E+02  0.10912930516E+02 -0.47651438148E+02  0.53552853680E+02  0.00000000000E+00 0.  1.
</event>
<event>
 4    1  0.1780267E+004  0.2670477E+02  0.7546771E-02  0.1450597E+00
         21   -1    0    0  503  502  0.00000000000E+00  0.00000000000E+00  0.87892417991E+02  0.87892417991E+02  0.00000000000E+00 0. -1.
         21   -1    0    0  501  503 -0.00000000000E+00 -0.00000000000E+00 -0.11214797848E+02  0.11214797848E+02  0.00000000000E+00 0.  1.
          2    1    1    2  501    0  0.23304314738E+02 -0.13040452296E+02  0.12281600056E+02  0.29393573812E+02  0.00000000000E+00 0.  1.
         -2    1    1    2    0  502 -0.23304314738E+02  0.13040452296E+02  0.64396020087E+02  0.69713642026E+02  0.00000000000E+00 0. -1.
</event>
<event>
 4    1  0.1780267E+004  0.2278003E+02  0.7546771E-02  0.1495279E+00
         21   -1    0    0  501  502  0.00000000000E+00  0.00000000000E+00  0.57182463047E+01  0.57182463047E+01  0.00000000000E+00 0.  1.
         21   -1    0    0  502  503 -0.00000000000E+00 -0.00000000000E+00 -0.63999605295E+03  0.63999605295E+03  0.00000000000E+00 0. -1.
          2    1    1    2  501    0  0.22173888102E+01 -0.22671858352E+02 -0.18046561302E+02  0.29062146326E+02  0.00000000000E+00 0.  1.
         -2    1    1    2    0  503 -0.22173888102E+01  0.22671858352E+02 -0.61623124535E+03  0.61665215293E+03  0.00000000000E+00 0. -1.
</event>
<event>
 4    1  0.1780267E+004  0.2749113E+02  0.7546771E-02  0.1442736E+00
         21   -1    0    0  503  502  0.00000000000E+00  0.00000000000E+00  0.17258686001E+01  0.17258686001E+01  0.00000000000E+00 0.  1.
         21   -1    0    0  501  503 -0.00000000000E+00 -0.00000000000E+00 -0.44063868342E+03  0.44063868342E+03  0.00000000000E+00 0. -1.
          2    1    1    2  501    0 -0.25989685655E+02 -0.89609369792E+01 -0.23688581629E+03  0.23847568453E+03  0.00000000000E+00 0.  1.
         -2    1    1    2    0  502  0.25989685655E+02  0.89609369792E+01 -0.20202699853E+03  0.20388886749E+03  0.00000000000E+00 0. -1.
</event>
<event>
 4    1  0.1780267E+004  0.2268338E+02  0.7546771E-02  0.1496513E+00
         21   -1    0    0  501  502  0.00000000000E+00  0.00000000000E+00  0.97117274615E+01  0.97117274615E+01  0.00000000000E+00 0. -1.
         21   -1    0    0  502  503 -0.00000000000E+00 -0.00000000000E+00 -0.11581407958E+03  0.11581407958E+03  0.00000000000E+00 0.  1.
          2    1    1    2  501    0  0.43402955826E+01  0.22264262664E+02 -0.68219051242E+01  0.23686999541E+02  0.00000000000E+00 0. -1.
         -2    1    1    2    0  503 -0.43402955826E+01 -0.22264262664E+02 -0.99280446990E+02  0.10183880750E+03  0.00000000000E+00 0.  1.
</event>
<event>
 4    1  0.1780267E+004  0.3842426E+02  0.7546771E-02  0.1357975E+00
         21   -1    0    0  501  502  0.00000000000E+00  0.00000000000E+00  0.63571842444E+02  0.63571842444E+02  0.00000000000E+00 0. -1.
         21   -1    0    0  502  503 -0.00000000000E+00 -0.00000000000E+00 -0.65376394760E+02  0.65376394760E+02  0.00000000000E+00 0.  1.
          2    1    1    2  501    0  0.38156448239E+02  0.45287139780E+01  0.50868361978E+02  0.63749619943E+02  0.00000000000E+00 0. -1.
         -2    1    1    2    0  503 -0.38156448239E+02 -0.45287139780E+01 -0.52672914294E+02  0.65198617261E+02  0.00000000000E+00 0.  1.
</event>
<event>
 4    1  0.1780267E+004  0.3616642E+02  0.7546771E-02  0.1372543E+00
         21   -1    0    0  503  502  0.00000000000E+00  0.00000000000E+00  0.68427016492E+02  0.68427016492E+02  0.00000000000E+00 0. -1.
         21   -1    0    0  501  503 -0.00000000000E+00 -0.00000000000E+00 -0.26453650896E+02  0.26453650896E+02  0.00000000000E+00 0.  1.
          2    1    1    2  501    0 -0.16877366482E+02 -0.31986942306E+02 -0.39995696614E+01  0.36386900595E+02  0.00000000000E+00 0.  1.
         -2    1    1    2    0  502  0.16877366482E+02  0.31986942306E+02  0.45972935257E+02  0.58493766793E+02  0.00000000000E+00 0. -1.
</event>
<event>
 4    1  0.1780267E+004  0.2018393E+02  0.7546771E-02  0.1531242E+00
         21   -1    0    0  503  502  0.00000000000E+00  0.00000000000E+00  0.23456308165E+02  0.23456308165E+02  0.00000000000E+00 0. -1.
         21   -1    0    0  501  503 -0.00000000000E+00 -0.00000000000E+00 -0.95079421506E+02  0.95079421506E+02  0.00000000000E+00 0.  1.
          2    1    1    2  501    0 -0.39834348580E+01 -0.19786949093E+02 -0.89393469196E+02  0.91643785619E+02  0.00000000000E+00 0.  1.
         -2    1    1    2    0  502  0.39834348580E+01  0.19786949093E+02  0.17770355855E+02  0.26891944052E+02  0.00000000000E+00 0. -1.
</event>
<event>
 4    1  0.1780267E+004  0.2156005E+02  0.7546771E-02  0.1511417E+00
         21   -1    0    0  503  502  0.00000000000E+00  0.00000000000E+00  0.16514296341E+02  0.16514296341E+02  0.00000000000E+00 0. -1.
         21   -1    0    0  501  503 -0.00000000000E+00 -0.00000000000E+00 -0.28171783981E+02  0.28171783981E+02  0.00000000000E+00 0.  1.
          2    1    1    2  501    0 -0.17965373638E+02  0.11919783758E+02 -0.51725432842E+01  0.22171853752E+02  0.00000000000E+00 0.  1.
         -2    1    1    2    0  502  0.17965373638E+02 -0.11919783758E+02 -0.64849443554E+01  0.22514226570E+02  0.00000000000E+00 0. -1.
</event>
<event>
 4    1  0.1780267E+004  0.2131846E+02  0.7546771E-02  0.1514766E+00
         21   -1    0    0  501  502  0.00000000000E+00  0.00000000000E+00  0.41785586495E+03  0.41785586495E+03  0.00000000000E+00 0. -1.
         21   -1    0    0  502  503 -0.00000000000E+00 -0.00000000000E+00 -0.12151423799E+01  0.12151423799E+01  0.00000000000E+00 0.  1.
          2    1    1    2  501    0 -0.11125557520E+02  0.18185123679E+02  0.27619432010E+03  0.27701584649E+03  0.00000000000E+00 0. -1.
         -2    1    1    2    0  503  0.11125557520E+02 -0.18185123679E+02  0.14044640248E+03  0.14205516085E+03  0.00000000000E+00 0.  1.
</event>
<event>
 4    1  0.1780267E+004  0.2666935E+02  0.7546771E-02  0.1450958E+00
         21   -1    0    0  501  502  0.00000000000E+00  0.00000000000E+00  0.14034105369E+02  0.14034105369E+02  0.00000000000E+00 0. -1.
         21   -1    0    0  502  503 -0.00000000000E+00 -0.00000000000E+00 -0.51945515736E+02  0.51945515736E+02  0.00000000000E+00 0.  1.
          2    1    1    2  501    0  0.25604559929E+02 -0.74606214398E+01 -0.13807363048E+02  0.30031610609E+02  0.00000000000E+00 0. -1.
         -2    1    1    2    0  503 -0.25604559929E+02  0.74606214398E+01 -0.24104047320E+02  0.35948010496E+02  0.00000000000E+00 0.  1.
</event>
<event>
 4    1  0.1780267E+004  0.2570265E+02  0.7546771E-02  0.1461094E+00
         21   -1    0    0  503  502  0.00000000000E+00  0.00000000000E+00  0.69862199698E+02  0.69862199698E+02  0.00000000000E+00 0. -1.
         21   -1    0    0  501  503 -0.00000000000E+00 -0.00000000000E+00 -0.12023695279E+02  0.12023695279E+02  0.00000000000E+00 0.  1.
          2    1    1    2  501    0 -0.24278768177E+02  0.84360896783E+01  0.99992715468E+01  0.27579188254E+02  0.00000000000E+00 0.  1.
         -2    1    1    2    0  502  0.24278768177E+02 -0.84360896783E+01  0.47839232873E+02  0.54306706723E+02  0.00000000000E+00 0. -1.
</event>
<event>
 4    1  0.1780267E+004  0.2236215E+02  0.7546771E-02  0.1500667E+00
         21   -1    0    0  503  502  0.00000000000E+00  0.00000000000E+00  0.88606357437E+01  0.88606357437E+01  0.00000000000E+00 0. -1.
         21   -1    0    0  501  503 -0.00000000000E+00 -0.00000000000E+00 -0.77757533114E+02  0.77757533114E+02  0.00000000000E+00 0.  1.
          2    1    1    2  501    0  0.21706587739E+02 -0.53749320563E+01 -0.57126666712E+02  0.61347550036E+02  0.00000000000E+00 0.  1.
         -2    1    1    2    0  502 -0.21706587739E+02  0.53749320563E+01 -0.11770230659E+02  0.25270618821E+02  0.00000000000E+00 0. -1.
</event>
<event>
 4    1  0.1780267E+004  0.2149121E+02  0.7546771E-02  0.1512366E+00
         21   -1    0    0  501  502  0.00000000000E+00  0.00000000000E+00  0.37572830767E+02  0.37572830767E+02  0.00000000000E+00 0. -1.
         21   -1    0    0  502  503 -0.00000000000E+00 -0.00000000000E+00 -0.19785046727E+02  0.19785046727E+02  0.00000000000E+00 0.  1.
          2    1    1    2  501    0 -0.20630157593E+02  0.60223622620E+01  0.26542193743E+02  0.34152017484E+02  0.00000000000E+00 0. -1.
         -2    1    1    2    0  503  0.20630157593E+02 -0.60223622620E+01 -0.87544097029E+01  0.23205860010E+02  0.00000000000E+00 0.  1.
</event>
<event>
 4    1  0.1780267E+004  0.4816726E+02  0.7546771E-02  0.1306320E+00
         21   -1    0    0  501  502  0.00000000000E+00  0.00000000000E+00  0.10630358616E+04  0.10630358616E+04  0.00000000000E+00 0. -1.
         21   -1    0    0  502  503 -0.00000000000E+00 -0.00000000000E+00 -0.26164793191E+01  0.26164793191E+01  0.00000000000E+00 0.  1.
          2    1    1    2  501    0  0.40162401881E+02 -0.26590722812E+02  0.74720834288E+03  0.74875923549E+03  0.00000000000E+00 0.  1.
         -2    1    1    2    0  503 -0.40162401881E+02  0.26590722812E+02  0.31321103936E+03  0.31689310539E+03  0.00000000000E+00 0. -1.
</event>
<event>
 4    1  0.1780267E+004  0.2530540E+02  0.7546771E-02  0.1465416E+00
         21   -1    0    0  503  502  0.00000000000E+00  0.00000000000E+00  0.54596464656E+02  0.54596464656E+02  0.00000000000E+00 0.  1.
         21   -1    0    0  501  503 -0.00000000000E+00 -0.00000000000E+00 -0.52526076161E+02  0.52526076161E+02  0.00000000000E+00 0. -1.
          2    1    1    2  501    0  0.10832507825E+02  0.22869626657E+02 -0.46168696961E+02  0.52648947077E+02  0.00000000000E+00 0. -1.
         -2    1    1    2    0  502 -0.10832507825E+02 -0.22869626657E+02  0.48239085457E+02  0.54473593740E+02  0.00000000000E+00 0.  1.
</event>
<event>
 4    1  0.1780267E+004  0.2501146E+02  0.7546771E-02  0.1468675E+00
         21   -1    0    0  503  502  0.00000000000E+00  0.00000000000E+00  0.55115116508E+02  0.55115116508E+02  0.00000000000E+00 0.  1.
         21   -1    0    0  501  503 -0.00000000000E+00 -0.00000000000E+00 -0.11595528575E+02  0.11595528575E+02  0.00000000000E+00 0. -1.
          2    1    1    2  501    0 -0.24650352991E+02  0.42347906389E+01  0.16909127304E+02  0.30190924805E+02  0.00000000000E+00 0. -1.
         -2    1    1    2    0  502  0.24650352991E+02 -0.42347906389E+01  0.26610460628E+02  0.36519720278E+02  0.00000000000E+00 0.  1.
</event>
<event>
 4    1  0.1780267E+004  0.2798762E+02  0.7546771E-02  0.1437932E+00
         21   -1    0    0  503  502  0.00000000000E+00  0.00000000000E+00  0.78809307925E+02  0.78809307925E+02  0.00000000000E+00 0. -1.
         21   -1    0    0  501  503 -0.00000000000E+00 -0.00000000000E+00 -0.28358234106E+02  0.28358234106E+02  0.00000000000E+00 0.  1.
          2    1    1    2  501    0 -0.74763947181E+01 -0.26970550242E+02 -0.17958801759E+02  0.33253956440E+02  0.00000000000E+00 0.  1.
         -2    1    1    2    0  502  0.74763947181E+01  0.26970550242E+02  0.68409875578E+02  0.73913585591E+02  0.00000000000E+00 0. -1.
</event>
<event>
 4    1  0.1780267E+004  0.2960402E+02  0.7546771E-02  0.1423069E+00
         21   -1    0    0  503  502  0.00000000000E+00  0.00000000000E+00  0.15867627574E+02  0.15867627574E+02  0.00000000000E+00 0.  1.
         21   -1    0    0  501  503 -0.00000000000E+00 -0.00000000000E+00 -0.16787555045E+03  0.16787555045E+03  0.00000000000E+00 0. -1.
          2    1    1    2  501    0 -0.27552333529E+02 -0.10828976049E+02 -0.15125994447E+03  0.15412971357E+03  0.00000000000E+00 0. -1.
         -2    1    1    2    0  502  0.27552333529E+02  0.10828976049E+02 -0.74797840764E+00  0.29613464452E+02  0.00000000000E+00 0.  1.
</event>
<event>
 4    1  0.1780267E+004  0.2125959E+02  0.7546771E-02  0.1515591E+00
         21   -1    0    0  501  502  0.00000000000E+00  0.00000000000E+00  0.19800413605E+03  0.19800413605E+03  0.00000000000E+00 0.  1.
         21   -1    0    0  502  503 -0.00000000000E+00 -0.00000000000E+00 -0.55574718473E+01  0.55574718473E+01  0.00000000000E+00 0. -1.
          2    1    1    2  501    0 -0.17147900004E+02 -0.12566603791E+02  0.17435416712E+03  0.17564551118E+03  0.00000000000E+00 0.  1.
         -2    1    1    2    0  503  0.17147900004E+02  0.12566603791E+02  0.18092497089E+02  0.27916096724E+02  0.00000000000E+00 0. -1.
</event>
<event>
 4    1  0.1780267E+004  0.2117960E+02  0.7546771E-02  0.1516716E+00
         21   -1    0    0  501  502  0.00000000000E+00  0.00000000000E+00  0.31573038234E+01  0.31573038234E+01  0.00000000000E+00 0. -1.
         21   -1    0    0  502  503 -0.00000000000E+00 -0.00000000000E+00 -0.16776980258E+03  0.16776980258E+03  0.00000000000E+00 0.  1.
          2    1    1    2  501    0 -0.37508856511E+01  0.20844814055E+02 -0.48860360577E+02  0.53253265175E+02  0.00000000000E+00 0. -1.
         -2    1    1    2    0  503  0.37508856511E+01 -0.20844814055E+02 -0.11575213818E+03  0.11767384123E+03  0.00000000000E+00 0.  1.
</event>
<event>
 4    1  0.1780267E+004  0.2801100E+02  0.7546771E-02  0.1437708E+00
         21   -1    0    0  501  502  0.00000000000E+00  0.00000000000E+00  0.34488657532E+03  0.34488657532E+03  0.00000000000E+00 0. -1.
         21   -1    0    0  502  503 -0.00000000000E+00 -0.00000000000E+00 -0.57701934141E+01  0.57701934141E+01  0.00000000000E+00 0.  1.
          2    1    1    2  501    0 -0.13351971656E+02 -0.24623989126E+02  0.30601425086E+03  0.30729356928E+03  0.00000000000E+00 0. -1.
         -2    1    1    2    0  503  0.13351971656E+02  0.24623989126E+02  0.33102131040E+02  0.43363199455E+02  0.00000000000E+00 0.  1.
</event>
<event>
 4    1  0.1780267E+004  0.2312740E+02  0.7546771E-02  0.1490905E+00
         21   -1    0    0  503  502  0.00000000000E+00  0.00000000000E+00  0.25125771557E+02  0.25125771557E+02  0.00000000000E+00 0. -1.
         21   -1    0    0  501  503 -0.00000000000E+00 -0.00000000000E+00 -0.30931404463E+02  0.30931404463E+02  0.00000000000E+00 0.  1.
          2    1    1    2  501    0  0.21232167667E+02  0.91690623437E+01 -0.18552922593E+02  0.29649411206E+02  0.00000000000E+00 0.  1.
         -2    1    1    2    0  502 -0.21232167667E+02 -0.91690623437E+01  0.12747289687E+02  0.26407764814E+02  0.00000000000E+00 0. -1.
</event>
<event>
 4    1  0.1780267E+004  0.5206431E+02  0.7546771E-02  0.1289462E+00
         21   -1    0    0  503  502  0.00000000000E+00  0.00000000000E+00  0.88379350573E+02  0.88379350573E+02  0.00000000000E+00 0.  1.
         21   -1    0    0  501  503 -0.00000000000E+00 -0.00000000000E+00 -0.41893186857E+02  0.41893186857E+02  0.00000000000E+00 0. -1.
          2    1    1    2  501    0 -0.39638374318E+02 -0.33756352308E+02 -0.10469185260E+02  0.53106457985E+02  0.00000000000E+00 0. -1.
         -2    1    1    2    0  502  0.39638374318E+02  0.33756352308E+02  0.56955348977E+02  0.77166079444E+02  0.00000000000E+00 0.  1.
</event>
<event>
 4    1  0.1780267E+004  0.2938028E+02  0.7546771E-02  0.1425059E+00
         21   -1    0    0  503  502  0.00000000000E+00  0.00000000000E+00  0.47002120371E+02  0.47002120371E+02  0.00000000000E+00 0. -1.
         21   -1    0    0  501  503 -0.00000000000E+00 -0.00000000000E+00 -0.28938558219E+02  0.28938558219E+02  0.00000000000E+00 0.  1.
          2    1    1    2  501    0 -0.29363128789E+02 -0.10036198878E+01 -0.13919858232E+02  0.32510967970E+02  0.00000000000E+00 0.  1.
         -2    1    1    2    0  502  0.29363128789E+02  0.10036198878E+01  0.31983420384E+02  0.43429710621E+02  0.00000000000E+00 0. -1.
</event>
<event>
 4    1  0.1780267E+004  0.9768936E+02  0.7546771E-02  0.1167873E+00
         21   -1    0    0  501  502  0.00000000000E+00  0.00000000000E+00  0.24163076900E+03  0.24163076900E+03  0.00000000000E+00 0.  1.
         21   -1    0    0  502  503 -0.00000000000E+00 -0.00000000000E+00 -0.44829143428E+02  0.44829143428E+02  0.00000000000E+00 0. -1.
          2    1    1    2  501    0 -0.52612602681E+02  0.82311149534E+02  0.14780745013E+03  0.17717294831E+03  0.00000000000E+00 0.  1.
         -2    1    1    2    0  503  0.52612602681E+02 -0.82311149534E+02  0.48994175438E+02  0.10928696411E+03  0.00000000000E+00 0. -1.
</event>
<event>
 4    1  0.1780267E+004  0.2685742E+02  0.7546771E-02  0.1449046E+00
         21   -1    0    0  501  502  0.00000000000E+00  0.00000000000E+00  0.26793177244E+02  0.26793177244E+02  0.00000000000E+00 0.  1.
         21   -1    0    0  502  503 -0.00000000000E+00 -0.00000000000E+00 -0.28046166054E+02  0.28046166054E+02  0.00000000000E+00 0. -1.
          2    1    1    2  501    0  0.24678565037E+02 -0.10596671528E+02 -0.61165411412E+01  0.27545110188E+02  0.00000000000E+00 0. -1.
         -2    1    1    2    0  503 -0.24678565037E+02  0.10596671528E+02  0.48635523308E+01  0.27294233109E+02  0.00000000000E+00 0.  1.
</event>
<event>
 4    1  0.1780267E+004  0.2710274E+02  0.7546771E-02  0.1446579E+00
         21   -1    0    0  501  502  0.00000000000E+00  0.00000000000E+00  0.13037572960E+01  0.13037572960E+01  0.00000000000E+00 0.  1.
         21   -1    0    0  502  503 -0.00000000000E+00 -0.00000000000E+00 -0.87287630561E+03  0.87287630561E+03  0.00000000000E+00 0. -1.
          2    1    1    2  501    0  0.22945486021E+02 -0.14424402458E+02 -0.17553282774E+03  0.17761287209E+03  0.00000000000E+00 0.  1.
         -2    1    1    2    0  503 -0.22945486021E+02  0.14424402458E+02 -0.69603972057E+03  0.69656719082E+03  0.00000000000E+00 0. -1.
</event>
<event>
 4    1  0.1780267E+004  0.4551279E+02  0.7546771E-02  0.1318895E+00
         21   -1    0    0  501  502  0.00000000000E+00  0.00000000000E+00  0.28070135553E+03  0.28070135553E+03  0.00000000000E+00 0. -1.
         21   -1    0    0  502  503 -0.00000000000E+00 -0.00000000000E+00 -0.11931408857E+02  0.11931408857E+02  0.00000000000E+00 0.  1.
          2    1    1    2  501    0  0.23427062786E+02  0.39020343431E+02  0.22475979819E+03  0.22932156757E+03  0.00000000000E+00 0. -1.
         -2    1    1    2    0  503 -0.23427062786E+02 -0.39020343431E+02  0.44010148482E+02  0.63311196811E+02  0.00000000000E+00 0.  1.
</event>
<event>
 4    1  0.1780267E+004  0.2357961E+02  0.7546771E-02  0.1485345E+00
         21   -1    0    0  503  502  0.00000000000E+00  0.00000000000E+00  0.29236607604E+02  0.29236607604E+02  0.00000000000E+00 0.  1.
         21   -1    0    0  501  503 -0.00000000000E+00 -0.00000000000E+00 -0.31035514979E+02  0.31035514979E+02  0.00000000000E+00 0. -1.
          2    1    1    2  501    0 -0.58633816493E+01 -0.22838971877E+02  0.17853908140E+02  0.29576340488E+02  0.00000000000E+00 0.  1.
         -2    1    1    2    0  502  0.58633816493E+01  0.22838971877E+02 -0.19652815515E+02  0.30695782095E+02  0.00000000000E+00 0. -1.
</event>
<event>
 4    1  0.1780267E+004  0.2109591E+02  0.7546771E-02  0.1517900E+00
         21   -1    0    0  501  502  0.00000000000E+00  0.00000000000E+00  0.34231270048E+03  0.34231270048E+03  0.00000000000E+00 0. -1.
         21   -1    0    0  502  503 -0.00000000000E+00 -0.00000000000E+00 -0.60034843760E+01  0.60034843760E+01  0.00000000000E+00 0.  1.
          2    1    1    2  501    0 -0.17286626255E+02 -0.12091736177E+02  0.32230606577E+03  0.32299572375E+03  0.00000000000E+00 0. -1.
         -2    1    1    2    0  503  0.17286626255E+02  0.12091736177E+02  0.14003150330E+02  0.25320461098E+02  0.00000000000E+00 0.  1.
</event>
<event>
 4    1  0.1780267E+004  0.2005308E+02  0.7546771E-02  0.1533226E+00
         21   -1    0    0  501  502  0.00000000000E+00  0.00000000000E+00  0.20280158532E+01  0.20280158532E+01  0.00000000000E+00 0. -1.
         21   -1    0    0  502  503 -0.00000000000E+00 -0.00000000000E+00 -0.29613258593E+03  0.29613258593E+03  0.00000000000E+00 0.  1.
          2    1    1    2  501    0  0.17858879338E+02 -0.91206607593E+01 -0.61358123582E+02  0.64551881099E+02  0.00000000000E+00 0. -1.
         -2    1    1    2    0  503 -0.17858879338E+02  0.91206607593E+01 -0.23274644650E+03  0.23360872069E+03  0.00000000000E+00 0.  1.
</event>
<event>
 4    1  0.1780267E+004  0.2851464E+02  0.7546771E-02  0.1432959E+00
         21   -1    0    0  503  502  0.00000000000E+00  0.00000000000E+00  0.46043501871E+02  0.46043501871E+02  0.00000000000E+00 0.  1.
         21   -1    0    0  501  503 -0.00000000000E+00 -0.00000000000E+00 -0.23621802764E+03  0.23621802764E+03  0.00000000000E+00 0. -1.
          2    1    1    2  501    0  0.11183236934E+02 -0.26230130440E+02 -0.23084028295E+03  0.23259475653E+03  0.00000000000E+00 0. -1.
         -2    1    1    2    0  502 -0.11183236934E+02  0.26230130440E+02  0.40665757183E+02  0.49666772982E+02  0.00000000000E+00 0.  1.
</event>
<event>
 4    1  0.1780267E+004  0.2176612E+02  0.7546771E-02  0.1508602E+00
         21   -1    0    0  501  502  0.00000000000E+00  0.00000000000E+00  0.22358385199E+02  0.22358385199E+02  0.00000000000E+00 0. -1.
         21   -1    0    0  502  503 -0.00000000000E+00 -0.00000000000E+00 -0.21809401799E+02  0.21809401799E+02  0.00000000000E+00 0.  1.
          2    1    1    2  501    0 -0.21341528840E+02 -0.42782345309E+01  0.39975286179E+01  0.22130168977E+02  0.00000000000E+00 0. -1.
         -2    1    1    2    0  503  0.21341528840E+02  0.42782345309E+01 -0.34485452179E+01  0.22037618021E+02  0.00000000000E+00 0.  1.
</event>
<event>
 4    1  0.1780267E+004  0.2591073E+02  0.7546771E-02  0.1458868E+00
         21   -1    0    0  503  502  0.00000000000E+00  0.00000000000E+00  0.44089721362E+01  0.44089721362E+01  0.00000000000E+00 0.  1.
         21   -1    0    0  501  503 -0.00000000000E+00 -0.00000000000E+00 -0.15598329272E+03  0.15598329272E+03  0.00000000000E+00 0. -1.
          2    1    1    2  501    0  0.10598948816E+02  0.23643781367E+02 -0.63418127661E+02  0.68507116633E+02  0.00000000000E+00 0.  1.
         -2    1    1    2    0  502 -0.10598948816E+02 -0.23643781367E+02 -0.88156192926E+02  0.91885148226E+02  0.00000000000E+00 0. -1.
</event>
<event>
 4    1  0.1780267E+004  0.2355866E+02  0.7546771E-02  0.1485600E+00
         21   -1    0    0  503  502  0.00000000000E+00  0.00000000000E+00  0.44784742010E+02  0.44784742010E+02  0.00000000000E+00 0. -1.
         21   -1    0    0  501  503 -0.00000000000E+00 -0.00000000000E+00 -0.18366147739E+02  0.18366147739E+02  0.00000000000E+00 0.  1.
          2    1    1    2  501    0  0.11201660056E+02  0.20725181839E+02 -0.47979662693E+01  0.24042271744E+02  0.00000000000E+00 0.  1.
         -2    1    1    2    0  502 -0.11201660056E+02 -0.20725181839E+02  0.31216560541E+02  0.39108618005E+02  0.00000000000E+00 0. -1.
</event>
<event>
 4    1  0.1780267E+004  0.3248825E+02  0.7546771E-02  0.1399137E+00
         21   -1    0    0  501  502  0.00000000000E+00  0.00000000000E+00  0.55159279447E+02  0.55159279447E+02  0.00000000000E+00 0.  1.
         21   -1    0    0  502  503 -0.00000000000E+00 -0.00000000000E+00 -0.45783119196E+02  0.45783119196E+02  0.00000000000E+00 0. -1.
          2    1    1    2  501    0  0.74890338242E+01  0.31613304724E+02  0.43193527253E+02  0.54047825671E+02  0.00000000000E+00 0.  1.
         -2    1    1    2    0  503 -0.74890338242E+01 -0.31613304724E+02 -0.33817367003E+02  0.46894572972E+02  0.00000000000E+00 0. -1.
</event>
<event>
 4    1  0.1780267E+004  0.3661985E+02  0.7546771E-02  0.1369519E+00
         21   -1    0    0  501  502  0.00000000000E+00  0.00000000000E+00  0.35419026096E+02  0.35419026096E+02  0.00000000000E+00 0.  1.
         21   -1    0    0  502  503 -0.00000000000E+00 -0.00000000000E+00 -0.54507655628E+02  0.54507655628E+02  0.00000000000E+00 0. -1.
          2    1    1    2  501    0 -0.36287046141E+02 -0.49258501343E+01  0.15303498432E+02  0.39688925174E+02  0.00000000000E+00 0.  1.
         -2    1    1    2    0  503  0.36287046141E+02  0.49258501343E+01 -0.34392127965E+02  0.50237756550E+02  0.00000000000E+00 0. -1.
</event>
<event>
 4    1  0.1780267E+004  0.4010967E+02  0.7546771E-02  0.1347844E+00
         21   -1    0    0  501  502  0.00000000000E+00  0.00000000000E+00  0.59017244342E+03  0.59017244342E+03  0.00000000000E+00 0. -1.
         21   -1    0    0  502  503 -0.00000000000E+00 -0.00000000000E+00 -0.39942372762E+01  0.39942372762E+01  0.00000000000E+00 0.  1.
          2    1    1    2  501    0  0.15265684472E+02  0.37091031999E+02  0.46049419971E+03  0.46223770264E+03  0.00000000000E+00 0. -1.
         -2    1    1    2    0  503 -0.15265684472E+02 -0.37091031999E+02  0.12568400643E+03  0.13192897805E+03  0.00000000000E+00 0.  1.
</event>
<event>
 4    1  0.1780267E+004  0.2005847E+02  0.7546771E-02  0.1533144E+00
         21   -1    0    0  503  502  0.00000000000E+00  0.00000000000E+00  0.99520255755E+03  0.99520255755E+03  0.00000000000E+00 0.  1.
         21   -1    0    0  501  503 -0.00000000000E+00 -0.00000000000E+00 -0.49346620633E+00  0.49346620633E+00  0.00000000000E+00 0. -1.
          2    1    1    2  501    0  0.10669821164E+02 -0.16985209228E+02  0.70900158703E+03  0.70928526900E+03  0.00000000000E+00 0. -1.
         -2    1    1    2    0  502 -0.10669821164E+02  0.16985209228E+02  0.28570750432E+03  0.28641075476E+03  0.00000000000E+00 0.  1.
</event>
<event>
 4    1  0.1780267E+004  0.2729836E+02  0.7546771E-02  0.1444634E+00
         21   -1    0    0  501  502  0.00000000000E+00  0.00000000000E+00  0.40034526850E+02  0.40034526850E+02  0.00000000000E+00 0. -1.
         21   -1    0    0  502  503 -0.00000000000E+00 -0.00000000000E+00 -0.26582003503E+02  0.26582003503E+02  0.00000000000E+00 0.  1.
          2    1    1    2  501    0 -0.69035952883E+01  0.26410996015E+02  0.24962468626E+02  0.36990879664E+02  0.00000000000E+00 0. -1.
         -2    1    1    2    0  503  0.69035952883E+01 -0.26410996015E+02 -0.11509945279E+02  0.29625650689E+02  0.00000000000E+00 0.  1.
</event>
<event>
 4    1  0.1780267E+004  0.2280415E+02  0.7546771E-02  0.1494972E+00
         21   -1    0    0  501  502  0.00000000000E+00  0.00000000000E+00  0.18505221358E+01  0.18505221358E+01  0.00000000000E+00 0. -1.
         21   -1    0    0  502  503 -0.00000000000E+00 -0.00000000000E+00 -0.30281071208E+03  0.30281071208E+03  0.00000000000E+00 0.  1.
          2    1    1    2  501    0 -0.19524909767E+02  0.11781646454E+02 -0.10961418422E+03  0.11196114807E+03  0.00000000000E+00 0.  1.
         -2    1    1    2    0  503  0.19524909767E+02 -0.11781646454E+02 -0.19134600572E+03  0.19270008615E+03  0.00000000000E+00 0. -1.
</event>
<event>
 4    1  0.1780267E+004  0.2234702E+02  0.7546771E-02  0.1500865E+00
         21   -1    0    0  503  502  0.00000000000E+00  0.00000000000E+00  0.61239969201E+02  0.61239969201E+02  0.00000000000E+00 0. -1.
         21   -1    0    0  501  503 -0.00000000000E+00 -0.00000000000E+00 -0.10948743009E+02  0.10948743009E+02  0.00000000000E+00 0.  1.
          2    1    1    2  501    0 -0.19178822793E+02  0.11470048184E+02  0.69117284307E+01  0.23391477913E+02  0.00000000000E+00 0.  1.
         -2    1    1    2    0  502  0.19178822793E+02 -0.11470048184E+02  0.43379497761E+02  0.48797234298E+02  0.00000000000E+00 0. -1.
</event>
<event>
 4    1  0.1780267E+004  0.2092806E+02  0.7546771E-02  0.1520294E+00
         21   -1    0    0  501  502  0.00000000000E+00  0.00000000000E+00  0.14781997100E+03  0.14781997100E+03  0.00000000000E+00 0.  1.
         21   -1    0    0  502  503 -0.00000000000E+00 -0.00000000000E+00 -0.13069583716E+02  0.13069583716E+02  0.00000000000E+00 0. -1.
          2    1    1    2  501    0  0.69481820889E+01  0.19740979331E+02  0.13811603060E+03  0.13969259611E+03  0.00000000000E+00 0.  1.
         -2    1    1    2    0  503 -0.69481820889E+01 -0.19740979331E+02 -0.33656433147E+01  0.21196958607E+02  0.00000000000E+00 0. -1.
</event>
<event>
 4    1  0.1780267E+004  0.3076683E+02  0.7546771E-02  0.1413047E+00
         21   -1    0    0  503  502  0.00000000000E+00  0.00000000000E+00  0.49249833446E+02  0.49249833446E+02  0.00000000000E+00 0.  1.
         21   -1    0    0  501  503 -0.00000000000E+00 -0.00000000000E+00 -0.28836088424E+02  0.28836088424E+02  0.00000000000E+00 0. -1.
          2    1    1    2  501    0  0.19195642404E+01 -0.30706889288E+02 -0.12338970046E+02  0.33148875673E+02  0.00000000000E+00 0. -1.
         -2    1    1    2    0  502 -0.19195642404E+01  0.30706889288E+02  0.32752715068E+02  0.44937046197E+02  0.00000000000E+00 0.  1.
</event>
<event>
 4    1  0.1780267E+004  0.2148822E+02  0.7546771E-02  0.1512407E+00
         21   -1    0    0  503  502  0.00000000000E+00  0.00000000000E+00  0.51930682509E+02  0.51930682509E+02  0.00000000000E+00 0.  1.
         21   -1    0    0  501  503 -0.00000000000E+00 -0.00000000000E+00 -0.23437640135E+02  0.23437640135E+02  0.00000000000E+00 0. -1.
          2    1    1    2  501    0  0.20056395970E+02  0.77126218719E+01 -0.15441089975E+02  0.26460741015E+02  0.00000000000E+00 0. -1.
         -2    1    1    2    0  502 -0.20056395970E+02 -0.77126218719E+01  0.43934132349E+02  0.48907581628E+02  0.00000000000E+00 0.  1.
</event>
<event>
 4    1  0.1780267E+004  0.3100483E+02  0.7546771E-02  0.1411061E+00
         21   -1    0    0  501  502  0.00000000000E+00  0.00000000000E+00  0.55517978468E+01  0.55517978468E+01  0.00000000000E+00 0.  1.
         21   -1    0    0  502  503 -0.00000000000E+00 -0.00000000000E+00 -0.29809483260E+03  0.29809483260E+03  0.00000000000E+00 0. -1.
          2    1    1    2  501    0  0.27607333636E+02  0.14111503836E+02 -0.47979411678E+02  0.57125505302E+02  0.00000000000E+00 0.  1.
         -2    1    1    2    0  503 -0.27607333636E+02 -0.14111503836E+02 -0.24456362307E+03  0.24652112514E+03  0.00000000000E+00 0. -1.
</event>
<event>
 4    1  0.1780267E+004  0.3664055E+02  0.7546771E-02  0.1369382E+00
         21   -1    0    0  503  502  0.00000000000E+00  0.00000000000E+00  0.95637967017E+01  0.95637967017E+01  0.00000000000E+00 0. -1.
         21   -1    0    0  501  503 -0.00000000000E+00 -0.00000000000E+00 -0.16078267710E+03  0.16078267710E+03  0.00000000000E+00 0.  1.
          2    1    1    2  501    0 -0.31418051597E+01  0.36505597515E+02 -0.45265821338E+02  0.58236793962E+02  0.00000000000E+00 0.  1.
         -2    1    1    2    0  502  0.31418051597E+01 -0.36505597515E+02 -0.10595305906E+03  0.11210967984E+03  0.00000000000E+00 0. -1.
</event>
<event>
 4    1  0.1780267E+004  0.2320886E+02  0.7546771E-02  0.1489892E+00
         21   -1    0    0  501  502  0.00000000000E+00  0.00000000000E+00  0.13147998336E+03  0.13147998336E+03  0.00000000000E+00 0. -1.
         21   -1    0    0  502  503 -0.00000000000E+00 -0.00000000000E+00 -0.92541365344E+01  0.92541365344E+01  0.00000000000E+00 0.  1.
          2    1    1    2  501    0 -0.18188808448E+02 -0.14415903366E+02  0.11364359641E+03  0.11598930135E+03  0.00000000000E+00 0. -1.
         -2    1    1    2    0  503  0.18188808448E+02  0.14415903366E+02  0.85822504166E+01  0.24744818545E+02  0.00000000000E+00 0.  1.
</event>
<event>
 4    1  0.1780267E+004  0.2123211E+02  0.7546771E-02  0.1515977E+00
         21   -1    0    0  503  502  0.00000000000E+00  0.00000000000E+00  0.33568634253E+01  0.33568634253E+01  0.00000000000E+00 0.  1.
         21   -1    0    0  501  503 -0.00000000000E+00 -0.00000000000E+00 -0.25611803397E+03  0.25611803397E+03  0.00000000000E+00 0. -1.
          2    1    1    2  501    0  0.97001133867E+01  0.18886774628E+02 -0.21585811202E+03  0.21689980862E+03  0.00000000000E+00 0. -1.
         -2    1    1    2    0  502 -0.97001133867E+01 -0.18886774628E+02 -0.36903058527E+02  0.42575088775E+02  0.00000000000E+00 0.  1.
</event>
<event>
 4    1  0.1780267E+004  0.3547265E+02  0.7546771E-02  0.1377270E+00
         21   -1    0    0  503  502  0.00000000000E+00  0.00000000000E+00  0.53950427689E+03  0.53950427689E+03  0.00000000000E+00 0.  1.
         21   -1    0    0  501  503 -0.00000000000E+00 -0.00000000000E+00 -0.35062608212E+01  0.35062608212E+01  0.00000000000E+00 0. -1.
          2    1    1    2  501    0  0.25232180689E+02  0.24932832817E+02  0.11089944538E+03  0.11643451413E+03  0.00000000000E+00 0. -1.
         -2    1    1    2    0  502 -0.25232180689E+02 -0.24932832817E+02  0.42509857069E+03  0.42657602358E+03  0.00000000000E+00 0.  1.
</event>
<event>
 4    1  0.1780267E+004  0.2751153E+02  0.7546771E-02  0.1442536E+00
         21   -1    0    0  501  502  0.00000000000E+00  0.00000000000E+00  0.23199908180E+03  0.23199908180E+03  0.00000000000E+00 0. -1.
         21   -1    0    0  502  503 -0.00000000000E+00 -0.00000000000E+00 -0.44020654580E+01  0.44020654580E+01  0.00000000000E+00 0.  1.
          2    1    1    2  501    0  0.14050220199E+02 -0.23653242069E+02  0.17393958574E+03  0.17610185699E+03  0.00000000000E+00 0. -1.
         -2    1    1    2    0  503 -0.14050220199E+02  0.23653242069E+02  0.53657430604E+02  0.60299290270E+02  0.00000000000E+00 0.  1.
</event>
<event>
 4    1  0.1780267E+004  0.4470746E+02  0.7546771E-02  0.1322909E+00
         21   -1    0    0  501  502  0.00000000000E+00  0.00000000000E+00  0.25802876098E+03  0.25802876098E+03  0.00000000000E+00 0.  1.
         21   -1    0    0  502  503 -0.00000000000E+00 -0.00000000000E+00 -0.77620057469E+01  0.77620057469E+01  0.00000000000E+00 0. -1.
          2    1    1    2  501    0 -0.35377937072E+02 -0.27334203639E+02  0.13111948673E+03  0.13853186247E+03  0.00000000000E+00 0. -1.
         -2    1    1    2    0  503  0.35377937072E+02  0.27334203639E+02  0.11914726851E+03  0.12725890426E+03  0.00000000000E+00 0.  1.
</event>
<event>
 4    1  0.1780267E+004  0.2400325E+02  0.7546771E-02  0.1480270E+00
         21   -1    0    0  503  502  0.00000000000E+00  0.00000000000E+00  0.19675791306E+03  0.19675791306E+03  0.00000000000E+00 0. -1.
         21   -1    0    0  501  503 -0.00000000000E+00 -0.00000000000E+00 -0.56819532035E+01  0.56819532035E+01  0.00000000000E+00 0.  1.
          2    1    1    2  501    0 -0.44672787166E-01  0.24003209060E+02  0.25072581451E+02  0.34710090484E+02  0.00000000000E+00 0.  1.
         -2    1    1    2    0  502  0.44672787166E-01 -0.24003209060E+02  0.16600337840E+03  0.16772977578E+03  0.00000000000E+00 0. -1.
</event>
<event>
 4    1  0.1780267E+004  0.6510422E+02  0.7546771E-02  0.1243411E+00
         21   -1    0    0  503  502  0.00000000000E+00  0.00000000000E+00  0.16209553149E+02  0.16209553149E+02  0.00000000000E+00 0. -1.
         21   -1    0    0  501  503 -0.00000000000E+00 -0.00000000000E+00 -0.35527916248E+03  0.35527916248E+03  0.00000000000E+00 0.  1.
          2    1    1    2  501    0 -0.64543485274E+02 -0.85262869884E+01 -0.26497209226E+03  0.27285301673E+03  0.00000000000E+00 0. -1.
         -2    1    1    2    0  502  0.64543485274E+02  0.85262869884E+01 -0.74097517065E+02  0.98635698894E+02  0.00000000000E+00 0.  1.
</event>
<event>
 4    1  0.1780267E+004  0.2237896E+02  0.7546771E-02  0.1500447E+00
         21   -1    0    0  501  502  0.00000000000E+00  0.00000000000E+00  0.17903406426E+02  0.17903406426E+02  0.00000000000E+00 0.  1.
         21   -1    0    0  502  503 -0.00000000000E+00 -0.00000000000E+00 -0.10510448812E+03  0.10510448812E+03  0.00000000000E+00 0. -1.
          2    1    1    2  501    0  0.21857287027E+02 -0.48038399044E+01  0.90869223047E+01  0.24153468301E+02  0.00000000000E+00 0.  1.
         -2    1    1    2    0  503 -0.21857287027E+02  0.48038399044E+01 -0.96288003997E+02  0.98854426242E+02  0.00000000000E+00 0. -1.
</event>
<event>
 4    1  0.1780267E+004  0.2696764E+02  0.7546771E-02  0.1447933E+00
         21   -1    0    0  503  502  0.00000000000E+00  0.00000000000E+00  0.29715075956E+02  0.29715075956E+02  0.00000000000E+00 0. -1.
         21   -1    0    0  501  503 -0.00000000000E+00 -0.00000000000E+00 -0.25882424062E+02  0.25882424062E+02  0.00000000000E+00 0.  1.
          2    1    1    2  501    0  0.12438557756E+02  0.23927727485E+02  0.84004707954E+01  0.28245738993E+02  0.00000000000E+00 0. -1.
         -2    1    1    2    0  502 -0.12438557756E+02 -0.23927727485E+02 -0.45678189019E+01  0.27351761025E+02  0.00000000000E+00 0.  1.
</event>
<event>
 4    1  0.1780267E+004  0.5342584E+02  0.7546771E-02  0.1283965E+00
         21   -1    0    0  503  502  0.00000000000E+00  0.00000000000E+00  0.27416235006E+02  0.27416235006E+02  0.00000000000E+00 0.  1.
         21   -1    0    0  501  503 -0.00000000000E+00 -0.00000000000E+00 -0.16315946249E+03  0.16315946249E+03  0.00000000000E+00 0. -1.
          2    1    1    2  501    0 -0.52071877367E+02  0.11951584712E+02 -0.12519570015E+03  0.13611863989E+03  0.00000000000E+00 0.  1.
         -2    1    1    2    0  502  0.52071877367E+02 -0.11951584712E+02 -0.10547527328E+02  0.54457057599E+02  0.00000000000E+00 0. -1.
</event>
<event>
 4    1  0.1780267E+004  0.2285557E+02  0.7546771E-02  0.1494320E+00
         21   -1    0    0  503  502  0.00000000000E+00  0.00000000000E+00  0.14109030106E+03  0.14109030106E+03  0.00000000000E+00 0.  1.
         21   -1    0    0  501  503 -0.00000000000E+00 -0.00000000000E+00 -0.37543737290E+01  0.37543737290E+01  0.00000000000E+00 0. -1.
          2    1    1    2  501    0  0.72721157195E+01  0.21667798884E+02  0.60149445351E+02  0.64345419041E+02  0.00000000000E+00 0. -1.
         -2    1    1    2    0  502 -0.72721157195E+01 -0.21667798884E+02  0.77186481976E+02  0.80499255745E+02  0.00000000000E+00 0.  1.
</event>
<event>
 4    1  0.1780267E+004  0.5748208E+02  0.7546771E-02  0.1268636E+00
         21   -1    0    0  503  502  0.00000000000E+00  0.00000000000E+00  0.62343173406E+02  0.62343173406E+02  0.00000000000E+00 0.  1.
         21   -1    0    0  501  503 -0.00000000000E+00 -0.00000000000E+00 -0.23650374552E+03  0.23650374552E+03  0.00000000000E+00 0. -1.
          2    1    1    2  501    0  0.44811908912E+02  0.36001142982E+02 -0.21870038642E+03  0.22612838941E+03  0.00000000000E+00 0. -1.
         -2    1    1    2    0  502 -0.44811908912E+02 -0.36001142982E+02  0.44539814307E+02  0.72718529515E+02  0.00000000000E+00 0.  1.
</event>
<event>
 4    1  0.1780267E+004  0.3659706E+02  0.7546771E-02  0.1369670E+00
         21   -1    0    0  503  502  0.00000000000E+00  0.00000000000E+00  0.20066157278E+03  0.20066157278E+03  0.00000000000E+00 0. -1.
         21   -1    0    0  501  503 -0.00000000000E+00 -0.00000000000E+00 -0.14684123606E+02  0.14684123606E+02  0.00000000000E+00 0.  1.
          2    1    1    2  501    0  0.13185465144E+02 -0.34139248343E+02  0.13467271432E+02  0.38996309676E+02  0.00000000000E+00 0.  1.
         -2    1    1    2    0  502 -0.13185465144E+02  0.34139248343E+02  0.17251017774E+03  0.17634938671E+03  0.00000000000E+00 0. -1.
</event>
<event>
 4    1  0.1780267E+004  0.2289245E+02  0.7546771E-02  0.1493853E+00
         21   -1    0    0  501  502  0.00000000000E+00  0.00000000000E+00  0.45163646219E+02  0.45163646219E+02  0.00000000000E+00 0.  1.
         21   -1    0    0  502  503 -0.00000000000E+00 -0.00000000000E+00 -0.64492142067E+02  0.64492142067E+02  0.00000000000E+00 0. -1.
          2    1    1    2  501    0 -0.13116507091E+02  0.18762238207E+02  0.39986826192E+02  0.46076139266E+02  0.00000000000E+00 0.  1.
         -2    1    1    2    0  503  0.13116507091E+02 -0.18762238207E+02 -0.59315322039E+02  0.63579649019E+02  0.00000000000E+00 0. -1.
</event>
<event>
 4    1  0.1780267E+004  0.2270345E+02  0.7546771E-02  0.1496256E+00
         21   -1    0    0  503  502  0.00000000000E+00  0.00000000000E+00  0.81977931345E+02  0.81977931345E+02  0.00000000000E+00 0.  1.
         21   -1    0    0  501  503 -0.00000000000E+00 -0.00000000000E+00 -0.82296476587E+01  0.82296476587E+01  0.00000000000E+00 0. -1.
          2    1    1    2  501    0  0.10389264074E+02 -0.20186877045E+02  0.14963801808E+02  0.27191215077E+02  0.00000000000E+00 0. -1.
         -2    1    1    2    0  502 -0.10389264074E+02  0.20186877045E+02  0.58784481879E+02  0.63016363927E+02  0.00000000000E+00 0.  1.
</event>
<event>
 4    1  0.1780267E+004  0.2385852E+02  0.7546771E-02  0.1481990E+00
         21   -1    0    0  501  502  0.00000000000E+00  0.00000000000E+00  0.84533253277E+01  0.84533253277E+01  0.00000000000E+00 0. -1.
         21   -1    0    0  502  503 -0.00000000000E+00 -0.00000000000E+00 -0.10835733519E+03  0.10835733519E+03  0.00000000000E+00 0.  1.
          2    1    1    2  501    0 -0.76249967911E+01 -0.22607264213E+02 -0.14016951736E+02  0.27671355356E+02  0.00000000000E+00 0. -1.
         -2    1    1    2    0  503  0.76249967911E+01  0.22607264213E+02 -0.85887058126E+02  0.89139305162E+02  0.00000000000E+00 0.  1.
</event>
<event>
 4    1  0.1780267E+004  0.2246402E+02  0.7546771E-02  0.1499340E+00
         21   -1    0    0  503  502  0.00000000000E+00  0.00000000000E+00  0.60324656016E+01  0.60324656016E+01  0.00000000000E+00 0.  1.
         21   -1    0    0  501  503 -0.00000000000E+00 -0.00000000000E+00 -0.22013355086E+03  0.22013355086E+03  0.00000000000E+00 0. -1.
          2    1    1    2  501    0 -0.15002235846E+02 -0.16720196005E+02 -0.19609155606E+03  0.19737408744E+03  0.00000000000E+00 0. -1.
         -2    1    1    2    0  502  0.15002235846E+02  0.16720196005E+02 -0.18009529199E+02  0.28791929022E+02  0.00000000000E+00 0.  1.
</event>
<event>
 4    1  0.1780267E+004  0.2408537E+02  0.7546771E-02  0.1479301E+00
         21   -1    0    0  503  502  0.00000000000E+00  0.00000000000E+00  0.51172971596E+02  0.51172971596E+02  0.00000000000E+00 0.  1.
         21   -1    0    0  501  503 -0.00000000000E+00 -0.00000000000E+00 -0.33982080062E+02  0.33982080062E+02  0.00000000000E+00 0. -1.
          2    1    1    2  501    0  0.24017014945E+02 -0.18133607412E+01 -0.26162201559E+02  0.35560737822E+02  0.00000000000E+00 0. -1.
         -2    1    1    2    0  502 -0.24017014945E+02  0.18133607412E+01  0.43353093093E+02  0.49594313835E+02  0.00000000000E+00 0.  1.
</event>
<event>
 4    1  0.1780267E+004  0.2620806E+02  0.7546771E-02  0.1455730E+00
         21   -1    0    0  501  502  0.00000000000E+00  0.00000000000E+00  0.24683099124E+02  0.24683099124E+02  0.00000000000E+00 0. -1.
         21   -1    0    0  502  503 -0.00000000000E+00 -0.00000000000E+00 -0.37356462557E+02  0.37356462557E+02  0.00000000000E+00 0.  1.
          2    1    1    2  501    0  0.12450427855E+02  0.23061859556E+02  0.93302731059E+01  0.27819355064E+02  0.00000000000E+00 0. -1.
         -2    1    1    2    0  503 -0.12450427855E+02 -0.23061859556E+02 -0.22003636539E+02  0.34220206616E+02  0.00000000000E+00 0.  1.
</event>
<event>
 4    1  0.1780267E+004  0.2721512E+02  0.7546771E-02  0.1445459E+00
         21   -1    0    0  501  502  0.00000000000E+00  0.00000000000E+00  0.70384834527E+01  0.70384834527E+01  0.00000000000E+00 0. -1.
         21   -1    0    0  502  503 -0.00000000000E+00 -0.00000000000E+00 -0.11136164785E+03  0.11136164785E+03  0.00000000000E+00 0.  1.
          2    1    1    2  501    0 -0.29251970500E+01  0.27057460391E+02 -0.38270815201E+02  0.46960815972E+02  0.00000000000E+00 0. -1.
         -2    1    1    2    0  503  0.29251970500E+01 -0.27057460391E+02 -0.66052349198E+02  0.71439315333E+02  0.00000000000E+00 0.  1.
</event>
<event>
 4    1  0.1780267E+004  0.2690077E+02  0.7546771E-02  0.1448607E+00
         21   -1    0    0  503  502  0.00000000000E+00  0.00000000000E+00  0.13570442919E+03  0.13570442919E+03  0.00000000000E+00 0. -1.
         21   -1    0    0  501  503 -0.00000000000E+00 -0.00000000000E+00 -0.54646208477E+01  0.54646208477E+01  0.00000000000E+00 0.  1.
          2    1    1    2  501    0 -0.23340756835E+01 -0.26799320749E+02  0.54146972193E+02  0.60461112292E+02  0.00000000000E+00 0. -1.
         -2    1    1    2    0  502  0.23340756835E+01  0.26799320749E+02  0.76092836150E+02  0.80707937747E+02  0.00000000000E+00 0.  1.
</event>
<event>
 4    1  0.1780267E+004  0.2144241E+02  0.7546771E-02  0.1513041E+00
         21   -1    0    0  503  502  0.00000000000E+00  0.00000000000E+00  0.14527683956E+03  0.14527683956E+03  0.00000000000E+00 0. -1.
         21   -1    0    0  501  503 -0.00000000000E+00 -0.00000000000E+00 -0.34537806045E+01  0.34537806045E+01  0.00000000000E+00 0.  1.
          2    1    1    2  501    0  0.20528895093E+02  0.61920569133E+01  0.49401960516E+02  0.53854719435E+02  0.00000000000E+00 0.  1.
         -2    1    1    2    0  502 -0.20528895093E+02 -0.61920569133E+01  0.92421098435E+02  0.94875900726E+02  0.00000000000E+00 0. -1.
</event>
<event>
 4    1  0.1780267E+004  0.2871169E+02  0.7546771E-02  0.1431132E+00
         21   -1    0    0  501  502  0.00000000000E+00  0.00000000000E+00  0.23481149592E+03  0.23481149592E+03  0.00000000000E+00 0. -1.
         21   -1    0    0  502  503 -0.00000000000E+00 -0.00000000000E+00 -0.43805729514E+01  0.43805729514E+01  0.00000000000E+00 0.  1.
          2    1    1    2  501    0  0.19181353289E+02 -0.21364386971E+02  0.16850844863E+03  0.17093700186E+03  0.00000000000E+00 0. -1.
         -2    1    1    2    0  503 -0.19181353289E+02  0.21364386971E+02  0.61922474330E+02  0.68255067005E+02  0.00000000000E+00 0.  1.
</event>
<event>
 4    1  0.1780267E+004  0.2535468E+02  0.7546771E-02  0.1464874E+00
         21   -1    0    0  501  502  0.00000000000E+00  0.00000000000E+00  0.21455639392E+02  0.21455639392E+02  0.00000000000E+00 0. -1.
         21   -1    0    0  502  503 -0.00000000000E+00 -0.00000000000E+00 -0.11883244954E+03  0.11883244954E+03  0.00000000000E+00 0.  1.
          2    1    1    2  501    0  0.13801994085E+02 -0.21268871711E+02  0.11971436973E+02  0.28038816805E+02  0.00000000000E+00 0. -1.
         -2    1    1    2    0  503 -0.13801994085E+02  0.21268871711E+02 -0.10934824712E+03  0.11224927213E+03  0.00000000000E+00 0.  1.
</event>
<event>
 4    1  0.1780267E+004  0.2090072E+02  0.7546771E-02  0.1520687E+00
         21   -1    0    0  503  502  0.00000000000E+00  0.00000000000E+00  0.69817771122E+03  0.69817771122E+03  0.00000000000E+00 0.  1.
         21   -1    0    0  501  503 -0.00000000000E+00 -0.00000000000E+00 -0.63547759406E+00  0.63547759406E+00  0.00000000000E+00 0. -1.
          2    1    1    2  501    0 -0.80248948607E+00 -0.20885304067E+02  0.30539896372E+03  0.30611332372E+03  0.00000000000E+00 0.  1.
         -2    1    1    2    0  502  0.80248948607E+00  0.20885304067E+02  0.39214326991E+03  0.39269986510E+03  0.00000000000E+00 0. -1.
</event>
<event>
 4    1  0.1780267E+004  0.2688188E+02  0.7546771E-02  0.1448798E+00
         21   -1    0    0  503  502  0.00000000000E+00  0.00000000000E+00  0.32347955446E+02  0.32347955446E+02  0.00000000000E+00 0. -1.
         21   -1    0    0  501  503 -0.00000000000E+00 -0.00000000000E+00 -0.26574115019E+02  0.26574115019E+02  0.00000000000E+00 0.  1.
          2    1    1    2  501    0 -0.25658238111E+02  0.80181383569E+01 -0.88736349677E+01  0.28308605109E+02  0.00000000000E+00 0. -1.
         -2    1    1    2    0  502  0.25658238111E+02 -0.80181383569E+01  0.14647475395E+02  0.30613465356E+02  0.00000000000E+00 0.  1.
</event>
<event>
 4    1  0.1780267E+004  0.2306504E+02  0.7546771E-02  0.1491683E+00
         21   -1    0    0  503  502  0.00000000000E+00  0.00000000000E+00  0.19426481146E+03  0.19426481146E+03  0.00000000000E+00 0. -1.
         21   -1    0    0  501  503 -0.00000000000E+00 -0.00000000000E+00 -0.28176640854E+01  0.28176640854E+01  0.00000000000E+00 0.  1.
          2    1    1    2  501    0  0.23050916886E+02  0.80704851028E+00  0.79207358670E+02  0.82497283374E+02  0.00000000000E+00 0.  1.
         -2    1    1    2    0  502 -0.23050916886E+02 -0.80704851028E+00  0.11223978871E+03  0.11458519218E+03  0.00000000000E+00 0. -1.
</event>
<event>
 4    1  0.1780267E+004  0.2258830E+02  0.7546771E-02  0.1497734E+00
         21   -1    0    0  503  502  0.00000000000E+00  0.00000000000E+00  0.18516968872E+02  0.18516968872E+02  0.00000000000E+00 0. -1.
         21   -1    0    0  501  503 -0.00000000000E+00 -0.00000000000E+00 -0.57815260446E+02  0.57815260446E+02  0.00000000000E+00 0.  1.
          2    1    1    2  501    0 -0.19892042786E+02 -0.10702233794E+02 -0.47260935092E+02  0.52381553625E+02  0.00000000000E+00 0.  1.
         -2    1    1    2    0  502  0.19892042786E+02  0.10702233794E+02  0.79626435180E+01  0.23950675693E+02  0.00000000000E+00 0. -1.
</event>
<event>
 4    1  0.1780267E+004  0.3276002E+02  0.7546771E-02  0.1397034E+00
         21   -1    0    0  501  502  0.00000000000E+00  0.00000000000E+00  0.11591386334E+03  0.11591386334E+03  0.00000000000E+00 0. -1.
         21   -1    0    0  502  503 -0.00000000000E+00 -0.00000000000E+00 -0.93995572086E+01  0.93995572086E+01  0.00000000000E+00 0.  1.
          2    1    1    2  501    0 -0.25594539273E+02  0.20448439680E+02  0.45588758230E+02  0.56138703253E+02  0.00000000000E+00 0.  1.
         -2    1    1    2    0  503  0.25594539273E+02 -0.20448439680E+02  0.60925547905E+02  0.69174717300E+02  0.00000000000E+00 0. -1.
</event>
<event>
 4    1  0.1780267E+004  0.2313758E+02  0.7546771E-02  0.1490778E+00
         21   -1    0    0  501  502  0.00000000000E+00  0.00000000000E+00  0.24363166364E+03  0.24363166364E+03  0.00000000000E+00 0. -1.
         21   -1    0    0  502  503 -0.00000000000E+00 -0.00000000000E+00 -0.22261137448E+01  0.22261137448E+01  0.00000000000E+00 0.  1.
          2    1    1    2  501    0  0.30427867626E-01 -0.23137559414E+02  0.13467266878E+03  0.13664580234E+03  0.00000000000E+00 0. -1.
         -2    1    1    2    0  503 -0.30427867626E-01  0.23137559414E+02  0.10673288112E+03  0.10921197504E+03  0.00000000000E+00 0.  1.
</event>
<event>
 4    1  0.1780267E+004  0.2382234E+02  0.7546771E-02  0.1482422E+00
         21   -1    0    0  501  502  0.00000000000E+00  0.00000000000E+00  0.54138119683E+01  0.54138119683E+01  0.00000000000E+00 0.  1.
         21   -1    0    0  502  503 -0.00000000000E+00 -0.00000000000E+00 -0.10541847272E+03  0.10541847272E+03  0.00000000000E+00 0. -1.
          2    1    1    2  501    0 -0.11903324203E+02 -0.20635276920E+02 -0.54159662258E+02  0.59167328793E+02  0.00000000000E+00 0. -1.
         -2    1    1    2    0  503  0.11903324203E+02  0.20635276920E+02 -0.45844998490E+02  0.51664955891E+02  0.00000000000E+00 0.  1.
</event>
<event>
 4    1  0.1780267E+004  0.2731498E+02  0.7546771E-02  0.1444469E+00
         21   -1    0    0  503  502  0.00000000000E+00  0.00000000000E+00  0.12691953001E+02  0.12691953001E+02  0.00000000000E+00 0.  1.
         21   -1    0    0  501  503 -0.00000000000E+00 -0.00000000000E+00 -0.59368105181E+02  0.59368105181E+02  0.00000000000E+00 0. -1.
          2    1    1    2  501    0  0.25224996639E+02  0.10478925858E+02 -0.26905974303E+02  0.38341097999E+02  0.00000000000E+00 0. -1.
         -2    1    1    2    0  502 -0.25224996639E+02 -0.10478925858E+02 -0.19770177877E+02  0.33718960183E+02  0.00000000000E+00 0.  1.
</event>
<event>
 4    1  0.1780267E+004  0.2399284E+02  0.7546771E-02  0.1480394E+00
         21   -1    0    0  503  502  0.00000000000E+00  0.00000000000E+00  0.55004011227E+02  0.55004011227E+02  0.00000000000E+00 0.  1.
         21   -1    0    0  501  503 -0.00000000000E+00 -0.00000000000E+00 -0.12822202886E+02  0.12822202886E+02  0.00000000000E+00 0. -1.
          2    1    1    2  501    0 -0.70047844811E+00 -0.23982609097E+02  0.65524234271E+01  0.24871478885E+02  0.00000000000E+00 0.  1.
         -2    1    1    2    0  502  0.70047844811E+00  0.23982609097E+02  0.35629384914E+02  0.42954735228E+02  0.00000000000E+00 0. -1.
</event>
<event>
 4    1  0.1780267E+004  0.2936522E+02  0.7546771E-02  0.1425194E+00
         21   -1    0    0  503  502  0.00000000000E+00  0.00000000000E+00  0.71903964815E+02  0.71903964815E+02  0.00000000000E+00 0.  1.
         21   -1    0    0  501  503 -0.00000000000E+00 -0.00000000000E+00 -0.16501941315E+02  0.16501941315E+02  0.00000000000E+00 0. -1.
          2    1    1    2  501    0 -0.80670818248E+01 -0.28235407450E+02  0.45942041651E+01  0.29722428484E+02  0.00000000000E+00 0. -1.
         -2    1    1    2    0  502  0.80670818248E+01  0.28235407450E+02  0.50807819335E+02  0.58683477646E+02  0.00000000000E+00 0.  1.
</event>
<event>
 4    1  0.1780267E+004  0.2230883E+02  0.7546771E-02  0.1501364E+00
         21   -1    0    0  503  502  0.00000000000E+00  0.00000000000E+00  0.20571059724E+03  0.20571059724E+03  0.00000000000E+00 0. -1.
         21   -1    0    0  501  503 -0.00000000000E+00 -0.00000000000E+00 -0.24755080140E+01  0.24755080140E+01  0.00000000000E+00 0.  1.
          2    1    1    2  501    0  0.94947022910E+01  0.20187488293E+02  0.85938097331E+02  0.88786488995E+02  0.00000000000E+00 0.  1.
         -2    1    1    2    0  502 -0.94947022910E+01 -0.20187488293E+02  0.11729699190E+03  0.11939961626E+03  0.00000000000E+00 0. -1.
</event>
<event>
 4    1  0.1780267E+004  0.2559174E+02  0.7546771E-02  0.1462291E+00
         21   -1    0    0  503  502  0.00000000000E+00  0.00000000000E+00  0.38716270055E+02  0.38716270055E+02  0.00000000000E+00 0.  1.
         21   -1    0    0  501  503 -0.00000000000E+00 -0.00000000000E+00 -0.19471206048E+02  0.19471206048E+02  0.00000000000E+00 0. -1.
          2    1    1    2  501    0  0.11658167988E+02  0.22782107624E+02 -0.91618586789E+00  0.25608137480E+02  0.00000000000E+00 0. -1.
         -2    1    1    2    0  502 -0.11658167988E+02 -0.22782107624E+02  0.20161249874E+02  0.32579338623E+02  0.00000000000E+00 0.  1.
</event>
<event>
 4    1  0.1780267E+004  0.2404070E+02  0.7546771E-02  0.1479828E+00
         21   -1    0    0  501  502  0.00000000000E+00  0.00000000000E+00  0.17712921634E+02  0.17712921634E+02  0.00000000000E+00 0. -1.
         21   -1    0    0  502  503 -0.00000000000E+00 -0.00000000000E+00 -0.40703766723E+02  0.40703766723E+02  0.00000000000E+00 0.  1.
          2    1    1    2  501    0 -0.18680297384E+02  0.15132796793E+02  0.15138925717E+01  0.24088315006E+02  0.00000000000E+00 0. -1.
         -2    1    1    2    0  503  0.18680297384E+02 -0.15132796793E+02 -0.24504737661E+02  0.34328373351E+02  0.00000000000E+00 0.  1.
</event>
<event>
 4    1  0.1780267E+004  0.2641264E+02  0.7546771E-02  0.1453599E+00
         21   -1    0    0  503  502  0.00000000000E+00  0.00000000000E+00  0.20791192829E+02  0.20791192829E+02  0.00000000000E+00 0. -1.
         21   -1    0    0  501  503 -0.00000000000E+00 -0.00000000000E+00 -0.43147170241E+02  0.43147170241E+02  0.00000000000E+00 0.  1.
          2    1    1    2  501    0  0.38626614015E+01 -0.26128673040E+02 -0.26252262827E+02  0.37239884686E+02  0.00000000000E+00 0. -1.
         -2    1    1    2    0  502 -0.38626614015E+01  0.26128673040E+02  0.38962854150E+01  0.26698478383E+02  0.00000000000E+00 0.  1.
</event>
<event>
 4    1  0.1780267E+004  0.2007404E+02  0.7546771E-02  0.1532907E+00
         21   -1    0    0  501  502  0.00000000000E+00  0.00000000000E+00  0.81784549335E+01  0.81784549335E+01  0.00000000000E+00 0. -1.
         21   -1    0    0  502  503 -0.00000000000E+00 -0.00000000000E+00 -0.13010238516E+03  0.13010238516E+03  0.00000000000E+00 0.  1.
          2    1    1    2  501    0  0.19466650492E+02 -0.49006917670E+01 -0.64643842661E+01  0.21089227703E+02  0.00000000000E+00 0. -1.
         -2    1    1    2    0  503 -0.19466650492E+02  0.49006917670E+01 -0.11545954596E+03  0.11719161239E+03  0.00000000000E+00 0.  1.
</event>
<event>
 4    1  0.1780267E+004  0.3240065E+02  0.7546771E-02  0.1399820E+00
         21   -1    0    0  501  502  0.00000000000E+00  0.00000000000E+00  0.10887225120E+01  0.10887225120E+01  0.00000000000E+00 0. -1.
         21   -1    0    0  502  503 -0.00000000000E+00 -0.00000000000E+00 -0.10180983252E+04  0.10180983252E+04  0.00000000000E+00 0.  1.
          2    1    1    2  501    0 -0.61666381483E+01  0.31808407349E+02 -0.39130968851E+03  0.39264879285E+03  0.00000000000E+00 0. -1.
         -2    1    1    2    0  503  0.61666381483E+01 -0.31808407349E+02 -0.62569991415E+03  0.62653825483E+03  0.00000000000E+00 0.  1.
</event>
<event>
 4    1  0.1780267E+004  0.3163949E+02  0.7546771E-02  0.1405865E+00
         21   -1    0    0  503  502  0.00000000000E+00  0.00000000000E+00  0.33888465715E+03  0.33888465715E+03  0.00000000000E+00 0. -1.
         21   -1    0    0  501  503 -0.00000000000E+00 -0.00000000000E+00 -0.29587029973E+01  0.29587029973E+01  0.00000000000E+00 0.  1.
          2    1    1    2  501    0 -0.21559373650E+02 -0.23157089822E+02  0.16113166268E+03  0.16420861767E+03  0.00000000000E+00 0.  1.
         -2    1    1    2    0  502  0.21559373650E+02  0.23157089822E+02  0.17479429148E+03  0.17763474248E+03  0.00000000000E+00 0. -1.
</event>
<event>
 4    1  0.1780267E+004  0.2559810E+02  0.7546771E-02  0.1462222E+00
         21   -1    0    0  503  502  0.00000000000E+00  0.00000000000E+00  0.14422707402E+03  0.14422707402E+03  0.00000000000E+00 0.  1.
         21   -1    0    0  501  503 -0.00000000000E+00 -0.00000000000E+00 -0.63070068327E+01  0.63070068327E+01  0.00000000000E+00 0. -1.
          2    1    1    2  501    0  0.20953480750E+02  0.14704225746E+02  0.29157563953E+02  0.38799821468E+02  0.00000000000E+00 0. -1.
         -2    1    1    2    0  502 -0.20953480750E+02 -0.14704225746E+02  0.10876250324E+03  0.11173425939E+03  0.00000000000E+00 0.  1.
</event>
<event>
 4    1  0.1780267E+004  0.2553709E+02  0.7546771E-02  0.1462884E+00
         21   -1    0    0  503  502  0.00000000000E+00  0.00000000000E+00  0.19108841801E+02  0.19108841801E+02  0.00000000000E+00 0. -1.
         21   -1    0    0  501  503 -0.00000000000E+00 -0.00000000000E+00 -0.92327383887E+02  0.92327383887E+02  0.00000000000E+00 0.  1.
          2    1    1    2  501    0 -0.24973517551E+02  0.53354097990E+01 -0.80846812886E+02  0.84784139616E+02  0.00000000000E+00 0.  1.
         -2    1    1    2    0  502  0.24973517551E+02 -0.53354097990E+01  0.76282708000E+01  0.26652086072E+02  0.00000000000E+00 0. -1.
</event>
<event>
 4    1  0.1780267E+004  0.2693457E+02  0.7546771E-02  0.1448266E+00
         21   -1    0    0  501  502  0.00000000000E+00  0.00000000000E+00  0.11447196742E+02  0.11447196742E+02  0.00000000000E+00 0. -1.
         21   -1    0    0  502  503 -0.00000000000E+00 -0.00000000000E+00 -0.66328989216E+02  0.66328989216E+02  0.00000000000E+00 0.  1.
          2    1    1    2  501    0 -0.26120036091E+02 -0.65737869100E+01 -0.19234770662E+02  0.33097543144E+02  0.00000000000E+00 0. -1.
         -2    1    1    2    0  503  0.26120036091E+02  0.65737869100E+01 -0.35647021812E+02  0.44678642815E+02  0.00000000000E+00 0.  1.
</event>
<event>
 4    1  0.1780267E+004  0.2798302E+02  0.7546771E-02  0.1437976E+00
         21   -1    0    0  501  502  0.00000000000E+00  0.00000000000E+00  0.50961078652E+01  0.50961078652E+01  0.00000000000E+00 0. -1.
         21   -1    0    0  502  503 -0.00000000000E+00 -0.00000000000E+00 -0.15875802969E+03  0.15875802969E+03  0.00000000000E+00 0.  1.
          2    1    1    2  501    0  0.21058618693E+01  0.27903670155E+02 -0.62144569901E+02  0.68154215061E+02  0.00000000000E+00 0. -1.
         -2    1    1    2    0  503 -0.21058618693E+01 -0.27903670155E+02 -0.91517351926E+02  0.95699922497E+02  0.00000000000E+00 0.  1.
</event>
<event>
 4    1  0.1780267E+004  0.3015355E+02  0.7546771E-02  0.1418267E+00
         21   -1    0    0  503  502  0.00000000000E+00  0.00000000000E+00  0.70240141226E+01  0.70240141226E+01  0.00000000000E+00 0.  1.
         21   -1    0    0  501  503 -0.00000000000E+00 -0.00000000000E+00 -0.20221032352E+03  0.20221032352E+03  0.00000000000E+00 0. -1.
          2    1    1    2  501    0 -0.28833557850E+02 -0.88239697646E+01 -0.16034955333E+03  0.16316009241E+03  0.00000000000E+00 0. -1.
         -2    1    1    2    0  502  0.28833557850E+02  0.88239697646E+01 -0.34836756061E+02  0.46074245230E+02  0.00000000000E+00 0.  1.
</event>
<event>
 4    1  0.1780267E+004  0.4956355E+02  0.7546771E-02  0.1300076E+00
         21   -1    0    0  503  502  0.00000000000E+00  0.00000000000E+00  0.40770331415E+02  0.40770331415E+02  0.00000000000E+00 0.  1.
         21   -1    0    0  501  503 -0.00000000000E+00 -0.00000000000E+00 -0.95931847927E+02  0.95931847927E+02  0.00000000000E+00 0. -1.
          2    1    1    2  501    0  0.31186564411E+02 -0.38521992843E+02 -0.69264607214E+02  0.85171189640E+02  0.00000000000E+00 0. -1.
         -2    1    1    2    0  502 -0.31186564411E+02  0.38521992843E+02  0.14103090701E+02  0.51530989702E+02  0.00000000000E+00 0.  1.
</event>
<event>
 4    1  0.1780267E+004  0.3043698E+02  0.7546771E-02  0.1415836E+00
         21   -1    0    0  503  502  0.00000000000E+00  0.00000000000E+00  0.62182301468E+02  0.62182301468E+02  0.00000000000E+00 0.  1.
         21   -1    0    0  501  503 -0.00000000000E+00 -0.00000000000E+00 -0.34799894865E+02  0.34799894865E+02  0.00000000000E+00 0. -1.
          2    1    1    2  501    0  0.19695628624E+02 -0.23205430591E+02 -0.22979322077E+02  0.38137370635E+02  0.00000000000E+00 0. -1.
         -2    1    1    2    0  502 -0.19695628624E+02  0.23205430591E+02  0.50361728680E+02  0.58844825699E+02  0.00000000000E+00 0.  1.
</event>
<event>
 4    1  0.1780267E+004  0.2194910E+02  0.7546771E-02  0.1506133E+00
         21   -1    0    0  503  502  0.00000000000E+00  0.00000000000E+00  0.40462931285E+02  0.40462931285E+02  0.00000000000E+00 0. -1.
         21   -1    0    0  501  503 -0.00000000000E+00 -0.00000000000E+00 -0.14852892129E+02  0.14852892129E+02  0.00000000000E+00 0.  1.
          2    1    1    2  501    0  0.65210618184E+01  0.20958020341E+02  0.48601582911E+00  0.21954477339E+02  0.00000000000E+00 0.  1.
         -2    1    1    2    0  502 -0.65210618184E+01 -0.20958020341E+02  0.25124023327E+02  0.33361346076E+02  0.00000000000E+00 0. -1.
</event>
<event>
 4    1  0.1780267E+004  0.4571984E+02  0.7546771E-02  0.1317879E+00
         21   -1    0    0  503  502  0.00000000000E+00  0.00000000000E+00  0.29739557096E+02  0.29739557096E+02  0.00000000000E+00 0. -1.
         21   -1    0    0  501  503 -0.00000000000E+00 -0.00000000000E+00 -0.15594564932E+03  0.15594564932E+03  0.00000000000E+00 0.  1.
          2    1    1    2  501    0 -0.28549096887E+02  0.35710678060E+02 -0.13191222192E+03  0.13961066489E+03  0.00000000000E+00 0.  1.
         -2    1    1    2    0  502  0.28549096887E+02 -0.35710678060E+02  0.57061296945E+01  0.46074541524E+02  0.00000000000E+00 0. -1.
</event>
<event>
 4    1  0.1780267E+004  0.2219303E+02  0.7546771E-02  0.1502888E+00
         21   -1    0    0  503  502  0.00000000000E+00  0.00000000000E+00  0.61642759069E+01  0.61642759069E+01  0.00000000000E+00 0. -1.
         21   -1    0    0  501  503 -0.00000000000E+00 -0.00000000000E+00 -0.11478192484E+03  0.11478192484E+03  0.00000000000E+00 0.  1.
          2    1    1    2  501    0  0.15426834221E+02  0.15954412625E+02 -0.87645386150E+02  0.90411526973E+02  0.00000000000E+00 0.  1.
         -2    1    1    2    0  502 -0.15426834221E+02 -0.15954412625E+02 -0.20972262788E+02  0.30534673778E+02  0.00000000000E+00 0. -1.
</event>
<event>
 4    1  0.1780267E+004  0.2981746E+02  0.7546771E-02  0.1421190E+00
         21   -1    0    0  503  502  0.00000000000E+00  0.00000000000E+00  0.56455120876E+03  0.56455120876E+03  0.00000000000E+00 0. -1.
         21   -1    0    0  501  503 -0.00000000000E+00 -0.00000000000E+00 -0.13778410692E+03  0.13778410692E+03  0.00000000000E+00 0.  1.
          2    1    1    2  501    0 -0.88156228320E+01 -0.28484484650E+02 -0.13577145004E+03  0.13900707794E+03  0.00000000000E+00 0.  1.
         -2    1    1    2    0  502  0.88156228320E+01  0.28484484650E+02  0.56253855188E+03  0.56332823773E+03  0.00000000000E+00 0. -1.
</event>
<event>
 4    1  0.1780267E+004  0.2601521E+02  0.7546771E-02  0.1457759E+00
         21   -1    0    0  503  502  0.00000000000E+00  0.00000000000E+00  0.48794173310E+03  0.48794173310E+03  0.00000000000E+00 0.  1.
         21   -1    0    0  501  503 -0.00000000000E+00 -0.00000000000E+00 -0.20792293614E+01  0.20792293614E+01  0.00000000000E+00 0. -1.
          2    1    1    2  501    0 -0.25159296815E+02  0.66182381463E+01  0.10156422787E+03  0.10484313843E+03  0.00000000000E+00 0.  1.
         -2    1    1    2    0  502  0.25159296815E+02 -0.66182381463E+01  0.38429827586E+03  0.38517782403E+03  0.00000000000E+00 0. -1.
</event>
<event>
 4    1  0.1780267E+004  0.2091764E+02  0.7546771E-02  0.1520444E+00
         21   -1    0    0  503  502  0.00000000000E+00  0.00000000000E+00  0.11152659425E+03  0.11152659425E+03  0.00000000000E+00 0.  1.
         21   -1    0    0  501  503 -0.00000000000E+00 -0.00000000000E+00 -0.51252276306E+01  0.51252276306E+01  0.00000000000E+00 0. -1.
          2    1    1    2  501    0  0.12227242754E+02 -0.16971809138E+02  0.24955042844E+02  0.32562277778E+02  0.00000000000E+00 0. -1.
         -2    1    1    2    0  502 -0.12227242754E+02  0.16971809138E+02  0.81446323779E+02  0.84089544106E+02  0.00000000000E+00 0.  1.
</event>
<event>
 4    1  0.1780267E+004  0.2000724E+02  0.7546771E-02  0.1533925E+00
         21   -1    0    0  501  502  0.00000000000E+00  0.00000000000E+00  0.11185934336E+02  0.11185934336E+02  0.00000000000E+00 0. -1.
         21   -1    0    0  502  503 -0.00000000000E+00 -0.00000000000E+00 -0.38924190460E+02  0.38924190460E+02  0.00000000000E+00 0.  1.
          2    1    1    2  501    0  0.83149779763E+01  0.18197553901E+02 -0.67539247661E+01  0.21116470503E+02  0.00000000000E+00 0. -1.
         -2    1    1    2    0  503 -0.83149779763E+01 -0.18197553901E+02 -0.20984331358E+02  0.28993654293E+02  0.00000000000E+00 0.  1.
</event>
<event>
 4    1  0.1780267E+004  0.2292849E+02  0.7546771E-02  0.1493398E+00
         21   -1    0    0  501  502  0.00000000000E+00  0.00000000000E+00  0.45038158371E+02  0.45038158371E+02  0.00000000000E+00 0.  1.
         21   -1    0    0  502  503 -0.00000000000E+00 -0.00000000000E+00 -0.17750452168E+02  0.17750452168E+02  0.00000000000E+00 0. -1.
          2    1    1    2  501    0  0.35422227480E+01 -0.22653214933E+02  0.32014260533E+02  0.39378018821E+02  0.00000000000E+00 0.  1.
         -2    1    1    2    0  503 -0.35422227480E+01  0.22653214933E+02 -0.47265543301E+01  0.23410591719E+02  0.00000000000E+00 0. -1.
</event>
<event>
 4    1  0.1780267E+004  0.2200144E+02  0.7546771E-02  0.1505433E+00
         21   -1    0    0  503  502  0.00000000000E+00  0.00000000000E+00  0.28672235243E+02  0.28672235243E+02  0.00000000000E+00 0. -1.
         21   -1    0    0  501  503 -0.00000000000E+00 -0.00000000000E+00 -0.43424152624E+02  0.43424152624E+02  0.00000000000E+00 0.  1.
          2    1    1    2  501    0 -0.20147170794E+01  0.21908996226E+02 -0.35558530335E+02  0.41814737595E+02  0.00000000000E+00 0.  1.
         -2    1    1    2    0  502  0.20147170794E+01 -0.21908996226E+02  0.20806612954E+02  0.30281650271E+02  0.00000000000E+00 0. -1.
</event>
<event>
 4    1  0.1780267E+004  0.2518033E+02  0.7546771E-02  0.1466796E+00
         21   -1    0    0  501  502  0.00000000000E+00  0.00000000000E+00  0.15644574632E+02  0.15644574632E+02  0.00000000000E+00 0.  1.
         21   -1    0    0  502  503 -0.00000000000E+00 -0.00000000000E+00 -0.65599790754E+02  0.65599790754E+02  0.00000000000E+00 0. -1.
          2    1    1    2  501    0  0.22236004287E+02 -0.11815620935E+02  0.13557024878E+00  0.25180690301E+02  0.00000000000E+00 0. -1.
         -2    1    1    2    0  503 -0.22236004287E+02  0.11815620935E+02 -0.50090786371E+02  0.56063675085E+02  0.00000000000E+00 0.  1.
</event>
<event>
 4    1  0.1780267E+004  0.2411145E+02  0.7546771E-02  0.1478994E+00
         21   -1    0    0  501  502  0.00000000000E+00  0.00000000000E+00  0.25978746105E+02  0.25978746105E+02  0.00000000000E+00 0.  1.
         21   -1    0    0  502  503 -0.00000000000E+00 -0.00000000000E+00 -0.22425860852E+02  0.22425860852E+02  0.00000000000E+00 0. -1.
          2    1    1    2  501    0  0.18864290164E+02 -0.15016678495E+02  0.66273205097E+00  0.24120557419E+02  0.00000000000E+00 0. -1.
         -2    1    1    2    0  503 -0.18864290164E+02  0.15016678495E+02  0.28901532021E+01  0.24284049538E+02  0.00000000000E+00 0.  1.
</event>
<event>
 4    1  0.1780267E+004  0.2389166E+02  0.7546771E-02  0.1481595E+00
         21   -1    0    0  501  502  0.00000000000E+00  0.00000000000E+00  0.35973850926E+03  0.35973850926E+03  0.00000000000E+00 0.  1.
         21   -1    0    0  502  503 -0.00000000000E+00 -0.00000000000E+00 -0.16867029509E+01  0.16867029509E+01  0.00000000000E+00 0. -1.
          2    1    1    2  501    0  0.45536448241E+01  0.23453695655E+02  0.13503241013E+03  0.13712973166E+03  0.00000000000E+00 0. -1.
         -2    1    1    2    0  503 -0.45536448241E+01 -0.23453695655E+02  0.22301939618E+03  0.22429548054E+03  0.00000000000E+00 0.  1.
</event>
<event>
 4    1  0.1780267E+004  0.3849084E+02  0.7546771E-02  0.1357564E+00
         21   -1    0    0  503  502  0.00000000000E+00  0.00000000000E+00  0.26073507762E+02  0.26073507762E+02  0.00000000000E+00 0. -1.
         21   -1    0    0  501  503 -0.00000000000E+00 -0.00000000000E+00 -0.15727400887E+03  0.15727400887E+03  0.00000000000E+00 0.  1.
          2    1    1    2  501    0 -0.32584922283E+02 -0.20488223573E+02 -0.13886519678E+03  0.14410096232E+03  0.00000000000E+00 0.  1.
         -2    1    1    2    0  502  0.32584922283E+02  0.20488223573E+02  0.76646956731E+01  0.39246554309E+02  0.00000000000E+00 0. -1.
</event>
<event>
 4    1  0.1780267E+004  0.2311081E+02  0.7546771E-02  0.1491111E+00
         21   -1    0    0  503  502  0.00000000000E+00  0.00000000000E+00  0.18933092406E+03  0.18933092406E+03  0.00000000000E+00 0. -1.
         21   -1    0    0  501  503 -0.00000000000E+00 -0.00000000000E+00 -0.32400686619E+01  0.32400686619E+01  0.00000000000E+00 0.  1.
          2    1    1    2  501    0 -0.80964164014E+01  0.21646192883E+02  0.58419058156E+02  0.62824326345E+02  0.00000000000E+00 0.  1.
         -2    1    1    2    0  502  0.80964164014E+01 -0.21646192883E+02  0.12767179724E+03  0.12974666638E+03  0.00000000000E+00 0. -1.
</event>
<event>
 4    1  0.1780267E+004  0.3984268E+02  0.7546771E-02  0.1349410E+00
         21   -1    0    0  503  502  0.00000000000E+00  0.00000000000E+00  0.29281300649E+04  0.29281300649E+04  0.00000000000E+00 0.  1.
         21   -1    0    0  501  503 -0.00000000000E+00 -0.00000000000E+00 -0.63557546787E+00  0.63557546787E+00  0.00000000000E+00 0. -1.
          2    1    1    2  501    0 -0.36178934953E+02  0.16689029096E+02  0.90225888166E+03  0.90313815585E+03  0.00000000000E+00 0. -1.
         -2    1    1    2    0  502  0.36178934953E+02 -0.16689029096E+02  0.20252356078E+04  0.20256274845E+04  0.00000000000E+00 0.  1.
</event>
<event>
 4    1  0.1780267E+004  0.4181245E+02  0.7546771E-02  0.1338180E+00
         21   -1    0    0  501  502  0.00000000000E+00  0.00000000000E+00  0.62142095345E+02  0.62142095345E+02  0.00000000000E+00 0. -1.
         21   -1    0    0  502  503 -0.00000000000E+00 -0.00000000000E+00 -0.28189536300E+02  0.28189536300E+02  0.00000000000E+00 0.  1.
          2    1    1    2  501    0 -0.21893335184E+02  0.35622500954E+02  0.14964305471E+02  0.44409583852E+02  0.00000000000E+00 0.  1.
         -2    1    1    2    0  503  0.21893335184E+02 -0.35622500954E+02  0.18988253575E+02  0.45922047793E+02  0.00000000000E+00 0. -1.
</event>
<event>
 4    1  0.1780267E+004  0.2909303E+02  0.7546771E-02  0.1427645E+00
         21   -1    0    0  501  502  0.00000000000E+00  0.00000000000E+00  0.32270083683E+01  0.32270083683E+01  0.00000000000E+00 0.  1.
         21   -1    0    0  502  503 -0.00000000000E+00 -0.00000000000E+00 -0.73207131896E+03  0.73207131896E+03  0.00000000000E+00 0. -1.
          2    1    1    2  501    0 -0.27645417054E+02 -0.90628685385E+01 -0.69908245588E+02  0.75720324032E+02  0.00000000000E+00 0.  1.
         -2    1    1    2    0  503  0.27645417054E+02  0.90628685385E+01 -0.65893606501E+03  0.65957800330E+03  0.00000000000E+00 0. -1.
</event>
<event>
 4    1  0.1780267E+004  0.2350716E+02  0.7546771E-02  0.1486226E+00
         21   -1    0    0  503  502  0.00000000000E+00  0.00000000000E+00  0.28319384873E+03  0.28319384873E+03  0.00000000000E+00 0.  1.
         21   -1    0    0  501  503 -0.00000000000E+00 -0.00000000000E+00 -0.73664852586E+01  0.73664852586E+01  0.00000000000E+00 0. -1.
          2    1    1    2  501    0  0.22985454291E+02 -0.49249736737E+01  0.13352075821E+02  0.27034503942E+02  0.00000000000E+00 0. -1.
         -2    1    1    2    0  502 -0.22985454291E+02  0.49249736737E+01  0.26247528765E+03  0.26352583004E+03  0.00000000000E+00 0.  1.
</event>
<event>
 4    1  0.1780267E+004  0.2019138E+02  0.7546771E-02  0.1531130E+00
         21   -1    0    0  503  502  0.00000000000E+00  0.00000000000E+00  0.49282915476E+03  0.49282915476E+03  0.00000000000E+00 0. -1.
         21   -1    0    0  501  503 -0.00000000000E+00 -0.00000000000E+00 -0.14329132109E+01  0.14329132109E+01  0.00000000000E+00 0.  1.
          2    1    1    2  501    0  0.16979667717E+02  0.10926235539E+02  0.85028489052E+02  0.87392995654E+02  0.00000000000E+00 0.  1.
         -2    1    1    2    0  502 -0.16979667717E+02 -0.10926235539E+02  0.40636775249E+03  0.40686907231E+03  0.00000000000E+00 0. -1.
</event>
<event>
 4    1  0.1780267E+004  0.2031207E+02  0.7546771E-02  0.1529317E+00
         21   -1    0    0  503  502  0.00000000000E+00  0.00000000000E+00  0.25944277150E+02  0.25944277150E+02  0.00000000000E+00 0. -1.
         21   -1    0    0  501  503 -0.00000000000E+00 -0.00000000000E+00 -0.15036357428E+03  0.15036357428E+03  0.00000000000E+00 0.  1.
          2    1    1    2  501    0  0.19246721158E+02 -0.64918311488E+01 -0.14557172920E+03  0.14698200056E+03  0.00000000000E+00 0.  1.
         -2    1    1    2    0  502 -0.19246721158E+02  0.64918311488E+01  0.21152432066E+02  0.29325850871E+02  0.00000000000E+00 0. -1.
</event>
<event>
 4    1  0.1780267E+004  0.2157692E+02  0.7546771E-02  0.1511185E+00
         21   -1    0    0  503  502  0.00000000000E+00  0.00000000000E+00  0.17965996083E+02  0.17965996083E+02  0.00000000000E+00 0. -1.
         21   -1    0    0  501  503 -0.00000000000E+00 -0.00000000000E+00 -0.42178270723E+02  0.42178270723E+02  0.00000000000E+00 0.  1.
          2    1    1    2  501    0 -0.18789648868E+02 -0.10607191141E+02 -0.30780365500E+02  0.37589816557E+02  0.00000000000E+00 0.  1.
         -2    1    1    2    0  502  0.18789648868E+02  0.10607191141E+02  0.65680908600E+01  0.22554450249E+02  0.00000000000E+00 0. -1.
</event>
<event>
 4    1  0.1780267E+004  0.2877629E+02  0.7546771E-02  0.1430537E+00
         21   -1    0    0  501  502  0.00000000000E+00  0.00000000000E+00  0.96132806437E+02  0.96132806437E+02  0.00000000000E+00 0.  1.
         21   -1    0    0  502  503 -0.00000000000E+00 -0.00000000000E+00 -0.12306383011E+02  0.12306383011E+02  0.00000000000E+00 0. -1.
          2    1    1    2  501    0  0.50435359267E+01 -0.28330856805E+02  0.71612945534E+02  0.77178291443E+02  0.00000000000E+00 0.  1.
         -2    1    1    2    0  503 -0.50435359267E+01  0.28330856805E+02  0.12213477892E+02  0.31260898006E+02  0.00000000000E+00 0. -1.
</event>
<event>
 4    1  0.1780267E+004  0.2906573E+02  0.7546771E-02  0.1427893E+00
         21   -1    0    0  503  502  0.00000000000E+00  0.00000000000E+00  0.42632463403E+01  0.42632463403E+01  0.00000000000E+00 0. -1.
         21   -1    0    0  501  503 -0.00000000000E+00 -0.00000000000E+00 -0.21049508085E+03  0.21049508085E+03  0.00000000000E+00 0.  1.
          2    1    1    2  501    0  0.26474619854E+02 -0.11996298560E+02 -0.77125012953E+02  0.82420169246E+02  0.00000000000E+00 0. -1.
         -2    1    1    2    0  502 -0.26474619854E+02  0.11996298560E+02 -0.12910682155E+03  0.13233815794E+03  0.00000000000E+00 0.  1.
</event>
<event>
 4    1  0.1780267E+004  0.2818090E+02  0.7546771E-02  0.1436093E+00
         21   -1    0    0  501  502  0.00000000000E+00  0.00000000000E+00  0.36995127134E+02  0.36995127134E+02  0.00000000000E+00 0. -1.
         21   -1    0    0  502  503 -0.00000000000E+00 -0.00000000000E+00 -0.33105122401E+02  0.33105122401E+02  0.00000000000E+00 0.  1.
          2    1    1    2  501    0  0.28169131907E+02 -0.81447744335E+00  0.22727081370E+02  0.36203364395E+02  0.00000000000E+00 0. -1.
         -2    1    1    2    0  503 -0.28169131907E+02  0.81447744335E+00 -0.18837076637E+02  0.33896885139E+02  0.00000000000E+00 0.  1.
</event>
<event>
 4    1  0.1780267E+004  0.4138185E+02  0.7546771E-02  0.1340573E+00
         21   -1    0    0  501  502  0.00000000000E+00  0.00000000000E+00  0.40213942524E+02  0.40213942524E+02  0.00000000000E+00 0.  1.
         21   -1    0    0  502  503 -0.00000000000E+00 -0.00000000000E+00 -0.81745037266E+02  0.81745037266E+02  0.00000000000E+00 0. -1.
          2    1    1    2  501    0 -0.38121385629E+02 -0.16100241853E+02  0.21441204696E+02  0.46606685023E+02  0.00000000000E+00 0.  1.
         -2    1    1    2    0  503  0.38121385629E+02  0.16100241853E+02 -0.62972299439E+02  0.75352294767E+02  0.00000000000E+00 0. -1.
</event>
<event>
 4    1  0.1780267E+004  0.2116842E+02  0.7546771E-02  0.1516874E+00
         21   -1    0    0  503  502  0.00000000000E+00  0.00000000000E+00  0.23356751714E+02  0.23356751714E+02  0.00000000000E+00 0. -1.
         21   -1    0    0  501  503 -0.00000000000E+00 -0.00000000000E+00 -0.10908397191E+03  0.10908397191E+03  0.00000000000E+00 0.  1.
          2    1    1    2  501    0  0.83529324478E+01 -0.19450725359E+02 -0.10297934199E+03  0.10513252149E+03  0.00000000000E+00 0.  1.
         -2    1    1    2    0  502 -0.83529324478E+01  0.19450725359E+02  0.17252121795E+02  0.27308202136E+02  0.00000000000E+00 0. -1.
</event>
<event>
 4    1  0.1780267E+004  0.2397752E+02  0.7546771E-02  0.1480575E+00
         21   -1    0    0  501  502  0.00000000000E+00  0.00000000000E+00  0.12293784780E+03  0.12293784780E+03  0.00000000000E+00 0. -1.
         21   -1    0    0  502  503 -0.00000000000E+00 -0.00000000000E+00 -0.53255637277E+01  0.53255637277E+01  0.00000000000E+00 0.  1.
          2    1    1    2  501    0  0.23044311958E+02  0.66242720515E+01  0.81194745510E+02  0.84661136257E+02  0.00000000000E+00 0. -1.
         -2    1    1    2    0  503 -0.23044311958E+02 -0.66242720515E+01  0.36417538559E+02  0.43602275267E+02  0.00000000000E+00 0.  1.
</event>
<event>
 4    1  0.1780267E+004  0.2083306E+02  0.7546771E-02  0.1521662E+00
         21   -1    0    0  501  502  0.00000000000E+00  0.00000000000E+00  0.24973917028E+02  0.24973917028E+02  0.00000000000E+00 0. -1.
         21   -1    0    0  502  503 -0.00000000000E+00 -0.00000000000E+00 -0.25710595333E+02  0.25710595333E+02  0.00000000000E+00 0.  1.
          2    1    1    2  501    0 -0.16229673302E+02  0.13061926533E+02  0.14058095646E+02  0.25132573952E+02  0.00000000000E+00 0. -1.
         -2    1    1    2    0  503  0.16229673302E+02 -0.13061926533E+02 -0.14794773951E+02  0.25551938410E+02  0.00000000000E+00 0.  1.
</event>
<event>
 4    1  0.1780267E+004  0.2600412E+02  0.7546771E-02  0.1457877E+00
         21   -1    0    0  503  502  0.00000000000E+00  0.00000000000E+00  0.72991715208E+03  0.72991715208E+03  0.00000000000E+00 0. -1.
         21   -1    0    0  501  503 -0.00000000000E+00 -0.00000000000E+00 -0.18658227229E+01  0.18658227229E+01  0.00000000000E+00 0.  1.
          2    1    1    2  501    0 -0.15155065178E+02 -0.21131455262E+02  0.10440361051E+03  0.10759334686E+03  0.00000000000E+00 0.  1.
         -2    1    1    2    0  502  0.15155065178E+02  0.21131455262E+02  0.62364771885E+03  0.62418962794E+03  0.00000000000E+00 0. -1.
</event>
<event>
 4    1  0.1780267E+004  0.2121871E+02  0.7546771E-02  0.1516165E+00
         21   -1    0    0  503  502  0.00000000000E+00  0.00000000000E+00  0.61665979779E+03  0.61665979779E+03  0.00000000000E+00 0.  1.
         21   -1    0    0  501  503 -0.00000000000E+00 -0.00000000000E+00 -0.73229018133E+00  0.73229018133E+00  0.00000000000E+00 0. -1.
          2    1    1    2  501    0 -0.19610487799E+02  0.81032481283E+01  0.32477994582E+03  0.32547234456E+03  0.00000000000E+00 0. -1.
         -2    1    1    2    0  502  0.19610487799E+02 -0.81032481283E+01  0.29114756179E+03  0.29191974342E+03  0.00000000000E+00 0.  1.
</event>
<event>
 4    1  0.1780267E+004  0.2619955E+02  0.7546771E-02  0.1455819E+00
         21   -1    0    0  501  502  0.00000000000E+00  0.00000000000E+00  0.15411521331E+03  0.15411521331E+03  0.00000000000E+00 0.  1.
         21   -1    0    0  502  503 -0.00000000000E+00 -0.00000000000E+00 -0.57932988691E+01  0.57932988691E+01  0.00000000000E+00 0. -1.
          2    1    1    2  501    0  0.14423890561E+02 -0.21871617627E+02  0.11260516577E+03  0.11561288698E+03  0.00000000000E+00 0.  1.
         -2    1    1    2    0  503 -0.14423890561E+02  0.21871617627E+02  0.35716748665E+02  0.44295625199E+02  0.00000000000E+00 0. -1.
</event>
<event>
 4    1  0.1780267E+004  0.2002937E+02  0.7546771E-02  0.1533587E+00
         21   -1    0    0  501  502  0.00000000000E+00  0.00000000000E+00  0.13694774879E+03  0.13694774879E+03  0.00000000000E+00 0.  1.
         21   -1    0    0  502  503 -0.00000000000E+00 -0.00000000000E+00 -0.32429164266E+01  0.32429164266E+01  0.00000000000E+00 0. -1.
          2    1    1    2  501    0 -0.92838816303E+01  0.17747823308E+02  0.45057934615E+02  0.49309159008E+02  0.00000000000E+00 0. -1.
         -2    1    1    2    0  503  0.92838816303E+01 -0.17747823308E+02  0.88646897749E+02  0.90881506209E+02  0.00000000000E+00 0.  1.
</event>
<event>
 4    1  0.1780267E+004  0.2170362E+02  0.7546771E-02  0.1509452E+00
         21   -1    0    0  501  502  0.00000000000E+00  0.00000000000E+00  0.93451579136E+01  0.93451579136E+01  0.00000000000E+00 0.  1.
         21   -1    0    0  502  503 -0.00000000000E+00 -0.00000000000E+00 -0.65930226139E+02  0.65930226139E+02  0.00000000000E+00 0. -1.
          2    1    1    2  501    0 -0.21672720203E+02  0.11577125381E+01 -0.10028653418E+02  0.23908596544E+02  0.00000000000E+00 0.  1.
         -2    1    1    2    0  503  0.21672720203E+02 -0.11577125381E+01 -0.46556414807E+02  0.51366787509E+02  0.00000000000E+00 0. -1.
</event>
<event>
 4    1  0.1780267E+004  0.2467917E+02  0.7546771E-02  0.1472425E+00
         21   -1    0    0  503  502  0.00000000000E+00  0.00000000000E+00  0.22314115915E+02  0.22314115915E+02  0.00000000000E+00 0. -1.
         21   -1    0    0  501  503 -0.00000000000E+00 -0.00000000000E+00 -0.32054739440E+02  0.32054739440E+02  0.00000000000E+00 0.  1.
          2    1    1    2  501    0  0.21948111789E+02 -0.11284582604E+02 -0.15345709472E+02  0.29061180548E+02  0.00000000000E+00 0.  1.
         -2    1    1    2    0  502 -0.21948111789E+02  0.11284582604E+02  0.56050859480E+01  0.25307674807E+02  0.00000000000E+00 0. -1.
</event>
<event>
 4    1  0.1780267E+004  0.2512540E+02  0.7546771E-02  0.1467405E+00
         21   -1    0    0  501  502  0.00000000000E+00  0.00000000000E+00  0.15408374355E+03  0.15408374355E+03  0.00000000000E+00 0. -1.
         21   -1    0    0  502  503 -0.00000000000E+00 -0.00000000000E+00 -0.71153287634E+01  0.71153287634E+01  0.00000000000E+00 0.  1.
          2    1    1    2  501    0  0.23102043238E+02  0.98783371460E+01  0.12597898060E+03  0.12846006967E+03  0.00000000000E+00 0. -1.
         -2    1    1    2    0  503 -0.23102043238E+02 -0.98783371460E+01  0.20989434182E+02  0.32739002639E+02  0.00000000000E+00 0.  1.
</event>
<event>
 4    1  0.1780267E+004  0.2295187E+02  0.7546771E-02  0.1493103E+00
         21   -1    0    0  501  502  0.00000000000E+00  0.00000000000E+00  0.28306201592E+02  0.28306201592E+02  0.00000000000E+00 0. -1.
         21   -1    0    0  502  503 -0.00000000000E+00 -0.00000000000E+00 -0.26404321630E+02  0.26404321630E+02  0.00000000000E+00 0.  1.
          2    1    1    2  501    0  0.14578145016E+00 -0.22951407304E+02  0.15813127806E+02  0.27871909882E+02  0.00000000000E+00 0. -1.
         -2    1    1    2    0  503 -0.14578145016E+00  0.22951407304E+02 -0.13911247844E+02  0.26838613340E+02  0.00000000000E+00 0.  1.
</event>
<event>
 4    1  0.1780267E+004  0.2002938E+02  0.7546771E-02  0.1533587E+00
         21   -1    0    0  501  502  0.00000000000E+00  0.00000000000E+00  0.38025106840E+02  0.38025106840E+02  0.00000000000E+00 0.  1.
         21   -1    0    0  502  503 -0.00000000000E+00 -0.00000000000E+00 -0.10874867291E+02  0.10874867291E+02  0.00000000000E+00 0. -1.
          2    1    1    2  501    0 -0.11402979548E+02 -0.16466579748E+02  0.17799088286E+02  0.26795218509E+02  0.00000000000E+00 0.  1.
         -2    1    1    2    0  503  0.11402979548E+02  0.16466579748E+02  0.93511512636E+01  0.22104755622E+02  0.00000000000E+00 0. -1.
</event>
