<event>
 4    1  0.1593135E+006  0.2066280E+02  0.7546771E-02  0.1524134E+00
         21   -1    0    0  501  502  0.00000000000E+00  0.00000000000E+00  0.10073922181E+01  0.10073922181E+01  0.00000000000E+00 0.  1.
         -1   -1    0    0    0  501 -0.00000000000E+00 -0.00000000000E+00 -0.65615205141E+03  0.65615205141E+03  0.00000000000E+00 0.  1.
         21    1    1    2  503  502 -0.12152636888E+02 -0.16711219459E+02 -0.13205084064E+03  0.13365768199E+03  0.00000000000E+00 0.  1.
         -1    1    1    2    0  503  0.12152636888E+02  0.16711219459E+02 -0.52309381854E+03  0.52350176164E+03  0.00000000000E+00 0.  1.
</event>
<event>
 4    1  0.1593135E+006  0.2548933E+02  0.7546771E-02  0.1463403E+00
         -4   -1    0    0    0  501 -0.00000000000E+00  0.00000000000E+00  0.24406643783E+03  0.24406643783E+03  0.00000000000E+00 0.  1.
         21   -1    0    0  501  502  0.00000000000E+00 -0.00000000000E+00 -0.10473731510E+02  0.10473731510E+02  0.00000000000E+00 0.  1.
         21    1    1    2  503  502  0.19681266933E+02 -0.16197334594E+02  0.68833313012E+01  0.26402389396E+02  0.00000000000E+00 0.  1.
         -4    1    1    2    0  503 -0.19681266933E+02  0.16197334594E+02  0.22670937502E+03  0.22813777995E+03  0.00000000000E+00 0.  1.
</event>
<event>
 4    1  0.1593135E+006  0.2243089E+02  0.7546771E-02  0.1499771E+00
         -3   -1    0    0    0  501 -0.00000000000E+00  0.00000000000E+00  0.16512406682E+04  0.16512406682E+04  0.00000000000E+00 0. -1.
         21   -1    0    0  503  502  0.00000000000E+00 -0.00000000000E+00 -0.54826121684E+00  0.54826121684E+00  0.00000000000E+00 0.  1.
         21    1    1    2  503  501  0.48076862191E+01  0.21909610131E+02  0.27488277340E+03  0.27579645389E+03  0.00000000000E+00 0.  1.
         -3    1    1    2    0  502 -0.48076862191E+01 -0.21909610131E+02  0.13758096336E+04  0.13759924755E+04  0.00000000000E+00 0. -1.
</event>
<event>
 4    1  0.1593135E+006  0.2207841E+02  0.7546771E-02  0.1504407E+00
         -2   -1    0    0    0  501 -0.00000000000E+00  0.00000000000E+00  0.40714742415E+02  0.40714742415E+02  0.00000000000E+00 0.  1.
         21   -1    0    0  501  502  0.00000000000E+00 -0.00000000000E+00 -0.10666552223E+03  0.10666552223E+03  0.00000000000E+00 0.  1.
         21    1    1    2  503  502  0.18162524057E+02  0.12553048145E+02 -0.10240685781E+03  0.10475982448E+03  0.00000000000E+00 0.  1.
         -2    1    1    2    0  503 -0.18162524057E+02 -0.12553048145E+02  0.36456077992E+02  0.42620440171E+02  0.00000000000E+00 0.  1.
</event>
<event>
 4    1  0.1593135E+006  0.2002934E+02  0.7546771E-02  0.1533588E+00
          1   -1    0    0  502    0 -0.00000000000E+00  0.00000000000E+00  0.29710434956E+02  0.29710434956E+02  0.00000000000E+00 0. -1.
         21   -1    0    0  503  502  0.00000000000E+00 -0.00000000000E+00 -0.25501336345E+02  0.25501336345E+02  0.00000000000E+00 0. -1.
         21    1    1    2  503  501  0.12612594729E+02  0.15559463157E+02 -0.16831270852E+02  0.26162303377E+02  0.00000000000E+00 0. -1.
          1    1    1    2  501    0 -0.12612594729E+02 -0.15559463157E+02  0.21040369463E+02  0.29049467924E+02  0.00000000000E+00 0. -1.
</event>
<event>
 4    1  0.1593135E+006  0.2388727E+02  0.7546771E-02  0.1481647E+00
          1   -1    0    0  503    0 -0.00000000000E+00  0.00000000000E+00  0.94564027364E+02  0.94564027364E+02  0.00000000000E+00 0. -1.
         21   -1    0    0  501  502  0.00000000000E+00 -0.00000000000E+00 -0.62749551891E+01  0.62749551891E+01  0.00000000000E+00 0. -1.
         21    1    1    2  503  502 -0.17069307501E+02  0.16710484919E+02  0.34264919422E+02  0.41769441794E+02  0.00000000000E+00 0. -1.
          1    1    1    2  501    0  0.17069307501E+02 -0.16710484919E+02  0.54024152753E+02  0.59069540759E+02  0.00000000000E+00 0. -1.
</event>
<event>
 4    1  0.1593135E+006  0.2666595E+02  0.7546771E-02  0.1450993E+00
          1   -1    0    0  503    0 -0.00000000000E+00  0.00000000000E+00  0.16139742720E+04  0.16139742720E+04  0.00000000000E+00 0.  1.
         21   -1    0    0  501  502  0.00000000000E+00 -0.00000000000E+00 -0.52598554858E+00  0.52598554858E+00  0.00000000000E+00 0.  1.
         21    1    1    2  503  502 -0.14711929249E+02  0.22240322241E+02  0.11320234564E+04  0.11323374844E+04  0.00000000000E+00 0.  1.
          1    1    1    2  501    0  0.14711929249E+02 -0.22240322241E+02  0.48142483011E+03  0.48216277319E+03  0.00000000000E+00 0.  1.
</event>
<event>
 4    1  0.1593135E+006  0.2037751E+02  0.7546771E-02  0.1528341E+00
         21   -1    0    0  501  502  0.00000000000E+00  0.00000000000E+00  0.55615568416E+02  0.55615568416E+02  0.00000000000E+00 0. -1.
          2   -1    0    0  503    0 -0.00000000000E+00 -0.00000000000E+00 -0.48977314452E+02  0.48977314452E+02  0.00000000000E+00 0.  1.
         21    1    1    2  503  502  0.20152462865E+02  0.30201410319E+01  0.51464691238E+02  0.55352122413E+02  0.00000000000E+00 0. -1.
          2    1    1    2  501    0 -0.20152462865E+02 -0.30201410319E+01 -0.44826437275E+02  0.49240760455E+02  0.00000000000E+00 0.  1.
</event>
<event>
 4    1  0.1593135E+006  0.2320311E+02  0.7546771E-02  0.1489963E+00
         -3   -1    0    0    0  501 -0.00000000000E+00  0.00000000000E+00  0.62865969143E+02  0.62865969143E+02  0.00000000000E+00 0. -1.
         21   -1    0    0  503  502  0.00000000000E+00 -0.00000000000E+00 -0.10909663964E+02  0.10909663964E+02  0.00000000000E+00 0. -1.
         21    1    1    2  503  501  0.23004717090E+02 -0.30277773800E+01  0.88736778670E+01  0.24842032991E+02  0.00000000000E+00 0. -1.
         -3    1    1    2    0  502 -0.23004717090E+02  0.30277773800E+01  0.43082627312E+02  0.48933600116E+02  0.00000000000E+00 0. -1.
</event>
<event>
 4    1  0.1593135E+006  0.2598201E+02  0.7546771E-02  0.1458111E+00
         21   -1    0    0  503  502  0.00000000000E+00  0.00000000000E+00  0.55203529094E+02  0.55203529094E+02  0.00000000000E+00 0.  1.
         -1   -1    0    0    0  501 -0.00000000000E+00 -0.00000000000E+00 -0.30056789100E+03  0.30056789100E+03  0.00000000000E+00 0. -1.
         21    1    1    2  503  501  0.25773377584E+02  0.32860057358E+01  0.51547299877E+02  0.57725115421E+02  0.00000000000E+00 0.  1.
         -1    1    1    2    0  502 -0.25773377584E+02 -0.32860057358E+01 -0.29691166178E+03  0.29804630467E+03  0.00000000000E+00 0. -1.
</event>
<event>
 4    1  0.1593135E+006  0.2278623E+02  0.7546771E-02  0.1495200E+00
          2   -1    0    0  503    0 -0.00000000000E+00  0.00000000000E+00  0.26431221945E+03  0.26431221945E+03  0.00000000000E+00 0. -1.
         21   -1    0    0  501  502  0.00000000000E+00 -0.00000000000E+00 -0.44560858895E+01  0.44560858895E+01  0.00000000000E+00 0. -1.
         21    1    1    2  503  502 -0.19826784615E+02  0.11229904561E+02  0.29438992951E+02  0.37227227275E+02  0.00000000000E+00 0. -1.
          2    1    1    2  501    0  0.19826784615E+02 -0.11229904561E+02  0.23041714061E+03  0.23154107806E+03  0.00000000000E+00 0. -1.
</event>
<event>
 4    1  0.1593135E+006  0.3498182E+02  0.7546771E-02  0.1380691E+00
         -3   -1    0    0    0  501 -0.00000000000E+00  0.00000000000E+00  0.27013577862E+03  0.27013577862E+03  0.00000000000E+00 0.  1.
         21   -1    0    0  501  502  0.00000000000E+00 -0.00000000000E+00 -0.61411164966E+02  0.61411164966E+02  0.00000000000E+00 0. -1.
         21    1    1    2  503  502  0.33683796237E+02 -0.94408548064E+01 -0.55179837709E+02  0.65334082668E+02  0.00000000000E+00 0. -1.
         -3    1    1    2    0  503 -0.33683796237E+02  0.94408548064E+01  0.26390445136E+03  0.26621286092E+03  0.00000000000E+00 0.  1.
</event>
<event>
 4    1  0.1593135E+006  0.3727932E+02  0.7546771E-02  0.1365211E+00
         -2   -1    0    0    0  501 -0.00000000000E+00  0.00000000000E+00  0.24061730918E+03  0.24061730918E+03  0.00000000000E+00 0.  1.
         21   -1    0    0  501  502  0.00000000000E+00 -0.00000000000E+00 -0.14199320408E+02  0.14199320408E+02  0.00000000000E+00 0.  1.
         21    1    1    2  503  502  0.37249176416E+02  0.14989738741E+01  0.15076731451E+02  0.40212633557E+02  0.00000000000E+00 0.  1.
         -2    1    1    2    0  503 -0.37249176416E+02 -0.14989738741E+01  0.21134125733E+03  0.21460399604E+03  0.00000000000E+00 0.  1.
</event>
<event>
 4    1  0.1593135E+006  0.4179915E+02  0.7546771E-02  0.1338254E+00
          2   -1    0    0  502    0 -0.00000000000E+00  0.00000000000E+00  0.81934185181E+03  0.81934185181E+03  0.00000000000E+00 0. -1.
         21   -1    0    0  503  502  0.00000000000E+00 -0.00000000000E+00 -0.14203815902E+02  0.14203815902E+02  0.00000000000E+00 0. -1.
         21    1    1    2  503  501  0.33025100023E+02 -0.25622491740E+02  0.18352627302E+02  0.45650720075E+02  0.00000000000E+00 0. -1.
          2    1    1    2  501    0 -0.33025100023E+02  0.25622491740E+02  0.78678540861E+03  0.78789494764E+03  0.00000000000E+00 0. -1.
</event>
<event>
 4    1  0.1593135E+006  0.2640351E+02  0.7546771E-02  0.1453694E+00
         21   -1    0    0  501  502  0.00000000000E+00  0.00000000000E+00  0.15334350007E+02  0.15334350007E+02  0.00000000000E+00 0.  1.
          2   -1    0    0  503    0 -0.00000000000E+00 -0.00000000000E+00 -0.64396033568E+03  0.64396033568E+03  0.00000000000E+00 0. -1.
         21    1    1    2  503  502  0.16214353688E+02 -0.20838422729E+02  0.34849935853E+01  0.26632504719E+02  0.00000000000E+00 0.  1.
          2    1    1    2  501    0 -0.16214353688E+02  0.20838422729E+02 -0.63211097926E+03  0.63266218097E+03  0.00000000000E+00 0. -1.
</event>
<event>
 4    1  0.1593135E+006  0.2486039E+02  0.7546771E-02  0.1470371E+00
          2   -1    0    0  502    0 -0.00000000000E+00  0.00000000000E+00  0.45995176719E+03  0.45995176719E+03  0.00000000000E+00 0. -1.
         21   -1    0    0  503  502  0.00000000000E+00 -0.00000000000E+00 -0.57243084865E+02  0.57243084865E+02  0.00000000000E+00 0. -1.
         21    1    1    2  503  501 -0.66309001530E+01 -0.23959756888E+02 -0.54189950193E+02  0.59620378134E+02  0.00000000000E+00 0. -1.
          2    1    1    2  501    0  0.66309001530E+01  0.23959756888E+02  0.45689863252E+03  0.45757447392E+03  0.00000000000E+00 0. -1.
</event>
<event>
 4    1  0.1593135E+006  0.2756361E+02  0.7546771E-02  0.1442027E+00
         -3   -1    0    0    0  501 -0.00000000000E+00  0.00000000000E+00  0.95860331295E+01  0.95860331295E+01  0.00000000000E+00 0.  1.
         21   -1    0    0  501  502  0.00000000000E+00 -0.00000000000E+00 -0.56753758473E+03  0.56753758473E+03  0.00000000000E+00 0. -1.
         21    1    1    2  503  502  0.14474046139E+02  0.23457508152E+02 -0.54663154892E+03  0.54732604814E+03  0.00000000000E+00 0. -1.
         -3    1    1    2    0  503 -0.14474046139E+02 -0.23457508152E+02 -0.11320002680E+02  0.29797569716E+02  0.00000000000E+00 0.  1.
</event>
<event>
 4    1  0.1593135E+006  0.3000567E+02  0.7546771E-02  0.1419547E+00
         21   -1    0    0  503  502  0.00000000000E+00  0.00000000000E+00  0.51832174974E+01  0.51832174974E+01  0.00000000000E+00 0. -1.
          3   -1    0    0  502    0 -0.00000000000E+00 -0.00000000000E+00 -0.42736331930E+03  0.42736331930E+03  0.00000000000E+00 0.  1.
         21    1    1    2  503  501 -0.30005282930E+02 -0.15149272050E+00 -0.44468732136E+02  0.53645205672E+02  0.00000000000E+00 0. -1.
          3    1    1    2  501    0  0.30005282930E+02  0.15149272050E+00 -0.37771136967E+03  0.37890133112E+03  0.00000000000E+00 0.  1.
</event>
<event>
 4    1  0.1593135E+006  0.2392671E+02  0.7546771E-02  0.1481178E+00
         21   -1    0    0  501  502  0.00000000000E+00  0.00000000000E+00  0.29728305583E+02  0.29728305583E+02  0.00000000000E+00 0. -1.
          1   -1    0    0  503    0 -0.00000000000E+00 -0.00000000000E+00 -0.22966431243E+03  0.22966431243E+03  0.00000000000E+00 0. -1.
         21    1    1    2  503  502 -0.42576803278E+01  0.23544838083E+02  0.24171771070E+02  0.34011200490E+02  0.00000000000E+00 0. -1.
          1    1    1    2  501    0  0.42576803278E+01 -0.23544838083E+02 -0.22410777792E+03  0.22538141752E+03  0.00000000000E+00 0. -1.
</event>
<event>
 4    1  0.1593135E+006  0.2362634E+02  0.7546771E-02  0.1484779E+00
         -1   -1    0    0    0  501 -0.00000000000E+00  0.00000000000E+00  0.52287610588E+03  0.52287610588E+03  0.00000000000E+00 0. -1.
         21   -1    0    0  503  502  0.00000000000E+00 -0.00000000000E+00 -0.18415130779E+01  0.18415130779E+01  0.00000000000E+00 0. -1.
         21    1    1    2  503  501 -0.23334317406E+02 -0.37031914457E+01  0.90432973085E+02  0.93468318786E+02  0.00000000000E+00 0. -1.
         -1    1    1    2    0  502  0.23334317406E+02  0.37031914457E+01  0.43060161971E+03  0.43124930017E+03  0.00000000000E+00 0. -1.
</event>
<event>
 4    1  0.1593135E+006  0.2118472E+02  0.7546771E-02  0.1516644E+00
          4   -1    0    0  503    0 -0.00000000000E+00  0.00000000000E+00  0.16878690837E+03  0.16878690837E+03  0.00000000000E+00 0.  1.
         21   -1    0    0  501  502  0.00000000000E+00 -0.00000000000E+00 -0.97427023288E+01  0.97427023288E+01  0.00000000000E+00 0. -1.
         21    1    1    2  503  502 -0.21152652602E+02 -0.11651775564E+01  0.34066417946E+01  0.21456876733E+02  0.00000000000E+00 0. -1.
          4    1    1    2  501    0  0.21152652602E+02  0.11651775564E+01  0.15563756424E+03  0.15707273396E+03  0.00000000000E+00 0.  1.
</event>
<event>
 4    1  0.1593135E+006  0.2592692E+02  0.7546771E-02  0.1458696E+00
          2   -1    0    0  503    0 -0.00000000000E+00  0.00000000000E+00  0.12008605867E+03  0.12008605867E+03  0.00000000000E+00 0. -1.
         21   -1    0    0  501  502  0.00000000000E+00 -0.00000000000E+00 -0.75707366322E+01  0.75707366322E+01  0.00000000000E+00 0. -1.
         21    1    1    2  503  502  0.14890656090E+01 -0.25884124764E+02  0.23673022694E+02  0.35108649001E+02  0.00000000000E+00 0. -1.
          2    1    1    2  501    0 -0.14890656090E+01  0.25884124764E+02  0.88842299347E+02  0.92548146305E+02  0.00000000000E+00 0. -1.
</event>
<event>
 4    1  0.1593135E+006  0.2884830E+02  0.7546771E-02  0.1429876E+00
         21   -1    0    0  503  502  0.00000000000E+00  0.00000000000E+00  0.27012488562E+02  0.27012488562E+02  0.00000000000E+00 0.  1.
          4   -1    0    0  502    0 -0.00000000000E+00 -0.00000000000E+00 -0.49036492868E+02  0.49036492868E+02  0.00000000000E+00 0.  1.
         21    1    1    2  503  501  0.89461177502E+01  0.27426106173E+02  0.12170947377E+02  0.31310641684E+02  0.00000000000E+00 0.  1.
          4    1    1    2  501    0 -0.89461177502E+01 -0.27426106173E+02 -0.34194951683E+02  0.44738339746E+02  0.00000000000E+00 0.  1.
</event>
<event>
 4    1  0.1593135E+006  0.2992046E+02  0.7546771E-02  0.1420289E+00
         21   -1    0    0  501  502  0.00000000000E+00  0.00000000000E+00  0.15656112528E+03  0.15656112528E+03  0.00000000000E+00 0. -1.
         -1   -1    0    0    0  501 -0.00000000000E+00 -0.00000000000E+00 -0.91483285520E+02  0.91483285520E+02  0.00000000000E+00 0.  1.
         21    1    1    2  503  502  0.26976626371E+02  0.12942009168E+02  0.15262261955E+03  0.15552780449E+03  0.00000000000E+00 0. -1.
         -1    1    1    2    0  503 -0.26976626371E+02 -0.12942009168E+02 -0.87544779798E+02  0.92516606301E+02  0.00000000000E+00 0.  1.
</event>
<event>
 4    1  0.1593135E+006  0.2428936E+02  0.7546771E-02  0.1476913E+00
         21   -1    0    0  503  502  0.00000000000E+00  0.00000000000E+00  0.81819789472E+02  0.81819789472E+02  0.00000000000E+00 0. -1.
          2   -1    0    0  502    0 -0.00000000000E+00 -0.00000000000E+00 -0.37123020144E+02  0.37123020144E+02  0.00000000000E+00 0. -1.
         21    1    1    2  503  501 -0.23383884193E+02  0.65701548817E+01  0.75732498620E+02  0.79532284781E+02  0.00000000000E+00 0. -1.
          2    1    1    2  501    0  0.23383884193E+02 -0.65701548817E+01 -0.31035729292E+02  0.39410524835E+02  0.00000000000E+00 0. -1.
</event>
<event>
 4    1  0.1593135E+006  0.2154863E+02  0.7546771E-02  0.1511574E+00
          2   -1    0    0  503    0 -0.00000000000E+00  0.00000000000E+00  0.92831140415E+03  0.92831140415E+03  0.00000000000E+00 0.  1.
         21   -1    0    0  501  502  0.00000000000E+00 -0.00000000000E+00 -0.28141315560E+02  0.28141315560E+02  0.00000000000E+00 0. -1.
         21    1    1    2  503  502  0.16138186490E+02  0.14279440790E+02 -0.23872104284E+02  0.32159304336E+02  0.00000000000E+00 0. -1.
          2    1    1    2  501    0 -0.16138186490E+02 -0.14279440790E+02  0.92404219287E+03  0.92429341537E+03  0.00000000000E+00 0.  1.
</event>
<event>
 4    1  0.1593135E+006  0.2491317E+02  0.7546771E-02  0.1469777E+00
         21   -1    0    0  503  502  0.00000000000E+00  0.00000000000E+00  0.10897725189E+02  0.10897725189E+02  0.00000000000E+00 0. -1.
         -4   -1    0    0    0  501 -0.00000000000E+00 -0.00000000000E+00 -0.57504044541E+02  0.57504044541E+02  0.00000000000E+00 0.  1.
         21    1    1    2  503  501  0.21079526740E+02 -0.13278538808E+02 -0.26648926933E+02  0.36480561222E+02  0.00000000000E+00 0. -1.
         -4    1    1    2    0  502 -0.21079526740E+02  0.13278538808E+02 -0.19957392419E+02  0.31921208508E+02  0.00000000000E+00 0.  1.
</event>
<event>
 4    1  0.1593135E+006  0.2214840E+02  0.7546771E-02  0.1503478E+00
         21   -1    0    0  501  502  0.00000000000E+00  0.00000000000E+00  0.41999772125E+02  0.41999772125E+02  0.00000000000E+00 0.  1.
          2   -1    0    0  503    0 -0.00000000000E+00 -0.00000000000E+00 -0.31027642536E+03  0.31027642536E+03  0.00000000000E+00 0.  1.
         21    1    1    2  503  502  0.83151522845E+01 -0.20528271941E+02  0.38652751412E+02  0.44548702542E+02  0.00000000000E+00 0.  1.
          2    1    1    2  501    0 -0.83151522845E+01  0.20528271941E+02 -0.30692940465E+03  0.30772749494E+03  0.00000000000E+00 0.  1.
</event>
<event>
 4    1  0.1593135E+006  0.2954958E+02  0.7546771E-02  0.1423551E+00
         21   -1    0    0  503  502  0.00000000000E+00  0.00000000000E+00  0.26447184046E+02  0.26447184046E+02  0.00000000000E+00 0.  1.
          3   -1    0    0  502    0 -0.00000000000E+00 -0.00000000000E+00 -0.78357516441E+02  0.78357516441E+02  0.00000000000E+00 0.  1.
         21    1    1    2  503  501  0.13342268228E+02  0.26365921583E+02  0.13906813968E+02  0.32658496860E+02  0.00000000000E+00 0.  1.
          3    1    1    2  501    0 -0.13342268228E+02 -0.26365921583E+02 -0.65817146363E+02  0.72146203627E+02  0.00000000000E+00 0.  1.
</event>
<event>
 4    1  0.1593135E+006  0.2634973E+02  0.7546771E-02  0.1454252E+00
          2   -1    0    0  502    0 -0.00000000000E+00  0.00000000000E+00  0.40772895326E+03  0.40772895326E+03  0.00000000000E+00 0. -1.
         21   -1    0    0  503  502  0.00000000000E+00 -0.00000000000E+00 -0.31126267050E+02  0.31126267050E+02  0.00000000000E+00 0. -1.
         21    1    1    2  503  501  0.43343963593E+01 -0.25990789966E+02 -0.25039586075E+02  0.36349539553E+02  0.00000000000E+00 0. -1.
          2    1    1    2  501    0 -0.43343963593E+01  0.25990789966E+02  0.40164227228E+03  0.40250568076E+03  0.00000000000E+00 0. -1.
</event>
<event>
 4    1  0.1593135E+006  0.4246685E+02  0.7546771E-02  0.1334606E+00
         21   -1    0    0  503  502  0.00000000000E+00  0.00000000000E+00  0.14273757201E+02  0.14273757201E+02  0.00000000000E+00 0.  1.
          1   -1    0    0  502    0 -0.00000000000E+00 -0.00000000000E+00 -0.75447043021E+03  0.75447043021E+03  0.00000000000E+00 0. -1.
         21    1    1    2  503  501  0.40857898984E+02 -0.11578645535E+02 -0.19383966689E+02  0.46681592801E+02  0.00000000000E+00 0.  1.
          1    1    1    2  501    0 -0.40857898984E+02  0.11578645535E+02 -0.72081270632E+03  0.72206259461E+03  0.00000000000E+00 0. -1.
</event>
<event>
 4    1  0.1593135E+006  0.3062617E+02  0.7546771E-02  0.1414232E+00
         -3   -1    0    0    0  501 -0.00000000000E+00  0.00000000000E+00  0.42057788116E+02  0.42057788116E+02  0.00000000000E+00 0. -1.
         21   -1    0    0  501  502  0.00000000000E+00 -0.00000000000E+00 -0.63426793388E+02  0.63426793388E+02  0.00000000000E+00 0.  1.
         21    1    1    2  503  502 -0.21516983223E+02  0.21794073854E+02 -0.53153871014E+02  0.61345710738E+02  0.00000000000E+00 0.  1.
         -3    1    1    2    0  503  0.21516983223E+02 -0.21794073854E+02  0.31784865743E+02  0.44138870766E+02  0.00000000000E+00 0. -1.
</event>
<event>
 4    1  0.1593135E+006  0.2195525E+02  0.7546771E-02  0.1506051E+00
          2   -1    0    0  503    0 -0.00000000000E+00  0.00000000000E+00  0.45561828256E+03  0.45561828256E+03  0.00000000000E+00 0. -1.
         21   -1    0    0  501  502  0.00000000000E+00 -0.00000000000E+00 -0.51980835714E+02  0.51980835714E+02  0.00000000000E+00 0. -1.
         21    1    1    2  503  502 -0.14774258656E+02  0.16240510174E+02 -0.49384744083E+02  0.54045220304E+02  0.00000000000E+00 0. -1.
          2    1    1    2  501    0  0.14774258656E+02 -0.16240510174E+02  0.45302219093E+03  0.45355389797E+03  0.00000000000E+00 0. -1.
</event>
<event>
 4    1  0.1593135E+006  0.3895795E+02  0.7546771E-02  0.1354703E+00
          2   -1    0    0  503    0 -0.00000000000E+00  0.00000000000E+00  0.30528555186E+03  0.30528555186E+03  0.00000000000E+00 0.  1.
         21   -1    0    0  501  502  0.00000000000E+00 -0.00000000000E+00 -0.92441246015E+02  0.92441246015E+02  0.00000000000E+00 0.  1.
         21    1    1    2  503  502 -0.34560884475E+02 -0.17979624169E+02 -0.87019921203E+02  0.95342479028E+02  0.00000000000E+00 0.  1.
          2    1    1    2  501    0  0.34560884475E+02  0.17979624169E+02  0.29986422705E+03  0.30238431885E+03  0.00000000000E+00 0.  1.
</event>
<event>
 4    1  0.1593135E+006  0.2508024E+02  0.7546771E-02  0.1467908E+00
          3   -1    0    0  502    0 -0.00000000000E+00  0.00000000000E+00  0.65661471963E+03  0.65661471963E+03  0.00000000000E+00 0.  1.
         21   -1    0    0  503  502  0.00000000000E+00 -0.00000000000E+00 -0.30436814070E+02  0.30436814070E+02  0.00000000000E+00 0. -1.
         21    1    1    2  503  501 -0.16541391703E+02  0.18852079888E+02 -0.24987506934E+02  0.35403305754E+02  0.00000000000E+00 0. -1.
          3    1    1    2  501    0  0.16541391703E+02 -0.18852079888E+02  0.65116541249E+03  0.65164822795E+03  0.00000000000E+00 0.  1.
</event>
<event>
 4    1  0.1593135E+006  0.2641885E+02  0.7546771E-02  0.1453535E+00
          1   -1    0    0  502    0 -0.00000000000E+00  0.00000000000E+00  0.12944223446E+04  0.12944223446E+04  0.00000000000E+00 0. -1.
         21   -1    0    0  503  502  0.00000000000E+00 -0.00000000000E+00 -0.10066896891E+02  0.10066896891E+02  0.00000000000E+00 0.  1.
         21    1    1    2  503  501  0.10808804761E+02  0.24106544209E+02  0.76412286054E+01  0.27501711014E+02  0.00000000000E+00 0.  1.
          1    1    1    2  501    0 -0.10808804761E+02 -0.24106544209E+02  0.12767142191E+04  0.12769875305E+04  0.00000000000E+00 0. -1.
</event>
<event>
 4    1  0.1593135E+006  0.8944894E+02  0.7546771E-02  0.1183465E+00
          2   -1    0    0  502    0 -0.00000000000E+00  0.00000000000E+00  0.23470618654E+04  0.23470618654E+04  0.00000000000E+00 0. -1.
         21   -1    0    0  503  502  0.00000000000E+00 -0.00000000000E+00 -0.30329659449E+02  0.30329659449E+02  0.00000000000E+00 0. -1.
         21    1    1    2  503  501 -0.87199814103E+02 -0.19932523983E+02  0.38464500411E+02  0.97368531281E+02  0.00000000000E+00 0. -1.
          2    1    1    2  501    0  0.87199814103E+02  0.19932523983E+02  0.22782677055E+04  0.22800229935E+04  0.00000000000E+00 0. -1.
</event>
<event>
 4    1  0.1593135E+006  0.2712890E+02  0.7546771E-02  0.1446318E+00
         -1   -1    0    0    0  501 -0.00000000000E+00  0.00000000000E+00  0.82559973565E+02  0.82559973565E+02  0.00000000000E+00 0.  1.
         21   -1    0    0  501  502  0.00000000000E+00 -0.00000000000E+00 -0.11700928815E+02  0.11700928815E+02  0.00000000000E+00 0.  1.
         21    1    1    2  503  502 -0.22657909091E+02  0.14919659829E+02  0.12429991219E+02  0.29840941263E+02  0.00000000000E+00 0.  1.
         -1    1    1    2    0  503  0.22657909091E+02 -0.14919659829E+02  0.58429053531E+02  0.64419961117E+02  0.00000000000E+00 0.  1.
</event>
<event>
 4    1  0.1593135E+006  0.2045995E+02  0.7546771E-02  0.1527117E+00
          2   -1    0    0  503    0 -0.00000000000E+00  0.00000000000E+00  0.23263800180E+02  0.23263800180E+02  0.00000000000E+00 0.  1.
         21   -1    0    0  501  502  0.00000000000E+00 -0.00000000000E+00 -0.20335291657E+02  0.20335291657E+02  0.00000000000E+00 0. -1.
         21    1    1    2  503  502 -0.46275450741E+01  0.19929756189E+02 -0.59326137875E+01  0.21302705498E+02  0.00000000000E+00 0. -1.
          2    1    1    2  501    0  0.46275450741E+01 -0.19929756189E+02  0.88611223107E+01  0.22296386339E+02  0.00000000000E+00 0.  1.
</event>
<event>
 4    1  0.1593135E+006  0.3174520E+02  0.7546771E-02  0.1405013E+00
         21   -1    0    0  503  502  0.00000000000E+00  0.00000000000E+00  0.13349249552E+02  0.13349249552E+02  0.00000000000E+00 0. -1.
         -1   -1    0    0    0  501 -0.00000000000E+00 -0.00000000000E+00 -0.35465455672E+03  0.35465455672E+03  0.00000000000E+00 0. -1.
         21    1    1    2  503  501 -0.30006015131E+02 -0.10363241701E+02 -0.74044731589E+01  0.32597299664E+02  0.00000000000E+00 0. -1.
         -1    1    1    2    0  502  0.30006015131E+02  0.10363241701E+02 -0.33390083401E+03  0.33540650661E+03  0.00000000000E+00 0. -1.
</event>
<event>
 4    1  0.1593135E+006  0.2259924E+02  0.7546771E-02  0.1497593E+00
         21   -1    0    0  503  502  0.00000000000E+00  0.00000000000E+00  0.48345229850E+03  0.48345229850E+03  0.00000000000E+00 0.  1.
         -4   -1    0    0    0  501 -0.00000000000E+00 -0.00000000000E+00 -0.10815100703E+01  0.10815100703E+01  0.00000000000E+00 0.  1.
         21    1    1    2  503  501  0.84850439944E+01  0.20945880199E+02  0.27808995266E+03  0.27900671611E+03  0.00000000000E+00 0.  1.
         -4    1    1    2    0  502 -0.84850439944E+01 -0.20945880199E+02  0.20428083578E+03  0.20552709246E+03  0.00000000000E+00 0.  1.
</event>
<event>
 4    1  0.1593135E+006  0.2379573E+02  0.7546771E-02  0.1482741E+00
         21   -1    0    0  503  502  0.00000000000E+00  0.00000000000E+00  0.54994309268E+01  0.54994309268E+01  0.00000000000E+00 0. -1.
          2   -1    0    0  502    0 -0.00000000000E+00 -0.00000000000E+00 -0.12820165510E+03  0.12820165510E+03  0.00000000000E+00 0. -1.
         21    1    1    2  503  501  0.21995662256E+02 -0.90789599765E+01 -0.31689608759E+02  0.39629130392E+02  0.00000000000E+00 0. -1.
          2    1    1    2  501    0 -0.21995662256E+02  0.90789599765E+01 -0.91012615412E+02  0.94071955632E+02  0.00000000000E+00 0. -1.
</event>
<event>
 4    1  0.1593135E+006  0.2922178E+02  0.7546771E-02  0.1426482E+00
          2   -1    0    0  503    0 -0.00000000000E+00  0.00000000000E+00  0.48609890316E+03  0.48609890316E+03  0.00000000000E+00 0.  1.
         21   -1    0    0  501  502  0.00000000000E+00 -0.00000000000E+00 -0.17566818506E+01  0.17566818506E+01  0.00000000000E+00 0.  1.
         21    1    1    2  503  502 -0.25114999339E+02  0.14938171082E+02  0.24296185947E+03  0.24471284663E+03  0.00000000000E+00 0.  1.
          2    1    1    2  501    0  0.25114999339E+02 -0.14938171082E+02  0.24138036184E+03  0.24314273838E+03  0.00000000000E+00 0.  1.
</event>
<event>
 4    1  0.1593135E+006  0.2293008E+02  0.7546771E-02  0.1493378E+00
         21   -1    0    0  503  502  0.00000000000E+00  0.00000000000E+00  0.93145583486E+02  0.93145583486E+02  0.00000000000E+00 0.  1.
          3   -1    0    0  502    0 -0.00000000000E+00 -0.00000000000E+00 -0.61198939766E+03  0.61198939766E+03  0.00000000000E+00 0.  1.
         21    1    1    2  503  501 -0.63304608084E+01  0.22038913971E+02  0.91515829368E+02  0.94344769267E+02  0.00000000000E+00 0.  1.
          3    1    1    2  501    0  0.63304608084E+01 -0.22038913971E+02 -0.61035964354E+03  0.61079021188E+03  0.00000000000E+00 0.  1.
</event>
<event>
 4    1  0.1593135E+006  0.2007223E+02  0.7546771E-02  0.1532934E+00
          2   -1    0    0  503    0 -0.00000000000E+00  0.00000000000E+00  0.64283779416E+03  0.64283779416E+03  0.00000000000E+00 0.  1.
         21   -1    0    0  501  502  0.00000000000E+00 -0.00000000000E+00 -0.14778710873E+02  0.14778710873E+02  0.00000000000E+00 0.  1.
         21    1    1    2  503  502  0.10894966532E+02 -0.16858058879E+02 -0.77310420687E+01  0.21509613115E+02  0.00000000000E+00 0.  1.
          2    1    1    2  501    0 -0.10894966532E+02  0.16858058879E+02  0.63579012536E+03  0.63610689192E+03  0.00000000000E+00 0.  1.
</event>
<event>
 4    1  0.1593135E+006  0.2119490E+02  0.7546771E-02  0.1516500E+00
         21   -1    0    0  503  502  0.00000000000E+00  0.00000000000E+00  0.30852511957E+03  0.30852511957E+03  0.00000000000E+00 0.  1.
          4   -1    0    0  502    0 -0.00000000000E+00 -0.00000000000E+00 -0.21041292081E+01  0.21041292081E+01  0.00000000000E+00 0.  1.
         21    1    1    2  503  501 -0.11404244310E+02 -0.17865250742E+02  0.23940797470E+03  0.24034434115E+03  0.00000000000E+00 0.  1.
          4    1    1    2  501    0  0.11404244310E+02  0.17865250742E+02  0.67013015667E+02  0.70284907634E+02  0.00000000000E+00 0.  1.
</event>
<event>
 4    1  0.1593135E+006  0.2371779E+02  0.7546771E-02  0.1483676E+00
         21   -1    0    0  503  502  0.00000000000E+00  0.00000000000E+00  0.24002805478E+03  0.24002805478E+03  0.00000000000E+00 0.  1.
         -1   -1    0    0    0  501 -0.00000000000E+00 -0.00000000000E+00 -0.70790316080E+02  0.70790316080E+02  0.00000000000E+00 0.  1.
         21    1    1    2  503  501 -0.21038830953E+02 -0.10949930547E+02  0.23743388088E+03  0.23861555100E+03  0.00000000000E+00 0.  1.
         -1    1    1    2    0  502  0.21038830953E+02  0.10949930547E+02 -0.68196142184E+02  0.72202819860E+02  0.00000000000E+00 0.  1.
</event>
<event>
 4    1  0.1593135E+006  0.2140573E+02  0.7546771E-02  0.1513550E+00
         -1   -1    0    0    0  501 -0.00000000000E+00  0.00000000000E+00  0.63363603980E+03  0.63363603980E+03  0.00000000000E+00 0.  1.
         21   -1    0    0  501  502  0.00000000000E+00 -0.00000000000E+00 -0.58638356579E+01  0.58638356579E+01  0.00000000000E+00 0. -1.
         21    1    1    2  503  502 -0.17877633474E+02  0.11772660820E+02  0.14500665999E+02  0.25854876442E+02  0.00000000000E+00 0. -1.
         -1    1    1    2    0  503  0.17877633474E+02 -0.11772660820E+02  0.61327153814E+03  0.61364499901E+03  0.00000000000E+00 0.  1.
</event>
<event>
 4    1  0.1593135E+006  0.2018282E+02  0.7546771E-02  0.1531259E+00
         -2   -1    0    0    0  501 -0.00000000000E+00  0.00000000000E+00  0.71637066315E+01  0.71637066315E+01  0.00000000000E+00 0.  1.
         21   -1    0    0  501  502  0.00000000000E+00 -0.00000000000E+00 -0.82554595202E+02  0.82554595202E+02  0.00000000000E+00 0. -1.
         21    1    1    2  503  502  0.57851196347E+00 -0.20174529023E+02 -0.62720793701E+02  0.65888119262E+02  0.00000000000E+00 0. -1.
         -2    1    1    2    0  503 -0.57851196347E+00  0.20174529023E+02 -0.12670094869E+02  0.23830182571E+02  0.00000000000E+00 0.  1.
</event>
<event>
 4    1  0.1593135E+006  0.2762471E+02  0.7546771E-02  0.1441432E+00
         -3   -1    0    0    0  501 -0.00000000000E+00  0.00000000000E+00  0.33159200177E+02  0.33159200177E+02  0.00000000000E+00 0. -1.
         21   -1    0    0  501  502  0.00000000000E+00 -0.00000000000E+00 -0.13870085807E+03  0.13870085807E+03  0.00000000000E+00 0. -1.
         21    1    1    2  503  502  0.11085169479E+02 -0.25303039541E+02 -0.13124874411E+03  0.13412441099E+03  0.00000000000E+00 0. -1.
         -3    1    1    2    0  503 -0.11085169479E+02  0.25303039541E+02  0.25707086217E+02  0.37735647260E+02  0.00000000000E+00 0. -1.
</event>
<event>
 4    1  0.1593135E+006  0.2401015E+02  0.7546771E-02  0.1480189E+00
          2   -1    0    0  502    0 -0.00000000000E+00  0.00000000000E+00  0.24500245206E+03  0.24500245206E+03  0.00000000000E+00 0.  1.
         21   -1    0    0  503  502  0.00000000000E+00 -0.00000000000E+00 -0.39960025919E+02  0.39960025919E+02  0.00000000000E+00 0. -1.
         21    1    1    2  503  501 -0.21012945771E+02  0.11616514733E+02 -0.35701489054E+02  0.43024221378E+02  0.00000000000E+00 0. -1.
          2    1    1    2  501    0  0.21012945771E+02 -0.11616514733E+02  0.24074391519E+03  0.24193825660E+03  0.00000000000E+00 0.  1.
</event>
<event>
 4    1  0.1593135E+006  0.2112722E+02  0.7546771E-02  0.1517456E+00
         21   -1    0    0  501  502  0.00000000000E+00  0.00000000000E+00  0.12211824007E+04  0.12211824007E+04  0.00000000000E+00 0.  1.
          4   -1    0    0  503    0 -0.00000000000E+00 -0.00000000000E+00 -0.39610728909E+00  0.39610728909E+00  0.00000000000E+00 0. -1.
         21    1    1    2  503  502  0.21126926851E+02  0.11188149487E+00  0.78013790059E+03  0.78042392550E+03  0.00000000000E+00 0.  1.
          4    1    1    2  501    0 -0.21126926851E+02 -0.11188149487E+00  0.44064839284E+03  0.44115458251E+03  0.00000000000E+00 0. -1.
</event>
<event>
 4    1  0.1593135E+006  0.2682324E+02  0.7546771E-02  0.1449392E+00
         21   -1    0    0  503  502  0.00000000000E+00  0.00000000000E+00  0.11519861099E+04  0.11519861099E+04  0.00000000000E+00 0.  1.
         -4   -1    0    0    0  501 -0.00000000000E+00 -0.00000000000E+00 -0.10835332334E+01  0.10835332334E+01  0.00000000000E+00 0.  1.
         21    1    1    2  503  501 -0.97848399234E+01  0.24974848701E+02  0.95068115573E+03  0.95105948606E+03  0.00000000000E+00 0.  1.
         -4    1    1    2    0  502  0.97848399234E+01 -0.24974848701E+02  0.20022142095E+03  0.20201015709E+03  0.00000000000E+00 0.  1.
</event>
<event>
 4    1  0.1593135E+006  0.2000145E+02  0.7546771E-02  0.1534013E+00
         21   -1    0    0  503  502  0.00000000000E+00  0.00000000000E+00  0.83922492985E+02  0.83922492985E+02  0.00000000000E+00 0. -1.
          3   -1    0    0  502    0 -0.00000000000E+00 -0.00000000000E+00 -0.49047556061E+01  0.49047556061E+01  0.00000000000E+00 0. -1.
         21    1    1    2  503  501  0.85958410316E+00  0.19982972732E+02  0.46952252855E+02  0.51035008888E+02  0.00000000000E+00 0. -1.
          3    1    1    2  501    0 -0.85958410316E+00 -0.19982972732E+02  0.32065484524E+02  0.37792239703E+02  0.00000000000E+00 0. -1.
</event>
<event>
 4    1  0.1593135E+006  0.2171983E+02  0.7546771E-02  0.1509231E+00
         21   -1    0    0  503  502  0.00000000000E+00  0.00000000000E+00  0.10593169609E+02  0.10593169609E+02  0.00000000000E+00 0. -1.
          3   -1    0    0  502    0 -0.00000000000E+00 -0.00000000000E+00 -0.53352912665E+02  0.53352912665E+02  0.00000000000E+00 0. -1.
         21    1    1    2  503  501  0.15972642256E+01 -0.21661017418E+02 -0.34379312872E+02  0.40665563837E+02  0.00000000000E+00 0. -1.
          3    1    1    2  501    0 -0.15972642256E+01  0.21661017418E+02 -0.83804301839E+01  0.23280518436E+02  0.00000000000E+00 0. -1.
</event>
<event>
 4    1  0.1593135E+006  0.2027660E+02  0.7546771E-02  0.1529849E+00
         -1   -1    0    0    0  501 -0.00000000000E+00  0.00000000000E+00  0.63344599504E+03  0.63344599504E+03  0.00000000000E+00 0. -1.
         21   -1    0    0  503  502  0.00000000000E+00 -0.00000000000E+00 -0.64954124217E+00  0.64954124217E+00  0.00000000000E+00 0. -1.
         21    1    1    2  503  501  0.11743506012E+01  0.20242560497E+02  0.32508595410E+03  0.32571769665E+03  0.00000000000E+00 0. -1.
         -1    1    1    2    0  502 -0.11743506012E+01 -0.20242560497E+02  0.30771049969E+03  0.30837783963E+03  0.00000000000E+00 0. -1.
</event>
<event>
 4    1  0.1593135E+006  0.2590038E+02  0.7546771E-02  0.1458978E+00
         21   -1    0    0  501  502  0.00000000000E+00  0.00000000000E+00  0.12473443988E+01  0.12473443988E+01  0.00000000000E+00 0.  1.
          2   -1    0    0  503    0 -0.00000000000E+00 -0.00000000000E+00 -0.54345488410E+03  0.54345488410E+03  0.00000000000E+00 0.  1.
         21    1    1    2  503  502  0.89745830760E+01  0.24295813018E+02 -0.24333751270E+03  0.24471202414E+03  0.00000000000E+00 0.  1.
          2    1    1    2  501    0 -0.89745830760E+01 -0.24295813018E+02 -0.29887002701E+03  0.29999020437E+03  0.00000000000E+00 0.  1.
</event>
<event>
 4    1  0.1593135E+006  0.2608712E+02  0.7546771E-02  0.1457000E+00
          1   -1    0    0  502    0 -0.00000000000E+00  0.00000000000E+00  0.18706166014E+04  0.18706166014E+04  0.00000000000E+00 0. -1.
         21   -1    0    0  503  502  0.00000000000E+00 -0.00000000000E+00 -0.44784931868E+00  0.44784931868E+00  0.00000000000E+00 0.  1.
         21    1    1    2  503  501 -0.19817272408E+02 -0.16965066775E+02  0.52980958316E+03  0.53045144187E+03  0.00000000000E+00 0.  1.
          1    1    1    2  501    0  0.19817272408E+02  0.16965066775E+02  0.13403591689E+04  0.13406130089E+04  0.00000000000E+00 0. -1.
</event>
<event>
 4    1  0.1593135E+006  0.2256791E+02  0.7546771E-02  0.1497996E+00
         21   -1    0    0  503  502  0.00000000000E+00  0.00000000000E+00  0.84664371703E+02  0.84664371703E+02  0.00000000000E+00 0. -1.
          4   -1    0    0  502    0 -0.00000000000E+00 -0.00000000000E+00 -0.73440403914E+01  0.73440403914E+01  0.00000000000E+00 0. -1.
         21    1    1    2  503  501 -0.15371897238E+02 -0.16523180532E+02  0.58225796501E+02  0.62446409807E+02  0.00000000000E+00 0. -1.
          4    1    1    2  501    0  0.15371897238E+02  0.16523180532E+02  0.19094534811E+02  0.29562002287E+02  0.00000000000E+00 0. -1.
</event>
<event>
 4    1  0.1593135E+006  0.3131826E+02  0.7546771E-02  0.1408476E+00
         21   -1    0    0  503  502  0.00000000000E+00  0.00000000000E+00  0.52245164817E+00  0.52245164817E+00  0.00000000000E+00 0.  1.
         -4   -1    0    0    0  501 -0.00000000000E+00 -0.00000000000E+00 -0.19805514043E+04  0.19805514043E+04  0.00000000000E+00 0.  1.
         21    1    1    2  503  501 -0.26675337796E+02  0.16409145457E+02 -0.76392322111E+03  0.76456492299E+03  0.00000000000E+00 0.  1.
         -4    1    1    2    0  502  0.26675337796E+02 -0.16409145457E+02 -0.12161057315E+04  0.12165089330E+04  0.00000000000E+00 0.  1.
</event>
<event>
 4    1  0.1593135E+006  0.2346475E+02  0.7546771E-02  0.1486743E+00
         21   -1    0    0  503  502  0.00000000000E+00  0.00000000000E+00  0.97104271409E+01  0.97104271409E+01  0.00000000000E+00 0. -1.
          3   -1    0    0  502    0 -0.00000000000E+00 -0.00000000000E+00 -0.14262150779E+04  0.14262150779E+04  0.00000000000E+00 0. -1.
         21    1    1    2  503  501 -0.20396498306E+02  0.11600741633E+02 -0.47061657164E+01  0.23932035963E+02  0.00000000000E+00 0. -1.
          3    1    1    2  501    0  0.20396498306E+02 -0.11600741633E+02 -0.14117984850E+04  0.14119934691E+04  0.00000000000E+00 0. -1.
</event>
<event>
 4    1  0.1593135E+006  0.2497015E+02  0.7546771E-02  0.1469138E+00
          3   -1    0    0  502    0 -0.00000000000E+00  0.00000000000E+00  0.21744469952E+02  0.21744469952E+02  0.00000000000E+00 0. -1.
         21   -1    0    0  503  502  0.00000000000E+00 -0.00000000000E+00 -0.27063959472E+03  0.27063959472E+03  0.00000000000E+00 0.  1.
         21    1    1    2  503  501  0.21558607069E+02  0.12599007478E+02 -0.26267827016E+03  0.26386243033E+03  0.00000000000E+00 0.  1.
          3    1    1    2  501    0 -0.21558607069E+02 -0.12599007478E+02  0.13783145394E+02  0.28521634335E+02  0.00000000000E+00 0. -1.
</event>
<event>
 4    1  0.1593135E+006  0.3498567E+02  0.7546771E-02  0.1380664E+00
         21   -1    0    0  503  502  0.00000000000E+00  0.00000000000E+00  0.36922208516E+01  0.36922208516E+01  0.00000000000E+00 0. -1.
          1   -1    0    0  502    0 -0.00000000000E+00 -0.00000000000E+00 -0.16327764350E+04  0.16327764350E+04  0.00000000000E+00 0.  1.
         21    1    1    2  503  501 -0.20388301541E+01  0.34926215527E+02 -0.84079591262E+02  0.91067969266E+02  0.00000000000E+00 0. -1.
          1    1    1    2  501    0  0.20388301541E+01 -0.34926215527E+02 -0.15450046229E+04  0.15454006866E+04  0.00000000000E+00 0.  1.
</event>
<event>
 4    1  0.1593135E+006  0.4285971E+02  0.7546771E-02  0.1332496E+00
          2   -1    0    0  503    0 -0.00000000000E+00  0.00000000000E+00  0.14359572697E+04  0.14359572697E+04  0.00000000000E+00 0. -1.
         21   -1    0    0  501  502  0.00000000000E+00 -0.00000000000E+00 -0.56809017056E+01  0.56809017056E+01  0.00000000000E+00 0. -1.
         21    1    1    2  503  502 -0.38775980472E+02 -0.18258637181E+02  0.80647476937E+02  0.91328911247E+02  0.00000000000E+00 0. -1.
          2    1    1    2  501    0  0.38775980472E+02  0.18258637181E+02  0.13496288910E+04  0.13503092601E+04  0.00000000000E+00 0. -1.
</event>
<event>
 4    1  0.1593135E+006  0.2682653E+02  0.7546771E-02  0.1449359E+00
          2   -1    0    0  502    0 -0.00000000000E+00  0.00000000000E+00  0.38884359315E+03  0.38884359315E+03  0.00000000000E+00 0. -1.
         21   -1    0    0  503  502  0.00000000000E+00 -0.00000000000E+00 -0.77604065803E+02  0.77604065803E+02  0.00000000000E+00 0.  1.
         21    1    1    2  503  501 -0.90875619778E+01 -0.25240419173E+02 -0.74806210566E+02  0.79470948667E+02  0.00000000000E+00 0.  1.
          2    1    1    2  501    0  0.90875619778E+01  0.25240419173E+02  0.38604573791E+03  0.38697671028E+03  0.00000000000E+00 0. -1.
</event>
<event>
 4    1  0.1593135E+006  0.2097363E+02  0.7546771E-02  0.1519642E+00
         -2   -1    0    0    0  501 -0.00000000000E+00  0.00000000000E+00  0.17813986420E+03  0.17813986420E+03  0.00000000000E+00 0.  1.
         21   -1    0    0  503  502  0.00000000000E+00 -0.00000000000E+00 -0.42567130287E+03  0.42567130287E+03  0.00000000000E+00 0. -1.
         21    1    1    2  503  501 -0.20201620439E+02  0.56380670562E+01 -0.42479433396E+03  0.42531179084E+03  0.00000000000E+00 0. -1.
         -2    1    1    2    0  502  0.20201620439E+02 -0.56380670562E+01  0.17726289528E+03  0.17849937622E+03  0.00000000000E+00 0.  1.
</event>
<event>
 4    1  0.1593135E+006  0.2954881E+02  0.7546771E-02  0.1423558E+00
         21   -1    0    0  503  502  0.00000000000E+00  0.00000000000E+00  0.23829487684E+02  0.23829487684E+02  0.00000000000E+00 0.  1.
          3   -1    0    0  502    0 -0.00000000000E+00 -0.00000000000E+00 -0.52060040784E+03  0.52060040784E+03  0.00000000000E+00 0. -1.
         21    1    1    2  503  501  0.27764952495E+02  0.10111365629E+02  0.14075226247E+02  0.32729868558E+02  0.00000000000E+00 0.  1.
          3    1    1    2  501    0 -0.27764952495E+02 -0.10111365629E+02 -0.51084614640E+03  0.51170002696E+03  0.00000000000E+00 0. -1.
</event>
<event>
 4    1  0.1593135E+006  0.2749254E+02  0.7546771E-02  0.1442722E+00
         21   -1    0    0  501  502  0.00000000000E+00  0.00000000000E+00  0.49176939437E+03  0.49176939437E+03  0.00000000000E+00 0.  1.
          3   -1    0    0  503    0 -0.00000000000E+00 -0.00000000000E+00 -0.20008785854E+01  0.20008785854E+01  0.00000000000E+00 0.  1.
         21    1    1    2  503  502  0.28407381372E+01 -0.27345384545E+02  0.36376075000E+03  0.36479819502E+03  0.00000000000E+00 0.  1.
          3    1    1    2  501    0 -0.28407381372E+01  0.27345384545E+02  0.12600776579E+03  0.12897207794E+03  0.00000000000E+00 0.  1.
</event>
<event>
 4    1  0.1593135E+006  0.2370955E+02  0.7546771E-02  0.1483775E+00
         21   -1    0    0  503  502  0.00000000000E+00  0.00000000000E+00  0.12230934776E+03  0.12230934776E+03  0.00000000000E+00 0.  1.
         -1   -1    0    0    0  501 -0.00000000000E+00 -0.00000000000E+00 -0.78586317894E+01  0.78586317894E+01  0.00000000000E+00 0.  1.
         21    1    1    2  503  501  0.19480312655E+01 -0.23629389901E+02  0.99160658632E+02  0.10195577038E+03  0.00000000000E+00 0.  1.
         -1    1    1    2    0  502 -0.19480312655E+01  0.23629389901E+02  0.15290057336E+02  0.28212209170E+02  0.00000000000E+00 0.  1.
</event>
<event>
 4    1  0.1593135E+006  0.4096033E+02  0.7546771E-02  0.1342948E+00
          2   -1    0    0  502    0 -0.00000000000E+00  0.00000000000E+00  0.11783196540E+04  0.11783196540E+04  0.00000000000E+00 0. -1.
         21   -1    0    0  503  502  0.00000000000E+00 -0.00000000000E+00 -0.25641723666E+02  0.25641723666E+02  0.00000000000E+00 0.  1.
         21    1    1    2  503  501  0.24560672261E+02  0.32779896992E+02 -0.86894667635E+01  0.41871889154E+02  0.00000000000E+00 0.  1.
          2    1    1    2  501    0 -0.24560672261E+02 -0.32779896992E+02  0.11613673971E+04  0.11620894885E+04  0.00000000000E+00 0. -1.
</event>
<event>
 4    1  0.1593135E+006  0.2787503E+02  0.7546771E-02  0.1439011E+00
          1   -1    0    0  503    0 -0.00000000000E+00  0.00000000000E+00  0.47608942045E+02  0.47608942045E+02  0.00000000000E+00 0.  1.
         21   -1    0    0  501  502  0.00000000000E+00 -0.00000000000E+00 -0.17093629949E+02  0.17093629949E+02  0.00000000000E+00 0. -1.
         21    1    1    2  503  502 -0.10853601210E+02 -0.25675211609E+02  0.83789031573E+01  0.29107098250E+02  0.00000000000E+00 0. -1.
          1    1    1    2  501    0  0.10853601210E+02  0.25675211609E+02  0.22136408939E+02  0.35595473745E+02  0.00000000000E+00 0.  1.
</event>
<event>
 4    1  0.1593135E+006  0.2086461E+02  0.7546771E-02  0.1521207E+00
         21   -1    0    0  503  502  0.00000000000E+00  0.00000000000E+00  0.82593855639E+01  0.82593855639E+01  0.00000000000E+00 0.  1.
         -2   -1    0    0    0  501 -0.00000000000E+00 -0.00000000000E+00 -0.58496349761E+02  0.58496349761E+02  0.00000000000E+00 0.  1.
         21    1    1    2  503  501 -0.20863853022E+02  0.17777884838E+00 -0.14618501149E+02  0.25476117131E+02  0.00000000000E+00 0.  1.
         -2    1    1    2    0  502  0.20863853022E+02 -0.17777884838E+00 -0.35618463048E+02  0.41279618193E+02  0.00000000000E+00 0.  1.
</event>
<event>
 4    1  0.1593135E+006  0.2287065E+02  0.7546771E-02  0.1494129E+00
         21   -1    0    0  503  502  0.00000000000E+00  0.00000000000E+00  0.24720696838E+01  0.24720696838E+01  0.00000000000E+00 0. -1.
         -1   -1    0    0    0  501 -0.00000000000E+00 -0.00000000000E+00 -0.45401805810E+03  0.45401805810E+03  0.00000000000E+00 0. -1.
         21    1    1    2  503  501  0.17775468471E+02  0.14390950870E+02 -0.58988481431E+02  0.63266955735E+02  0.00000000000E+00 0. -1.
         -1    1    1    2    0  502 -0.17775468471E+02 -0.14390950870E+02 -0.39255750698E+03  0.39322317205E+03  0.00000000000E+00 0. -1.
</event>
<event>
 4    1  0.1593135E+006  0.2227274E+02  0.7546771E-02  0.1501838E+00
          1   -1    0    0  503    0 -0.00000000000E+00  0.00000000000E+00  0.12316419143E+03  0.12316419143E+03  0.00000000000E+00 0.  1.
         21   -1    0    0  501  502  0.00000000000E+00 -0.00000000000E+00 -0.60215973117E+01  0.60215973117E+01  0.00000000000E+00 0.  1.
         21    1    1    2  503  502 -0.18631156792E+02 -0.12204714790E+02  0.21402851195E+02  0.30889433562E+02  0.00000000000E+00 0.  1.
          1    1    1    2  501    0  0.18631156792E+02  0.12204714790E+02  0.95739742921E+02  0.98296355177E+02  0.00000000000E+00 0.  1.
</event>
<event>
 4    1  0.1593135E+006  0.2267207E+02  0.7546771E-02  0.1496658E+00
         -2   -1    0    0    0  501 -0.00000000000E+00  0.00000000000E+00  0.62165635564E+03  0.62165635564E+03  0.00000000000E+00 0. -1.
         21   -1    0    0  503  502  0.00000000000E+00 -0.00000000000E+00 -0.13403005981E+01  0.13403005981E+01  0.00000000000E+00 0. -1.
         21    1    1    2  503  501  0.22671295453E+02 -0.18713897584E+00  0.11736123880E+03  0.11953109650E+03  0.00000000000E+00 0. -1.
         -2    1    1    2    0  502 -0.22671295453E+02  0.18713897584E+00  0.50295481624E+03  0.50346555974E+03  0.00000000000E+00 0. -1.
</event>
<event>
 4    1  0.1593135E+006  0.2730327E+02  0.7546771E-02  0.1444585E+00
          2   -1    0    0  502    0 -0.00000000000E+00  0.00000000000E+00  0.58018264844E+03  0.58018264844E+03  0.00000000000E+00 0. -1.
         21   -1    0    0  503  502  0.00000000000E+00 -0.00000000000E+00 -0.57749264294E+01  0.57749264294E+01  0.00000000000E+00 0.  1.
         21    1    1    2  503  501  0.26852624522E+02  0.49401554083E+01  0.28865991488E+02  0.39733034666E+02  0.00000000000E+00 0.  1.
          2    1    1    2  501    0 -0.26852624522E+02 -0.49401554083E+01  0.54554173052E+03  0.54622454020E+03  0.00000000000E+00 0. -1.
</event>
<event>
 4    1  0.1593135E+006  0.2407825E+02  0.7546771E-02  0.1479385E+00
         -4   -1    0    0    0  501 -0.00000000000E+00  0.00000000000E+00  0.29981630563E+02  0.29981630563E+02  0.00000000000E+00 0.  1.
         21   -1    0    0  503  502  0.00000000000E+00 -0.00000000000E+00 -0.36926467061E+02  0.36926467061E+02  0.00000000000E+00 0. -1.
         21    1    1    2  503  501  0.64968923383E+01 -0.23185182551E+02 -0.26561308280E+02  0.35850598287E+02  0.00000000000E+00 0. -1.
         -4    1    1    2    0  502 -0.64968923383E+01  0.23185182551E+02  0.19616471781E+02  0.31057499338E+02  0.00000000000E+00 0.  1.
</event>
<event>
 4    1  0.1593135E+006  0.2183985E+02  0.7546771E-02  0.1507604E+00
         21   -1    0    0  503  502  0.00000000000E+00  0.00000000000E+00  0.13552828690E+03  0.13552828690E+03  0.00000000000E+00 0.  1.
         -2   -1    0    0    0  501 -0.00000000000E+00 -0.00000000000E+00 -0.13924728932E+02  0.13924728932E+02  0.00000000000E+00 0. -1.
         21    1    1    2  503  501  0.70709755504E+01 -0.20663500763E+02  0.12539829732E+03  0.12728594553E+03  0.00000000000E+00 0.  1.
         -2    1    1    2    0  502 -0.70709755504E+01  0.20663500763E+02 -0.37947393519E+01  0.22167070302E+02  0.00000000000E+00 0. -1.
</event>
<event>
 4    1  0.1593135E+006  0.2093458E+02  0.7546771E-02  0.1520201E+00
         21   -1    0    0  503  502  0.00000000000E+00  0.00000000000E+00  0.57497664115E+01  0.57497664115E+01  0.00000000000E+00 0. -1.
         -1   -1    0    0    0  501 -0.00000000000E+00 -0.00000000000E+00 -0.36901085909E+03  0.36901085909E+03  0.00000000000E+00 0.  1.
         21    1    1    2  503  501  0.20743520673E+02 -0.28218533716E+01 -0.14720705797E+02  0.25592102015E+02  0.00000000000E+00 0. -1.
         -1    1    1    2    0  502 -0.20743520673E+02  0.28218533716E+01 -0.34854038688E+03  0.34916852348E+03  0.00000000000E+00 0.  1.
</event>
<event>
 4    1  0.1593135E+006  0.2567771E+02  0.7546771E-02  0.1461363E+00
          3   -1    0    0  503    0 -0.00000000000E+00  0.00000000000E+00  0.16387161181E+03  0.16387161181E+03  0.00000000000E+00 0.  1.
         21   -1    0    0  501  502  0.00000000000E+00 -0.00000000000E+00 -0.69256428430E+01  0.69256428430E+01  0.00000000000E+00 0.  1.
         21    1    1    2  503  502 -0.17273462843E+02 -0.18999274879E+02  0.23191869165E+02  0.34600690164E+02  0.00000000000E+00 0.  1.
          3    1    1    2  501    0  0.17273462843E+02  0.18999274879E+02  0.13375409980E+03  0.13619656449E+03  0.00000000000E+00 0.  1.
</event>
<event>
 4    1  0.1593135E+006  0.2177209E+02  0.7546771E-02  0.1508521E+00
         21   -1    0    0  501  502  0.00000000000E+00  0.00000000000E+00  0.11067141830E+01  0.11067141830E+01  0.00000000000E+00 0.  1.
         -1   -1    0    0    0  501 -0.00000000000E+00 -0.00000000000E+00 -0.59013219522E+03  0.59013219522E+03  0.00000000000E+00 0. -1.
         21    1    1    2  503  502  0.14807997576E+02  0.15960801446E+02 -0.13971356507E+03  0.14139980282E+03  0.00000000000E+00 0.  1.
         -1    1    1    2    0  503 -0.14807997576E+02 -0.15960801446E+02 -0.44931191597E+03  0.44983910658E+03  0.00000000000E+00 0. -1.
</event>
<event>
 4    1  0.1593135E+006  0.2153290E+02  0.7546771E-02  0.1511791E+00
          2   -1    0    0  503    0 -0.00000000000E+00  0.00000000000E+00  0.10005316164E+04  0.10005316164E+04  0.00000000000E+00 0.  1.
         21   -1    0    0  501  502  0.00000000000E+00 -0.00000000000E+00 -0.52487625106E+01  0.52487625106E+01  0.00000000000E+00 0.  1.
         21    1    1    2  503  502 -0.20844578146E+02 -0.54008458009E+01  0.17464540095E+02  0.27725001969E+02  0.00000000000E+00 0.  1.
          2    1    1    2  501    0  0.20844578146E+02  0.54008458009E+01  0.97781831382E+03  0.97805537697E+03  0.00000000000E+00 0.  1.
</event>
<event>
 4    1  0.1593135E+006  0.2461109E+02  0.7546771E-02  0.1473201E+00
         21   -1    0    0  501  502  0.00000000000E+00  0.00000000000E+00  0.10173390735E+03  0.10173390735E+03  0.00000000000E+00 0. -1.
         -4   -1    0    0    0  501 -0.00000000000E+00 -0.00000000000E+00 -0.21276957103E+02  0.21276957103E+02  0.00000000000E+00 0. -1.
         21    1    1    2  503  502  0.16984589984E+02  0.17810937931E+02  0.92423907437E+02  0.95644573672E+02  0.00000000000E+00 0. -1.
         -4    1    1    2    0  503 -0.16984589984E+02 -0.17810937931E+02 -0.11966957188E+02  0.27366290784E+02  0.00000000000E+00 0. -1.
</event>
<event>
 4    1  0.1593135E+006  0.3423362E+02  0.7546771E-02  0.1386033E+00
          2   -1    0    0  503    0 -0.00000000000E+00  0.00000000000E+00  0.14908184084E+04  0.14908184084E+04  0.00000000000E+00 0. -1.
         21   -1    0    0  501  502  0.00000000000E+00 -0.00000000000E+00 -0.83246244689E+00  0.83246244689E+00  0.00000000000E+00 0. -1.
         21    1    1    2  503  502  0.34223311844E+02  0.84016751819E+00  0.56899364657E+03  0.57002255288E+03  0.00000000000E+00 0. -1.
          2    1    1    2  501    0 -0.34223311844E+02 -0.84016751819E+00  0.92099229933E+03  0.92162831792E+03  0.00000000000E+00 0. -1.
</event>
<event>
 4    1  0.1593135E+006  0.2133670E+02  0.7546771E-02  0.1514512E+00
         21   -1    0    0  501  502  0.00000000000E+00  0.00000000000E+00  0.63474999490E+02  0.63474999490E+02  0.00000000000E+00 0. -1.
          1   -1    0    0  503    0 -0.00000000000E+00 -0.00000000000E+00 -0.59932896377E+03  0.59932896377E+03  0.00000000000E+00 0.  1.
         21    1    1    2  503  502  0.18985264773E+01  0.21252066452E+02  0.61486081964E+02  0.65082970173E+02  0.00000000000E+00 0. -1.
          1    1    1    2  501    0 -0.18985264773E+01 -0.21252066452E+02 -0.59734004624E+03  0.59772099308E+03  0.00000000000E+00 0.  1.
</event>
<event>
 4    1  0.1593135E+006  0.2812607E+02  0.7546771E-02  0.1436613E+00
          2   -1    0    0  503    0 -0.00000000000E+00  0.00000000000E+00  0.33248591561E+03  0.33248591561E+03  0.00000000000E+00 0. -1.
         21   -1    0    0  501  502  0.00000000000E+00 -0.00000000000E+00 -0.27081384342E+01  0.27081384342E+01  0.00000000000E+00 0. -1.
         21    1    1    2  503  502 -0.28003718467E+02 -0.26206412552E+01  0.22329220630E+03  0.22505662711E+03  0.00000000000E+00 0. -1.
          2    1    1    2  501    0  0.28003718467E+02  0.26206412552E+01  0.10648557087E+03  0.11013742694E+03  0.00000000000E+00 0. -1.
</event>
<event>
 4    1  0.1593135E+006  0.2160256E+02  0.7546771E-02  0.1510833E+00
         -1   -1    0    0    0  501 -0.00000000000E+00  0.00000000000E+00  0.41275759701E+01  0.41275759701E+01  0.00000000000E+00 0. -1.
         21   -1    0    0  501  502  0.00000000000E+00 -0.00000000000E+00 -0.11306183807E+03  0.11306183807E+03  0.00000000000E+00 0. -1.
         21    1    1    2  503  502 -0.20952520020E+02  0.52595139673E+01 -0.54541094472E+02  0.58663460251E+02  0.00000000000E+00 0. -1.
         -1    1    1    2    0  503  0.20952520020E+02 -0.52595139673E+01 -0.54393167623E+02  0.58525953785E+02  0.00000000000E+00 0. -1.
</event>
<event>
 4    1  0.1593135E+006  0.2095991E+02  0.7546771E-02  0.1519838E+00
         21   -1    0    0  503  502  0.00000000000E+00  0.00000000000E+00  0.25576933648E+01  0.25576933648E+01  0.00000000000E+00 0. -1.
          2   -1    0    0  502    0 -0.00000000000E+00 -0.00000000000E+00 -0.80379405306E+03  0.80379405306E+03  0.00000000000E+00 0. -1.
         21    1    1    2  503  501  0.19829090781E+01 -0.20865901366E+02 -0.43105658045E+02  0.47931362631E+02  0.00000000000E+00 0. -1.
          2    1    1    2  501    0 -0.19829090781E+01  0.20865901366E+02 -0.75813070165E+03  0.75842038379E+03  0.00000000000E+00 0. -1.
</event>
<event>
 4    1  0.1593135E+006  0.2227343E+02  0.7546771E-02  0.1501829E+00
         21   -1    0    0  501  502  0.00000000000E+00  0.00000000000E+00  0.13730954115E+02  0.13730954115E+02  0.00000000000E+00 0. -1.
         -1   -1    0    0    0  501 -0.00000000000E+00 -0.00000000000E+00 -0.17909914728E+03  0.17909914728E+03  0.00000000000E+00 0.  1.
         21    1    1    2  503  502  0.16479984877E+02 -0.14983854741E+02  0.34586127325E+01  0.22540359503E+02  0.00000000000E+00 0. -1.
         -1    1    1    2    0  503 -0.16479984877E+02  0.14983854741E+02 -0.16882680590E+03  0.17028974189E+03  0.00000000000E+00 0.  1.
</event>
<event>
 4    1  0.1593135E+006  0.2119287E+02  0.7546771E-02  0.1516529E+00
         21   -1    0    0  501  502  0.00000000000E+00  0.00000000000E+00  0.70882113100E+03  0.70882113100E+03  0.00000000000E+00 0. -1.
          4   -1    0    0  503    0 -0.00000000000E+00 -0.00000000000E+00 -0.28155927760E+01  0.28155927760E+01  0.00000000000E+00 0.  1.
         21    1    1    2  503  502  0.44012651026E+00 -0.21188302324E+02  0.66623471306E+03  0.66657169964E+03  0.00000000000E+00 0. -1.
          4    1    1    2  501    0 -0.44012651026E+00  0.21188302324E+02  0.39770825164E+02  0.45065024142E+02  0.00000000000E+00 0.  1.
</event>
<event>
 4    1  0.1593135E+006  0.2226842E+02  0.7546771E-02  0.1501895E+00
         21   -1    0    0  501  502  0.00000000000E+00  0.00000000000E+00  0.13592251443E+02  0.13592251443E+02  0.00000000000E+00 0.  1.
         -2   -1    0    0    0  501 -0.00000000000E+00 -0.00000000000E+00 -0.85301623163E+02  0.85301623163E+02  0.00000000000E+00 0. -1.
         21    1    1    2  503  502  0.12394262658E+02  0.18500394439E+02  0.15524748823E+01  0.22322466699E+02  0.00000000000E+00 0.  1.
         -2    1    1    2    0  503 -0.12394262658E+02 -0.18500394439E+02 -0.73261846603E+02  0.76571407907E+02  0.00000000000E+00 0. -1.
</event>
<event>
 4    1  0.1593135E+006  0.2156360E+02  0.7546771E-02  0.1511368E+00
         -3   -1    0    0    0  501 -0.00000000000E+00  0.00000000000E+00  0.21069354886E+02  0.21069354886E+02  0.00000000000E+00 0. -1.
         21   -1    0    0  501  502  0.00000000000E+00 -0.00000000000E+00 -0.10205097246E+03  0.10205097246E+03  0.00000000000E+00 0.  1.
         21    1    1    2  503  502 -0.50774169073E+01 -0.20957307371E+02 -0.94989496960E+02  0.97406331557E+02  0.00000000000E+00 0.  1.
         -3    1    1    2    0  503  0.50774169073E+01  0.20957307371E+02  0.14007879384E+02  0.25713995791E+02  0.00000000000E+00 0. -1.
</event>
<event>
 4    1  0.1593135E+006  0.2002655E+02  0.7546771E-02  0.1533630E+00
         21   -1    0    0  503  502  0.00000000000E+00  0.00000000000E+00  0.31035659599E+02  0.31035659599E+02  0.00000000000E+00 0. -1.
         -4   -1    0    0    0  501 -0.00000000000E+00 -0.00000000000E+00 -0.14751637731E+03  0.14751637731E+03  0.00000000000E+00 0.  1.
         21    1    1    2  503  501  0.13120183179E+02 -0.15130220087E+02  0.27035698802E+02  0.33645085470E+02  0.00000000000E+00 0. -1.
         -4    1    1    2    0  502 -0.13120183179E+02  0.15130220087E+02 -0.14351641651E+03  0.14490695144E+03  0.00000000000E+00 0.  1.
</event>
<event>
 4    1  0.1593135E+006  0.2237286E+02  0.7546771E-02  0.1500527E+00
         21   -1    0    0  501  502  0.00000000000E+00  0.00000000000E+00  0.96023393434E+02  0.96023393434E+02  0.00000000000E+00 0.  1.
         -2   -1    0    0    0  501 -0.00000000000E+00 -0.00000000000E+00 -0.11598792654E+02  0.11598792654E+02  0.00000000000E+00 0.  1.
         21    1    1    2  503  502 -0.21626483217E+02 -0.57306079969E+01  0.82140689497E+02  0.85133057712E+02  0.00000000000E+00 0.  1.
         -2    1    1    2    0  503  0.21626483217E+02  0.57306079969E+01  0.22839112826E+01  0.22489128376E+02  0.00000000000E+00 0.  1.
</event>
<event>
 4    1  0.1593135E+006  0.2292924E+02  0.7546771E-02  0.1493389E+00
          2   -1    0    0  502    0 -0.00000000000E+00  0.00000000000E+00  0.21809827123E+03  0.21809827123E+03  0.00000000000E+00 0.  1.
         21   -1    0    0  503  502  0.00000000000E+00 -0.00000000000E+00 -0.51086835863E+01  0.51086835863E+01  0.00000000000E+00 0.  1.
         21    1    1    2  503  501  0.87447264477E+01 -0.21196224516E+02  0.25389349368E+02  0.34210659680E+02  0.00000000000E+00 0.  1.
          2    1    1    2  501    0 -0.87447264477E+01  0.21196224516E+02  0.18760023828E+03  0.18899629514E+03  0.00000000000E+00 0.  1.
</event>
<event>
 4    1  0.1593135E+006  0.2309570E+02  0.7546771E-02  0.1491300E+00
          2   -1    0    0  503    0 -0.00000000000E+00  0.00000000000E+00  0.19555006642E+03  0.19555006642E+03  0.00000000000E+00 0.  1.
         21   -1    0    0  501  502  0.00000000000E+00 -0.00000000000E+00 -0.38491746986E+01  0.38491746986E+01  0.00000000000E+00 0.  1.
         21    1    1    2  503  502 -0.22378250988E+02 -0.57118391366E+01  0.42036452829E+02  0.47963262921E+02  0.00000000000E+00 0.  1.
          2    1    1    2  501    0  0.22378250988E+02  0.57118391366E+01  0.14966443890E+03  0.15143597820E+03  0.00000000000E+00 0.  1.
</event>
<event>
 4    1  0.1593135E+006  0.2783634E+02  0.7546771E-02  0.1439383E+00
         21   -1    0    0  501  502  0.00000000000E+00  0.00000000000E+00  0.20382680808E+03  0.20382680808E+03  0.00000000000E+00 0.  1.
          1   -1    0    0  503    0 -0.00000000000E+00 -0.00000000000E+00 -0.15938697198E+02  0.15938697198E+02  0.00000000000E+00 0. -1.
         21    1    1    2  503  502 -0.22061249430E+02  0.16975374361E+02  0.18983134794E+03  0.19186141541E+03  0.00000000000E+00 0.  1.
          1    1    1    2  501    0  0.22061249430E+02 -0.16975374361E+02 -0.19432370604E+01  0.27904089868E+02  0.00000000000E+00 0. -1.
</event>
<event>
 4    1  0.1593135E+006  0.2274152E+02  0.7546771E-02  0.1495770E+00
          1   -1    0    0  503    0 -0.00000000000E+00  0.00000000000E+00  0.98079729535E+03  0.98079729535E+03  0.00000000000E+00 0. -1.
         21   -1    0    0  501  502  0.00000000000E+00 -0.00000000000E+00 -0.15789714033E+03  0.15789714033E+03  0.00000000000E+00 0.  1.
         21    1    1    2  503  502  0.20346210022E+02  0.10159158282E+02 -0.15694566897E+03  0.15858474002E+03  0.00000000000E+00 0.  1.
          1    1    1    2  501    0 -0.20346210022E+02 -0.10159158282E+02  0.97984582398E+03  0.98010969567E+03  0.00000000000E+00 0. -1.
</event>
<event>
 4    1  0.1593135E+006  0.2589058E+02  0.7546771E-02  0.1459082E+00
          2   -1    0    0  502    0 -0.00000000000E+00  0.00000000000E+00  0.15207417234E+03  0.15207417234E+03  0.00000000000E+00 0. -1.
         21   -1    0    0  503  502  0.00000000000E+00 -0.00000000000E+00 -0.60412733447E+03  0.60412733447E+03  0.00000000000E+00 0.  1.
         21    1    1    2  503  501  0.18853843363E+02  0.17744140080E+02 -0.60274545115E+03  0.60330125211E+03  0.00000000000E+00 0.  1.
          2    1    1    2  501    0 -0.18853843363E+02 -0.17744140080E+02  0.15069228902E+03  0.15290025470E+03  0.00000000000E+00 0. -1.
</event>
<event>
 4    1  0.1593135E+006  0.3182480E+02  0.7546771E-02  0.1404375E+00
         21   -1    0    0  501  502  0.00000000000E+00  0.00000000000E+00  0.48594241846E+03  0.48594241846E+03  0.00000000000E+00 0. -1.
          1   -1    0    0  503    0 -0.00000000000E+00 -0.00000000000E+00 -0.30730455474E+01  0.30730455474E+01  0.00000000000E+00 0.  1.
         21    1    1    2  503  502 -0.21468233425E+02  0.23493248980E+02  0.38013097053E+03  0.38146084013E+03  0.00000000000E+00 0. -1.
          1    1    1    2  501    0  0.21468233425E+02 -0.23493248980E+02  0.10273840239E+03  0.10755462389E+03  0.00000000000E+00 0.  1.
</event>
<event>
 4    1  0.1593135E+006  0.2102642E+02  0.7546771E-02  0.1518888E+00
         21   -1    0    0  503  502  0.00000000000E+00  0.00000000000E+00  0.55602281340E+03  0.55602281340E+03  0.00000000000E+00 0.  1.
         -1   -1    0    0    0  501 -0.00000000000E+00 -0.00000000000E+00 -0.28809053870E+02  0.28809053870E+02  0.00000000000E+00 0. -1.
         21    1    1    2  503  501 -0.18468543717E+02  0.10051037640E+02  0.55195923767E+03  0.55235958443E+03  0.00000000000E+00 0.  1.
         -1    1    1    2    0  502  0.18468543717E+02 -0.10051037640E+02 -0.24745478137E+02  0.32472282841E+02  0.00000000000E+00 0. -1.
</event>
<event>
 4    1  0.1593135E+006  0.2809925E+02  0.7546771E-02  0.1436868E+00
          3   -1    0    0  503    0 -0.00000000000E+00  0.00000000000E+00  0.71014628576E+02  0.71014628576E+02  0.00000000000E+00 0. -1.
         21   -1    0    0  501  502  0.00000000000E+00 -0.00000000000E+00 -0.22809793866E+02  0.22809793866E+02  0.00000000000E+00 0. -1.
         21    1    1    2  503  502  0.23223504150E+00  0.28098289753E+02 -0.94836140864E+01  0.29656479162E+02  0.00000000000E+00 0. -1.
          3    1    1    2  501    0 -0.23223504150E+00 -0.28098289753E+02  0.57688448797E+02  0.64167943280E+02  0.00000000000E+00 0. -1.
</event>
<event>
 4    1  0.1593135E+006  0.2223935E+02  0.7546771E-02  0.1502277E+00
         -2   -1    0    0    0  501 -0.00000000000E+00  0.00000000000E+00  0.13278681734E+04  0.13278681734E+04  0.00000000000E+00 0.  1.
         21   -1    0    0  503  502  0.00000000000E+00 -0.00000000000E+00 -0.50532253018E+00  0.50532253018E+00  0.00000000000E+00 0.  1.
         21    1    1    2  503  501 -0.18209111018E+02  0.12767813585E+02  0.32312146615E+03  0.32388589145E+03  0.00000000000E+00 0.  1.
         -2    1    1    2    0  502  0.18209111018E+02 -0.12767813585E+02  0.10042413847E+04  0.10044876045E+04  0.00000000000E+00 0.  1.
</event>
<event>
 4    1  0.1593135E+006  0.2124359E+02  0.7546771E-02  0.1515815E+00
          1   -1    0    0  503    0 -0.00000000000E+00  0.00000000000E+00  0.88486562449E+02  0.88486562449E+02  0.00000000000E+00 0. -1.
         21   -1    0    0  501  502  0.00000000000E+00 -0.00000000000E+00 -0.11239501747E+02  0.11239501747E+02  0.00000000000E+00 0. -1.
         21    1    1    2  503  502 -0.16760996100E+02 -0.13052168059E+02  0.17709183129E+01  0.21317275459E+02  0.00000000000E+00 0. -1.
          1    1    1    2  501    0  0.16760996100E+02  0.13052168059E+02  0.75476142389E+02  0.78408788737E+02  0.00000000000E+00 0. -1.
</event>
<event>
 4    1  0.1593135E+006  0.3844899E+02  0.7546771E-02  0.1357822E+00
         21   -1    0    0  501  502  0.00000000000E+00  0.00000000000E+00  0.14498091914E+02  0.14498091914E+02  0.00000000000E+00 0.  1.
          2   -1    0    0  503    0 -0.00000000000E+00 -0.00000000000E+00 -0.25036043108E+04  0.25036043108E+04  0.00000000000E+00 0. -1.
         21    1    1    2  503  502 -0.26437894804E+02 -0.27917070386E+02 -0.11407761552E+02  0.40105637063E+02  0.00000000000E+00 0.  1.
          2    1    1    2  501    0  0.26437894804E+02  0.27917070386E+02 -0.24776984573E+04  0.24779967656E+04  0.00000000000E+00 0. -1.
</event>
<event>
 4    1  0.1593135E+006  0.2635043E+02  0.7546771E-02  0.1454245E+00
          2   -1    0    0  502    0 -0.00000000000E+00  0.00000000000E+00  0.12857628502E+04  0.12857628502E+04  0.00000000000E+00 0. -1.
         21   -1    0    0  503  502  0.00000000000E+00 -0.00000000000E+00 -0.99918900344E+00  0.99918900344E+00  0.00000000000E+00 0. -1.
         21    1    1    2  503  501  0.17575639273E+02  0.19632676533E+02  0.20623977047E+03  0.20791630048E+03  0.00000000000E+00 0. -1.
          2    1    1    2  501    0 -0.17575639273E+02 -0.19632676533E+02  0.10785238908E+04  0.10788457388E+04  0.00000000000E+00 0. -1.
</event>
<event>
 4    1  0.1593135E+006  0.2202818E+02  0.7546771E-02  0.1505076E+00
          2   -1    0    0  503    0 -0.00000000000E+00  0.00000000000E+00  0.12640335872E+04  0.12640335872E+04  0.00000000000E+00 0.  1.
         21   -1    0    0  501  502  0.00000000000E+00 -0.00000000000E+00 -0.32289595030E+01  0.32289595030E+01  0.00000000000E+00 0. -1.
         21    1    1    2  503  502  0.21262535017E+02  0.57571969549E+01  0.35627873380E+02  0.41887779527E+02  0.00000000000E+00 0. -1.
          2    1    1    2  501    0 -0.21262535017E+02 -0.57571969549E+01  0.12251767543E+04  0.12253747672E+04  0.00000000000E+00 0.  1.
</event>
<event>
 4    1  0.1593135E+006  0.2557826E+02  0.7546771E-02  0.1462437E+00
         21   -1    0    0  503  502  0.00000000000E+00  0.00000000000E+00  0.66670972709E+01  0.66670972709E+01  0.00000000000E+00 0. -1.
         -3   -1    0    0    0  501 -0.00000000000E+00 -0.00000000000E+00 -0.11937260440E+03  0.11937260440E+03  0.00000000000E+00 0. -1.
         21    1    1    2  503  501  0.19326700581E+02 -0.16754885011E+02 -0.82936784503E+02  0.86791461278E+02  0.00000000000E+00 0. -1.
         -3    1    1    2    0  502 -0.19326700581E+02  0.16754885011E+02 -0.29768722622E+02  0.39248240389E+02  0.00000000000E+00 0. -1.
</event>
<event>
 4    1  0.1593135E+006  0.3081845E+02  0.7546771E-02  0.1412615E+00
          2   -1    0    0  503    0 -0.00000000000E+00  0.00000000000E+00  0.66303350356E+03  0.66303350356E+03  0.00000000000E+00 0.  1.
         21   -1    0    0  501  502  0.00000000000E+00 -0.00000000000E+00 -0.17019359342E+01  0.17019359342E+01  0.00000000000E+00 0.  1.
         21    1    1    2  503  502  0.30114846803E+02  0.65477413214E+01  0.19841520714E+03  0.20079435087E+03  0.00000000000E+00 0.  1.
          2    1    1    2  501    0 -0.30114846803E+02 -0.65477413214E+01  0.46291636048E+03  0.46394108863E+03  0.00000000000E+00 0.  1.
</event>
<event>
 4    1  0.1593135E+006  0.3681080E+02  0.7546771E-02  0.1368261E+00
         -3   -1    0    0    0  501 -0.00000000000E+00  0.00000000000E+00  0.69193764712E+02  0.69193764712E+02  0.00000000000E+00 0.  1.
         21   -1    0    0  503  502  0.00000000000E+00 -0.00000000000E+00 -0.16944904326E+03  0.16944904326E+03  0.00000000000E+00 0. -1.
         21    1    1    2  503  501  0.22119384109E+02  0.29423926942E+02 -0.16234243930E+03  0.16646351621E+03  0.00000000000E+00 0. -1.
         -3    1    1    2    0  502 -0.22119384109E+02 -0.29423926942E+02  0.62087160750E+02  0.72179291767E+02  0.00000000000E+00 0.  1.
</event>
<event>
 4    1  0.1593135E+006  0.4167603E+02  0.7546771E-02  0.1338935E+00
         21   -1    0    0  501  502  0.00000000000E+00  0.00000000000E+00  0.37490278508E+02  0.37490278508E+02  0.00000000000E+00 0. -1.
          3   -1    0    0  503    0 -0.00000000000E+00 -0.00000000000E+00 -0.46789776261E+02  0.46789776261E+02  0.00000000000E+00 0.  1.
         21    1    1    2  503  502 -0.18503601723E+02 -0.37343118693E+02 -0.46850429839E+00  0.41678667046E+02  0.00000000000E+00 0. -1.
          3    1    1    2  501    0  0.18503601723E+02  0.37343118693E+02 -0.88309934549E+01  0.42601387722E+02  0.00000000000E+00 0.  1.
</event>
<event>
 4    1  0.1593135E+006  0.4900584E+02  0.7546771E-02  0.1302541E+00
         21   -1    0    0  501  502  0.00000000000E+00  0.00000000000E+00  0.69478181067E+02  0.69478181067E+02  0.00000000000E+00 0. -1.
          1   -1    0    0  503    0 -0.00000000000E+00 -0.00000000000E+00 -0.43148351819E+02  0.43148351819E+02  0.00000000000E+00 0. -1.
         21    1    1    2  503  502 -0.38858265775E+02  0.29859803155E+02  0.38280046581E+02  0.62184681633E+02  0.00000000000E+00 0. -1.
          1    1    1    2  501    0  0.38858265775E+02 -0.29859803155E+02 -0.11950217333E+02  0.50441851253E+02  0.00000000000E+00 0. -1.
</event>
<event>
 4    1  0.1593135E+006  0.2218132E+02  0.7546771E-02  0.1503042E+00
          2   -1    0    0  502    0 -0.00000000000E+00  0.00000000000E+00  0.35187568111E+03  0.35187568111E+03  0.00000000000E+00 0.  1.
         21   -1    0    0  503  502  0.00000000000E+00 -0.00000000000E+00 -0.18936434713E+02  0.18936434713E+02  0.00000000000E+00 0. -1.
         21    1    1    2  503  501  0.91146663287E+01  0.20222112222E+02 -0.11960060075E+02  0.25200277816E+02  0.00000000000E+00 0. -1.
          2    1    1    2  501    0 -0.91146663287E+01 -0.20222112222E+02  0.34489930647E+03  0.34561183800E+03  0.00000000000E+00 0.  1.
</event>
<event>
 4    1  0.1593135E+006  0.2599993E+02  0.7546771E-02  0.1457921E+00
         -3   -1    0    0    0  501 -0.00000000000E+00  0.00000000000E+00  0.14785179769E+02  0.14785179769E+02  0.00000000000E+00 0. -1.
         21   -1    0    0  501  502  0.00000000000E+00 -0.00000000000E+00 -0.47368325590E+02  0.47368325590E+02  0.00000000000E+00 0.  1.
         21    1    1    2  503  502  0.25308552027E+02 -0.59559636123E+01 -0.22086575859E+02  0.34114705648E+02  0.00000000000E+00 0.  1.
         -3    1    1    2    0  503 -0.25308552027E+02  0.59559636123E+01 -0.10496569963E+02  0.28038799711E+02  0.00000000000E+00 0. -1.
</event>
<event>
 4    1  0.1593135E+006  0.3377794E+02  0.7546771E-02  0.1389364E+00
         21   -1    0    0  501  502  0.00000000000E+00  0.00000000000E+00  0.95840836884E+01  0.95840836884E+01  0.00000000000E+00 0. -1.
          2   -1    0    0  503    0 -0.00000000000E+00 -0.00000000000E+00 -0.13774903351E+03  0.13774903351E+03  0.00000000000E+00 0.  1.
         21    1    1    2  503  502 -0.28596386508E+02 -0.17977658307E+02 -0.36938161217E+02  0.50053743852E+02  0.00000000000E+00 0. -1.
          2    1    1    2  501    0  0.28596386508E+02  0.17977658307E+02 -0.91226788605E+02  0.97279373346E+02  0.00000000000E+00 0.  1.
</event>
<event>
 4    1  0.1593135E+006  0.2714805E+02  0.7546771E-02  0.1446127E+00
         21   -1    0    0  501  502  0.00000000000E+00  0.00000000000E+00  0.76542418482E+00  0.76542418482E+00  0.00000000000E+00 0. -1.
          2   -1    0    0  503    0 -0.00000000000E+00 -0.00000000000E+00 -0.10790120853E+04  0.10790120853E+04  0.00000000000E+00 0.  1.
         21    1    1    2  503  502  0.13097208033E+02 -0.23779819714E+02 -0.36200850518E+03  0.36302503289E+03  0.00000000000E+00 0. -1.
          2    1    1    2  501    0 -0.13097208033E+02  0.23779819714E+02 -0.71623815590E+03  0.71675247656E+03  0.00000000000E+00 0.  1.
</event>
<event>
 4    1  0.1593135E+006  0.2464306E+02  0.7546771E-02  0.1472836E+00
          4   -1    0    0  503    0 -0.00000000000E+00  0.00000000000E+00  0.16692604478E+04  0.16692604478E+04  0.00000000000E+00 0. -1.
         21   -1    0    0  501  502  0.00000000000E+00 -0.00000000000E+00 -0.31277669063E+01  0.31277669063E+01  0.00000000000E+00 0. -1.
         21    1    1    2  503  502  0.22510368668E+02 -0.10028153309E+02  0.47005498205E+02  0.53073509568E+02  0.00000000000E+00 0. -1.
          4    1    1    2  501    0 -0.22510368668E+02  0.10028153309E+02  0.16191271827E+04  0.16193147051E+04  0.00000000000E+00 0. -1.
</event>
<event>
 4    1  0.1593135E+006  0.2216904E+02  0.7546771E-02  0.1503205E+00
          2   -1    0    0  503    0 -0.00000000000E+00  0.00000000000E+00  0.14918003585E+04  0.14918003585E+04  0.00000000000E+00 0.  1.
         21   -1    0    0  501  502  0.00000000000E+00 -0.00000000000E+00 -0.28237702709E+01  0.28237702709E+01  0.00000000000E+00 0.  1.
         21    1    1    2  503  502  0.18405300844E+02  0.12357644033E+02  0.42121714227E+02  0.47599425150E+02  0.00000000000E+00 0.  1.
          2    1    1    2  501    0 -0.18405300844E+02 -0.12357644033E+02  0.14468548740E+04  0.14470247036E+04  0.00000000000E+00 0.  1.
</event>
<event>
 4    1  0.1593135E+006  0.2082705E+02  0.7546771E-02  0.1521749E+00
         21   -1    0    0  503  502  0.00000000000E+00  0.00000000000E+00  0.32042503145E+02  0.32042503145E+02  0.00000000000E+00 0. -1.
          2   -1    0    0  502    0 -0.00000000000E+00 -0.00000000000E+00 -0.15417754120E+02  0.15417754120E+02  0.00000000000E+00 0. -1.
         21    1    1    2  503  501 -0.18224105459E+02  0.10082068211E+02  0.16600020802E+02  0.26633190005E+02  0.00000000000E+00 0. -1.
          2    1    1    2  501    0  0.18224105459E+02 -0.10082068211E+02  0.24728222274E-01  0.20827067260E+02  0.00000000000E+00 0. -1.
</event>
<event>
 4    1  0.1593135E+006  0.3351379E+02  0.7546771E-02  0.1391324E+00
          2   -1    0    0  502    0 -0.00000000000E+00  0.00000000000E+00  0.18041563539E+02  0.18041563539E+02  0.00000000000E+00 0.  1.
         21   -1    0    0  503  502  0.00000000000E+00 -0.00000000000E+00 -0.18712280980E+03  0.18712280980E+03  0.00000000000E+00 0. -1.
         21    1    1    2  503  501 -0.27217176366E+02  0.19555034186E+02 -0.16833872289E+03  0.17164235979E+03  0.00000000000E+00 0. -1.
          2    1    1    2  501    0  0.27217176366E+02 -0.19555034186E+02 -0.74252337413E+00  0.33522013548E+02  0.00000000000E+00 0.  1.
</event>
<event>
 4    1  0.1593135E+006  0.2189708E+02  0.7546771E-02  0.1506832E+00
         -2   -1    0    0    0  501 -0.00000000000E+00  0.00000000000E+00  0.33177845584E+01  0.33177845584E+01  0.00000000000E+00 0. -1.
         21   -1    0    0  503  502  0.00000000000E+00 -0.00000000000E+00 -0.77333622000E+03  0.77333622000E+03  0.00000000000E+00 0. -1.
         21    1    1    2  503  501  0.17310634687E+02  0.13409847493E+02 -0.73517661923E+03  0.73550264686E+03  0.00000000000E+00 0. -1.
         -2    1    1    2    0  502 -0.17310634687E+02 -0.13409847493E+02 -0.34841816210E+02  0.41151357692E+02  0.00000000000E+00 0. -1.
</event>
<event>
 4    1  0.1593135E+006  0.2265692E+02  0.7546771E-02  0.1496852E+00
         21   -1    0    0  503  502  0.00000000000E+00  0.00000000000E+00  0.13545979075E+03  0.13545979075E+03  0.00000000000E+00 0. -1.
         -4   -1    0    0    0  501 -0.00000000000E+00 -0.00000000000E+00 -0.44874660971E+02  0.44874660971E+02  0.00000000000E+00 0.  1.
         21    1    1    2  503  501  0.20601668296E+02  0.94290722619E+01  0.13156859927E+03  0.13350517763E+03  0.00000000000E+00 0. -1.
         -4    1    1    2    0  502 -0.20601668296E+02 -0.94290722619E+01 -0.40983469491E+02  0.46829274090E+02  0.00000000000E+00 0.  1.
</event>
<event>
 4    1  0.1593135E+006  0.2071418E+02  0.7546771E-02  0.1523385E+00
          3   -1    0    0  503    0 -0.00000000000E+00  0.00000000000E+00  0.46184696143E+01  0.46184696143E+01  0.00000000000E+00 0. -1.
         21   -1    0    0  501  502  0.00000000000E+00 -0.00000000000E+00 -0.17373357286E+03  0.17373357286E+03  0.00000000000E+00 0.  1.
         21    1    1    2  503  502 -0.20235375076E+02  0.44279430502E+01 -0.14538361905E+03  0.14685187698E+03  0.00000000000E+00 0.  1.
          3    1    1    2  501    0  0.20235375076E+02 -0.44279430502E+01 -0.23731484195E+02  0.31500165495E+02  0.00000000000E+00 0. -1.
</event>
<event>
 4    1  0.1593135E+006  0.2040329E+02  0.7546771E-02  0.1527957E+00
          2   -1    0    0  503    0 -0.00000000000E+00  0.00000000000E+00  0.40666629798E+03  0.40666629798E+03  0.00000000000E+00 0. -1.
         21   -1    0    0  501  502  0.00000000000E+00 -0.00000000000E+00 -0.14930152922E+01  0.14930152922E+01  0.00000000000E+00 0. -1.
         21    1    1    2  503  502  0.18594393894E+02  0.83989742825E+01  0.88164160966E+02  0.90494273477E+02  0.00000000000E+00 0. -1.
          2    1    1    2  501    0 -0.18594393894E+02 -0.83989742825E+01  0.31700912172E+03  0.31766503979E+03  0.00000000000E+00 0. -1.
</event>
<event>
 4    1  0.1593135E+006  0.2294843E+02  0.7546771E-02  0.1493147E+00
         -2   -1    0    0    0  501 -0.00000000000E+00  0.00000000000E+00  0.60533601066E+02  0.60533601066E+02  0.00000000000E+00 0. -1.
         21   -1    0    0  503  502  0.00000000000E+00 -0.00000000000E+00 -0.25286241905E+03  0.25286241905E+03  0.00000000000E+00 0. -1.
         21    1    1    2  503  501 -0.22763680180E+02  0.29060619794E+01 -0.25014320623E+03  0.25119365827E+03  0.00000000000E+00 0. -1.
         -2    1    1    2    0  502  0.22763680180E+02 -0.29060619794E+01  0.57814388244E+02  0.62202361849E+02  0.00000000000E+00 0. -1.
</event>
<event>
 4    1  0.1593135E+006  0.2860608E+02  0.7546771E-02  0.1432109E+00
         -1   -1    0    0    0  501 -0.00000000000E+00  0.00000000000E+00  0.83875941830E+03  0.83875941830E+03  0.00000000000E+00 0. -1.
         21   -1    0    0  503  502  0.00000000000E+00 -0.00000000000E+00 -0.11863684357E+01  0.11863684357E+01  0.00000000000E+00 0. -1.
         21    1    1    2  503  501 -0.28559499313E+02 -0.16317676225E+01  0.24177681740E+03  0.24346321508E+03  0.00000000000E+00 0. -1.
         -1    1    1    2    0  502  0.28559499313E+02  0.16317676225E+01  0.59579623247E+03  0.59648257166E+03  0.00000000000E+00 0. -1.
</event>
<event>
 4    1  0.1593135E+006  0.2715675E+02  0.7546771E-02  0.1446040E+00
          1   -1    0    0  502    0 -0.00000000000E+00  0.00000000000E+00  0.15657126595E+03  0.15657126595E+03  0.00000000000E+00 0. -1.
         21   -1    0    0  503  502  0.00000000000E+00 -0.00000000000E+00 -0.17214957211E+02  0.17214957211E+02  0.00000000000E+00 0. -1.
         21    1    1    2  503  501 -0.20120175664E+02 -0.18239177536E+02 -0.43793753044E+01  0.27507598841E+02  0.00000000000E+00 0. -1.
          1    1    1    2  501    0  0.20120175664E+02  0.18239177536E+02  0.14373568404E+03  0.14627862432E+03  0.00000000000E+00 0. -1.
</event>
<event>
 4    1  0.1593135E+006  0.4346415E+02  0.7546771E-02  0.1329300E+00
         21   -1    0    0  503  502  0.00000000000E+00  0.00000000000E+00  0.57584500997E+01  0.57584500997E+01  0.00000000000E+00 0. -1.
         -2   -1    0    0    0  501 -0.00000000000E+00 -0.00000000000E+00 -0.33497447118E+03  0.33497447118E+03  0.00000000000E+00 0.  1.
         21    1    1    2  503  501  0.32333076105E+02  0.29046585357E+02 -0.14013558320E+03  0.14672121050E+03  0.00000000000E+00 0. -1.
         -2    1    1    2    0  502 -0.32333076105E+02 -0.29046585357E+02 -0.18908043788E+03  0.19401171078E+03  0.00000000000E+00 0.  1.
</event>
<event>
 4    1  0.1593135E+006  0.2444500E+02  0.7546771E-02  0.1475109E+00
         21   -1    0    0  503  502  0.00000000000E+00  0.00000000000E+00  0.16892497082E+03  0.16892497082E+03  0.00000000000E+00 0. -1.
         -1   -1    0    0    0  501 -0.00000000000E+00 -0.00000000000E+00 -0.24308399999E+02  0.24308399999E+02  0.00000000000E+00 0. -1.
         21    1    1    2  503  501 -0.24444824994E+02  0.91583312344E-01  0.16161877809E+03  0.16345698910E+03  0.00000000000E+00 0. -1.
         -1    1    1    2    0  502  0.24444824994E+02 -0.91583312344E-01 -0.17002207262E+02  0.29776381719E+02  0.00000000000E+00 0. -1.
</event>
<event>
 4    1  0.1593135E+006  0.2992220E+02  0.7546771E-02  0.1420274E+00
          2   -1    0    0  502    0 -0.00000000000E+00  0.00000000000E+00  0.51386858801E+02  0.51386858801E+02  0.00000000000E+00 0. -1.
         21   -1    0    0  503  502  0.00000000000E+00 -0.00000000000E+00 -0.20081661956E+03  0.20081661956E+03  0.00000000000E+00 0.  1.
         21    1    1    2  503  501  0.12034476622E+02 -0.27395426836E+02 -0.19522202329E+03  0.19750183902E+03  0.00000000000E+00 0.  1.
          2    1    1    2  501    0 -0.12034476622E+02  0.27395426836E+02  0.45792262530E+02  0.54701639342E+02  0.00000000000E+00 0. -1.
</event>
<event>
 4    1  0.1593135E+006  0.2204905E+02  0.7546771E-02  0.1504797E+00
         21   -1    0    0  503  502  0.00000000000E+00  0.00000000000E+00  0.13990720422E+01  0.13990720422E+01  0.00000000000E+00 0. -1.
          1   -1    0    0  502    0 -0.00000000000E+00 -0.00000000000E+00 -0.49138628274E+03  0.49138628274E+03  0.00000000000E+00 0. -1.
         21    1    1    2  503  501  0.20433890272E+02 -0.82835288942E+01 -0.11165862140E+03  0.11381479893E+03  0.00000000000E+00 0. -1.
          1    1    1    2  501    0 -0.20433890272E+02  0.82835288942E+01 -0.37832858930E+03  0.37897055586E+03  0.00000000000E+00 0. -1.
</event>
<event>
 4    1  0.1593135E+006  0.2419675E+02  0.7546771E-02  0.1477993E+00
         21   -1    0    0  503  502  0.00000000000E+00  0.00000000000E+00  0.57924432782E+03  0.57924432782E+03  0.00000000000E+00 0. -1.
         -3   -1    0    0    0  501 -0.00000000000E+00 -0.00000000000E+00 -0.54587611848E+02  0.54587611848E+02  0.00000000000E+00 0. -1.
         21    1    1    2  503  501  0.14565154241E+02  0.19321983565E+02  0.57629653561E+03  0.57680428199E+03  0.00000000000E+00 0. -1.
         -3    1    1    2    0  502 -0.14565154241E+02 -0.19321983565E+02 -0.51639819642E+02  0.57027657673E+02  0.00000000000E+00 0. -1.
</event>
<event>
 4    1  0.1593135E+006  0.2567887E+02  0.7546771E-02  0.1461350E+00
         21   -1    0    0  501  502  0.00000000000E+00  0.00000000000E+00  0.17504368455E+01  0.17504368455E+01  0.00000000000E+00 0. -1.
          3   -1    0    0  503    0 -0.00000000000E+00 -0.00000000000E+00 -0.88230460238E+03  0.88230460238E+03  0.00000000000E+00 0.  1.
         21    1    1    2  503  502  0.14861067576E+02 -0.20941663357E+02 -0.10566481706E+03  0.10874032444E+03  0.00000000000E+00 0. -1.
          3    1    1    2  501    0 -0.14861067576E+02  0.20941663357E+02 -0.77488934847E+03  0.77531471479E+03  0.00000000000E+00 0.  1.
</event>
<event>
 4    1  0.1593135E+006  0.2288718E+02  0.7546771E-02  0.1493920E+00
          2   -1    0    0  502    0 -0.00000000000E+00  0.00000000000E+00  0.47072455682E+03  0.47072455682E+03  0.00000000000E+00 0.  1.
         21   -1    0    0  503  502  0.00000000000E+00 -0.00000000000E+00 -0.11785310728E+02  0.11785310728E+02  0.00000000000E+00 0. -1.
         21    1    1    2  503  501 -0.21935310639E+02 -0.65318718573E+01 -0.11296394300E+00  0.22887463023E+02  0.00000000000E+00 0. -1.
          2    1    1    2  501    0  0.21935310639E+02  0.65318718573E+01  0.45905221004E+03  0.45962240453E+03  0.00000000000E+00 0.  1.
</event>
<event>
 4    1  0.1593135E+006  0.2291920E+02  0.7546771E-02  0.1493515E+00
         21   -1    0    0  501  502  0.00000000000E+00  0.00000000000E+00  0.11788728923E+01  0.11788728923E+01  0.00000000000E+00 0.  1.
         -1   -1    0    0    0  501 -0.00000000000E+00 -0.00000000000E+00 -0.47377445102E+03  0.47377445102E+03  0.00000000000E+00 0.  1.
         21    1    1    2  503  502 -0.54719707039E+01  0.22256400196E+02 -0.17837264980E+03  0.17983907254E+03  0.00000000000E+00 0.  1.
         -1    1    1    2    0  503  0.54719707039E+01 -0.22256400196E+02 -0.29422292832E+03  0.29511425137E+03  0.00000000000E+00 0.  1.
</event>
<event>
 4    1  0.1593135E+006  0.2723932E+02  0.7546771E-02  0.1445219E+00
          1   -1    0    0  502    0 -0.00000000000E+00  0.00000000000E+00  0.64218635765E+03  0.64218635765E+03  0.00000000000E+00 0. -1.
         21   -1    0    0  503  502  0.00000000000E+00 -0.00000000000E+00 -0.24403431006E+02  0.24403431006E+02  0.00000000000E+00 0.  1.
         21    1    1    2  503  501  0.26396853764E+02 -0.67221215753E+01 -0.16417719578E+02  0.31804438735E+02  0.00000000000E+00 0.  1.
          1    1    1    2  501    0 -0.26396853764E+02  0.67221215753E+01  0.63420064622E+03  0.63478534992E+03  0.00000000000E+00 0. -1.
</event>
<event>
 4    1  0.1593135E+006  0.4038899E+02  0.7546771E-02  0.1346221E+00
         21   -1    0    0  501  502  0.00000000000E+00  0.00000000000E+00  0.63978133831E+02  0.63978133831E+02  0.00000000000E+00 0. -1.
          1   -1    0    0  503    0 -0.00000000000E+00 -0.00000000000E+00 -0.50690027325E+02  0.50690027325E+02  0.00000000000E+00 0. -1.
         21    1    1    2  503  502  0.38821063049E+02  0.11144295058E+02  0.47063382772E+02  0.62017999376E+02  0.00000000000E+00 0. -1.
          1    1    1    2  501    0 -0.38821063049E+02 -0.11144295058E+02 -0.33775276266E+02  0.52650161780E+02  0.00000000000E+00 0. -1.
</event>
<event>
 4    1  0.1593135E+006  0.4755539E+02  0.7546771E-02  0.1309134E+00
         -3   -1    0    0    0  501 -0.00000000000E+00  0.00000000000E+00  0.11615425367E+02  0.11615425367E+02  0.00000000000E+00 0.  1.
         21   -1    0    0  503  502  0.00000000000E+00 -0.00000000000E+00 -0.52014623603E+03  0.52014623603E+03  0.00000000000E+00 0. -1.
         21    1    1    2  503  501  0.88231058597E+01 -0.46729728344E+02 -0.46457758193E+03  0.46700518663E+03  0.00000000000E+00 0. -1.
         -3    1    1    2    0  502 -0.88231058597E+01  0.46729728344E+02 -0.43953228737E+02  0.64756474769E+02  0.00000000000E+00 0.  1.
</event>
<event>
 4    1  0.1593135E+006  0.2639444E+02  0.7546771E-02  0.1453788E+00
         21   -1    0    0  501  502  0.00000000000E+00  0.00000000000E+00  0.23537594507E+03  0.23537594507E+03  0.00000000000E+00 0. -1.
          1   -1    0    0  503    0 -0.00000000000E+00 -0.00000000000E+00 -0.16931976708E+02  0.16931976708E+02  0.00000000000E+00 0.  1.
         21    1    1    2  503  502  0.38198282449E+01  0.26116571483E+02  0.22382051502E+03  0.22537144747E+03  0.00000000000E+00 0. -1.
          1    1    1    2  501    0 -0.38198282449E+01 -0.26116571483E+02 -0.53765466572E+01  0.26936474301E+02  0.00000000000E+00 0.  1.
</event>
<event>
 4    1  0.1593135E+006  0.2895312E+02  0.7546771E-02  0.1428917E+00
         21   -1    0    0  501  502  0.00000000000E+00  0.00000000000E+00  0.16239362914E+03  0.16239362914E+03  0.00000000000E+00 0. -1.
         -4   -1    0    0    0  501 -0.00000000000E+00 -0.00000000000E+00 -0.82838006533E+03  0.82838006533E+03  0.00000000000E+00 0. -1.
         21    1    1    2  503  502  0.25377152184E+02  0.13938560663E+02  0.16084771688E+03  0.16343277319E+03  0.00000000000E+00 0. -1.
         -4    1    1    2    0  503 -0.25377152184E+02 -0.13938560663E+02 -0.82683415307E+03  0.82734092127E+03  0.00000000000E+00 0. -1.
</event>
<event>
 4    1  0.1593135E+006  0.3032953E+02  0.7546771E-02  0.1416754E+00
          1   -1    0    0  503    0 -0.00000000000E+00  0.00000000000E+00  0.54250091327E+03  0.54250091327E+03  0.00000000000E+00 0.  1.
         21   -1    0    0  501  502  0.00000000000E+00 -0.00000000000E+00 -0.90355344974E+01  0.90355344974E+01  0.00000000000E+00 0. -1.
         21    1    1    2  503  502 -0.25708371093E+02 -0.16092233330E+02  0.18183397611E+02  0.35362639416E+02  0.00000000000E+00 0. -1.
          1    1    1    2  501    0  0.25708371093E+02  0.16092233330E+02  0.51528198116E+03  0.51617380835E+03  0.00000000000E+00 0.  1.
</event>
<event>
 4    1  0.1593135E+006  0.4171657E+02  0.7546771E-02  0.1338710E+00
         21   -1    0    0  503  502  0.00000000000E+00  0.00000000000E+00  0.11090271926E+03  0.11090271926E+03  0.00000000000E+00 0. -1.
         -2   -1    0    0    0  501 -0.00000000000E+00 -0.00000000000E+00 -0.10111155999E+03  0.10111155999E+03  0.00000000000E+00 0. -1.
         21    1    1    2  503  501  0.22780441228E+02 -0.34947440774E+02  0.10233028623E+03  0.11050683056E+03  0.00000000000E+00 0. -1.
         -2    1    1    2    0  502 -0.22780441228E+02  0.34947440774E+02 -0.92539126964E+02  0.10150744868E+03  0.00000000000E+00 0. -1.
</event>
<event>
 4    1  0.1593135E+006  0.2456999E+02  0.7546771E-02  0.1473672E+00
         21   -1    0    0  501  502  0.00000000000E+00  0.00000000000E+00  0.24188369816E+02  0.24188369816E+02  0.00000000000E+00 0.  1.
         -3   -1    0    0    0  501 -0.00000000000E+00 -0.00000000000E+00 -0.17423485489E+03  0.17423485489E+03  0.00000000000E+00 0. -1.
         21    1    1    2  503  502 -0.56289582196E+01  0.23916503079E+02  0.16808277021E+02  0.29769152937E+02  0.00000000000E+00 0.  1.
         -3    1    1    2    0  503  0.56289582196E+01 -0.23916503079E+02 -0.16685476209E+03  0.16865407177E+03  0.00000000000E+00 0. -1.
</event>
<event>
 4    1  0.1593135E+006  0.2183416E+02  0.7546771E-02  0.1507681E+00
         21   -1    0    0  501  502  0.00000000000E+00  0.00000000000E+00  0.15115523296E+02  0.15115523296E+02  0.00000000000E+00 0. -1.
          4   -1    0    0  503    0 -0.00000000000E+00 -0.00000000000E+00 -0.31580334778E+02  0.31580334778E+02  0.00000000000E+00 0. -1.
         21    1    1    2  503  502 -0.11772198795E+02  0.18388738398E+02 -0.73889833336E+01  0.23050540971E+02  0.00000000000E+00 0. -1.
          4    1    1    2  501    0  0.11772198795E+02 -0.18388738398E+02 -0.90758281482E+01  0.23645317103E+02  0.00000000000E+00 0. -1.
</event>
<event>
 4    1  0.1593135E+006  0.2468910E+02  0.7546771E-02  0.1472312E+00
          1   -1    0    0  503    0 -0.00000000000E+00  0.00000000000E+00  0.11277511035E+02  0.11277511035E+02  0.00000000000E+00 0.  1.
         21   -1    0    0  501  502  0.00000000000E+00 -0.00000000000E+00 -0.13578004376E+03  0.13578004376E+03  0.00000000000E+00 0.  1.
         21    1    1    2  503  502 -0.24552223134E+02  0.25961461795E+01 -0.11929786151E+03  0.12182582401E+03  0.00000000000E+00 0.  1.
          1    1    1    2  501    0  0.24552223134E+02 -0.25961461795E+01 -0.52046712156E+01  0.25231730782E+02  0.00000000000E+00 0.  1.
</event>
<event>
 4    1  0.1593135E+006  0.2030084E+02  0.7546771E-02  0.1529485E+00
         -1   -1    0    0    0  501 -0.00000000000E+00  0.00000000000E+00  0.10681235555E+03  0.10681235555E+03  0.00000000000E+00 0.  1.
         21   -1    0    0  503  502  0.00000000000E+00 -0.00000000000E+00 -0.33140188197E+02  0.33140188197E+02  0.00000000000E+00 0. -1.
         21    1    1    2  503  501 -0.15206500296E+02  0.13449401722E+02 -0.28940628879E+02  0.35350870680E+02  0.00000000000E+00 0. -1.
         -1    1    1    2    0  502  0.15206500296E+02 -0.13449401722E+02  0.10261279623E+03  0.10460167306E+03  0.00000000000E+00 0.  1.
</event>
<event>
 4    1  0.1593135E+006  0.2689002E+02  0.7546771E-02  0.1448716E+00
         21   -1    0    0  501  502  0.00000000000E+00  0.00000000000E+00  0.30778522650E+01  0.30778522650E+01  0.00000000000E+00 0. -1.
          4   -1    0    0  503    0 -0.00000000000E+00 -0.00000000000E+00 -0.11519587503E+04  0.11519587503E+04  0.00000000000E+00 0. -1.
         21    1    1    2  503  502 -0.25980832277E+02 -0.69332364086E+01 -0.59165229350E+02  0.64989212774E+02  0.00000000000E+00 0. -1.
          4    1    1    2  501    0  0.25980832277E+02  0.69332364086E+01 -0.10897156687E+04  0.10900473898E+04  0.00000000000E+00 0. -1.
</event>
<event>
 4    1  0.1593135E+006  0.2267477E+02  0.7546771E-02  0.1496623E+00
         21   -1    0    0  503  502  0.00000000000E+00  0.00000000000E+00  0.35686947302E+02  0.35686947302E+02  0.00000000000E+00 0.  1.
         -2   -1    0    0    0  501 -0.00000000000E+00 -0.00000000000E+00 -0.15159619928E+04  0.15159619928E+04  0.00000000000E+00 0.  1.
         21    1    1    2  503  501  0.11617248033E+02  0.19472662468E+02  0.31991585644E+02  0.39212326984E+02  0.00000000000E+00 0.  1.
         -2    1    1    2    0  502 -0.11617248033E+02 -0.19472662468E+02 -0.15122666311E+04  0.15124366131E+04  0.00000000000E+00 0.  1.
</event>
<event>
 4    1  0.1593135E+006  0.3368481E+02  0.7546771E-02  0.1390053E+00
          1   -1    0    0  503    0 -0.00000000000E+00  0.00000000000E+00  0.10124481836E+04  0.10124481836E+04  0.00000000000E+00 0.  1.
         21   -1    0    0  501  502  0.00000000000E+00 -0.00000000000E+00 -0.11207175917E+01  0.11207175917E+01  0.00000000000E+00 0.  1.
         21    1    1    2  503  502 -0.29956098045E+02  0.15404508903E+02  0.50502803071E+03  0.50615015412E+03  0.00000000000E+00 0.  1.
          1    1    1    2  501    0  0.29956098045E+02 -0.15404508903E+02  0.50629943531E+03  0.50741874709E+03  0.00000000000E+00 0.  1.
</event>
<event>
 4    1  0.1593135E+006  0.2032517E+02  0.7546771E-02  0.1529122E+00
         21   -1    0    0  501  502  0.00000000000E+00  0.00000000000E+00  0.52753709651E+02  0.52753709651E+02  0.00000000000E+00 0.  1.
         -4   -1    0    0    0  501 -0.00000000000E+00 -0.00000000000E+00 -0.11454641299E+04  0.11454641299E+04  0.00000000000E+00 0. -1.
         21    1    1    2  503  502  0.20263238747E+02 -0.15854408384E+01  0.50702293518E+02  0.54624491166E+02  0.00000000000E+00 0.  1.
         -4    1    1    2    0  503 -0.20263238747E+02  0.15854408384E+01 -0.11434127138E+04  0.11435933484E+04  0.00000000000E+00 0. -1.
</event>
<event>
 4    1  0.1593135E+006  0.4756183E+02  0.7546771E-02  0.1309104E+00
         21   -1    0    0  503  502  0.00000000000E+00  0.00000000000E+00  0.25524683629E+03  0.25524683629E+03  0.00000000000E+00 0.  1.
          1   -1    0    0  502    0 -0.00000000000E+00 -0.00000000000E+00 -0.33664642590E+02  0.33664642590E+02  0.00000000000E+00 0.  1.
         21    1    1    2  503  501 -0.45413967452E+02 -0.14131495639E+02  0.23478271025E+03  0.23955176610E+03  0.00000000000E+00 0.  1.
          1    1    1    2  501    0  0.45413967452E+02  0.14131495639E+02 -0.13200516550E+02  0.49359712782E+02  0.00000000000E+00 0.  1.
</event>
<event>
 4    1  0.1593135E+006  0.2799575E+02  0.7546771E-02  0.1437854E+00
          2   -1    0    0  503    0 -0.00000000000E+00  0.00000000000E+00  0.22966006128E+02  0.22966006128E+02  0.00000000000E+00 0. -1.
         21   -1    0    0  501  502  0.00000000000E+00 -0.00000000000E+00 -0.36934535677E+02  0.36934535677E+02  0.00000000000E+00 0. -1.
         21    1    1    2  503  502  0.16681626703E+02 -0.22482998005E+02  0.12731439654E+01  0.28024681342E+02  0.00000000000E+00 0. -1.
          2    1    1    2  501    0 -0.16681626703E+02  0.22482998005E+02 -0.15241673514E+02  0.31875860463E+02  0.00000000000E+00 0. -1.
</event>
<event>
 4    1  0.1593135E+006  0.5664924E+02  0.7546771E-02  0.1271663E+00
         21   -1    0    0  503  502  0.00000000000E+00  0.00000000000E+00  0.50751107573E+01  0.50751107573E+01  0.00000000000E+00 0. -1.
          2   -1    0    0  502    0 -0.00000000000E+00 -0.00000000000E+00 -0.12103949710E+04  0.12103949710E+04  0.00000000000E+00 0. -1.
         21    1    1    2  503  501 -0.51701166566E+01 -0.56412822394E+02 -0.18266925105E+03  0.19125164552E+03  0.00000000000E+00 0. -1.
          2    1    1    2  501    0  0.51701166566E+01  0.56412822394E+02 -0.10226506092E+04  0.10242184363E+04  0.00000000000E+00 0. -1.
</event>
<event>
 4    1  0.1593135E+006  0.2767606E+02  0.7546771E-02  0.1440933E+00
         21   -1    0    0  503  502  0.00000000000E+00  0.00000000000E+00  0.41511700155E+01  0.41511700155E+01  0.00000000000E+00 0.  1.
         -1   -1    0    0    0  501 -0.00000000000E+00 -0.00000000000E+00 -0.44539377447E+03  0.44539377447E+03  0.00000000000E+00 0. -1.
         21    1    1    2  503  501 -0.78057389908E+00 -0.27665054577E+02 -0.48597660615E+02  0.55925818346E+02  0.00000000000E+00 0.  1.
         -1    1    1    2    0  502  0.78057389908E+00  0.27665054577E+02 -0.39264494384E+03  0.39361912614E+03  0.00000000000E+00 0. -1.
</event>
<event>
 4    1  0.1593135E+006  0.2021691E+02  0.7546771E-02  0.1530745E+00
          1   -1    0    0  502    0 -0.00000000000E+00  0.00000000000E+00  0.73597645217E+03  0.73597645217E+03  0.00000000000E+00 0. -1.
         21   -1    0    0  503  502  0.00000000000E+00 -0.00000000000E+00 -0.18005187263E+01  0.18005187263E+01  0.00000000000E+00 0.  1.
         21    1    1    2  503  501 -0.20169729255E+02 -0.13803169698E+01  0.60319524483E+02  0.63617358378E+02  0.00000000000E+00 0.  1.
          1    1    1    2  501    0  0.20169729255E+02  0.13803169698E+01  0.67385640896E+03  0.67415961252E+03  0.00000000000E+00 0. -1.
</event>
<event>
 4    1  0.1593135E+006  0.2850053E+02  0.7546771E-02  0.1433091E+00
         21   -1    0    0  501  502  0.00000000000E+00  0.00000000000E+00  0.64087688461E+02  0.64087688461E+02  0.00000000000E+00 0. -1.
          3   -1    0    0  503    0 -0.00000000000E+00 -0.00000000000E+00 -0.12876596571E+02  0.12876596571E+02  0.00000000000E+00 0.  1.
         21    1    1    2  503  502 -0.23749523554E+02 -0.15755642080E+02  0.20784668221E+02  0.35274389569E+02  0.00000000000E+00 0. -1.
          3    1    1    2  501    0  0.23749523554E+02  0.15755642080E+02  0.30426423669E+02  0.41689895462E+02  0.00000000000E+00 0.  1.
</event>
<event>
 4    1  0.1593135E+006  0.2453286E+02  0.7546771E-02  0.1474098E+00
         21   -1    0    0  503  502  0.00000000000E+00  0.00000000000E+00  0.11620384031E+02  0.11620384031E+02  0.00000000000E+00 0.  1.
         -1   -1    0    0    0  501 -0.00000000000E+00 -0.00000000000E+00 -0.19584646393E+03  0.19584646393E+03  0.00000000000E+00 0. -1.
         21    1    1    2  503  501 -0.89194240044E+01  0.22853990501E+02 -0.31474913382E+01  0.24733938387E+02  0.00000000000E+00 0.  1.
         -1    1    1    2    0  502  0.89194240044E+01 -0.22853990501E+02 -0.18107858856E+03  0.18273290957E+03  0.00000000000E+00 0. -1.
</event>
<event>
 4    1  0.1593135E+006  0.2568763E+02  0.7546771E-02  0.1461256E+00
         21   -1    0    0  503  502  0.00000000000E+00  0.00000000000E+00  0.16400048909E+03  0.16400048909E+03  0.00000000000E+00 0. -1.
          2   -1    0    0  502    0 -0.00000000000E+00 -0.00000000000E+00 -0.19224668300E+03  0.19224668300E+03  0.00000000000E+00 0. -1.
         21    1    1    2  503  501 -0.10311045440E+02  0.23527361624E+02  0.16212667753E+03  0.16414906022E+03  0.00000000000E+00 0. -1.
          2    1    1    2  501    0  0.10311045440E+02 -0.23527361624E+02 -0.19037287144E+03  0.19209811187E+03  0.00000000000E+00 0. -1.
</event>
<event>
 4    1  0.1593135E+006  0.3179262E+02  0.7546771E-02  0.1404633E+00
          2   -1    0    0  502    0 -0.00000000000E+00  0.00000000000E+00  0.10374610748E+04  0.10374610748E+04  0.00000000000E+00 0. -1.
         21   -1    0    0  503  502  0.00000000000E+00 -0.00000000000E+00 -0.98424497105E+00  0.98424497105E+00  0.00000000000E+00 0. -1.
         21    1    1    2  503  501  0.31750603181E+02  0.16339982665E+01  0.46597673974E+03  0.46706005259E+03  0.00000000000E+00 0. -1.
          2    1    1    2  501    0 -0.31750603181E+02 -0.16339982665E+01  0.57050009010E+03  0.57138526718E+03  0.00000000000E+00 0. -1.
</event>
<event>
 4    1  0.1593135E+006  0.2395888E+02  0.7546771E-02  0.1480796E+00
          3   -1    0    0  503    0 -0.00000000000E+00  0.00000000000E+00  0.93432235582E+01  0.93432235582E+01  0.00000000000E+00 0.  1.
         21   -1    0    0  501  502  0.00000000000E+00 -0.00000000000E+00 -0.31886879412E+03  0.31886879412E+03  0.00000000000E+00 0. -1.
         21    1    1    2  503  502  0.13911342089E+02  0.19506472634E+02 -0.30221415700E+03  0.30316237333E+03  0.00000000000E+00 0. -1.
          3    1    1    2  501    0 -0.13911342089E+02 -0.19506472634E+02 -0.73114135552E+01  0.25049644339E+02  0.00000000000E+00 0.  1.
</event>
<event>
 4    1  0.1593135E+006  0.3500613E+02  0.7546771E-02  0.1380520E+00
         21   -1    0    0  503  502  0.00000000000E+00  0.00000000000E+00  0.68648431943E+02  0.68648431943E+02  0.00000000000E+00 0.  1.
          1   -1    0    0  502    0 -0.00000000000E+00 -0.00000000000E+00 -0.19219054935E+02  0.19219054935E+02  0.00000000000E+00 0.  1.
         21    1    1    2  503  501 -0.24682862423E+01  0.34918998117E+02  0.12992275796E+02  0.37339363905E+02  0.00000000000E+00 0.  1.
          1    1    1    2  501    0  0.24682862423E+01 -0.34918998117E+02  0.36437101212E+02  0.50528122973E+02  0.00000000000E+00 0.  1.
</event>
<event>
 4    1  0.1593135E+006  0.2970574E+02  0.7546771E-02  0.1422171E+00
         21   -1    0    0  501  502  0.00000000000E+00  0.00000000000E+00  0.33972006735E+01  0.33972006735E+01  0.00000000000E+00 0. -1.
          1   -1    0    0  503    0 -0.00000000000E+00 -0.00000000000E+00 -0.31053037121E+03  0.31053037121E+03  0.00000000000E+00 0. -1.
         21    1    1    2  503  502 -0.27860204424E+01  0.29574807742E+02 -0.90094184238E+02  0.94865131615E+02  0.00000000000E+00 0. -1.
          1    1    1    2  501    0  0.27860204424E+01 -0.29574807742E+02 -0.21703898630E+03  0.21906244027E+03  0.00000000000E+00 0. -1.
</event>
<event>
 4    1  0.1593135E+006  0.5468057E+02  0.7546771E-02  0.1279062E+00
         -3   -1    0    0    0  501 -0.00000000000E+00  0.00000000000E+00  0.45225313315E+03  0.45225313315E+03  0.00000000000E+00 0. -1.
         21   -1    0    0  501  502  0.00000000000E+00 -0.00000000000E+00 -0.94110760054E+01  0.94110760054E+01  0.00000000000E+00 0. -1.
         21    1    1    2  503  502  0.25754438075E+02  0.48235604962E+02  0.95516590421E+02  0.11006081824E+03  0.00000000000E+00 0. -1.
         -3    1    1    2    0  503 -0.25754438075E+02 -0.48235604962E+02  0.34732546673E+03  0.35160339091E+03  0.00000000000E+00 0. -1.
</event>
<event>
 4    1  0.1593135E+006  0.2199824E+02  0.7546771E-02  0.1505475E+00
         21   -1    0    0  501  502  0.00000000000E+00  0.00000000000E+00  0.60361404262E+01  0.60361404262E+01  0.00000000000E+00 0. -1.
          1   -1    0    0  503    0 -0.00000000000E+00 -0.00000000000E+00 -0.29552024007E+03  0.29552024007E+03  0.00000000000E+00 0.  1.
         21    1    1    2  503  502 -0.21996663914E+02  0.26330651751E+00 -0.16030735126E+02  0.27219607315E+02  0.00000000000E+00 0. -1.
          1    1    1    2  501    0  0.21996663914E+02 -0.26330651751E+00 -0.27345336451E+03  0.27433677318E+03  0.00000000000E+00 0.  1.
</event>
<event>
 4    1  0.1593135E+006  0.2740990E+02  0.7546771E-02  0.1443534E+00
         21   -1    0    0  501  502  0.00000000000E+00  0.00000000000E+00  0.22174968891E+02  0.22174968891E+02  0.00000000000E+00 0. -1.
          2   -1    0    0  503    0 -0.00000000000E+00 -0.00000000000E+00 -0.45978787226E+03  0.45978787226E+03  0.00000000000E+00 0.  1.
         21    1    1    2  503  502  0.25005450856E+02 -0.11226303579E+02  0.13126419442E+02  0.30390876129E+02  0.00000000000E+00 0. -1.
          2    1    1    2  501    0 -0.25005450856E+02  0.11226303579E+02 -0.45073932281E+03  0.45157196502E+03  0.00000000000E+00 0.  1.
</event>
<event>
 4    1  0.1593135E+006  0.4150925E+02  0.7546771E-02  0.1339862E+00
          1   -1    0    0  503    0 -0.00000000000E+00  0.00000000000E+00  0.13031724094E+02  0.13031724094E+02  0.00000000000E+00 0. -1.
         21   -1    0    0  501  502  0.00000000000E+00 -0.00000000000E+00 -0.16534001241E+03  0.16534001241E+03  0.00000000000E+00 0.  1.
         21    1    1    2  503  502 -0.76058750972E+01  0.40806475110E+02 -0.11607233289E+03  0.12327126271E+03  0.00000000000E+00 0.  1.
          1    1    1    2  501    0  0.76058750972E+01 -0.40806475110E+02 -0.36235955425E+02  0.55100473795E+02  0.00000000000E+00 0. -1.
</event>
<event>
 4    1  0.1593135E+006  0.2082392E+02  0.7546771E-02  0.1521794E+00
         -1   -1    0    0    0  501 -0.00000000000E+00  0.00000000000E+00  0.51797631433E+03  0.51797631433E+03  0.00000000000E+00 0. -1.
         21   -1    0    0  503  502  0.00000000000E+00 -0.00000000000E+00 -0.86995003161E+01  0.86995003161E+01  0.00000000000E+00 0.  1.
         21    1    1    2  503  501 -0.92010482549E+01 -0.18680908938E+02  0.42917518701E+01  0.21261579947E+02  0.00000000000E+00 0.  1.
         -1    1    1    2    0  502  0.92010482549E+01  0.18680908938E+02  0.50498506215E+03  0.50541423470E+03  0.00000000000E+00 0. -1.
</event>
<event>
 4    1  0.1593135E+006  0.4902199E+02  0.7546771E-02  0.1302469E+00
         21   -1    0    0  503  502  0.00000000000E+00  0.00000000000E+00  0.10284234950E+02  0.10284234950E+02  0.00000000000E+00 0.  1.
         -3   -1    0    0    0  501 -0.00000000000E+00 -0.00000000000E+00 -0.28236055233E+03  0.28236055233E+03  0.00000000000E+00 0. -1.
         21    1    1    2  503  501  0.48890875783E+02 -0.35830223361E+01 -0.75278630144E+02  0.89833334238E+02  0.00000000000E+00 0.  1.
         -3    1    1    2    0  502 -0.48890875783E+02  0.35830223361E+01 -0.19679768724E+03  0.20281145305E+03  0.00000000000E+00 0. -1.
</event>
<event>
 4    1  0.1593135E+006  0.2052257E+02  0.7546771E-02  0.1526192E+00
         21   -1    0    0  503  502  0.00000000000E+00  0.00000000000E+00  0.77339710645E+01  0.77339710645E+01  0.00000000000E+00 0.  1.
          2   -1    0    0  502    0 -0.00000000000E+00 -0.00000000000E+00 -0.13856929402E+04  0.13856929402E+04  0.00000000000E+00 0. -1.
         21    1    1    2  503  501  0.12826608424E+02 -0.16020423281E+02 -0.60937102695E+01  0.21408156171E+02  0.00000000000E+00 0.  1.
          2    1    1    2  501    0 -0.12826608424E+02  0.16020423281E+02 -0.13718652589E+04  0.13720187551E+04  0.00000000000E+00 0. -1.
</event>
<event>
 4    1  0.1593135E+006  0.3593123E+02  0.7546771E-02  0.1374132E+00
          2   -1    0    0  503    0 -0.00000000000E+00  0.00000000000E+00  0.48131420520E+03  0.48131420520E+03  0.00000000000E+00 0. -1.
         21   -1    0    0  501  502  0.00000000000E+00 -0.00000000000E+00 -0.49686115383E+02  0.49686115383E+02  0.00000000000E+00 0.  1.
         21    1    1    2  503  502 -0.35633275911E+02 -0.46176768960E+01 -0.42420054409E+02  0.55592394337E+02  0.00000000000E+00 0.  1.
          2    1    1    2  501    0  0.35633275911E+02  0.46176768960E+01  0.47404814423E+03  0.47540792625E+03  0.00000000000E+00 0. -1.
</event>
<event>
 4    1  0.1593135E+006  0.2783766E+02  0.7546771E-02  0.1439370E+00
         21   -1    0    0  503  502  0.00000000000E+00  0.00000000000E+00  0.21274451732E+03  0.21274451732E+03  0.00000000000E+00 0. -1.
         -3   -1    0    0    0  501 -0.00000000000E+00 -0.00000000000E+00 -0.12409574024E+03  0.12409574024E+03  0.00000000000E+00 0.  1.
         21    1    1    2  503  501 -0.19730847762E+02  0.19637441062E+02  0.21025430210E+03  0.21208914870E+03  0.00000000000E+00 0. -1.
         -3    1    1    2    0  502  0.19730847762E+02 -0.19637441062E+02 -0.12160552502E+03  0.12475110886E+03  0.00000000000E+00 0.  1.
</event>
<event>
 4    1  0.1593135E+006  0.2185209E+02  0.7546771E-02  0.1507438E+00
          3   -1    0    0  503    0 -0.00000000000E+00  0.00000000000E+00  0.51114947301E+03  0.51114947301E+03  0.00000000000E+00 0. -1.
         21   -1    0    0  501  502  0.00000000000E+00 -0.00000000000E+00 -0.17380981014E+01  0.17380981014E+01  0.00000000000E+00 0.  1.
         21    1    1    2  503  502 -0.21864564717E+01 -0.21742425044E+02  0.80301583530E+02  0.83221739684E+02  0.00000000000E+00 0.  1.
          3    1    1    2  501    0  0.21864564717E+01  0.21742425044E+02  0.42910979138E+03  0.42966583143E+03  0.00000000000E+00 0. -1.
</event>
<event>
 4    1  0.1593135E+006  0.2150108E+02  0.7546771E-02  0.1512230E+00
         -3   -1    0    0    0  501 -0.00000000000E+00  0.00000000000E+00  0.71950827392E+03  0.71950827392E+03  0.00000000000E+00 0.  1.
         21   -1    0    0  501  502  0.00000000000E+00 -0.00000000000E+00 -0.10234152801E+01  0.10234152801E+01  0.00000000000E+00 0.  1.
         21    1    1    2  503  502 -0.21209122137E+02  0.35311989970E+01  0.13945558033E+03  0.14110334905E+03  0.00000000000E+00 0.  1.
         -3    1    1    2    0  503  0.21209122137E+02 -0.35311989970E+01  0.57902927831E+03  0.57942834015E+03  0.00000000000E+00 0.  1.
</event>
<event>
 4    1  0.1593135E+006  0.2661457E+02  0.7546771E-02  0.1451519E+00
         21   -1    0    0  501  502  0.00000000000E+00  0.00000000000E+00  0.20992202748E+02  0.20992202748E+02  0.00000000000E+00 0.  1.
          2   -1    0    0  503    0 -0.00000000000E+00 -0.00000000000E+00 -0.16560847209E+03  0.16560847209E+03  0.00000000000E+00 0. -1.
         21    1    1    2  503  502  0.26490570394E+02  0.25660960457E+01  0.10946392198E+02  0.28777746105E+02  0.00000000000E+00 0.  1.
          2    1    1    2  501    0 -0.26490570394E+02 -0.25660960457E+01 -0.15556266154E+03  0.15782292873E+03  0.00000000000E+00 0. -1.
</event>
<event>
 4    1  0.1593135E+006  0.2474776E+02  0.7546771E-02  0.1471645E+00
         21   -1    0    0  503  502  0.00000000000E+00  0.00000000000E+00  0.89977664946E+02  0.89977664946E+02  0.00000000000E+00 0.  1.
         -2   -1    0    0    0  501 -0.00000000000E+00 -0.00000000000E+00 -0.66830002966E+02  0.66830002966E+02  0.00000000000E+00 0.  1.
         21    1    1    2  503  501  0.15600393149E+00  0.24747267405E+02  0.85877708985E+02  0.89372436924E+02  0.00000000000E+00 0.  1.
         -2    1    1    2    0  502 -0.15600393149E+00 -0.24747267405E+02 -0.62730047004E+02  0.67435230988E+02  0.00000000000E+00 0.  1.
</event>
<event>
 4    1  0.1593135E+006  0.2436339E+02  0.7546771E-02  0.1476053E+00
         21   -1    0    0  503  502  0.00000000000E+00  0.00000000000E+00  0.11786456687E+02  0.11786456687E+02  0.00000000000E+00 0. -1.
          2   -1    0    0  502    0 -0.00000000000E+00 -0.00000000000E+00 -0.28001408958E+03  0.28001408958E+03  0.00000000000E+00 0.  1.
         21    1    1    2  503  501 -0.17487666660E+02  0.16963375726E+02 -0.19834738264E+01  0.24443992507E+02  0.00000000000E+00 0. -1.
          2    1    1    2  501    0  0.17487666660E+02 -0.16963375726E+02 -0.26624415907E+03  0.26735655376E+03  0.00000000000E+00 0.  1.
</event>
<event>
 4    1  0.1593135E+006  0.3178866E+02  0.7546771E-02  0.1404664E+00
         21   -1    0    0  503  502  0.00000000000E+00  0.00000000000E+00  0.13952182509E+03  0.13952182509E+03  0.00000000000E+00 0. -1.
          3   -1    0    0  502    0 -0.00000000000E+00 -0.00000000000E+00 -0.24240558328E+02  0.24240558328E+02  0.00000000000E+00 0. -1.
         21    1    1    2  503  501 -0.17773570953E+02 -0.26355628929E+02  0.12620675054E+03  0.13014861844E+03  0.00000000000E+00 0. -1.
          3    1    1    2  501    0  0.17773570953E+02  0.26355628929E+02 -0.10925483770E+02  0.33613764982E+02  0.00000000000E+00 0. -1.
</event>
<event>
 4    1  0.1593135E+006  0.5363259E+02  0.7546771E-02  0.1283147E+00
         -1   -1    0    0    0  501 -0.00000000000E+00  0.00000000000E+00  0.11322612665E+03  0.11322612665E+03  0.00000000000E+00 0. -1.
         21   -1    0    0  501  502  0.00000000000E+00 -0.00000000000E+00 -0.82945431351E+02  0.82945431351E+02  0.00000000000E+00 0.  1.
         21    1    1    2  503  502 -0.22166984276E+02  0.48837271870E+02 -0.66555167333E+02  0.85475403563E+02  0.00000000000E+00 0.  1.
         -1    1    1    2    0  503  0.22166984276E+02 -0.48837271870E+02  0.96835862630E+02  0.11069615444E+03  0.00000000000E+00 0. -1.
</event>
<event>
 4    1  0.1593135E+006  0.3180337E+02  0.7546771E-02  0.1404547E+00
         21   -1    0    0  501  502  0.00000000000E+00  0.00000000000E+00  0.48308094449E+01  0.48308094449E+01  0.00000000000E+00 0.  1.
          1   -1    0    0  503    0 -0.00000000000E+00 -0.00000000000E+00 -0.28512563220E+03  0.28512563220E+03  0.00000000000E+00 0.  1.
         21    1    1    2  503  502 -0.31580385467E+02 -0.37594618116E+01 -0.65420738453E+02  0.72741510289E+02  0.00000000000E+00 0.  1.
          1    1    1    2  501    0  0.31580385467E+02  0.37594618116E+01 -0.21487408430E+03  0.21721493136E+03  0.00000000000E+00 0.  1.
</event>
<event>
 4    1  0.1593135E+006  0.2223654E+02  0.7546771E-02  0.1502314E+00
         21   -1    0    0  503  502  0.00000000000E+00  0.00000000000E+00  0.27727275517E+01  0.27727275517E+01  0.00000000000E+00 0. -1.
          2   -1    0    0  502    0 -0.00000000000E+00 -0.00000000000E+00 -0.17883572264E+03  0.17883572264E+03  0.00000000000E+00 0. -1.
         21    1    1    2  503  501 -0.14457005798E+02  0.16895525507E+02 -0.92854576097E+02  0.95480029854E+02  0.00000000000E+00 0. -1.
          2    1    1    2  501    0  0.14457005798E+02 -0.16895525507E+02 -0.83208418993E+02  0.86128420339E+02  0.00000000000E+00 0. -1.
</event>
<event>
 4    1  0.1593135E+006  0.2322193E+02  0.7546771E-02  0.1489730E+00
         -2   -1    0    0    0  501 -0.00000000000E+00  0.00000000000E+00  0.83902789786E+01  0.83902789786E+01  0.00000000000E+00 0. -1.
         21   -1    0    0  503  502  0.00000000000E+00 -0.00000000000E+00 -0.86831182388E+02  0.86831182388E+02  0.00000000000E+00 0. -1.
         21    1    1    2  503  501  0.18554982656E+02 -0.13963182207E+02 -0.63488293693E+02  0.67601932478E+02  0.00000000000E+00 0. -1.
         -2    1    1    2    0  502 -0.18554982656E+02  0.13963182207E+02 -0.14952609717E+02  0.27619528889E+02  0.00000000000E+00 0. -1.
</event>
<event>
 4    1  0.1593135E+006  0.3535309E+02  0.7546771E-02  0.1378098E+00
         21   -1    0    0  501  502  0.00000000000E+00  0.00000000000E+00  0.75681023804E+02  0.75681023804E+02  0.00000000000E+00 0.  1.
          1   -1    0    0  503    0 -0.00000000000E+00 -0.00000000000E+00 -0.15461954708E+03  0.15461954708E+03  0.00000000000E+00 0. -1.
         21    1    1    2  503  502 -0.20764984627E+01  0.35292057074E+02  0.69357937721E+02  0.77848343998E+02  0.00000000000E+00 0.  1.
          1    1    1    2  501    0  0.20764984627E+01 -0.35292057074E+02 -0.14829646100E+03  0.15245222689E+03  0.00000000000E+00 0. -1.
</event>
<event>
 4    1  0.1593135E+006  0.2653213E+02  0.7546771E-02  0.1452365E+00
         21   -1    0    0  501  502  0.00000000000E+00  0.00000000000E+00  0.15423462797E+02  0.15423462797E+02  0.00000000000E+00 0. -1.
         -2   -1    0    0    0  501 -0.00000000000E+00 -0.00000000000E+00 -0.39696784255E+03  0.39696784255E+03  0.00000000000E+00 0. -1.
         21    1    1    2  503  502  0.26467161038E+02  0.18556028416E+01  0.32078490541E+01  0.26725346974E+02  0.00000000000E+00 0. -1.
         -2    1    1    2    0  503 -0.26467161038E+02 -0.18556028416E+01 -0.38475222881E+03  0.38566595837E+03  0.00000000000E+00 0. -1.
</event>
<event>
 4    1  0.1593135E+006  0.2705244E+02  0.7546771E-02  0.1447082E+00
          1   -1    0    0  503    0 -0.00000000000E+00  0.00000000000E+00  0.80164551156E+03  0.80164551156E+03  0.00000000000E+00 0.  1.
         21   -1    0    0  501  502  0.00000000000E+00 -0.00000000000E+00 -0.13504698645E+03  0.13504698645E+03  0.00000000000E+00 0. -1.
         21    1    1    2  503  502 -0.23661792107E+02  0.13113130201E+02 -0.13346129552E+03  0.13617544562E+03  0.00000000000E+00 0. -1.
          1    1    1    2  501    0  0.23661792107E+02 -0.13113130201E+02  0.80005982063E+03  0.80051705239E+03  0.00000000000E+00 0.  1.
</event>
<event>
 4    1  0.1593135E+006  0.6574191E+02  0.7546771E-02  0.1241480E+00
         21   -1    0    0  501  502  0.00000000000E+00  0.00000000000E+00  0.27943185263E+03  0.27943185263E+03  0.00000000000E+00 0.  1.
         -1   -1    0    0    0  501 -0.00000000000E+00 -0.00000000000E+00 -0.30394622779E+02  0.30394622779E+02  0.00000000000E+00 0.  1.
         21    1    1    2  503  502 -0.65736412591E+02  0.84981014426E+00  0.23308219149E+03  0.24217618815E+03  0.00000000000E+00 0.  1.
         -1    1    1    2    0  503  0.65736412591E+02 -0.84981014426E+00  0.15955038368E+02  0.67650287264E+02  0.00000000000E+00 0.  1.
</event>
<event>
 4    1  0.1593135E+006  0.2039430E+02  0.7546771E-02  0.1528091E+00
         21   -1    0    0  503  502  0.00000000000E+00  0.00000000000E+00  0.14800785386E+03  0.14800785386E+03  0.00000000000E+00 0. -1.
          4   -1    0    0  502    0 -0.00000000000E+00 -0.00000000000E+00 -0.51612108919E+01  0.51612108919E+01  0.00000000000E+00 0. -1.
         21    1    1    2  503  501  0.15093697802E+02  0.13715239071E+02  0.12311197133E+03  0.12478976312E+03  0.00000000000E+00 0. -1.
          4    1    1    2  501    0 -0.15093697802E+02 -0.13715239071E+02  0.19734671638E+02  0.28379301626E+02  0.00000000000E+00 0. -1.
</event>
<event>
 4    1  0.1593135E+006  0.2116362E+02  0.7546771E-02  0.1516942E+00
         -2   -1    0    0    0  501 -0.00000000000E+00  0.00000000000E+00  0.17087878799E+03  0.17087878799E+03  0.00000000000E+00 0.  1.
         21   -1    0    0  503  502  0.00000000000E+00 -0.00000000000E+00 -0.23459468324E+02  0.23459468324E+02  0.00000000000E+00 0. -1.
         21    1    1    2  503  501 -0.53368980176E+01  0.20479653741E+02 -0.17870325984E+02  0.27699228303E+02  0.00000000000E+00 0. -1.
         -2    1    1    2    0  502  0.53368980176E+01 -0.20479653741E+02  0.16528964565E+03  0.16663902801E+03  0.00000000000E+00 0.  1.
</event>
<event>
 4    1  0.1593135E+006  0.2437611E+02  0.7546771E-02  0.1475905E+00
          1   -1    0    0  503    0 -0.00000000000E+00  0.00000000000E+00  0.35415773588E+03  0.35415773588E+03  0.00000000000E+00 0.  1.
         21   -1    0    0  501  502  0.00000000000E+00 -0.00000000000E+00 -0.19295291670E+01  0.19295291670E+01  0.00000000000E+00 0.  1.
         21    1    1    2  503  502 -0.23229071412E+02 -0.73895199247E+01  0.11180172924E+03  0.11442823701E+03  0.00000000000E+00 0.  1.
          1    1    1    2  501    0  0.23229071412E+02  0.73895199247E+01  0.24042647747E+03  0.24165902804E+03  0.00000000000E+00 0.  1.
</event>
<event>
 4    1  0.1593135E+006  0.2096181E+02  0.7546771E-02  0.1519811E+00
         21   -1    0    0  503  502  0.00000000000E+00  0.00000000000E+00  0.46632063726E+01  0.46632063726E+01  0.00000000000E+00 0. -1.
          2   -1    0    0  502    0 -0.00000000000E+00 -0.00000000000E+00 -0.26463790226E+03  0.26463790226E+03  0.00000000000E+00 0.  1.
         21    1    1    2  503  501 -0.15264750961E+02 -0.14366106684E+02 -0.21935688676E+02  0.30340930784E+02  0.00000000000E+00 0. -1.
          2    1    1    2  501    0  0.15264750961E+02  0.14366106684E+02 -0.23803900721E+03  0.23896017785E+03  0.00000000000E+00 0.  1.
</event>
<event>
 4    1  0.1593135E+006  0.5020264E+02  0.7546771E-02  0.1297296E+00
         21   -1    0    0  501  502  0.00000000000E+00  0.00000000000E+00  0.47174679882E+02  0.47174679882E+02  0.00000000000E+00 0.  1.
          2   -1    0    0  503    0 -0.00000000000E+00 -0.00000000000E+00 -0.21129023201E+03  0.21129023201E+03  0.00000000000E+00 0.  1.
         21    1    1    2  503  502 -0.41523361049E+02 -0.28215521278E+02  0.29647888252E+02  0.58303537042E+02  0.00000000000E+00 0.  1.
          2    1    1    2  501    0  0.41523361049E+02  0.28215521278E+02 -0.19376344038E+03  0.20016137485E+03  0.00000000000E+00 0.  1.
</event>
<event>
 4    1  0.1593135E+006  0.2521848E+02  0.7546771E-02  0.1466374E+00
         21   -1    0    0  503  502  0.00000000000E+00  0.00000000000E+00  0.50751128737E+01  0.50751128737E+01  0.00000000000E+00 0. -1.
          3   -1    0    0  502    0 -0.00000000000E+00 -0.00000000000E+00 -0.49536937580E+03  0.49536937580E+03  0.00000000000E+00 0. -1.
         21    1    1    2  503  501 -0.25110075118E+02 -0.23357347058E+01 -0.28877277184E+02  0.38338866266E+02  0.00000000000E+00 0. -1.
          3    1    1    2  501    0  0.25110075118E+02  0.23357347058E+01 -0.46141698575E+03  0.46210562241E+03  0.00000000000E+00 0. -1.
</event>
<event>
 4    1  0.1593135E+006  0.2762135E+02  0.7546771E-02  0.1441464E+00
         -2   -1    0    0    0  501 -0.00000000000E+00  0.00000000000E+00  0.19549653278E+04  0.19549653278E+04  0.00000000000E+00 0.  1.
         21   -1    0    0  503  502  0.00000000000E+00 -0.00000000000E+00 -0.66969724958E+01  0.66969724958E+01  0.00000000000E+00 0. -1.
         21    1    1    2  503  501 -0.14677145532E+02  0.23399150495E+02  0.22310260491E+02  0.35506148313E+02  0.00000000000E+00 0. -1.
         -2    1    1    2    0  502  0.14677145532E+02 -0.23399150495E+02  0.19259580949E+04  0.19261561520E+04  0.00000000000E+00 0.  1.
</event>
<event>
 4    1  0.1593135E+006  0.2787484E+02  0.7546771E-02  0.1439013E+00
         -1   -1    0    0    0  501 -0.00000000000E+00  0.00000000000E+00  0.13590334186E+02  0.13590334186E+02  0.00000000000E+00 0.  1.
         21   -1    0    0  501  502  0.00000000000E+00 -0.00000000000E+00 -0.19478172988E+03  0.19478172988E+03  0.00000000000E+00 0. -1.
         21    1    1    2  503  502  0.14234680479E+02 -0.23966238578E+02 -0.17816615606E+03  0.18033354066E+03  0.00000000000E+00 0. -1.
         -1    1    1    2    0  503 -0.14234680479E+02  0.23966238578E+02 -0.30252396274E+01  0.28038523405E+02  0.00000000000E+00 0.  1.
</event>
<event>
 4    1  0.1593135E+006  0.3520532E+02  0.7546771E-02  0.1379125E+00
         21   -1    0    0  503  502  0.00000000000E+00  0.00000000000E+00  0.46113486990E+01  0.46113486990E+01  0.00000000000E+00 0. -1.
          2   -1    0    0  502    0 -0.00000000000E+00 -0.00000000000E+00 -0.23344690473E+04  0.23344690473E+04  0.00000000000E+00 0.  1.
         21    1    1    2  503  501 -0.33280225990E+02  0.11482223005E+02 -0.64773282493E+02  0.73722405088E+02  0.00000000000E+00 0. -1.
          2    1    1    2  501    0  0.33280225990E+02 -0.11482223005E+02 -0.22650844162E+04  0.22653579910E+04  0.00000000000E+00 0.  1.
</event>
<event>
 4    1  0.1593135E+006  0.2415228E+02  0.7546771E-02  0.1478515E+00
          3   -1    0    0  502    0 -0.00000000000E+00  0.00000000000E+00  0.28180598696E+02  0.28180598696E+02  0.00000000000E+00 0. -1.
         21   -1    0    0  503  502  0.00000000000E+00 -0.00000000000E+00 -0.77207894995E+02  0.77207894995E+02  0.00000000000E+00 0.  1.
         21    1    1    2  503  501 -0.14330150354E+02 -0.19441692120E+02 -0.69594041831E+02  0.73665889393E+02  0.00000000000E+00 0.  1.
          3    1    1    2  501    0  0.14330150354E+02  0.19441692120E+02  0.20566745532E+02  0.31722604298E+02  0.00000000000E+00 0. -1.
</event>
<event>
 4    1  0.1593135E+006  0.3736096E+02  0.7546771E-02  0.1364685E+00
         21   -1    0    0  503  502  0.00000000000E+00  0.00000000000E+00  0.40245525103E+02  0.40245525103E+02  0.00000000000E+00 0.  1.
         -1   -1    0    0    0  501 -0.00000000000E+00 -0.00000000000E+00 -0.63830717719E+02  0.63830717719E+02  0.00000000000E+00 0.  1.
         21    1    1    2  503  501  0.29483355304E+02 -0.22947185605E+02  0.23372184062E+02  0.44069269963E+02  0.00000000000E+00 0.  1.
         -1    1    1    2    0  502 -0.29483355304E+02  0.22947185605E+02 -0.46957376678E+02  0.60006972859E+02  0.00000000000E+00 0.  1.
</event>
<event>
 4    1  0.1593135E+006  0.4855057E+02  0.7546771E-02  0.1304582E+00
         21   -1    0    0  501  502  0.00000000000E+00  0.00000000000E+00  0.70777764831E+02  0.70777764831E+02  0.00000000000E+00 0. -1.
          4   -1    0    0  503    0 -0.00000000000E+00 -0.00000000000E+00 -0.39799492837E+02  0.39799492837E+02  0.00000000000E+00 0.  1.
         21    1    1    2  503  502  0.45288950329E+02 -0.17494811355E+02  0.37825630865E+02  0.61546208629E+02  0.00000000000E+00 0. -1.
          4    1    1    2  501    0 -0.45288950329E+02  0.17494811355E+02 -0.68473588710E+01  0.49031049038E+02  0.00000000000E+00 0.  1.
</event>
<event>
 4    1  0.1593135E+006  0.5889142E+02  0.7546771E-02  0.1263646E+00
          1   -1    0    0  503    0 -0.00000000000E+00  0.00000000000E+00  0.18841254251E+03  0.18841254251E+03  0.00000000000E+00 0. -1.
         21   -1    0    0  501  502  0.00000000000E+00 -0.00000000000E+00 -0.94972795945E+02  0.94972795945E+02  0.00000000000E+00 0.  1.
         21    1    1    2  503  502  0.57999695214E+02 -0.10209513629E+02 -0.80502598415E+02  0.99744008166E+02  0.00000000000E+00 0.  1.
          1    1    1    2  501    0 -0.57999695214E+02  0.10209513629E+02  0.17394234498E+03  0.18364133029E+03  0.00000000000E+00 0. -1.
</event>
<event>
 4    1  0.1593135E+006  0.4558208E+02  0.7546771E-02  0.1318554E+00
         21   -1    0    0  503  502  0.00000000000E+00  0.00000000000E+00  0.14509609070E+03  0.14509609070E+03  0.00000000000E+00 0.  1.
         -2   -1    0    0    0  501 -0.00000000000E+00 -0.00000000000E+00 -0.10194182536E+03  0.10194182536E+03  0.00000000000E+00 0. -1.
         21    1    1    2  503  501  0.16280766718E+02  0.42575371702E+02  0.13609267262E+03  0.14352331232E+03  0.00000000000E+00 0.  1.
         -2    1    1    2    0  502 -0.16280766718E+02 -0.42575371702E+02 -0.92938407272E+02  0.10351460374E+03  0.00000000000E+00 0. -1.
</event>
<event>
 4    1  0.1593135E+006  0.2108103E+02  0.7546771E-02  0.1518111E+00
         21   -1    0    0  501  502  0.00000000000E+00  0.00000000000E+00  0.52786934873E+02  0.52786934873E+02  0.00000000000E+00 0. -1.
          1   -1    0    0  503    0 -0.00000000000E+00 -0.00000000000E+00 -0.14403331670E+03  0.14403331670E+03  0.00000000000E+00 0. -1.
         21    1    1    2  503  502  0.18725109003E+02  0.96840086766E+01  0.49867532092E+02  0.54140377614E+02  0.00000000000E+00 0. -1.
          1    1    1    2  501    0 -0.18725109003E+02 -0.96840086766E+01 -0.14111391392E+03  0.14267987395E+03  0.00000000000E+00 0. -1.
</event>
<event>
 4    1  0.1593135E+006  0.2778560E+02  0.7546771E-02  0.1439872E+00
         21   -1    0    0  501  502  0.00000000000E+00  0.00000000000E+00  0.92434485825E+02  0.92434485825E+02  0.00000000000E+00 0. -1.
          3   -1    0    0  503    0 -0.00000000000E+00 -0.00000000000E+00 -0.12215370886E+03  0.12215370886E+03  0.00000000000E+00 0. -1.
         21    1    1    2  503  502  0.21211630125E+02 -0.17947318418E+02  0.88701414120E+02  0.92951494651E+02  0.00000000000E+00 0. -1.
          3    1    1    2  501    0 -0.21211630125E+02  0.17947318418E+02 -0.11842063716E+03  0.12163670004E+03  0.00000000000E+00 0. -1.
</event>
<event>
 4    1  0.1593135E+006  0.3216568E+02  0.7546771E-02  0.1401665E+00
         21   -1    0    0  503  502  0.00000000000E+00  0.00000000000E+00  0.20757015693E+03  0.20757015693E+03  0.00000000000E+00 0. -1.
         -1   -1    0    0    0  501 -0.00000000000E+00 -0.00000000000E+00 -0.53299211194E+01  0.53299211194E+01  0.00000000000E+00 0.  1.
         21    1    1    2  503  501  0.15026977819E+02 -0.28439775313E+02  0.12822001527E+03  0.13219305276E+03  0.00000000000E+00 0. -1.
         -1    1    1    2    0  502 -0.15026977819E+02  0.28439775313E+02  0.74020220543E+02  0.80707025292E+02  0.00000000000E+00 0.  1.
</event>
<event>
 4    1  0.1593135E+006  0.2407154E+02  0.7546771E-02  0.1479464E+00
         21   -1    0    0  501  502  0.00000000000E+00  0.00000000000E+00  0.39047099803E+01  0.39047099803E+01  0.00000000000E+00 0. -1.
         -1   -1    0    0    0  501 -0.00000000000E+00 -0.00000000000E+00 -0.19104239580E+03  0.19104239580E+03  0.00000000000E+00 0. -1.
         21    1    1    2  503  502 -0.14379157109E+02  0.19304898533E+02 -0.47514732296E+02  0.53264331890E+02  0.00000000000E+00 0. -1.
         -1    1    1    2    0  503  0.14379157109E+02 -0.19304898533E+02 -0.13962295352E+03  0.14168277389E+03  0.00000000000E+00 0. -1.
</event>
<event>
 4    1  0.1593135E+006  0.2486596E+02  0.7546771E-02  0.1470309E+00
         21   -1    0    0  503  502  0.00000000000E+00  0.00000000000E+00  0.95068691800E+02  0.95068691800E+02  0.00000000000E+00 0. -1.
         -1   -1    0    0    0  501 -0.00000000000E+00 -0.00000000000E+00 -0.43682715919E+02  0.43682715919E+02  0.00000000000E+00 0. -1.
         21    1    1    2  503  501 -0.24691268711E+02 -0.29423216382E+01  0.89696004073E+02  0.93078940442E+02  0.00000000000E+00 0. -1.
         -1    1    1    2    0  502  0.24691268711E+02  0.29423216382E+01 -0.38310028191E+02  0.45672467277E+02  0.00000000000E+00 0. -1.
</event>
<event>
 4    1  0.1593135E+006  0.4248603E+02  0.7546771E-02  0.1334503E+00
          4   -1    0    0  503    0 -0.00000000000E+00  0.00000000000E+00  0.16694069087E+04  0.16694069087E+04  0.00000000000E+00 0.  1.
         21   -1    0    0  501  502  0.00000000000E+00 -0.00000000000E+00 -0.26938319528E+01  0.26938319528E+01  0.00000000000E+00 0.  1.
         21    1    1    2  503  502  0.19973322007E+02  0.37498391709E+02  0.18650183574E+03  0.19127989363E+03  0.00000000000E+00 0.  1.
          4    1    1    2  501    0 -0.19973322007E+02 -0.37498391709E+02  0.14802112410E+04  0.14808208471E+04  0.00000000000E+00 0.  1.
</event>
<event>
 4    1  0.1593135E+006  0.2552743E+02  0.7546771E-02  0.1462989E+00
          1   -1    0    0  503    0 -0.00000000000E+00  0.00000000000E+00  0.10300840037E+04  0.10300840037E+04  0.00000000000E+00 0.  1.
         21   -1    0    0  501  502  0.00000000000E+00 -0.00000000000E+00 -0.70778266164E+00  0.70778266164E+00  0.00000000000E+00 0. -1.
         21    1    1    2  503  502  0.46025468888E+01 -0.25109088767E+02  0.34673131398E+03  0.34766974828E+03  0.00000000000E+00 0. -1.
          1    1    1    2  501    0 -0.46025468888E+01  0.25109088767E+02  0.68264490707E+03  0.68312203809E+03  0.00000000000E+00 0.  1.
</event>
<event>
 4    1  0.1593135E+006  0.2171611E+02  0.7546771E-02  0.1509282E+00
         21   -1    0    0  501  502  0.00000000000E+00  0.00000000000E+00  0.43262809544E+02  0.43262809544E+02  0.00000000000E+00 0.  1.
          2   -1    0    0  503    0 -0.00000000000E+00 -0.00000000000E+00 -0.40405879947E+03  0.40405879947E+03  0.00000000000E+00 0. -1.
         21    1    1    2  503  502  0.62712219508E+01  0.20790887452E+02  0.40225258243E+02  0.45712805936E+02  0.00000000000E+00 0.  1.
          2    1    1    2  501    0 -0.62712219508E+01 -0.20790887452E+02 -0.40102124817E+03  0.40160880308E+03  0.00000000000E+00 0. -1.
</event>
<event>
 4    1  0.1593135E+006  0.2519303E+02  0.7546771E-02  0.1466655E+00
         -3   -1    0    0    0  501 -0.00000000000E+00  0.00000000000E+00  0.58658870361E+01  0.58658870361E+01  0.00000000000E+00 0. -1.
         21   -1    0    0  501  502  0.00000000000E+00 -0.00000000000E+00 -0.10089093163E+04  0.10089093163E+04  0.00000000000E+00 0. -1.
         21    1    1    2  503  502  0.21767400487E+01 -0.25098813817E+02 -0.98093065113E+03  0.98125411131E+03  0.00000000000E+00 0. -1.
         -3    1    1    2    0  503 -0.21767400487E+01  0.25098813817E+02 -0.22112778089E+02  0.33521091974E+02  0.00000000000E+00 0. -1.
</event>
<event>
 4    1  0.1593135E+006  0.2450717E+02  0.7546771E-02  0.1474393E+00
         -2   -1    0    0    0  501 -0.00000000000E+00  0.00000000000E+00  0.25792344460E+02  0.25792344460E+02  0.00000000000E+00 0.  1.
         21   -1    0    0  503  502  0.00000000000E+00 -0.00000000000E+00 -0.39421909276E+02  0.39421909276E+02  0.00000000000E+00 0.  1.
         21    1    1    2  503  501  0.18198034877E+02 -0.16414408169E+02 -0.27676018779E+02  0.36967056745E+02  0.00000000000E+00 0.  1.
         -2    1    1    2    0  502 -0.18198034877E+02  0.16414408169E+02  0.14046453963E+02  0.28247196991E+02  0.00000000000E+00 0.  1.
</event>
<event>
 4    1  0.1593135E+006  0.2854815E+02  0.7546771E-02  0.1432647E+00
          1   -1    0    0  503    0 -0.00000000000E+00  0.00000000000E+00  0.16562676524E+02  0.16562676524E+02  0.00000000000E+00 0. -1.
         21   -1    0    0  501  502  0.00000000000E+00 -0.00000000000E+00 -0.60818433239E+02  0.60818433239E+02  0.00000000000E+00 0. -1.
         21    1    1    2  503  502 -0.17746595121E+02 -0.22361908774E+02 -0.39033598305E+02  0.48359263839E+02  0.00000000000E+00 0. -1.
          1    1    1    2  501    0  0.17746595121E+02  0.22361908774E+02 -0.52221584098E+01  0.29021845924E+02  0.00000000000E+00 0. -1.
</event>
<event>
 4    1  0.1593135E+006  0.4081772E+02  0.7546771E-02  0.1343760E+00
         -2   -1    0    0    0  501 -0.00000000000E+00  0.00000000000E+00  0.26895936809E+02  0.26895936809E+02  0.00000000000E+00 0.  1.
         21   -1    0    0  503  502  0.00000000000E+00 -0.00000000000E+00 -0.16820528547E+03  0.16820528547E+03  0.00000000000E+00 0.  1.
         21    1    1    2  503  501  0.40328856133E+02 -0.62983697124E+01 -0.14818906008E+03  0.15370778648E+03  0.00000000000E+00 0.  1.
         -2    1    1    2    0  502 -0.40328856133E+02  0.62983697124E+01  0.68797114165E+01  0.41393435799E+02  0.00000000000E+00 0.  1.
</event>
<event>
 4    1  0.1593135E+006  0.4051213E+02  0.7546771E-02  0.1345511E+00
         21   -1    0    0  503  502  0.00000000000E+00  0.00000000000E+00  0.19701963642E+02  0.19701963642E+02  0.00000000000E+00 0.  1.
          2   -1    0    0  502    0 -0.00000000000E+00 -0.00000000000E+00 -0.27038627245E+03  0.27038627245E+03  0.00000000000E+00 0.  1.
         21    1    1    2  503  501  0.40504014232E+02  0.81089582401E+00 -0.46927232260E+01  0.40783015733E+02  0.00000000000E+00 0.  1.
          2    1    1    2  501    0 -0.40504014232E+02 -0.81089582401E+00 -0.24599158558E+03  0.24930522036E+03  0.00000000000E+00 0.  1.
</event>
<event>
 4    1  0.1593135E+006  0.2975907E+02  0.7546771E-02  0.1421702E+00
         21   -1    0    0  503  502  0.00000000000E+00  0.00000000000E+00  0.10462063529E+03  0.10462063529E+03  0.00000000000E+00 0.  1.
         -4   -1    0    0    0  501 -0.00000000000E+00 -0.00000000000E+00 -0.47635013431E+03  0.47635013431E+03  0.00000000000E+00 0. -1.
         21    1    1    2  503  501  0.22560967156E+02  0.19406307837E+02  0.10202805856E+03  0.10627947477E+03  0.00000000000E+00 0.  1.
         -4    1    1    2    0  502 -0.22560967156E+02 -0.19406307837E+02 -0.47375755758E+03  0.47469129483E+03  0.00000000000E+00 0. -1.
</event>
<event>
 4    1  0.1593135E+006  0.3047787E+02  0.7546771E-02  0.1415488E+00
         21   -1    0    0  503  502  0.00000000000E+00  0.00000000000E+00  0.72700078941E+02  0.72700078941E+02  0.00000000000E+00 0. -1.
          3   -1    0    0  502    0 -0.00000000000E+00 -0.00000000000E+00 -0.48186916745E+02  0.48186916745E+02  0.00000000000E+00 0. -1.
         21    1    1    2  503  501 -0.26929017521E+02 -0.14273344973E+02  0.64070507783E+02  0.70950196116E+02  0.00000000000E+00 0. -1.
          3    1    1    2  501    0  0.26929017521E+02  0.14273344973E+02 -0.39557345587E+02  0.49936799570E+02  0.00000000000E+00 0. -1.
</event>
<event>
 4    1  0.1593135E+006  0.2321212E+02  0.7546771E-02  0.1489852E+00
         21   -1    0    0  501  502  0.00000000000E+00  0.00000000000E+00  0.72365569752E+02  0.72365569752E+02  0.00000000000E+00 0. -1.
         -2   -1    0    0    0  501 -0.00000000000E+00 -0.00000000000E+00 -0.25373820888E+03  0.25373820888E+03  0.00000000000E+00 0.  1.
         21    1    1    2  503  502  0.20696141518E+02  0.10510567570E+02  0.69955503417E+02  0.73706002217E+02  0.00000000000E+00 0. -1.
         -2    1    1    2    0  503 -0.20696141518E+02 -0.10510567570E+02 -0.25132814254E+03  0.25239777642E+03  0.00000000000E+00 0.  1.
</event>
<event>
 4    1  0.1593135E+006  0.3928345E+02  0.7546771E-02  0.1352737E+00
         21   -1    0    0  501  502  0.00000000000E+00  0.00000000000E+00  0.96024917723E+00  0.96024917723E+00  0.00000000000E+00 0.  1.
          2   -1    0    0  503    0 -0.00000000000E+00 -0.00000000000E+00 -0.18642443358E+04  0.18642443358E+04  0.00000000000E+00 0.  1.
         21    1    1    2  503  502 -0.10823377831E+02 -0.37762993936E+02 -0.12780257796E+04  0.12786293766E+04  0.00000000000E+00 0.  1.
          2    1    1    2  501    0  0.10823377831E+02  0.37762993936E+02 -0.58525830701E+03  0.58657520843E+03  0.00000000000E+00 0.  1.
</event>
<event>
 4    1  0.1593135E+006  0.3134470E+02  0.7546771E-02  0.1408260E+00
          1   -1    0    0  503    0 -0.00000000000E+00  0.00000000000E+00  0.51536712961E+02  0.51536712961E+02  0.00000000000E+00 0.  1.
         21   -1    0    0  501  502  0.00000000000E+00 -0.00000000000E+00 -0.50367759104E+02  0.50367759104E+02  0.00000000000E+00 0. -1.
         21    1    1    2  503  502  0.13293497640E+02  0.28386146447E+02 -0.39584051406E+02  0.50491459825E+02  0.00000000000E+00 0. -1.
          1    1    1    2  501    0 -0.13293497640E+02 -0.28386146447E+02  0.40753005263E+02  0.51413012240E+02  0.00000000000E+00 0.  1.
</event>
<event>
 4    1  0.1593135E+006  0.3918723E+02  0.7546771E-02  0.1353316E+00
          2   -1    0    0  502    0 -0.00000000000E+00  0.00000000000E+00  0.13504638962E+04  0.13504638962E+04  0.00000000000E+00 0. -1.
         21   -1    0    0  503  502  0.00000000000E+00 -0.00000000000E+00 -0.92867948887E+01  0.92867948887E+01  0.00000000000E+00 0. -1.
         21    1    1    2  503  501  0.32724281440E+02  0.21558304403E+02  0.33695491460E+02  0.51681962320E+02  0.00000000000E+00 0. -1.
          2    1    1    2  501    0 -0.32724281440E+02 -0.21558304403E+02  0.13074816099E+04  0.13080687288E+04  0.00000000000E+00 0. -1.
</event>
<event>
 4    1  0.1593135E+006  0.3293504E+02  0.7546771E-02  0.1395692E+00
         21   -1    0    0  503  502  0.00000000000E+00  0.00000000000E+00  0.95194064402E+01  0.95194064402E+01  0.00000000000E+00 0.  1.
         -1   -1    0    0    0  501 -0.00000000000E+00 -0.00000000000E+00 -0.14905046954E+03  0.14905046954E+03  0.00000000000E+00 0.  1.
         21    1    1    2  503  501 -0.11202686483E+02  0.30971222447E+02 -0.31289241443E+02  0.45428332947E+02  0.00000000000E+00 0.  1.
         -1    1    1    2    0  502  0.11202686483E+02 -0.30971222447E+02 -0.10824182165E+03  0.11314154303E+03  0.00000000000E+00 0.  1.
</event>
<event>
 4    1  0.1593135E+006  0.3057151E+02  0.7546771E-02  0.1414694E+00
          1   -1    0    0  502    0 -0.00000000000E+00  0.00000000000E+00  0.79046457973E+01  0.79046457973E+01  0.00000000000E+00 0.  1.
         21   -1    0    0  503  502  0.00000000000E+00 -0.00000000000E+00 -0.22719204415E+03  0.22719204415E+03  0.00000000000E+00 0.  1.
         21    1    1    2  503  501 -0.30555091716E+02  0.10017155461E+01 -0.19104751720E+03  0.19347808892E+03  0.00000000000E+00 0.  1.
          1    1    1    2  501    0  0.30555091716E+02 -0.10017155461E+01 -0.28239881146E+02  0.41618601021E+02  0.00000000000E+00 0.  1.
</event>
<event>
 4    1  0.1593135E+006  0.2442569E+02  0.7546771E-02  0.1475332E+00
         -1   -1    0    0    0  501 -0.00000000000E+00  0.00000000000E+00  0.82165900321E+02  0.82165900321E+02  0.00000000000E+00 0. -1.
         21   -1    0    0  503  502  0.00000000000E+00 -0.00000000000E+00 -0.19361011389E+03  0.19361011389E+03  0.00000000000E+00 0.  1.
         21    1    1    2  503  501 -0.23762769481E+02 -0.56519942652E+01 -0.19099975112E+03  0.19255523670E+03  0.00000000000E+00 0.  1.
         -1    1    1    2    0  502  0.23762769481E+02  0.56519942652E+01  0.79555537557E+02  0.83220777505E+02  0.00000000000E+00 0. -1.
</event>
<event>
 4    1  0.1593135E+006  0.2182472E+02  0.7546771E-02  0.1507808E+00
          2   -1    0    0  502    0 -0.00000000000E+00  0.00000000000E+00  0.37697870087E+03  0.37697870087E+03  0.00000000000E+00 0.  1.
         21   -1    0    0  503  502  0.00000000000E+00 -0.00000000000E+00 -0.51655443322E+02  0.51655443322E+02  0.00000000000E+00 0. -1.
         21    1    1    2  503  501 -0.15848519187E+02 -0.15004760407E+02 -0.49018069592E+02  0.53657148096E+02  0.00000000000E+00 0. -1.
          2    1    1    2  501    0  0.15848519187E+02  0.15004760407E+02  0.37434132714E+03  0.37497699610E+03  0.00000000000E+00 0.  1.
</event>
<event>
 4    1  0.1593135E+006  0.2003877E+02  0.7546771E-02  0.1533444E+00
         -4   -1    0    0    0  501 -0.00000000000E+00  0.00000000000E+00  0.23900316939E+03  0.23900316939E+03  0.00000000000E+00 0. -1.
         21   -1    0    0  501  502  0.00000000000E+00 -0.00000000000E+00 -0.39375955187E+01  0.39375955187E+01  0.00000000000E+00 0. -1.
         21    1    1    2  503  502  0.18748871496E+01  0.19950866627E+02  0.25558365134E+02  0.32477412294E+02  0.00000000000E+00 0. -1.
         -4    1    1    2    0  503 -0.18748871496E+01 -0.19950866627E+02  0.20950720874E+03  0.21046335262E+03  0.00000000000E+00 0. -1.
</event>
<event>
 4    1  0.1593135E+006  0.2312638E+02  0.7546771E-02  0.1490917E+00
         -2   -1    0    0    0  501 -0.00000000000E+00  0.00000000000E+00  0.13026123724E+02  0.13026123724E+02  0.00000000000E+00 0.  1.
         21   -1    0    0  503  502  0.00000000000E+00 -0.00000000000E+00 -0.41857446742E+02  0.41857446742E+02  0.00000000000E+00 0. -1.
         21    1    1    2  503  501  0.18330703660E+02 -0.14100166367E+02 -0.18207609405E+02  0.29433763410E+02  0.00000000000E+00 0. -1.
         -2    1    1    2    0  502 -0.18330703660E+02  0.14100166367E+02 -0.10623713613E+02  0.25449807056E+02  0.00000000000E+00 0.  1.
</event>
<event>
 4    1  0.1593135E+006  0.3090649E+02  0.7546771E-02  0.1411879E+00
         -3   -1    0    0    0  501 -0.00000000000E+00  0.00000000000E+00  0.31679981160E+02  0.31679981160E+02  0.00000000000E+00 0.  1.
         21   -1    0    0  503  502  0.00000000000E+00 -0.00000000000E+00 -0.32538150645E+02  0.32538150645E+02  0.00000000000E+00 0.  1.
         21    1    1    2  503  501  0.11134889356E+02 -0.28830979047E+02  0.82663386537E+01  0.31992865901E+02  0.00000000000E+00 0.  1.
         -3    1    1    2    0  502 -0.11134889356E+02  0.28830979047E+02 -0.91245081388E+01  0.32225265904E+02  0.00000000000E+00 0.  1.
</event>
<event>
 4    1  0.1593135E+006  0.2471307E+02  0.7546771E-02  0.1472039E+00
         21   -1    0    0  501  502  0.00000000000E+00  0.00000000000E+00  0.14300017441E+03  0.14300017441E+03  0.00000000000E+00 0. -1.
         -1   -1    0    0    0  501 -0.00000000000E+00 -0.00000000000E+00 -0.11741053475E+02  0.11741053475E+02  0.00000000000E+00 0. -1.
         21    1    1    2  503  502  0.74063644602E+00  0.24701968420E+02  0.12734417432E+03  0.12971998504E+03  0.00000000000E+00 0. -1.
         -1    1    1    2    0  503 -0.74063644602E+00 -0.24701968420E+02  0.39149466097E+01  0.25021242838E+02  0.00000000000E+00 0. -1.
</event>
<event>
 4    1  0.1593135E+006  0.2002048E+02  0.7546771E-02  0.1533723E+00
          1   -1    0    0  503    0 -0.00000000000E+00  0.00000000000E+00  0.11561166895E+03  0.11561166895E+03  0.00000000000E+00 0. -1.
         21   -1    0    0  501  502  0.00000000000E+00 -0.00000000000E+00 -0.17743541450E+02  0.17743541450E+02  0.00000000000E+00 0.  1.
         21    1    1    2  503  502 -0.15251971743E+02  0.12969075660E+02 -0.10875708295E+02  0.22783779240E+02  0.00000000000E+00 0.  1.
          1    1    1    2  501    0  0.15251971743E+02 -0.12969075660E+02  0.10874383580E+03  0.11057143116E+03  0.00000000000E+00 0. -1.
</event>
<event>
 4    1  0.1593135E+006  0.2820722E+02  0.7546771E-02  0.1435844E+00
         21   -1    0    0  503  502  0.00000000000E+00  0.00000000000E+00  0.67654757515E+01  0.67654757515E+01  0.00000000000E+00 0.  1.
          2   -1    0    0  502    0 -0.00000000000E+00 -0.00000000000E+00 -0.32028218201E+03  0.32028218201E+03  0.00000000000E+00 0. -1.
         21    1    1    2  503  501  0.27226895816E+02 -0.73717825966E+01 -0.26676068917E+02  0.38823442497E+02  0.00000000000E+00 0.  1.
          2    1    1    2  501    0 -0.27226895816E+02  0.73717825966E+01 -0.28684063734E+03  0.28822421526E+03  0.00000000000E+00 0. -1.
</event>
<event>
 4    1  0.1593135E+006  0.2185550E+02  0.7546771E-02  0.1507392E+00
          1   -1    0    0  502    0 -0.00000000000E+00  0.00000000000E+00  0.22991858391E+02  0.22991858391E+02  0.00000000000E+00 0. -1.
         21   -1    0    0  503  502  0.00000000000E+00 -0.00000000000E+00 -0.79171744365E+02  0.79171744365E+02  0.00000000000E+00 0. -1.
         21    1    1    2  503  501  0.19151369837E+02  0.10530323402E+02 -0.71960617542E+02  0.75206337197E+02  0.00000000000E+00 0. -1.
          1    1    1    2  501    0 -0.19151369837E+02 -0.10530323402E+02  0.15780731568E+02  0.26957265558E+02  0.00000000000E+00 0. -1.
</event>
<event>
 4    1  0.1593135E+006  0.2509006E+02  0.7546771E-02  0.1467798E+00
          2   -1    0    0  503    0 -0.00000000000E+00  0.00000000000E+00  0.83868611327E+03  0.83868611327E+03  0.00000000000E+00 0. -1.
         21   -1    0    0  501  502  0.00000000000E+00 -0.00000000000E+00 -0.51477620997E+01  0.51477620997E+01  0.00000000000E+00 0. -1.
         21    1    1    2  503  502  0.21744028811E+02 -0.12518329440E+02  0.26823289215E+02  0.36728738138E+02  0.00000000000E+00 0. -1.
          2    1    1    2  501    0 -0.21744028811E+02  0.12518329440E+02  0.80671506195E+03  0.80710513723E+03  0.00000000000E+00 0. -1.
</event>
<event>
 4    1  0.1593135E+006  0.2578263E+02  0.7546771E-02  0.1460236E+00
          2   -1    0    0  502    0 -0.00000000000E+00  0.00000000000E+00  0.25512893243E+04  0.25512893243E+04  0.00000000000E+00 0. -1.
         21   -1    0    0  503  502  0.00000000000E+00 -0.00000000000E+00 -0.26069110310E+00  0.26069110310E+00  0.00000000000E+00 0. -1.
         21    1    1    2  503  501 -0.13684747978E+02 -0.21851122001E+02  0.13049708153E+04  0.13052254873E+04  0.00000000000E+00 0. -1.
          2    1    1    2  501    0  0.13684747978E+02  0.21851122001E+02  0.12460578179E+04  0.12463245281E+04  0.00000000000E+00 0. -1.
</event>
<event>
 4    1  0.1593135E+006  0.3250790E+02  0.7546771E-02  0.1398984E+00
         21   -1    0    0  503  502  0.00000000000E+00  0.00000000000E+00  0.13485101353E+03  0.13485101353E+03  0.00000000000E+00 0. -1.
          4   -1    0    0  502    0 -0.00000000000E+00 -0.00000000000E+00 -0.15421257841E+02  0.15421257841E+02  0.00000000000E+00 0.  1.
         21    1    1    2  503  501 -0.25800658674E+02  0.19775991515E+02  0.11240861442E+03  0.11701478720E+03  0.00000000000E+00 0. -1.
          4    1    1    2  501    0  0.25800658674E+02 -0.19775991515E+02  0.70211412699E+01  0.33257484167E+02  0.00000000000E+00 0.  1.
</event>
<event>
 4    1  0.1593135E+006  0.2377563E+02  0.7546771E-02  0.1482982E+00
         -1   -1    0    0    0  501 -0.00000000000E+00  0.00000000000E+00  0.16378937751E+02  0.16378937751E+02  0.00000000000E+00 0. -1.
         21   -1    0    0  503  502  0.00000000000E+00 -0.00000000000E+00 -0.70415450393E+02  0.70415450393E+02  0.00000000000E+00 0. -1.
         21    1    1    2  503  501  0.15375074015E+02  0.18135258439E+02 -0.58006135139E+02  0.62689649971E+02  0.00000000000E+00 0. -1.
         -1    1    1    2    0  502 -0.15375074015E+02 -0.18135258439E+02  0.39696224973E+01  0.24104738173E+02  0.00000000000E+00 0. -1.
</event>
<event>
 4    1  0.1593135E+006  0.2164998E+02  0.7546771E-02  0.1510184E+00
          2   -1    0    0  502    0 -0.00000000000E+00  0.00000000000E+00  0.93354962362E+03  0.93354962362E+03  0.00000000000E+00 0.  1.
         21   -1    0    0  503  502  0.00000000000E+00 -0.00000000000E+00 -0.20255995069E+01  0.20255995069E+01  0.00000000000E+00 0.  1.
         21    1    1    2  503  501 -0.37305181030E+01  0.21326157675E+02  0.60071225339E+02  0.63853534594E+02  0.00000000000E+00 0.  1.
          2    1    1    2  501    0  0.37305181030E+01 -0.21326157675E+02  0.87145279878E+03  0.87172168854E+03  0.00000000000E+00 0.  1.
</event>
<event>
 4    1  0.1593135E+006  0.2104256E+02  0.7546771E-02  0.1518658E+00
         21   -1    0    0  503  502  0.00000000000E+00  0.00000000000E+00  0.10184277585E+01  0.10184277585E+01  0.00000000000E+00 0.  1.
          1   -1    0    0  502    0 -0.00000000000E+00 -0.00000000000E+00 -0.75326684867E+03  0.75326684867E+03  0.00000000000E+00 0.  1.
         21    1    1    2  503  501 -0.14529970752E+02 -0.15220685908E+02 -0.13089129515E+03  0.13257194452E+03  0.00000000000E+00 0.  1.
          1    1    1    2  501    0  0.14529970752E+02  0.15220685908E+02 -0.62135712576E+03  0.62171333190E+03  0.00000000000E+00 0.  1.
</event>
<event>
 4    1  0.1593135E+006  0.2755359E+02  0.7546771E-02  0.1442125E+00
         -2   -1    0    0    0  501 -0.00000000000E+00  0.00000000000E+00  0.30860271475E+01  0.30860271475E+01  0.00000000000E+00 0.  1.
         21   -1    0    0  503  502  0.00000000000E+00 -0.00000000000E+00 -0.24837648380E+03  0.24837648380E+03  0.00000000000E+00 0.  1.
         21    1    1    2  503  501 -0.28138501034E+01  0.27409536728E+02 -0.13491210511E+03  0.13769704630E+03  0.00000000000E+00 0.  1.
         -2    1    1    2    0  502  0.28138501034E+01 -0.27409536728E+02 -0.11037835155E+03  0.11376546465E+03  0.00000000000E+00 0.  1.
</event>
<event>
 4    1  0.1593135E+006  0.2888922E+02  0.7546771E-02  0.1429501E+00
          2   -1    0    0  503    0 -0.00000000000E+00  0.00000000000E+00  0.64572705507E+03  0.64572705507E+03  0.00000000000E+00 0. -1.
         21   -1    0    0  501  502  0.00000000000E+00 -0.00000000000E+00 -0.18485736231E+01  0.18485736231E+01  0.00000000000E+00 0.  1.
         21    1    1    2  503  502  0.21469941481E+02 -0.19329476449E+02  0.14434967442E+03  0.14721214472E+03  0.00000000000E+00 0.  1.
          2    1    1    2  501    0 -0.21469941481E+02  0.19329476449E+02  0.49952880703E+03  0.50036348398E+03  0.00000000000E+00 0. -1.
</event>
<event>
 4    1  0.1593135E+006  0.2083872E+02  0.7546771E-02  0.1521580E+00
         21   -1    0    0  503  502  0.00000000000E+00  0.00000000000E+00  0.42351279785E+03  0.42351279785E+03  0.00000000000E+00 0.  1.
         -2   -1    0    0    0  501 -0.00000000000E+00 -0.00000000000E+00 -0.10262419335E+01  0.10262419335E+01  0.00000000000E+00 0. -1.
         21    1    1    2  503  501 -0.28429480475E+01 -0.20643878250E+02  0.21747449171E+03  0.21847060811E+03  0.00000000000E+00 0.  1.
         -2    1    1    2    0  502  0.28429480475E+01  0.20643878250E+02  0.20501206421E+03  0.20606843168E+03  0.00000000000E+00 0. -1.
</event>
<event>
 4    1  0.1593135E+006  0.2182025E+02  0.7546771E-02  0.1507869E+00
         21   -1    0    0  501  502  0.00000000000E+00  0.00000000000E+00  0.48609681767E+02  0.48609681767E+02  0.00000000000E+00 0. -1.
          3   -1    0    0  503    0 -0.00000000000E+00 -0.00000000000E+00 -0.21997419419E+02  0.21997419419E+02  0.00000000000E+00 0. -1.
         21    1    1    2  503  502 -0.15264190059E+02  0.15592552746E+02  0.39600251930E+02  0.45213970764E+02  0.00000000000E+00 0. -1.
          3    1    1    2  501    0  0.15264190059E+02 -0.15592552746E+02 -0.12987989582E+02  0.25393130423E+02  0.00000000000E+00 0. -1.
</event>
<event>
 4    1  0.1593135E+006  0.2226188E+02  0.7546771E-02  0.1501981E+00
         21   -1    0    0  501  502  0.00000000000E+00  0.00000000000E+00  0.10622097331E+03  0.10622097331E+03  0.00000000000E+00 0.  1.
          4   -1    0    0  503    0 -0.00000000000E+00 -0.00000000000E+00 -0.59776974115E+02  0.59776974115E+02  0.00000000000E+00 0. -1.
         21    1    1    2  503  502  0.18381409570E+02  0.12558467214E+02  0.10291609186E+03  0.10529631181E+03  0.00000000000E+00 0.  1.
          4    1    1    2  501    0 -0.18381409570E+02 -0.12558467214E+02 -0.56472092666E+02  0.60701635617E+02  0.00000000000E+00 0. -1.
</event>
<event>
 4    1  0.1593135E+006  0.2157527E+02  0.7546771E-02  0.1511208E+00
         21   -1    0    0  503  502  0.00000000000E+00  0.00000000000E+00  0.13792641572E+03  0.13792641572E+03  0.00000000000E+00 0.  1.
         -2   -1    0    0    0  501 -0.00000000000E+00 -0.00000000000E+00 -0.30398521052E+03  0.30398521052E+03  0.00000000000E+00 0. -1.
         21    1    1    2  503  501  0.90907237729E+01 -0.19566578336E+02  0.13669643459E+03  0.13838861036E+03  0.00000000000E+00 0.  1.
         -2    1    1    2    0  502 -0.90907237729E+01  0.19566578336E+02 -0.30275522939E+03  0.30352301588E+03  0.00000000000E+00 0. -1.
</event>
<event>
 4    1  0.1593135E+006  0.2095787E+02  0.7546771E-02  0.1519867E+00
         -2   -1    0    0    0  501 -0.00000000000E+00  0.00000000000E+00  0.11312046116E+03  0.11312046116E+03  0.00000000000E+00 0.  1.
         21   -1    0    0  503  502  0.00000000000E+00 -0.00000000000E+00 -0.14906623494E+02  0.14906623494E+02  0.00000000000E+00 0.  1.
         21    1    1    2  503  501  0.48226079452E+01  0.20395464559E+02 -0.59417577828E+01  0.21783870352E+02  0.00000000000E+00 0.  1.
         -2    1    1    2    0  502 -0.48226079452E+01 -0.20395464559E+02  0.10415559545E+03  0.10624321430E+03  0.00000000000E+00 0.  1.
</event>
<event>
 4    1  0.1593135E+006  0.3020982E+02  0.7546771E-02  0.1417782E+00
          2   -1    0    0  502    0 -0.00000000000E+00  0.00000000000E+00  0.51061158805E+03  0.51061158805E+03  0.00000000000E+00 0. -1.
         21   -1    0    0  503  502  0.00000000000E+00 -0.00000000000E+00 -0.28063036371E+02  0.28063036371E+02  0.00000000000E+00 0.  1.
         21    1    1    2  503  501 -0.31474305153E+01  0.30045410340E+02 -0.19344899684E+02  0.35872805091E+02  0.00000000000E+00 0.  1.
          2    1    1    2  501    0  0.31474305153E+01 -0.30045410340E+02  0.50189345136E+03  0.50280181933E+03  0.00000000000E+00 0. -1.
</event>
<event>
 4    1  0.1593135E+006  0.2542676E+02  0.7546771E-02  0.1464085E+00
          4   -1    0    0  502    0 -0.00000000000E+00  0.00000000000E+00  0.36595072004E+03  0.36595072004E+03  0.00000000000E+00 0.  1.
         21   -1    0    0  503  502  0.00000000000E+00 -0.00000000000E+00 -0.49894978214E+01  0.49894978214E+01  0.00000000000E+00 0.  1.
         21    1    1    2  503  501 -0.23963052962E+02 -0.85024811903E+01  0.31419975882E+02  0.40419487603E+02  0.00000000000E+00 0.  1.
          4    1    1    2  501    0  0.23963052962E+02  0.85024811903E+01  0.32954124634E+03  0.33052073026E+03  0.00000000000E+00 0.  1.
</event>
<event>
 4    1  0.1593135E+006  0.2190432E+02  0.7546771E-02  0.1506735E+00
          3   -1    0    0  502    0 -0.00000000000E+00  0.00000000000E+00  0.27003761203E+01  0.27003761203E+01  0.00000000000E+00 0.  1.
         21   -1    0    0  503  502  0.00000000000E+00 -0.00000000000E+00 -0.41497727729E+03  0.41497727729E+03  0.00000000000E+00 0.  1.
         21    1    1    2  503  501 -0.21904205370E+02 -0.69963400695E-01 -0.36406193759E+03  0.36472029490E+03  0.00000000000E+00 0.  1.
          3    1    1    2  501    0  0.21904205370E+02  0.69963400695E-01 -0.48214963580E+02  0.52957358514E+02  0.00000000000E+00 0.  1.
</event>
<event>
 4    1  0.1593135E+006  0.2048929E+02  0.7546771E-02  0.1526683E+00
          3   -1    0    0  502    0 -0.00000000000E+00  0.00000000000E+00  0.10997761227E+02  0.10997761227E+02  0.00000000000E+00 0.  1.
         21   -1    0    0  503  502  0.00000000000E+00 -0.00000000000E+00 -0.10127224703E+03  0.10127224703E+03  0.00000000000E+00 0.  1.
         21    1    1    2  503  501  0.20347256104E+02  0.24083864456E+01 -0.89447331823E+02  0.91764025231E+02  0.00000000000E+00 0.  1.
          3    1    1    2  501    0 -0.20347256104E+02 -0.24083864456E+01 -0.82715398112E+00  0.20505983028E+02  0.00000000000E+00 0.  1.
</event>
<event>
 4    1  0.1593135E+006  0.2057443E+02  0.7546771E-02  0.1525429E+00
         -1   -1    0    0    0  501 -0.00000000000E+00  0.00000000000E+00  0.24053810945E+03  0.24053810945E+03  0.00000000000E+00 0. -1.
         21   -1    0    0  503  502  0.00000000000E+00 -0.00000000000E+00 -0.19390434616E+01  0.19390434616E+01  0.00000000000E+00 0. -1.
         21    1    1    2  503  501  0.18399912766E+02  0.92059890818E+01  0.82441842281E+02  0.84970373563E+02  0.00000000000E+00 0. -1.
         -1    1    1    2    0  502 -0.18399912766E+02 -0.92059890818E+01  0.15615722371E+03  0.15750677935E+03  0.00000000000E+00 0. -1.
</event>
<event>
 4    1  0.1593135E+006  0.6005154E+02  0.7546771E-02  0.1259658E+00
         21   -1    0    0  503  502  0.00000000000E+00  0.00000000000E+00  0.85284369137E+03  0.85284369137E+03  0.00000000000E+00 0.  1.
         -4   -1    0    0    0  501 -0.00000000000E+00 -0.00000000000E+00 -0.10147602580E+03  0.10147602580E+03  0.00000000000E+00 0. -1.
         21    1    1    2  503  501 -0.59967332782E+02  0.31791255172E+01  0.84279647130E+03  0.84493318072E+03  0.00000000000E+00 0.  1.
         -4    1    1    2    0  502  0.59967332782E+02 -0.31791255172E+01 -0.91428805734E+02  0.10938653646E+03  0.00000000000E+00 0. -1.
</event>
<event>
 4    1  0.1593135E+006  0.2105479E+02  0.7546771E-02  0.1518484E+00
         21   -1    0    0  501  502  0.00000000000E+00  0.00000000000E+00  0.11678593478E+03  0.11678593478E+03  0.00000000000E+00 0. -1.
          2   -1    0    0  503    0 -0.00000000000E+00 -0.00000000000E+00 -0.90496331943E+01  0.90496331943E+01  0.00000000000E+00 0. -1.
         21    1    1    2  503  502 -0.19903367579E+02  0.68673249801E+01  0.10180761638E+03  0.10396198798E+03  0.00000000000E+00 0. -1.
          2    1    1    2  501    0  0.19903367579E+02 -0.68673249801E+01  0.59286852126E+01  0.21873579993E+02  0.00000000000E+00 0. -1.
</event>
<event>
 4    1  0.1593135E+006  0.2538065E+02  0.7546771E-02  0.1464590E+00
         21   -1    0    0  501  502  0.00000000000E+00  0.00000000000E+00  0.48401746333E+02  0.48401746333E+02  0.00000000000E+00 0.  1.
         -4   -1    0    0    0  501 -0.00000000000E+00 -0.00000000000E+00 -0.49350249344E+03  0.49350249344E+03  0.00000000000E+00 0. -1.
         21    1    1    2  503  502  0.25190792965E+02 -0.30986165000E+01  0.44723203397E+02  0.51423169841E+02  0.00000000000E+00 0.  1.
         -4    1    1    2    0  503 -0.25190792965E+02  0.30986165000E+01 -0.48982395050E+03  0.49048106993E+03  0.00000000000E+00 0. -1.
</event>
<event>
 4    1  0.1593135E+006  0.3041167E+02  0.7546771E-02  0.1416052E+00
         21   -1    0    0  503  502  0.00000000000E+00  0.00000000000E+00  0.77364524344E+01  0.77364524344E+01  0.00000000000E+00 0.  1.
          2   -1    0    0  502    0 -0.00000000000E+00 -0.00000000000E+00 -0.16655486475E+03  0.16655486475E+03  0.00000000000E+00 0.  1.
         21    1    1    2  503  501 -0.29599415248E+02  0.69816951354E+01 -0.33112244070E+02  0.44958760630E+02  0.00000000000E+00 0.  1.
          2    1    1    2  501    0  0.29599415248E+02 -0.69816951354E+01 -0.12570616825E+03  0.12933255656E+03  0.00000000000E+00 0.  1.
</event>
<event>
 4    1  0.1593135E+006  0.2027833E+02  0.7546771E-02  0.1529823E+00
         -1   -1    0    0    0  501 -0.00000000000E+00  0.00000000000E+00  0.25274324697E+02  0.25274324697E+02  0.00000000000E+00 0. -1.
         21   -1    0    0  503  502  0.00000000000E+00 -0.00000000000E+00 -0.49429565839E+02  0.49429565839E+02  0.00000000000E+00 0. -1.
         21    1    1    2  503  501 -0.17799041255E+02  0.97162116333E+01 -0.42670821883E+02  0.47244149672E+02  0.00000000000E+00 0. -1.
         -1    1    1    2    0  502  0.17799041255E+02 -0.97162116333E+01  0.18515580742E+02  0.27459740864E+02  0.00000000000E+00 0. -1.
</event>
<event>
 4    1  0.1593135E+006  0.2738913E+02  0.7546771E-02  0.1443738E+00
         21   -1    0    0  503  502  0.00000000000E+00  0.00000000000E+00  0.50581012509E+01  0.50581012509E+01  0.00000000000E+00 0. -1.
          2   -1    0    0  502    0 -0.00000000000E+00 -0.00000000000E+00 -0.70977484994E+03  0.70977484994E+03  0.00000000000E+00 0. -1.
         21    1    1    2  503  501  0.23995020386E+02  0.13206181794E+02 -0.34469182807E+02  0.44026001457E+02  0.00000000000E+00 0. -1.
          2    1    1    2  501    0 -0.23995020386E+02 -0.13206181794E+02 -0.67024756588E+03  0.67080694973E+03  0.00000000000E+00 0. -1.
</event>
<event>
 4    1  0.1593135E+006  0.2274820E+02  0.7546771E-02  0.1495684E+00
          3   -1    0    0  503    0 -0.00000000000E+00  0.00000000000E+00  0.32363531171E+02  0.32363531171E+02  0.00000000000E+00 0. -1.
         21   -1    0    0  501  502  0.00000000000E+00 -0.00000000000E+00 -0.71503937546E+02  0.71503937546E+02  0.00000000000E+00 0. -1.
         21    1    1    2  503  502  0.22435016650E+02  0.37617542712E+01 -0.65330312309E+02  0.69177528676E+02  0.00000000000E+00 0. -1.
          3    1    1    2  501    0 -0.22435016650E+02 -0.37617542712E+01  0.26189905933E+02  0.34689940041E+02  0.00000000000E+00 0. -1.
</event>
<event>
 4    1  0.1593135E+006  0.3011253E+02  0.7546771E-02  0.1418621E+00
         21   -1    0    0  501  502  0.00000000000E+00  0.00000000000E+00  0.19836849252E+01  0.19836849252E+01  0.00000000000E+00 0.  1.
         -3   -1    0    0    0  501 -0.00000000000E+00 -0.00000000000E+00 -0.58301121983E+03  0.58301121983E+03  0.00000000000E+00 0.  1.
         21    1    1    2  503  502 -0.17036445193E+02 -0.24829898423E+02 -0.15458957210E+03  0.15749507968E+03  0.00000000000E+00 0.  1.
         -3    1    1    2    0  503  0.17036445193E+02  0.24829898423E+02 -0.42643796280E+03  0.42749982508E+03  0.00000000000E+00 0.  1.
</event>
<event>
 4    1  0.1593135E+006  0.2733469E+02  0.7546771E-02  0.1444275E+00
         21   -1    0    0  503  502  0.00000000000E+00  0.00000000000E+00  0.10647014952E+01  0.10647014952E+01  0.00000000000E+00 0.  1.
         -4   -1    0    0    0  501 -0.00000000000E+00 -0.00000000000E+00 -0.21156254809E+04  0.21156254809E+04  0.00000000000E+00 0.  1.
         21    1    1    2  503  501 -0.85011476124E+01  0.25979141048E+02 -0.19209532431E+03  0.19403040716E+03  0.00000000000E+00 0.  1.
         -4    1    1    2    0  502  0.85011476124E+01 -0.25979141048E+02 -0.19224654551E+04  0.19226597752E+04  0.00000000000E+00 0.  1.
</event>
<event>
 4    1  0.1593135E+006  0.3928956E+02  0.7546771E-02  0.1352700E+00
         21   -1    0    0  503  502  0.00000000000E+00  0.00000000000E+00  0.15808579504E+02  0.15808579504E+02  0.00000000000E+00 0.  1.
         -4   -1    0    0    0  501 -0.00000000000E+00 -0.00000000000E+00 -0.98579535847E+02  0.98579535847E+02  0.00000000000E+00 0.  1.
         21    1    1    2  503  501  0.26019589336E+02 -0.29438927465E+02 -0.46946517469E+02  0.61218011908E+02  0.00000000000E+00 0.  1.
         -4    1    1    2    0  502 -0.26019589336E+02  0.29438927465E+02 -0.35824438874E+02  0.53170103443E+02  0.00000000000E+00 0.  1.
</event>
<event>
 4    1  0.1593135E+006  0.2886080E+02  0.7546771E-02  0.1429761E+00
          3   -1    0    0  502    0 -0.00000000000E+00  0.00000000000E+00  0.37179521944E+02  0.37179521944E+02  0.00000000000E+00 0. -1.
         21   -1    0    0  503  502  0.00000000000E+00 -0.00000000000E+00 -0.41373033700E+02  0.41373033700E+02  0.00000000000E+00 0.  1.
         21    1    1    2  503  501 -0.27603959430E+02  0.84241902692E+01 -0.28691864744E+02  0.40696052147E+02  0.00000000000E+00 0.  1.
          3    1    1    2  501    0  0.27603959430E+02 -0.84241902692E+01  0.24498352988E+02  0.37856503497E+02  0.00000000000E+00 0. -1.
</event>
<event>
 4    1  0.1593135E+006  0.2872183E+02  0.7546771E-02  0.1431039E+00
          3   -1    0    0  502    0 -0.00000000000E+00  0.00000000000E+00  0.26511058964E+02  0.26511058964E+02  0.00000000000E+00 0. -1.
         21   -1    0    0  503  502  0.00000000000E+00 -0.00000000000E+00 -0.80336148531E+02  0.80336148531E+02  0.00000000000E+00 0. -1.
         21    1    1    2  503  501  0.12434104057E+01 -0.28694902294E+02 -0.68728778458E+02  0.74488847993E+02  0.00000000000E+00 0. -1.
          3    1    1    2  501    0 -0.12434104057E+01  0.28694902294E+02  0.14903688890E+02  0.32358359502E+02  0.00000000000E+00 0. -1.
</event>
<event>
 4    1  0.1593135E+006  0.3945045E+02  0.7546771E-02  0.1351737E+00
         -2   -1    0    0    0  501 -0.00000000000E+00  0.00000000000E+00  0.16514621869E+03  0.16514621869E+03  0.00000000000E+00 0. -1.
         21   -1    0    0  503  502  0.00000000000E+00 -0.00000000000E+00 -0.65772803011E+03  0.65772803011E+03  0.00000000000E+00 0.  1.
         21    1    1    2  503  501  0.39227220696E+02  0.41908543158E+01 -0.65476983697E+03  0.65595722231E+03  0.00000000000E+00 0.  1.
         -2    1    1    2    0  502 -0.39227220696E+02 -0.41908543158E+01  0.16218802554E+03  0.16691702649E+03  0.00000000000E+00 0. -1.
</event>
<event>
 4    1  0.1593135E+006  0.2329750E+02  0.7546771E-02  0.1488796E+00
          3   -1    0    0  503    0 -0.00000000000E+00  0.00000000000E+00  0.20639402930E+02  0.20639402930E+02  0.00000000000E+00 0.  1.
         21   -1    0    0  501  502  0.00000000000E+00 -0.00000000000E+00 -0.67220121358E+03  0.67220121358E+03  0.00000000000E+00 0. -1.
         21    1    1    2  503  502  0.22209258601E+02 -0.70372266876E+01 -0.66535725960E+03  0.66576501608E+03  0.00000000000E+00 0. -1.
          3    1    1    2  501    0 -0.22209258601E+02  0.70372266876E+01  0.13795448952E+02  0.27075600434E+02  0.00000000000E+00 0.  1.
</event>
<event>
 4    1  0.1593135E+006  0.2756090E+02  0.7546771E-02  0.1442054E+00
         -3   -1    0    0    0  501 -0.00000000000E+00  0.00000000000E+00  0.14257618894E+02  0.14257618894E+02  0.00000000000E+00 0.  1.
         21   -1    0    0  503  502  0.00000000000E+00 -0.00000000000E+00 -0.56300048970E+02  0.56300048970E+02  0.00000000000E+00 0.  1.
         21    1    1    2  503  501 -0.25707841150E+02  0.99352903003E+01 -0.29196121443E+02  0.40149926491E+02  0.00000000000E+00 0.  1.
         -3    1    1    2    0  502  0.25707841150E+02 -0.99352903003E+01 -0.12846308633E+02  0.30407741373E+02  0.00000000000E+00 0.  1.
</event>
<event>
 4    1  0.1593135E+006  0.2143532E+02  0.7546771E-02  0.1513139E+00
         21   -1    0    0  501  502  0.00000000000E+00  0.00000000000E+00  0.12119851878E+02  0.12119851878E+02  0.00000000000E+00 0. -1.
          2   -1    0    0  503    0 -0.00000000000E+00 -0.00000000000E+00 -0.50280203656E+03  0.50280203656E+03  0.00000000000E+00 0. -1.
         21    1    1    2  503  502  0.21406410246E+02  0.11129333554E+01  0.22235017964E+01  0.21550335972E+02  0.00000000000E+00 0. -1.
          2    1    1    2  501    0 -0.21406410246E+02 -0.11129333554E+01 -0.49290568648E+03  0.49337155247E+03  0.00000000000E+00 0. -1.
</event>
<event>
 4    1  0.1593135E+006  0.2154115E+02  0.7546771E-02  0.1511677E+00
         21   -1    0    0  501  502  0.00000000000E+00  0.00000000000E+00  0.12854303442E+03  0.12854303442E+03  0.00000000000E+00 0.  1.
         -2   -1    0    0    0  501 -0.00000000000E+00 -0.00000000000E+00 -0.59753826867E+02  0.59753826867E+02  0.00000000000E+00 0. -1.
         21    1    1    2  503  502  0.11161695621E+02 -0.18423833374E+02  0.12565488622E+03  0.12748792694E+03  0.00000000000E+00 0.  1.
         -2    1    1    2    0  503 -0.11161695621E+02  0.18423833374E+02 -0.56865678668E+02  0.60808934341E+02  0.00000000000E+00 0. -1.
</event>
<event>
 4    1  0.1593135E+006  0.3034982E+02  0.7546771E-02  0.1416580E+00
         21   -1    0    0  501  502  0.00000000000E+00  0.00000000000E+00  0.82185395627E+01  0.82185395627E+01  0.00000000000E+00 0. -1.
         -4   -1    0    0    0  501 -0.00000000000E+00 -0.00000000000E+00 -0.15167530952E+03  0.15167530952E+03  0.00000000000E+00 0.  1.
         21    1    1    2  503  502 -0.58490152707E+01 -0.29780875663E+02 -0.30879413993E+02  0.43297225586E+02  0.00000000000E+00 0. -1.
         -4    1    1    2    0  503  0.58490152707E+01  0.29780875663E+02 -0.11257735596E+03  0.11659662349E+03  0.00000000000E+00 0.  1.
</event>
<event>
 4    1  0.1593135E+006  0.2665996E+02  0.7546771E-02  0.1451054E+00
         21   -1    0    0  501  502  0.00000000000E+00  0.00000000000E+00  0.52470432077E+00  0.52470432077E+00  0.00000000000E+00 0.  1.
          1   -1    0    0  503    0 -0.00000000000E+00 -0.00000000000E+00 -0.14954588707E+04  0.14954588707E+04  0.00000000000E+00 0. -1.
         21    1    1    2  503  502  0.34478891100E+01  0.26436066949E+02 -0.51788726375E+03  0.51857301465E+03  0.00000000000E+00 0.  1.
          1    1    1    2  501    0 -0.34478891100E+01 -0.26436066949E+02 -0.97704690262E+03  0.97741056036E+03  0.00000000000E+00 0. -1.
</event>
<event>
 4    1  0.1593135E+006  0.2044169E+02  0.7546771E-02  0.1527387E+00
         -3   -1    0    0    0  501 -0.00000000000E+00  0.00000000000E+00  0.31320590058E+02  0.31320590058E+02  0.00000000000E+00 0. -1.
         21   -1    0    0  503  502  0.00000000000E+00 -0.00000000000E+00 -0.19046641149E+02  0.19046641149E+02  0.00000000000E+00 0. -1.
         21    1    1    2  503  501  0.14931389527E+02 -0.13961239824E+02 -0.76460124857E+01  0.21824850917E+02  0.00000000000E+00 0. -1.
         -3    1    1    2    0  502 -0.14931389527E+02  0.13961239824E+02  0.19919961394E+02  0.28542380290E+02  0.00000000000E+00 0. -1.
</event>
<event>
 4    1  0.1593135E+006  0.2524393E+02  0.7546771E-02  0.1466093E+00
         21   -1    0    0  501  502  0.00000000000E+00  0.00000000000E+00  0.57737507363E+00  0.57737507363E+00  0.00000000000E+00 0. -1.
          2   -1    0    0  503    0 -0.00000000000E+00 -0.00000000000E+00 -0.12168728292E+04  0.12168728292E+04  0.00000000000E+00 0.  1.
         21    1    1    2  503  502  0.53007426238E+01  0.24681124022E+02 -0.42251830437E+03  0.42327174875E+03  0.00000000000E+00 0. -1.
          2    1    1    2  501    0 -0.53007426238E+01 -0.24681124022E+02 -0.79377714978E+03  0.79417845556E+03  0.00000000000E+00 0.  1.
</event>
<event>
 4    1  0.1593135E+006  0.2817609E+02  0.7546771E-02  0.1436139E+00
         21   -1    0    0  501  502  0.00000000000E+00  0.00000000000E+00  0.40468597536E+02  0.40468597536E+02  0.00000000000E+00 0.  1.
          1   -1    0    0  503    0 -0.00000000000E+00 -0.00000000000E+00 -0.22769056134E+02  0.22769056134E+02  0.00000000000E+00 0.  1.
         21    1    1    2  503  502 -0.25452190034E+02  0.12086285206E+02  0.20613269665E+02  0.34911304099E+02  0.00000000000E+00 0.  1.
          1    1    1    2  501    0  0.25452190034E+02 -0.12086285206E+02 -0.29137282635E+01  0.28326349571E+02  0.00000000000E+00 0.  1.
</event>
<event>
 4    1  0.1593135E+006  0.3118534E+02  0.7546771E-02  0.1409568E+00
         21   -1    0    0  501  502  0.00000000000E+00  0.00000000000E+00  0.18520749248E+03  0.18520749248E+03  0.00000000000E+00 0.  1.
         -1   -1    0    0    0  501 -0.00000000000E+00 -0.00000000000E+00 -0.22822688254E+02  0.22822688254E+02  0.00000000000E+00 0. -1.
         21    1    1    2  503  502  0.13596245621E+02 -0.28065416107E+02  0.17246063340E+03  0.17525751210E+03  0.00000000000E+00 0.  1.
         -1    1    1    2    0  503 -0.13596245621E+02  0.28065416107E+02 -0.10075829166E+02  0.32772668637E+02  0.00000000000E+00 0. -1.
</event>
<event>
 4    1  0.1593135E+006  0.3920277E+02  0.7546771E-02  0.1353222E+00
          2   -1    0    0  503    0 -0.00000000000E+00  0.00000000000E+00  0.19153872735E+03  0.19153872735E+03  0.00000000000E+00 0.  1.
         21   -1    0    0  501  502  0.00000000000E+00 -0.00000000000E+00 -0.19639034179E+02  0.19639034179E+02  0.00000000000E+00 0. -1.
         21    1    1    2  503  502  0.34455785445E+02 -0.18699094871E+02  0.47466368680E+01  0.39489085342E+02  0.00000000000E+00 0. -1.
          2    1    1    2  501    0 -0.34455785445E+02  0.18699094871E+02  0.16715305630E+03  0.17168867618E+03  0.00000000000E+00 0.  1.
</event>
<event>
 4    1  0.1593135E+006  0.2833540E+02  0.7546771E-02  0.1434636E+00
         21   -1    0    0  501  502  0.00000000000E+00  0.00000000000E+00  0.13822294945E+03  0.13822294945E+03  0.00000000000E+00 0. -1.
         -3   -1    0    0    0  501 -0.00000000000E+00 -0.00000000000E+00 -0.20901727859E+02  0.20901727859E+02  0.00000000000E+00 0. -1.
         21    1    1    2  503  502  0.24013289703E+02 -0.15041831760E+02  0.12626964348E+03  0.12940988235E+03  0.00000000000E+00 0. -1.
         -3    1    1    2    0  503 -0.24013289703E+02  0.15041831760E+02 -0.89484218905E+01  0.29714794958E+02  0.00000000000E+00 0. -1.
</event>
<event>
 4    1  0.1593135E+006  0.2394194E+02  0.7546771E-02  0.1480997E+00
         21   -1    0    0  503  502  0.00000000000E+00  0.00000000000E+00  0.14052006400E+04  0.14052006400E+04  0.00000000000E+00 0.  1.
         -2   -1    0    0    0  501 -0.00000000000E+00 -0.00000000000E+00 -0.10064300052E+01  0.10064300052E+01  0.00000000000E+00 0. -1.
         21    1    1    2  503  501  0.15331620749E+02  0.18389074885E+02  0.12442993799E+04  0.12445296957E+04  0.00000000000E+00 0.  1.
         -2    1    1    2    0  502 -0.15331620749E+02 -0.18389074885E+02  0.15989483011E+03  0.16167737432E+03  0.00000000000E+00 0. -1.
</event>
<event>
 4    1  0.1593135E+006  0.5820261E+02  0.7546771E-02  0.1266065E+00
         21   -1    0    0  501  502  0.00000000000E+00  0.00000000000E+00  0.60534798378E+02  0.60534798378E+02  0.00000000000E+00 0.  1.
         -1   -1    0    0    0  501 -0.00000000000E+00 -0.00000000000E+00 -0.16028916583E+03  0.16028916583E+03  0.00000000000E+00 0. -1.
         21    1    1    2  503  502 -0.56328426480E+02 -0.14651024201E+02  0.39199986292E+02  0.70172523577E+02  0.00000000000E+00 0.  1.
         -1    1    1    2    0  503  0.56328426480E+02  0.14651024201E+02 -0.13895435375E+03  0.15065144063E+03  0.00000000000E+00 0. -1.
</event>
<event>
 4    1  0.1593135E+006  0.3825976E+02  0.7546771E-02  0.1358997E+00
          3   -1    0    0  503    0 -0.00000000000E+00  0.00000000000E+00  0.31146009434E+03  0.31146009434E+03  0.00000000000E+00 0. -1.
         21   -1    0    0  501  502  0.00000000000E+00 -0.00000000000E+00 -0.55802270227E+01  0.55802270227E+01  0.00000000000E+00 0. -1.
         21    1    1    2  503  502 -0.32040549433E+02  0.20909633390E+02  0.89975139463E+02  0.97771853300E+02  0.00000000000E+00 0. -1.
          3    1    1    2  501    0  0.32040549433E+02 -0.20909633390E+02  0.21590472785E+03  0.21926846806E+03  0.00000000000E+00 0. -1.
</event>
<event>
 4    1  0.1593135E+006  0.2888643E+02  0.7546771E-02  0.1429526E+00
         21   -1    0    0  503  502  0.00000000000E+00  0.00000000000E+00  0.73808526811E+00  0.73808526811E+00  0.00000000000E+00 0.  1.
          2   -1    0    0  502    0 -0.00000000000E+00 -0.00000000000E+00 -0.15555813271E+04  0.15555813271E+04  0.00000000000E+00 0. -1.
         21    1    1    2  503  501 -0.17115566597E+02  0.23269793103E+02 -0.37065603135E+03  0.37177993419E+03  0.00000000000E+00 0.  1.
          2    1    1    2  501    0  0.17115566597E+02 -0.23269793103E+02 -0.11841872105E+04  0.11845394782E+04  0.00000000000E+00 0. -1.
</event>
<event>
 4    1  0.1593135E+006  0.4095890E+02  0.7546771E-02  0.1342956E+00
         21   -1    0    0  503  502  0.00000000000E+00  0.00000000000E+00  0.22009793499E+01  0.22009793499E+01  0.00000000000E+00 0. -1.
          2   -1    0    0  502    0 -0.00000000000E+00 -0.00000000000E+00 -0.95564554081E+03  0.95564554081E+03  0.00000000000E+00 0.  1.
         21    1    1    2  503  501  0.22714639491E+02  0.34083377053E+02 -0.26125867058E+03  0.26444985232E+03  0.00000000000E+00 0. -1.
          2    1    1    2  501    0 -0.22714639491E+02 -0.34083377053E+02 -0.69218589087E+03  0.69339666783E+03  0.00000000000E+00 0.  1.
</event>
<event>
 4    1  0.1593135E+006  0.4927696E+02  0.7546771E-02  0.1301338E+00
         21   -1    0    0  501  502  0.00000000000E+00  0.00000000000E+00  0.44262098615E+03  0.44262098615E+03  0.00000000000E+00 0. -1.
         -2   -1    0    0    0  501 -0.00000000000E+00 -0.00000000000E+00 -0.27515486631E+02  0.27515486631E+02  0.00000000000E+00 0.  1.
         21    1    1    2  503  502 -0.49208650856E+02  0.25937815513E+01  0.41788580572E+03  0.42078113746E+03  0.00000000000E+00 0. -1.
         -2    1    1    2    0  503  0.49208650856E+02 -0.25937815513E+01 -0.27803062011E+01  0.49355335318E+02  0.00000000000E+00 0.  1.
</event>
<event>
 4    1  0.1593135E+006  0.4898430E+02  0.7546771E-02  0.1302637E+00
         21   -1    0    0  503  502  0.00000000000E+00  0.00000000000E+00  0.44693836748E+01  0.44693836748E+01  0.00000000000E+00 0. -1.
          1   -1    0    0  502    0 -0.00000000000E+00 -0.00000000000E+00 -0.25224914084E+04  0.25224914084E+04  0.00000000000E+00 0.  1.
         21    1    1    2  503  501 -0.30264597445E+02  0.38516429588E+02 -0.13801957684E+03  0.14645430959E+03  0.00000000000E+00 0. -1.
          1    1    1    2  501    0  0.30264597445E+02 -0.38516429588E+02 -0.23800024479E+04  0.23805064825E+04  0.00000000000E+00 0.  1.
</event>
<event>
 4    1  0.1593135E+006  0.2219200E+02  0.7546771E-02  0.1502901E+00
          1   -1    0    0  503    0 -0.00000000000E+00  0.00000000000E+00  0.63414951385E+03  0.63414951385E+03  0.00000000000E+00 0.  1.
         21   -1    0    0  501  502  0.00000000000E+00 -0.00000000000E+00 -0.54908534644E+02  0.54908534644E+02  0.00000000000E+00 0. -1.
         21    1    1    2  503  502  0.49666250332E+01  0.21629091382E+02 -0.52463409409E+02  0.56963973571E+02  0.00000000000E+00 0. -1.
          1    1    1    2  501    0 -0.49666250332E+01 -0.21629091382E+02  0.63170438861E+03  0.63209407492E+03  0.00000000000E+00 0.  1.
</event>
<event>
 4    1  0.1593135E+006  0.3447170E+02  0.7546771E-02  0.1384316E+00
         21   -1    0    0  501  502  0.00000000000E+00  0.00000000000E+00  0.30473219895E+03  0.30473219895E+03  0.00000000000E+00 0.  1.
         -2   -1    0    0    0  501 -0.00000000000E+00 -0.00000000000E+00 -0.17827689863E+02  0.17827689863E+02  0.00000000000E+00 0.  1.
         21    1    1    2  503  502 -0.29763765655E+02  0.17390122134E+02  0.28600659028E+03  0.28807649640E+03  0.00000000000E+00 0.  1.
         -2    1    1    2    0  503  0.29763765655E+02 -0.17390122134E+02  0.89791880101E+00  0.34483392409E+02  0.00000000000E+00 0.  1.
</event>
<event>
 4    1  0.1593135E+006  0.3054127E+02  0.7546771E-02  0.1414950E+00
         -3   -1    0    0    0  501 -0.00000000000E+00  0.00000000000E+00  0.18978107713E+03  0.18978107713E+03  0.00000000000E+00 0. -1.
         21   -1    0    0  501  502  0.00000000000E+00 -0.00000000000E+00 -0.18417926409E+03  0.18417926409E+03  0.00000000000E+00 0. -1.
         21    1    1    2  503  502  0.28379853832E+02 -0.11285091913E+02 -0.18166753372E+03  0.18421688905E+03  0.00000000000E+00 0. -1.
         -3    1    1    2    0  503 -0.28379853832E+02  0.11285091913E+02  0.18726934677E+03  0.18974345217E+03  0.00000000000E+00 0. -1.
</event>
<event>
 4    1  0.1593135E+006  0.2168629E+02  0.7546771E-02  0.1509688E+00
         21   -1    0    0  503  502  0.00000000000E+00  0.00000000000E+00  0.13990469445E+03  0.13990469445E+03  0.00000000000E+00 0. -1.
          2   -1    0    0  502    0 -0.00000000000E+00 -0.00000000000E+00 -0.89686520850E+03  0.89686520850E+03  0.00000000000E+00 0. -1.
         21    1    1    2  503  501  0.20558473582E+02  0.69024769792E+01  0.13893230368E+03  0.14061465084E+03  0.00000000000E+00 0. -1.
          2    1    1    2  501    0 -0.20558473582E+02 -0.69024769792E+01 -0.89589281773E+03  0.89615525211E+03  0.00000000000E+00 0. -1.
</event>
<event>
 4    1  0.1593135E+006  0.2905195E+02  0.7546771E-02  0.1428018E+00
          1   -1    0    0  502    0 -0.00000000000E+00  0.00000000000E+00  0.43373066935E+03  0.43373066935E+03  0.00000000000E+00 0. -1.
         21   -1    0    0  503  502  0.00000000000E+00 -0.00000000000E+00 -0.11991324072E+03  0.11991324072E+03  0.00000000000E+00 0.  1.
         21    1    1    2  503  501 -0.26029743249E+02 -0.12902252795E+02 -0.11765792932E+03  0.12119160034E+03  0.00000000000E+00 0.  1.
          1    1    1    2  501    0  0.26029743249E+02  0.12902252795E+02  0.43147535796E+03  0.43245230973E+03  0.00000000000E+00 0. -1.
</event>
<event>
 4    1  0.1593135E+006  0.2099074E+02  0.7546771E-02  0.1519397E+00
          1   -1    0    0  503    0 -0.00000000000E+00  0.00000000000E+00  0.10228197219E+03  0.10228197219E+03  0.00000000000E+00 0.  1.
         21   -1    0    0  501  502  0.00000000000E+00 -0.00000000000E+00 -0.32490702913E+03  0.32490702913E+03  0.00000000000E+00 0. -1.
         21    1    1    2  503  502  0.19197934189E+02  0.84882541065E+01 -0.32348632356E+03  0.32416664336E+03  0.00000000000E+00 0. -1.
          1    1    1    2  501    0 -0.19197934189E+02 -0.84882541065E+01  0.10086126663E+03  0.10302235796E+03  0.00000000000E+00 0.  1.
</event>
<event>
 4    1  0.1593135E+006  0.2002154E+02  0.7546771E-02  0.1533707E+00
         21   -1    0    0  501  502  0.00000000000E+00  0.00000000000E+00  0.16741811257E+03  0.16741811257E+03  0.00000000000E+00 0.  1.
         -1   -1    0    0    0  501 -0.00000000000E+00 -0.00000000000E+00 -0.30966585863E+01  0.30966585863E+01  0.00000000000E+00 0. -1.
         21    1    1    2  503  502  0.19904635348E+02 -0.21604497487E+01  0.12276212969E+03  0.12438409278E+03  0.00000000000E+00 0.  1.
         -1    1    1    2    0  503 -0.19904635348E+02  0.21604497487E+01  0.41559324294E+02  0.46130678374E+02  0.00000000000E+00 0. -1.
</event>
<event>
 4    1  0.1593135E+006  0.2351449E+02  0.7546771E-02  0.1486137E+00
          3   -1    0    0  503    0 -0.00000000000E+00  0.00000000000E+00  0.57590099004E+02  0.57590099004E+02  0.00000000000E+00 0. -1.
         21   -1    0    0  501  502  0.00000000000E+00 -0.00000000000E+00 -0.10474448004E+02  0.10474448004E+02  0.00000000000E+00 0. -1.
         21    1    1    2  503  502 -0.20084626064E+01  0.23428552783E+02  0.13731133039E+02  0.27230038966E+02  0.00000000000E+00 0. -1.
          3    1    1    2  501    0  0.20084626064E+01 -0.23428552783E+02  0.33384517961E+02  0.40834508042E+02  0.00000000000E+00 0. -1.
</event>
<event>
 4    1  0.1593135E+006  0.2080594E+02  0.7546771E-02  0.1522054E+00
         21   -1    0    0  501  502  0.00000000000E+00  0.00000000000E+00  0.27434966839E+01  0.27434966839E+01  0.00000000000E+00 0. -1.
          3   -1    0    0  503    0 -0.00000000000E+00 -0.00000000000E+00 -0.15923248150E+03  0.15923248150E+03  0.00000000000E+00 0.  1.
         21    1    1    2  503  502  0.18512015798E+02 -0.94969604248E+01 -0.70527063316E+02  0.73531990631E+02  0.00000000000E+00 0. -1.
          3    1    1    2  501    0 -0.18512015798E+02  0.94969604248E+01 -0.85961921496E+02  0.88443987548E+02  0.00000000000E+00 0.  1.
</event>
<event>
 4    1  0.1593135E+006  0.2364518E+02  0.7546771E-02  0.1484552E+00
         -3   -1    0    0    0  501 -0.00000000000E+00  0.00000000000E+00  0.99144124387E+02  0.99144124387E+02  0.00000000000E+00 0. -1.
         21   -1    0    0  501  502  0.00000000000E+00 -0.00000000000E+00 -0.52602648807E+02  0.52602648807E+02  0.00000000000E+00 0. -1.
         21    1    1    2  503  502  0.20008312389E+02 -0.12600087325E+02 -0.48420420408E+02  0.53885358659E+02  0.00000000000E+00 0. -1.
         -3    1    1    2    0  503 -0.20008312389E+02  0.12600087325E+02  0.94961895988E+02  0.97861414535E+02  0.00000000000E+00 0. -1.
</event>
<event>
 4    1  0.1593135E+006  0.2690420E+02  0.7546771E-02  0.1448573E+00
         21   -1    0    0  501  502  0.00000000000E+00  0.00000000000E+00  0.27965596312E+02  0.27965596312E+02  0.00000000000E+00 0. -1.
          1   -1    0    0  503    0 -0.00000000000E+00 -0.00000000000E+00 -0.61733067547E+03  0.61733067547E+03  0.00000000000E+00 0. -1.
         21    1    1    2  503  502 -0.22307919333E+02  0.15039712669E+02  0.21129266023E+02  0.34209386209E+02  0.00000000000E+00 0. -1.
          1    1    1    2  501    0  0.22307919333E+02 -0.15039712669E+02 -0.61049434518E+03  0.61108688558E+03  0.00000000000E+00 0. -1.
</event>
<event>
 4    1  0.1593135E+006  0.3154389E+02  0.7546771E-02  0.1406638E+00
         21   -1    0    0  503  502  0.00000000000E+00  0.00000000000E+00  0.27653405650E+03  0.27653405650E+03  0.00000000000E+00 0.  1.
         -1   -1    0    0    0  501 -0.00000000000E+00 -0.00000000000E+00 -0.98126239148E+01  0.98126239148E+01  0.00000000000E+00 0.  1.
         21    1    1    2  503  501 -0.13171343515E+02  0.28662392489E+02  0.24729934922E+03  0.24930299870E+03  0.00000000000E+00 0.  1.
         -1    1    1    2    0  502  0.13171343515E+02 -0.28662392489E+02  0.19422083364E+02  0.37043681720E+02  0.00000000000E+00 0.  1.
</event>
<event>
 4    1  0.1593135E+006  0.5332543E+02  0.7546771E-02  0.1284364E+00
          2   -1    0    0  503    0 -0.00000000000E+00  0.00000000000E+00  0.25822724386E+03  0.25822724386E+03  0.00000000000E+00 0.  1.
         21   -1    0    0  501  502  0.00000000000E+00 -0.00000000000E+00 -0.16066625080E+02  0.16066625080E+02  0.00000000000E+00 0.  1.
         21    1    1    2  503  502 -0.31579156038E+02 -0.42969277877E+02  0.44155281575E+02  0.69233596095E+02  0.00000000000E+00 0.  1.
          2    1    1    2  501    0  0.31579156038E+02  0.42969277877E+02  0.19800533720E+03  0.20506027284E+03  0.00000000000E+00 0.  1.
</event>
<event>
 4    1  0.1593135E+006  0.2031671E+02  0.7546771E-02  0.1529248E+00
         21   -1    0    0  503  502  0.00000000000E+00  0.00000000000E+00  0.31767942007E+01  0.31767942007E+01  0.00000000000E+00 0.  1.
          1   -1    0    0  502    0 -0.00000000000E+00 -0.00000000000E+00 -0.40638690702E+03  0.40638690702E+03  0.00000000000E+00 0. -1.
         21    1    1    2  503  501 -0.20227672339E+02 -0.18999494871E+01 -0.32703583551E+02  0.38500557313E+02  0.00000000000E+00 0.  1.
          1    1    1    2  501    0  0.20227672339E+02  0.18999494871E+01 -0.37050652927E+03  0.37106314391E+03  0.00000000000E+00 0. -1.
</event>
<event>
 4    1  0.1593135E+006  0.3590330E+02  0.7546771E-02  0.1374322E+00
         21   -1    0    0  501  502  0.00000000000E+00  0.00000000000E+00  0.35417519652E+02  0.35417519652E+02  0.00000000000E+00 0. -1.
          2   -1    0    0  503    0 -0.00000000000E+00 -0.00000000000E+00 -0.52231205017E+03  0.52231205017E+03  0.00000000000E+00 0. -1.
         21    1    1    2  503  502  0.30367824422E+02  0.19153126309E+02  0.25526169211E+02  0.44052608573E+02  0.00000000000E+00 0. -1.
          2    1    1    2  501    0 -0.30367824422E+02 -0.19153126309E+02 -0.51242069973E+03  0.51367696125E+03  0.00000000000E+00 0. -1.
</event>
<event>
 4    1  0.1593135E+006  0.2055355E+02  0.7546771E-02  0.1525735E+00
         21   -1    0    0  501  502  0.00000000000E+00  0.00000000000E+00  0.19520917027E+02  0.19520917027E+02  0.00000000000E+00 0. -1.
         -3   -1    0    0    0  501 -0.00000000000E+00 -0.00000000000E+00 -0.35678234467E+02  0.35678234467E+02  0.00000000000E+00 0. -1.
         21    1    1    2  503  502 -0.20420667284E+02 -0.23333825107E+01  0.92332338338E+01  0.22532219892E+02  0.00000000000E+00 0. -1.
         -3    1    1    2    0  503  0.20420667284E+02  0.23333825107E+01 -0.25390551274E+02  0.32666931601E+02  0.00000000000E+00 0. -1.
</event>
<event>
 4    1  0.1593135E+006  0.2197816E+02  0.7546771E-02  0.1505744E+00
         21   -1    0    0  503  502  0.00000000000E+00  0.00000000000E+00  0.10166814423E+03  0.10166814423E+03  0.00000000000E+00 0.  1.
         -1   -1    0    0    0  501 -0.00000000000E+00 -0.00000000000E+00 -0.47520240947E+01  0.47520240947E+01  0.00000000000E+00 0.  1.
         21    1    1    2  503  501 -0.83005489264E+01 -0.20350441163E+02  0.47732205891E+02  0.52549053723E+02  0.00000000000E+00 0.  1.
         -1    1    1    2    0  502  0.83005489264E+01  0.20350441163E+02  0.49183914248E+02  0.53871114605E+02  0.00000000000E+00 0.  1.
</event>
<event>
 4    1  0.1593135E+006  0.2014558E+02  0.7546771E-02  0.1531822E+00
          4   -1    0    0  503    0 -0.00000000000E+00  0.00000000000E+00  0.10180308207E+03  0.10180308207E+03  0.00000000000E+00 0.  1.
         21   -1    0    0  501  502  0.00000000000E+00 -0.00000000000E+00 -0.41593840295E+03  0.41593840295E+03  0.00000000000E+00 0.  1.
         21    1    1    2  503  502 -0.18840414537E+02  0.71332563217E+01 -0.41469484179E+03  0.41518388261E+03  0.00000000000E+00 0.  1.
          4    1    1    2  501    0  0.18840414537E+02 -0.71332563217E+01  0.10055952092E+03  0.10255760242E+03  0.00000000000E+00 0.  1.
</event>
<event>
 4    1  0.1593135E+006  0.2509842E+02  0.7546771E-02  0.1467705E+00
         21   -1    0    0  503  502  0.00000000000E+00  0.00000000000E+00  0.85619630990E+01  0.85619630990E+01  0.00000000000E+00 0. -1.
         -2   -1    0    0    0  501 -0.00000000000E+00 -0.00000000000E+00 -0.86587580995E+02  0.86587580995E+02  0.00000000000E+00 0. -1.
         21    1    1    2  503  501  0.49625150346E+01 -0.24602929380E+02 -0.20568545296E+02  0.32449895919E+02  0.00000000000E+00 0. -1.
         -2    1    1    2    0  502 -0.49625150346E+01  0.24602929380E+02 -0.57457072599E+02  0.62699648175E+02  0.00000000000E+00 0. -1.
</event>
<event>
 4    1  0.1593135E+006  0.2024045E+02  0.7546771E-02  0.1530391E+00
          2   -1    0    0  502    0 -0.00000000000E+00  0.00000000000E+00  0.72974883219E+03  0.72974883219E+03  0.00000000000E+00 0. -1.
         21   -1    0    0  503  502  0.00000000000E+00 -0.00000000000E+00 -0.94912095279E+01  0.94912095279E+01  0.00000000000E+00 0. -1.
         21    1    1    2  503  501 -0.42408956517E+01 -0.19791172340E+02  0.16066705841E+01  0.20304115073E+02  0.00000000000E+00 0. -1.
          2    1    1    2  501    0  0.42408956517E+01  0.19791172340E+02  0.71865095208E+03  0.71893592665E+03  0.00000000000E+00 0. -1.
</event>
<event>
 4    1  0.1593135E+006  0.2591669E+02  0.7546771E-02  0.1458804E+00
         21   -1    0    0  503  502  0.00000000000E+00  0.00000000000E+00  0.31902915274E+03  0.31902915274E+03  0.00000000000E+00 0.  1.
          3   -1    0    0  502    0 -0.00000000000E+00 -0.00000000000E+00 -0.28357656789E+02  0.28357656789E+02  0.00000000000E+00 0.  1.
         21    1    1    2  503  501  0.24286977007E+02 -0.90452927456E+01  0.31245701635E+03  0.31353000118E+03  0.00000000000E+00 0.  1.
          3    1    1    2  501    0 -0.24286977007E+02  0.90452927456E+01 -0.21785520396E+02  0.33856808354E+02  0.00000000000E+00 0.  1.
</event>
<event>
 4    1  0.1593135E+006  0.2638352E+02  0.7546771E-02  0.1453901E+00
          2   -1    0    0  502    0 -0.00000000000E+00  0.00000000000E+00  0.20531764360E+02  0.20531764360E+02  0.00000000000E+00 0.  1.
         21   -1    0    0  503  502  0.00000000000E+00 -0.00000000000E+00 -0.71989668414E+02  0.71989668414E+02  0.00000000000E+00 0.  1.
         21    1    1    2  503  501 -0.12654457202E+02 -0.23150697036E+02 -0.59377265452E+02  0.64974992981E+02  0.00000000000E+00 0.  1.
          2    1    1    2  501    0  0.12654457202E+02  0.23150697036E+02  0.79193613986E+01  0.27546439793E+02  0.00000000000E+00 0.  1.
</event>
<event>
 4    1  0.1593135E+006  0.3083812E+02  0.7546771E-02  0.1412450E+00
         21   -1    0    0  501  502  0.00000000000E+00  0.00000000000E+00  0.84385970273E+00  0.84385970273E+00  0.00000000000E+00 0. -1.
          2   -1    0    0  503    0 -0.00000000000E+00 -0.00000000000E+00 -0.15195238232E+04  0.15195238232E+04  0.00000000000E+00 0. -1.
         21    1    1    2  503  502 -0.29523465288E+02  0.89081107384E+01 -0.37295129634E+03  0.37422407577E+03  0.00000000000E+00 0. -1.
          2    1    1    2  501    0  0.29523465288E+02 -0.89081107384E+01 -0.11457286672E+04  0.11461436072E+04  0.00000000000E+00 0. -1.
</event>
<event>
 4    1  0.1593135E+006  0.9494209E+02  0.7546771E-02  0.1172873E+00
          1   -1    0    0  503    0 -0.00000000000E+00  0.00000000000E+00  0.12283470227E+03  0.12283470227E+03  0.00000000000E+00 0. -1.
         21   -1    0    0  501  502  0.00000000000E+00 -0.00000000000E+00 -0.36887456433E+03  0.36887456433E+03  0.00000000000E+00 0. -1.
         21    1    1    2  503  502  0.93293740152E+02 -0.17614736147E+02 -0.34306490581E+03  0.35596001247E+03  0.00000000000E+00 0. -1.
          1    1    1    2  501    0 -0.93293740152E+02  0.17614736147E+02  0.97025043748E+02  0.13574925412E+03  0.00000000000E+00 0. -1.
</event>
<event>
 4    1  0.1593135E+006  0.2046473E+02  0.7546771E-02  0.1527046E+00
         21   -1    0    0  503  502  0.00000000000E+00  0.00000000000E+00  0.10161945794E+02  0.10161945794E+02  0.00000000000E+00 0.  1.
         -1   -1    0    0    0  501 -0.00000000000E+00 -0.00000000000E+00 -0.50282169908E+03  0.50282169908E+03  0.00000000000E+00 0.  1.
         21    1    1    2  503  501 -0.61793978567E+01  0.19509485940E+02 -0.57424636959E+00  0.20472780916E+02  0.00000000000E+00 0.  1.
         -1    1    1    2    0  502  0.61793978567E+01 -0.19509485940E+02 -0.49208550692E+03  0.49251086396E+03  0.00000000000E+00 0.  1.
</event>
<event>
 4    1  0.1593135E+006  0.2063210E+02  0.7546771E-02  0.1524583E+00
         21   -1    0    0  501  502  0.00000000000E+00  0.00000000000E+00  0.92422385563E+02  0.92422385563E+02  0.00000000000E+00 0.  1.
         -2   -1    0    0    0  501 -0.00000000000E+00 -0.00000000000E+00 -0.65973126627E+01  0.65973126627E+01  0.00000000000E+00 0. -1.
         21    1    1    2  503  502 -0.19367383784E+01  0.20540996773E+02  0.70114128267E+02  0.73086759995E+02  0.00000000000E+00 0.  1.
         -2    1    1    2    0  503  0.19367383784E+01 -0.20540996773E+02  0.15710944633E+02  0.25932938230E+02  0.00000000000E+00 0. -1.
</event>
<event>
 4    1  0.1593135E+006  0.2459195E+02  0.7546771E-02  0.1473420E+00
         -2   -1    0    0    0  501 -0.00000000000E+00  0.00000000000E+00  0.28098384859E+03  0.28098384859E+03  0.00000000000E+00 0.  1.
         21   -1    0    0  503  502  0.00000000000E+00 -0.00000000000E+00 -0.24153290687E+01  0.24153290687E+01  0.00000000000E+00 0.  1.
         21    1    1    2  503  501  0.23805824237E+02  0.61682155398E+01  0.92524245872E+02  0.95736619038E+02  0.00000000000E+00 0.  1.
         -2    1    1    2    0  502 -0.23805824237E+02 -0.61682155398E+01  0.18604427365E+03  0.18766255862E+03  0.00000000000E+00 0.  1.
</event>
<event>
 4    1  0.1593135E+006  0.7871514E+02  0.7546771E-02  0.1206862E+00
          2   -1    0    0  503    0 -0.00000000000E+00  0.00000000000E+00  0.10663258676E+03  0.10663258676E+03  0.00000000000E+00 0.  1.
         21   -1    0    0  501  502  0.00000000000E+00 -0.00000000000E+00 -0.88799745579E+02  0.88799745579E+02  0.00000000000E+00 0.  1.
         21    1    1    2  503  502  0.77571773252E+02 -0.13367608901E+02 -0.48532279055E+02  0.92474077900E+02  0.00000000000E+00 0.  1.
          2    1    1    2  501    0 -0.77571773252E+02  0.13367608901E+02  0.66365120233E+02  0.10295825444E+03  0.00000000000E+00 0.  1.
</event>
<event>
 4    1  0.1593135E+006  0.2523920E+02  0.7546771E-02  0.1466145E+00
         21   -1    0    0  501  502  0.00000000000E+00  0.00000000000E+00  0.20419169587E+01  0.20419169587E+01  0.00000000000E+00 0.  1.
         -1   -1    0    0    0  501 -0.00000000000E+00 -0.00000000000E+00 -0.37516285468E+03  0.37516285468E+03  0.00000000000E+00 0.  1.
         21    1    1    2  503  502 -0.19525073791E+02  0.15993392666E+02 -0.10915515440E+03  0.11203510543E+03  0.00000000000E+00 0.  1.
         -1    1    1    2    0  503  0.19525073791E+02 -0.15993392666E+02 -0.26396578332E+03  0.26516966621E+03  0.00000000000E+00 0.  1.
</event>
<event>
 4    1  0.1593135E+006  0.2353179E+02  0.7546771E-02  0.1485926E+00
         21   -1    0    0  503  502  0.00000000000E+00  0.00000000000E+00  0.11730560976E+03  0.11730560976E+03  0.00000000000E+00 0. -1.
         -1   -1    0    0    0  501 -0.00000000000E+00 -0.00000000000E+00 -0.61818806275E+01  0.61818806275E+01  0.00000000000E+00 0.  1.
         21    1    1    2  503  501  0.68875256081E+01  0.22501271772E+02  0.85581756814E+02  0.88757998737E+02  0.00000000000E+00 0. -1.
         -1    1    1    2    0  502 -0.68875256081E+01 -0.22501271772E+02  0.25541972317E+02  0.34729491650E+02  0.00000000000E+00 0.  1.
</event>
<event>
 4    1  0.1593135E+006  0.2282967E+02  0.7546771E-02  0.1494648E+00
          2   -1    0    0  503    0 -0.00000000000E+00  0.00000000000E+00  0.11212429001E+03  0.11212429001E+03  0.00000000000E+00 0.  1.
         21   -1    0    0  501  502  0.00000000000E+00 -0.00000000000E+00 -0.42071187224E+02  0.42071187224E+02  0.00000000000E+00 0.  1.
         21    1    1    2  503  502  0.93128845846E+01  0.20843799766E+02 -0.37687370018E+02  0.44062815013E+02  0.00000000000E+00 0.  1.
          2    1    1    2  501    0 -0.93128845846E+01 -0.20843799766E+02  0.10774047280E+03  0.11013266222E+03  0.00000000000E+00 0.  1.
</event>
<event>
 4    1  0.1593135E+006  0.2077681E+02  0.7546771E-02  0.1522475E+00
         -1   -1    0    0    0  501 -0.00000000000E+00  0.00000000000E+00  0.56734277263E+01  0.56734277263E+01  0.00000000000E+00 0.  1.
         21   -1    0    0  503  502  0.00000000000E+00 -0.00000000000E+00 -0.76714294585E+02  0.76714294585E+02  0.00000000000E+00 0.  1.
         21    1    1    2  503  501  0.16968634787E+02  0.11989214754E+02 -0.39244554895E+02  0.44405077703E+02  0.00000000000E+00 0.  1.
         -1    1    1    2    0  502 -0.16968634787E+02 -0.11989214754E+02 -0.31796311964E+02  0.37982644608E+02  0.00000000000E+00 0.  1.
</event>
<event>
 4    1  0.1593135E+006  0.2669421E+02  0.7546771E-02  0.1450704E+00
          1   -1    0    0  502    0 -0.00000000000E+00  0.00000000000E+00  0.32699339005E+03  0.32699339005E+03  0.00000000000E+00 0. -1.
         21   -1    0    0  503  502  0.00000000000E+00 -0.00000000000E+00 -0.22567194502E+03  0.22567194502E+03  0.00000000000E+00 0. -1.
         21    1    1    2  503  501  0.10284713768E+01  0.26674393037E+02 -0.22433451158E+03  0.22591713986E+03  0.00000000000E+00 0. -1.
          1    1    1    2  501    0 -0.10284713768E+01 -0.26674393037E+02  0.32565595661E+03  0.32674819521E+03  0.00000000000E+00 0. -1.
</event>
<event>
 4    1  0.1593135E+006  0.2265468E+02  0.7546771E-02  0.1496880E+00
          1   -1    0    0  503    0 -0.00000000000E+00  0.00000000000E+00  0.30934364453E+02  0.30934364453E+02  0.00000000000E+00 0. -1.
         21   -1    0    0  501  502  0.00000000000E+00 -0.00000000000E+00 -0.86170691040E+02  0.86170691040E+02  0.00000000000E+00 0.  1.
         21    1    1    2  503  502  0.17631201574E+02  0.14225863006E+02 -0.80232835116E+02  0.83369912306E+02  0.00000000000E+00 0.  1.
          1    1    1    2  501    0 -0.17631201574E+02 -0.14225863006E+02  0.24996508529E+02  0.33735143187E+02  0.00000000000E+00 0. -1.
</event>
<event>
 4    1  0.1593135E+006  0.2471053E+02  0.7546771E-02  0.1472068E+00
          2   -1    0    0  503    0 -0.00000000000E+00  0.00000000000E+00  0.16548227087E+02  0.16548227087E+02  0.00000000000E+00 0. -1.
         21   -1    0    0  501  502  0.00000000000E+00 -0.00000000000E+00 -0.71657504953E+02  0.71657504953E+02  0.00000000000E+00 0. -1.
         21    1    1    2  503  502  0.22548134404E+02 -0.10109009159E+02 -0.58270839689E+02  0.63293768962E+02  0.00000000000E+00 0. -1.
          2    1    1    2  501    0 -0.22548134404E+02  0.10109009159E+02  0.31615618229E+01  0.24911963079E+02  0.00000000000E+00 0. -1.
</event>
<event>
 4    1  0.1593135E+006  0.2348207E+02  0.7546771E-02  0.1486532E+00
          1   -1    0    0  503    0 -0.00000000000E+00  0.00000000000E+00  0.21328095802E+03  0.21328095802E+03  0.00000000000E+00 0. -1.
         21   -1    0    0  501  502  0.00000000000E+00 -0.00000000000E+00 -0.25942826471E+01  0.25942826471E+01  0.00000000000E+00 0. -1.
         21    1    1    2  503  502 -0.17097981440E+02  0.16095543737E+02  0.99012299172E+02  0.10175874844E+03  0.00000000000E+00 0. -1.
          1    1    1    2  501    0  0.17097981440E+02 -0.16095543737E+02  0.11167437620E+03  0.11411649222E+03  0.00000000000E+00 0. -1.
</event>
<event>
 4    1  0.1593135E+006  0.2716554E+02  0.7546771E-02  0.1445952E+00
          1   -1    0    0  503    0 -0.00000000000E+00  0.00000000000E+00  0.60039001410E+02  0.60039001410E+02  0.00000000000E+00 0.  1.
         21   -1    0    0  501  502  0.00000000000E+00 -0.00000000000E+00 -0.13350137182E+02  0.13350137182E+02  0.00000000000E+00 0. -1.
         21    1    1    2  503  502 -0.25353298322E+02  0.97558659383E+01  0.13011065732E+02  0.30120665456E+02  0.00000000000E+00 0. -1.
          1    1    1    2  501    0  0.25353298322E+02 -0.97558659383E+01  0.33677798496E+02  0.43268473136E+02  0.00000000000E+00 0.  1.
</event>
<event>
 4    1  0.1593135E+006  0.3200025E+02  0.7546771E-02  0.1402975E+00
         -2   -1    0    0    0  501 -0.00000000000E+00  0.00000000000E+00  0.19501350786E+03  0.19501350786E+03  0.00000000000E+00 0. -1.
         21   -1    0    0  503  502  0.00000000000E+00 -0.00000000000E+00 -0.13426197601E+02  0.13426197601E+02  0.00000000000E+00 0. -1.
         21    1    1    2  503  501 -0.12363716631E+02 -0.29515330507E+02  0.94688507846E+01  0.33371774886E+02  0.00000000000E+00 0. -1.
         -2    1    1    2    0  502  0.12363716631E+02  0.29515330507E+02  0.17211845947E+03  0.17506793057E+03  0.00000000000E+00 0. -1.
</event>
<event>
 4    1  0.1593135E+006  0.2487785E+02  0.7546771E-02  0.1470175E+00
          2   -1    0    0  503    0 -0.00000000000E+00  0.00000000000E+00  0.60391137554E+03  0.60391137554E+03  0.00000000000E+00 0.  1.
         21   -1    0    0  501  502  0.00000000000E+00 -0.00000000000E+00 -0.27845368685E+02  0.27845368685E+02  0.00000000000E+00 0. -1.
         21    1    1    2  503  502  0.23228501901E+02  0.89075445689E+01 -0.21978020554E+02  0.33195497259E+02  0.00000000000E+00 0. -1.
          2    1    1    2  501    0 -0.23228501901E+02 -0.89075445689E+01  0.59804402741E+03  0.59856124697E+03  0.00000000000E+00 0.  1.
</event>
<event>
 4    1  0.1593135E+006  0.2011632E+02  0.7546771E-02  0.1532265E+00
         -4   -1    0    0    0  501 -0.00000000000E+00  0.00000000000E+00  0.65058699038E+02  0.65058699038E+02  0.00000000000E+00 0. -1.
         21   -1    0    0  501  502  0.00000000000E+00 -0.00000000000E+00 -0.85223560574E+01  0.85223560574E+01  0.00000000000E+00 0.  1.
         21    1    1    2  503  502  0.35832253415E+01  0.19794620977E+02  0.91458608107E+01  0.22097811960E+02  0.00000000000E+00 0.  1.
         -4    1    1    2    0  503 -0.35832253415E+01 -0.19794620977E+02  0.47390482170E+02  0.51483243136E+02  0.00000000000E+00 0. -1.
</event>
<event>
 4    1  0.1593135E+006  0.2082902E+02  0.7546771E-02  0.1521720E+00
         21   -1    0    0  503  502  0.00000000000E+00  0.00000000000E+00  0.49223597502E+02  0.49223597502E+02  0.00000000000E+00 0. -1.
          1   -1    0    0  502    0 -0.00000000000E+00 -0.00000000000E+00 -0.51564076001E+02  0.51564076001E+02  0.00000000000E+00 0. -1.
         21    1    1    2  503  501 -0.19145758360E+02 -0.82029228807E+01  0.44715016492E+02  0.49328295196E+02  0.00000000000E+00 0. -1.
          1    1    1    2  501    0  0.19145758360E+02  0.82029228807E+01 -0.47055494991E+02  0.51459378308E+02  0.00000000000E+00 0. -1.
</event>
<event>
 4    1  0.1593135E+006  0.2193090E+02  0.7546771E-02  0.1506378E+00
         21   -1    0    0  503  502  0.00000000000E+00  0.00000000000E+00  0.14508963450E+01  0.14508963450E+01  0.00000000000E+00 0.  1.
          4   -1    0    0  502    0 -0.00000000000E+00 -0.00000000000E+00 -0.56569087137E+03  0.56569087137E+03  0.00000000000E+00 0. -1.
         21    1    1    2  503  501 -0.13450679724E+02 -0.17321763811E+02 -0.99662348585E+02  0.10204679325E+03  0.00000000000E+00 0.  1.
          4    1    1    2  501    0  0.13450679724E+02  0.17321763811E+02 -0.46457762644E+03  0.46509497447E+03  0.00000000000E+00 0. -1.
</event>
<event>
 4    1  0.1593135E+006  0.2591479E+02  0.7546771E-02  0.1458825E+00
          2   -1    0    0  503    0 -0.00000000000E+00  0.00000000000E+00  0.11376917472E+03  0.11376917472E+03  0.00000000000E+00 0.  1.
         21   -1    0    0  501  502  0.00000000000E+00 -0.00000000000E+00 -0.10114714767E+02  0.10114714767E+02  0.00000000000E+00 0.  1.
         21    1    1    2  503  502 -0.24027922820E+02 -0.97074808922E+01  0.11856789681E+02  0.28498416129E+02  0.00000000000E+00 0.  1.
          2    1    1    2  501    0  0.24027922820E+02  0.97074808922E+01  0.91797670267E+02  0.95385473353E+02  0.00000000000E+00 0.  1.
</event>
<event>
 4    1  0.1593135E+006  0.2021793E+02  0.7546771E-02  0.1530730E+00
          1   -1    0    0  503    0 -0.00000000000E+00  0.00000000000E+00  0.50840322973E+03  0.50840322973E+03  0.00000000000E+00 0. -1.
         21   -1    0    0  501  502  0.00000000000E+00 -0.00000000000E+00 -0.12213871734E+01  0.12213871734E+01  0.00000000000E+00 0.  1.
         21    1    1    2  503  502 -0.13051958160E+02 -0.15440567987E+02  0.10463611541E+03  0.10657148493E+03  0.00000000000E+00 0.  1.
          1    1    1    2  501    0  0.13051958160E+02  0.15440567987E+02  0.40254572714E+03  0.40305313197E+03  0.00000000000E+00 0. -1.
</event>
<event>
 4    1  0.1593135E+006  0.3497939E+02  0.7546771E-02  0.1380708E+00
         21   -1    0    0  501  502  0.00000000000E+00  0.00000000000E+00  0.39252012222E+01  0.39252012222E+01  0.00000000000E+00 0. -1.
          1   -1    0    0  503    0 -0.00000000000E+00 -0.00000000000E+00 -0.31333048022E+03  0.31333048022E+03  0.00000000000E+00 0. -1.
         21    1    1    2  503  502  0.31734897173E+02  0.14712379130E+02 -0.14332481370E+03  0.14753155601E+03  0.00000000000E+00 0. -1.
          1    1    1    2  501    0 -0.31734897173E+02 -0.14712379130E+02 -0.16608046530E+03  0.16972412543E+03  0.00000000000E+00 0. -1.
</event>
<event>
 4    1  0.1593135E+006  0.2055480E+02  0.7546771E-02  0.1525717E+00
         -2   -1    0    0    0  501 -0.00000000000E+00  0.00000000000E+00  0.55032716001E+01  0.55032716001E+01  0.00000000000E+00 0. -1.
         21   -1    0    0  501  502  0.00000000000E+00 -0.00000000000E+00 -0.51730211216E+03  0.51730211216E+03  0.00000000000E+00 0. -1.
         21    1    1    2  503  502 -0.10928192955E+02 -0.17409030367E+02 -0.49712618887E+03  0.49755094955E+03  0.00000000000E+00 0. -1.
         -2    1    1    2    0  503  0.10928192955E+02  0.17409030367E+02 -0.14672651691E+02  0.25254434209E+02  0.00000000000E+00 0. -1.
</event>
<event>
 4    1  0.1593135E+006  0.2975073E+02  0.7546771E-02  0.1421775E+00
          1   -1    0    0  503    0 -0.00000000000E+00  0.00000000000E+00  0.39492365282E+03  0.39492365282E+03  0.00000000000E+00 0.  1.
         21   -1    0    0  501  502  0.00000000000E+00 -0.00000000000E+00 -0.29124265479E+02  0.29124265479E+02  0.00000000000E+00 0. -1.
         21    1    1    2  503  502  0.17463629306E+02  0.24085842186E+02 -0.20803002709E+02  0.36302493909E+02  0.00000000000E+00 0. -1.
          1    1    1    2  501    0 -0.17463629306E+02 -0.24085842186E+02  0.38660239005E+03  0.38774542439E+03  0.00000000000E+00 0.  1.
</event>
<event>
 4    1  0.1593135E+006  0.2209819E+02  0.7546771E-02  0.1504144E+00
         -4   -1    0    0    0  501 -0.00000000000E+00  0.00000000000E+00  0.25706167379E+02  0.25706167379E+02  0.00000000000E+00 0. -1.
         21   -1    0    0  501  502  0.00000000000E+00 -0.00000000000E+00 -0.19249129637E+02  0.19249129637E+02  0.00000000000E+00 0. -1.
         21    1    1    2  503  502  0.61975679216E+01  0.21211324369E+02  0.65403733025E+00  0.22107869514E+02  0.00000000000E+00 0. -1.
         -4    1    1    2    0  503 -0.61975679216E+01 -0.21211324369E+02  0.58030004118E+01  0.22847427501E+02  0.00000000000E+00 0. -1.
</event>
<event>
 4    1  0.1593135E+006  0.2534703E+02  0.7546771E-02  0.1464958E+00
         21   -1    0    0  501  502  0.00000000000E+00  0.00000000000E+00  0.55174005811E+02  0.55174005811E+02  0.00000000000E+00 0.  1.
          3   -1    0    0  503    0 -0.00000000000E+00 -0.00000000000E+00 -0.21756206056E+02  0.21756206056E+02  0.00000000000E+00 0.  1.
         21    1    1    2  503  502  0.12556160614E+02  0.22018511406E+02  0.42932253392E+02  0.49856297448E+02  0.00000000000E+00 0.  1.
          3    1    1    2  501    0 -0.12556160614E+02 -0.22018511406E+02 -0.95144536375E+01  0.27073914418E+02  0.00000000000E+00 0.  1.
</event>
<event>
 4    1  0.1593135E+006  0.3179869E+02  0.7546771E-02  0.1404584E+00
          2   -1    0    0  503    0 -0.00000000000E+00  0.00000000000E+00  0.12416040655E+04  0.12416040655E+04  0.00000000000E+00 0. -1.
         21   -1    0    0  501  502  0.00000000000E+00 -0.00000000000E+00 -0.44942792993E+01  0.44942792993E+01  0.00000000000E+00 0.  1.
         21    1    1    2  503  502 -0.31662295608E+02  0.29420796840E+01  0.54775308512E+02  0.63336334111E+02  0.00000000000E+00 0.  1.
          2    1    1    2  501    0  0.31662295608E+02 -0.29420796840E+01  0.11823344777E+04  0.11827620107E+04  0.00000000000E+00 0. -1.
</event>
<event>
 4    1  0.1593135E+006  0.3443868E+02  0.7546771E-02  0.1384553E+00
         -2   -1    0    0    0  501 -0.00000000000E+00  0.00000000000E+00  0.31383562719E+03  0.31383562719E+03  0.00000000000E+00 0.  1.
         21   -1    0    0  503  502  0.00000000000E+00 -0.00000000000E+00 -0.16208443425E+02  0.16208443425E+02  0.00000000000E+00 0.  1.
         21    1    1    2  503  501 -0.14486051707E+02 -0.31243826212E+02  0.43045452322E+01  0.34706648932E+02  0.00000000000E+00 0.  1.
         -2    1    1    2    0  502  0.14486051707E+02  0.31243826212E+02  0.29332263853E+03  0.29533742168E+03  0.00000000000E+00 0.  1.
</event>
<event>
 4    1  0.1593135E+006  0.3547473E+02  0.7546771E-02  0.1377256E+00
         21   -1    0    0  501  502  0.00000000000E+00  0.00000000000E+00  0.31578217538E+01  0.31578217538E+01  0.00000000000E+00 0.  1.
          4   -1    0    0  503    0 -0.00000000000E+00 -0.00000000000E+00 -0.10508375320E+04  0.10508375320E+04  0.00000000000E+00 0.  1.
         21    1    1    2  503  502  0.26300699474E+01 -0.35377100922E+02 -0.10862747943E+03  0.11427329445E+03  0.00000000000E+00 0.  1.
          4    1    1    2  501    0 -0.26300699474E+01  0.35377100922E+02 -0.93905223080E+03  0.93972205928E+03  0.00000000000E+00 0.  1.
</event>
<event>
 4    1  0.1593135E+006  0.2769112E+02  0.7546771E-02  0.1440787E+00
         21   -1    0    0  501  502  0.00000000000E+00  0.00000000000E+00  0.88272993348E+01  0.88272993348E+01  0.00000000000E+00 0. -1.
          2   -1    0    0  503    0 -0.00000000000E+00 -0.00000000000E+00 -0.83882150586E+03  0.83882150586E+03  0.00000000000E+00 0.  1.
         21    1    1    2  503  502 -0.19396238039E+01 -0.27623105557E+02 -0.13717524858E+02  0.30902566064E+02  0.00000000000E+00 0. -1.
          2    1    1    2  501    0  0.19396238039E+01  0.27623105557E+02 -0.81627668166E+03  0.81674623913E+03  0.00000000000E+00 0.  1.
</event>
<event>
 4    1  0.1593135E+006  0.2072952E+02  0.7546771E-02  0.1523162E+00
         21   -1    0    0  501  502  0.00000000000E+00  0.00000000000E+00  0.42199528210E+01  0.42199528210E+01  0.00000000000E+00 0. -1.
         -2   -1    0    0    0  501 -0.00000000000E+00 -0.00000000000E+00 -0.10336649985E+04  0.10336649985E+04  0.00000000000E+00 0. -1.
         21    1    1    2  503  502  0.47852085760E+01 -0.20169654947E+02 -0.22003787164E+02  0.30230445769E+02  0.00000000000E+00 0. -1.
         -2    1    1    2    0  503 -0.47852085760E+01  0.20169654947E+02 -0.10074412585E+04  0.10076545055E+04  0.00000000000E+00 0. -1.
</event>
<event>
 4    1  0.1593135E+006  0.2249898E+02  0.7546771E-02  0.1498887E+00
         21   -1    0    0  501  502  0.00000000000E+00  0.00000000000E+00  0.39034509407E+01  0.39034509407E+01  0.00000000000E+00 0. -1.
          1   -1    0    0  503    0 -0.00000000000E+00 -0.00000000000E+00 -0.53216119693E+03  0.53216119693E+03  0.00000000000E+00 0.  1.
         21    1    1    2  503  502  0.80214620975E+00  0.22484676853E+02 -0.31031311679E+02  0.38329446072E+02  0.00000000000E+00 0. -1.
          1    1    1    2  501    0 -0.80214620975E+00 -0.22484676853E+02 -0.49722643431E+03  0.49773520180E+03  0.00000000000E+00 0.  1.
</event>
<event>
 4    1  0.1593135E+006  0.2194892E+02  0.7546771E-02  0.1506136E+00
          1   -1    0    0  503    0 -0.00000000000E+00  0.00000000000E+00  0.23116834519E+03  0.23116834519E+03  0.00000000000E+00 0. -1.
         21   -1    0    0  501  502  0.00000000000E+00 -0.00000000000E+00 -0.26319646157E+01  0.26319646157E+01  0.00000000000E+00 0. -1.
         21    1    1    2  503  502 -0.15497809013E+02 -0.15542616363E+02  0.60928434986E+02  0.64761324859E+02  0.00000000000E+00 0. -1.
          1    1    1    2  501    0  0.15497809013E+02  0.15542616363E+02  0.16760794558E+03  0.16903898494E+03  0.00000000000E+00 0. -1.
</event>
<event>
 4    1  0.1593135E+006  0.2515780E+02  0.7546771E-02  0.1467046E+00
          2   -1    0    0  502    0 -0.00000000000E+00  0.00000000000E+00  0.50184294671E+03  0.50184294671E+03  0.00000000000E+00 0. -1.
         21   -1    0    0  503  502  0.00000000000E+00 -0.00000000000E+00 -0.17898112479E+02  0.17898112479E+02  0.00000000000E+00 0. -1.
         21    1    1    2  503  501 -0.90751997706E+01 -0.23463923483E+02 -0.85750545843E+01  0.26579061632E+02  0.00000000000E+00 0. -1.
          2    1    1    2  501    0  0.90751997706E+01  0.23463923483E+02  0.49251988882E+03  0.49316199756E+03  0.00000000000E+00 0. -1.
</event>
<event>
 4    1  0.1593135E+006  0.2169128E+02  0.7546771E-02  0.1509620E+00
         21   -1    0    0  501  502  0.00000000000E+00  0.00000000000E+00  0.33018958301E+01  0.33018958301E+01  0.00000000000E+00 0.  1.
         -4   -1    0    0    0  501 -0.00000000000E+00 -0.00000000000E+00 -0.11822199823E+04  0.11822199823E+04  0.00000000000E+00 0. -1.
         21    1    1    2  503  502 -0.63231945025E+01 -0.20749188606E+02 -0.33568654735E+02  0.39967063906E+02  0.00000000000E+00 0.  1.
         -4    1    1    2    0  503  0.63231945025E+01  0.20749188606E+02 -0.11453494317E+04  0.11455548142E+04  0.00000000000E+00 0. -1.
</event>
<event>
 4    1  0.1593135E+006  0.3498072E+02  0.7546771E-02  0.1380699E+00
         -3   -1    0    0    0  501 -0.00000000000E+00  0.00000000000E+00  0.41740582344E+01  0.41740582344E+01  0.00000000000E+00 0. -1.
         21   -1    0    0  503  502  0.00000000000E+00 -0.00000000000E+00 -0.42449216387E+03  0.42449216387E+03  0.00000000000E+00 0.  1.
         21    1    1    2  503  501  0.54999899366E+01  0.34545631514E+02 -0.32937832378E+03  0.33123063071E+03  0.00000000000E+00 0.  1.
         -3    1    1    2    0  502 -0.54999899366E+01 -0.34545631514E+02 -0.90939781857E+02  0.97435591393E+02  0.00000000000E+00 0. -1.
</event>
<event>
 4    1  0.1593135E+006  0.4074955E+02  0.7546771E-02  0.1344149E+00
         21   -1    0    0  501  502  0.00000000000E+00  0.00000000000E+00  0.11463798794E+03  0.11463798794E+03  0.00000000000E+00 0.  1.
         -3   -1    0    0    0  501 -0.00000000000E+00 -0.00000000000E+00 -0.44682722737E+02  0.44682722737E+02  0.00000000000E+00 0. -1.
         21    1    1    2  503  502  0.29998688449E+02 -0.27579053388E+02  0.10046535447E+03  0.10841500331E+03  0.00000000000E+00 0.  1.
         -3    1    1    2    0  503 -0.29998688449E+02  0.27579053388E+02 -0.30510089272E+02  0.50905707360E+02  0.00000000000E+00 0. -1.
</event>
<event>
 4    1  0.1593135E+006  0.2143076E+02  0.7546771E-02  0.1513203E+00
         21   -1    0    0  501  502  0.00000000000E+00  0.00000000000E+00  0.39887631426E+01  0.39887631426E+01  0.00000000000E+00 0. -1.
          2   -1    0    0  503    0 -0.00000000000E+00 -0.00000000000E+00 -0.10289704811E+04  0.10289704811E+04  0.00000000000E+00 0.  1.
         21    1    1    2  503  502 -0.38936871066E+01  0.21074075264E+02 -0.25765602987E+02  0.33513336820E+02  0.00000000000E+00 0. -1.
          2    1    1    2  501    0  0.38936871066E+01 -0.21074075264E+02 -0.99921611495E+03  0.99944590740E+03  0.00000000000E+00 0.  1.
</event>
<event>
 4    1  0.1593135E+006  0.2484189E+02  0.7546771E-02  0.1470580E+00
         -2   -1    0    0    0  501 -0.00000000000E+00  0.00000000000E+00  0.15266350782E+01  0.15266350782E+01  0.00000000000E+00 0.  1.
         21   -1    0    0  501  502  0.00000000000E+00 -0.00000000000E+00 -0.42200457906E+03  0.42200457906E+03  0.00000000000E+00 0.  1.
         21    1    1    2  503  502  0.24640100022E+02 -0.31599007120E+01 -0.25369340112E+03  0.25490676976E+03  0.00000000000E+00 0.  1.
         -2    1    1    2    0  503 -0.24640100022E+02  0.31599007120E+01 -0.16678454286E+03  0.16862444437E+03  0.00000000000E+00 0.  1.
</event>
<event>
 4    1  0.1593135E+006  0.2114078E+02  0.7546771E-02  0.1517264E+00
         -3   -1    0    0    0  501 -0.00000000000E+00  0.00000000000E+00  0.47291291531E+01  0.47291291531E+01  0.00000000000E+00 0. -1.
         21   -1    0    0  501  502  0.00000000000E+00 -0.00000000000E+00 -0.10489044470E+03  0.10489044470E+03  0.00000000000E+00 0. -1.
         21    1    1    2  503  502 -0.21003095560E+02  0.24088742233E+01 -0.67326111819E+02  0.70567258916E+02  0.00000000000E+00 0. -1.
         -3    1    1    2    0  503  0.21003095560E+02 -0.24088742233E+01 -0.32835203724E+02  0.39052314934E+02  0.00000000000E+00 0. -1.
</event>
<event>
 4    1  0.1593135E+006  0.3172150E+02  0.7546771E-02  0.1405204E+00
         21   -1    0    0  503  502  0.00000000000E+00  0.00000000000E+00  0.73505089070E+02  0.73505089070E+02  0.00000000000E+00 0.  1.
         -1   -1    0    0    0  501 -0.00000000000E+00 -0.00000000000E+00 -0.64212175018E+02  0.64212175018E+02  0.00000000000E+00 0. -1.
         21    1    1    2  503  501  0.15475507345E+02  0.27690468052E+02  0.65725546074E+02  0.72980139457E+02  0.00000000000E+00 0.  1.
         -1    1    1    2    0  502 -0.15475507345E+02 -0.27690468052E+02 -0.56432632021E+02  0.64737124630E+02  0.00000000000E+00 0. -1.
</event>
<event>
 4    1  0.1593135E+006  0.2417294E+02  0.7546771E-02  0.1478272E+00
         21   -1    0    0  501  502  0.00000000000E+00  0.00000000000E+00  0.16628128380E+01  0.16628128380E+01  0.00000000000E+00 0.  1.
          2   -1    0    0  503    0 -0.00000000000E+00 -0.00000000000E+00 -0.91199740960E+03  0.91199740960E+03  0.00000000000E+00 0.  1.
         21    1    1    2  503  502 -0.17440917277E+02  0.16737549943E+02 -0.97005636184E+02  0.99972119238E+02  0.00000000000E+00 0.  1.
          2    1    1    2  501    0  0.17440917277E+02 -0.16737549943E+02 -0.81332896058E+03  0.81368810320E+03  0.00000000000E+00 0.  1.
</event>
<event>
 4    1  0.1593135E+006  0.3498241E+02  0.7546771E-02  0.1380687E+00
          1   -1    0    0  503    0 -0.00000000000E+00  0.00000000000E+00  0.23188213476E+02  0.23188213476E+02  0.00000000000E+00 0.  1.
         21   -1    0    0  501  502  0.00000000000E+00 -0.00000000000E+00 -0.71506426087E+03  0.71506426087E+03  0.00000000000E+00 0. -1.
         21    1    1    2  503  502 -0.32739135154E+02  0.12325503689E+02 -0.70118147413E+03  0.70205357963E+03  0.00000000000E+00 0. -1.
          1    1    1    2  501    0  0.32739135154E+02 -0.12325503689E+02  0.93054267354E+01  0.36198894714E+02  0.00000000000E+00 0.  1.
</event>
<event>
 4    1  0.1593135E+006  0.3068437E+02  0.7546771E-02  0.1413741E+00
         21   -1    0    0  503  502  0.00000000000E+00  0.00000000000E+00  0.66321734383E+00  0.66321734383E+00  0.00000000000E+00 0. -1.
          2   -1    0    0  502    0 -0.00000000000E+00 -0.00000000000E+00 -0.20577130346E+04  0.20577130346E+04  0.00000000000E+00 0.  1.
         21    1    1    2  503  501 -0.26484166782E+02  0.15495789374E+02 -0.45541595316E+03  0.45644848666E+03  0.00000000000E+00 0. -1.
          2    1    1    2  501    0  0.26484166782E+02 -0.15495789374E+02 -0.16016338641E+04  0.16019277653E+04  0.00000000000E+00 0.  1.
</event>
<event>
 4    1  0.1593135E+006  0.5654481E+02  0.7546771E-02  0.1272047E+00
         21   -1    0    0  501  502  0.00000000000E+00  0.00000000000E+00  0.65455064345E+02  0.65455064345E+02  0.00000000000E+00 0. -1.
          2   -1    0    0  503    0 -0.00000000000E+00 -0.00000000000E+00 -0.73300560055E+02  0.73300560055E+02  0.00000000000E+00 0. -1.
         21    1    1    2  503  502  0.42444159634E+02  0.37360523079E+02  0.36148575121E+02  0.67112106620E+02  0.00000000000E+00 0. -1.
          2    1    1    2  501    0 -0.42444159634E+02 -0.37360523079E+02 -0.43994070831E+02  0.71643517781E+02  0.00000000000E+00 0. -1.
</event>
<event>
 4    1  0.1593135E+006  0.2198724E+02  0.7546771E-02  0.1505623E+00
          2   -1    0    0  502    0 -0.00000000000E+00  0.00000000000E+00  0.93545863338E+02  0.93545863338E+02  0.00000000000E+00 0.  1.
         21   -1    0    0  503  502  0.00000000000E+00 -0.00000000000E+00 -0.14934525430E+02  0.14934525430E+02  0.00000000000E+00 0.  1.
         21    1    1    2  503  501 -0.19697268374E+02  0.97701829169E+01 -0.45571997714E+01  0.22454552442E+02  0.00000000000E+00 0.  1.
          2    1    1    2  501    0  0.19697268374E+02 -0.97701829169E+01  0.83168537679E+02  0.86025836325E+02  0.00000000000E+00 0.  1.
</event>
<event>
 4    1  0.1593135E+006  0.2790413E+02  0.7546771E-02  0.1438731E+00
         21   -1    0    0  501  502  0.00000000000E+00  0.00000000000E+00  0.62508866295E+02  0.62508866295E+02  0.00000000000E+00 0. -1.
          1   -1    0    0  503    0 -0.00000000000E+00 -0.00000000000E+00 -0.18609433424E+03  0.18609433424E+03  0.00000000000E+00 0.  1.
         21    1    1    2  503  502  0.24209674307E+02 -0.13875587117E+02  0.58276669616E+02  0.64612773268E+02  0.00000000000E+00 0. -1.
          1    1    1    2  501    0 -0.24209674307E+02  0.13875587117E+02 -0.18186213756E+03  0.18399042726E+03  0.00000000000E+00 0.  1.
</event>
<event>
 4    1  0.1593135E+006  0.2544411E+02  0.7546771E-02  0.1463896E+00
         21   -1    0    0  501  502  0.00000000000E+00  0.00000000000E+00  0.13069018802E+03  0.13069018802E+03  0.00000000000E+00 0. -1.
          3   -1    0    0  503    0 -0.00000000000E+00 -0.00000000000E+00 -0.15848739853E+02  0.15848739853E+02  0.00000000000E+00 0.  1.
         21    1    1    2  503  502 -0.23188454682E+02 -0.10473691421E+02  0.11816979663E+03  0.12087805209E+03  0.00000000000E+00 0. -1.
          3    1    1    2  501    0  0.23188454682E+02  0.10473691421E+02 -0.33283484591E+01  0.25660875783E+02  0.00000000000E+00 0.  1.
</event>
<event>
 4    1  0.1593135E+006  0.3409031E+02  0.7546771E-02  0.1387074E+00
         21   -1    0    0  503  502  0.00000000000E+00  0.00000000000E+00  0.36163250323E+02  0.36163250323E+02  0.00000000000E+00 0. -1.
          1   -1    0    0  502    0 -0.00000000000E+00 -0.00000000000E+00 -0.32832214344E+02  0.32832214344E+02  0.00000000000E+00 0.  1.
         21    1    1    2  503  501 -0.32558247249E+02  0.10104921491E+02  0.66884146017E+01  0.34740233046E+02  0.00000000000E+00 0. -1.
          1    1    1    2  501    0  0.32558247249E+02 -0.10104921491E+02 -0.33573786228E+01  0.34255231622E+02  0.00000000000E+00 0.  1.
</event>
<event>
 4    1  0.1593135E+006  0.2232074E+02  0.7546771E-02  0.1501208E+00
          1   -1    0    0  502    0 -0.00000000000E+00  0.00000000000E+00  0.11950033410E+02  0.11950033410E+02  0.00000000000E+00 0. -1.
         21   -1    0    0  503  502  0.00000000000E+00 -0.00000000000E+00 -0.43985908454E+02  0.43985908454E+02  0.00000000000E+00 0. -1.
         21    1    1    2  503  501 -0.22016907412E+02  0.36703268068E+01 -0.22405483741E+02  0.31626274086E+02  0.00000000000E+00 0. -1.
          1    1    1    2  501    0  0.22016907412E+02 -0.36703268068E+01 -0.96303913024E+01  0.24309667779E+02  0.00000000000E+00 0. -1.
</event>
<event>
 4    1  0.1593135E+006  0.2267344E+02  0.7546771E-02  0.1496640E+00
         21   -1    0    0  501  502  0.00000000000E+00  0.00000000000E+00  0.47617359874E+02  0.47617359874E+02  0.00000000000E+00 0. -1.
          3   -1    0    0  503    0 -0.00000000000E+00 -0.00000000000E+00 -0.15242690855E+02  0.15242690855E+02  0.00000000000E+00 0.  1.
         21    1    1    2  503  502 -0.13239261236E+02  0.18406704322E+02  0.33162905671E+02  0.40172915187E+02  0.00000000000E+00 0. -1.
          3    1    1    2  501    0  0.13239261236E+02 -0.18406704322E+02 -0.78823665195E+00  0.22687135542E+02  0.00000000000E+00 0.  1.
</event>
<event>
 4    1  0.1593135E+006  0.2319338E+02  0.7546771E-02  0.1490084E+00
         21   -1    0    0  503  502  0.00000000000E+00  0.00000000000E+00  0.62196499975E+01  0.62196499975E+01  0.00000000000E+00 0. -1.
          2   -1    0    0  502    0 -0.00000000000E+00 -0.00000000000E+00 -0.22740846100E+03  0.22740846100E+03  0.00000000000E+00 0. -1.
         21    1    1    2  503  501  0.17682193921E+02 -0.15009089122E+02 -0.18639071787E+02  0.29754793483E+02  0.00000000000E+00 0. -1.
          2    1    1    2  501    0 -0.17682193921E+02  0.15009089122E+02 -0.20254973921E+03  0.20387331751E+03  0.00000000000E+00 0. -1.
</event>
<event>
 4    1  0.1593135E+006  0.2269785E+02  0.7546771E-02  0.1496327E+00
         21   -1    0    0  503  502  0.00000000000E+00  0.00000000000E+00  0.12522928320E+01  0.12522928320E+01  0.00000000000E+00 0. -1.
         -1   -1    0    0    0  501 -0.00000000000E+00 -0.00000000000E+00 -0.82959022946E+03  0.82959022946E+03  0.00000000000E+00 0.  1.
         21    1    1    2  503  501  0.73017933031E+01  0.21491310273E+02 -0.11922187291E+03  0.12136328763E+03  0.00000000000E+00 0. -1.
         -1    1    1    2    0  502 -0.73017933031E+01 -0.21491310273E+02 -0.70911606372E+03  0.70947923467E+03  0.00000000000E+00 0.  1.
</event>
<event>
 4    1  0.1593135E+006  0.3973648E+02  0.7546771E-02  0.1350037E+00
          1   -1    0    0  503    0 -0.00000000000E+00  0.00000000000E+00  0.18872943285E+03  0.18872943285E+03  0.00000000000E+00 0. -1.
         21   -1    0    0  501  502  0.00000000000E+00 -0.00000000000E+00 -0.97918094618E+01  0.97918094618E+01  0.00000000000E+00 0. -1.
         21    1    1    2  503  502  0.25497054876E+02  0.30477664063E+02  0.51597198314E+02  0.65124946741E+02  0.00000000000E+00 0. -1.
          1    1    1    2  501    0 -0.25497054876E+02 -0.30477664063E+02  0.12734042508E+03  0.13339629557E+03  0.00000000000E+00 0. -1.
</event>
<event>
 4    1  0.1593135E+006  0.2068277E+02  0.7546771E-02  0.1523843E+00
         21   -1    0    0  503  502  0.00000000000E+00  0.00000000000E+00  0.45958907249E+02  0.45958907249E+02  0.00000000000E+00 0.  1.
          4   -1    0    0  502    0 -0.00000000000E+00 -0.00000000000E+00 -0.18459202861E+02  0.18459202861E+02  0.00000000000E+00 0.  1.
         21    1    1    2  503  501 -0.20055963184E+02 -0.50532589070E+01  0.36428384934E+02  0.41890384502E+02  0.00000000000E+00 0.  1.
          4    1    1    2  501    0  0.20055963184E+02  0.50532589070E+01 -0.89286805460E+01  0.22527725609E+02  0.00000000000E+00 0.  1.
</event>
<event>
 4    1  0.1593135E+006  0.2039046E+02  0.7546771E-02  0.1528148E+00
         -1   -1    0    0    0  501 -0.00000000000E+00  0.00000000000E+00  0.10349041258E+04  0.10349041258E+04  0.00000000000E+00 0.  1.
         21   -1    0    0  503  502  0.00000000000E+00 -0.00000000000E+00 -0.48347718387E+01  0.48347718387E+01  0.00000000000E+00 0. -1.
         21    1    1    2  503  501 -0.92069722222E+00  0.20369662969E+02  0.17233030777E+02  0.26697344486E+02  0.00000000000E+00 0. -1.
         -1    1    1    2    0  502  0.92069722222E+00 -0.20369662969E+02  0.10128363232E+04  0.10130415532E+04  0.00000000000E+00 0.  1.
</event>
<event>
 4    1  0.1593135E+006  0.3769235E+02  0.7546771E-02  0.1362566E+00
         21   -1    0    0  503  502  0.00000000000E+00  0.00000000000E+00  0.11128917700E+02  0.11128917700E+02  0.00000000000E+00 0. -1.
         -3   -1    0    0    0  501 -0.00000000000E+00 -0.00000000000E+00 -0.22561733228E+03  0.22561733228E+03  0.00000000000E+00 0. -1.
         21    1    1    2  503  501  0.19022537562E+02  0.32540074043E+02 -0.29245714602E+02  0.47707705631E+02  0.00000000000E+00 0. -1.
         -3    1    1    2    0  502 -0.19022537562E+02 -0.32540074043E+02 -0.18524269998E+03  0.18903854435E+03  0.00000000000E+00 0. -1.
</event>
<event>
 4    1  0.1593135E+006  0.3303417E+02  0.7546771E-02  0.1394936E+00
          1   -1    0    0  503    0 -0.00000000000E+00  0.00000000000E+00  0.59881739806E+03  0.59881739806E+03  0.00000000000E+00 0.  1.
         21   -1    0    0  501  502  0.00000000000E+00 -0.00000000000E+00 -0.17548441059E+02  0.17548441059E+02  0.00000000000E+00 0. -1.
         21    1    1    2  503  502 -0.33000097654E+02 -0.14998807461E+01 -0.11079943332E+01  0.33052741775E+02  0.00000000000E+00 0. -1.
          1    1    1    2  501    0  0.33000097654E+02  0.14998807461E+01  0.58237695133E+03  0.58331309734E+03  0.00000000000E+00 0.  1.
</event>
<event>
 4    1  0.1593135E+006  0.2152617E+02  0.7546771E-02  0.1511883E+00
         21   -1    0    0  503  502  0.00000000000E+00  0.00000000000E+00  0.18978835945E+02  0.18978835945E+02  0.00000000000E+00 0.  1.
          2   -1    0    0  502    0 -0.00000000000E+00 -0.00000000000E+00 -0.68166854789E+02  0.68166854789E+02  0.00000000000E+00 0.  1.
         21    1    1    2  503  501 -0.10986614331E+02 -0.18511354872E+02  0.10314035039E+02  0.23869546968E+02  0.00000000000E+00 0.  1.
          2    1    1    2  501    0  0.10986614331E+02  0.18511354872E+02 -0.59502053883E+02  0.63276143766E+02  0.00000000000E+00 0.  1.
</event>
<event>
 4    1  0.1593135E+006  0.2013307E+02  0.7546771E-02  0.1532011E+00
         21   -1    0    0  503  502  0.00000000000E+00  0.00000000000E+00  0.98159270690E+01  0.98159270690E+01  0.00000000000E+00 0. -1.
         -3   -1    0    0    0  501 -0.00000000000E+00 -0.00000000000E+00 -0.75179443965E+02  0.75179443965E+02  0.00000000000E+00 0. -1.
         21    1    1    2  503  501 -0.18681527704E+02 -0.75060614556E+01 -0.41504751459E+01  0.20556431594E+02  0.00000000000E+00 0. -1.
         -3    1    1    2    0  502  0.18681527704E+02  0.75060614556E+01 -0.61213041750E+02  0.64438939440E+02  0.00000000000E+00 0. -1.
</event>
<event>
 4    1  0.1593135E+006  0.2206171E+02  0.7546771E-02  0.1504629E+00
         21   -1    0    0  503  502  0.00000000000E+00  0.00000000000E+00  0.20305890439E+02  0.20305890439E+02  0.00000000000E+00 0. -1.
         -3   -1    0    0    0  501 -0.00000000000E+00 -0.00000000000E+00 -0.25024635348E+02  0.25024635348E+02  0.00000000000E+00 0. -1.
         21    1    1    2  503  501  0.21821338869E+02  0.32477889161E+01  0.22950110153E+01  0.22180758293E+02  0.00000000000E+00 0. -1.
         -3    1    1    2    0  502 -0.21821338869E+02 -0.32477889161E+01 -0.70137559247E+01  0.23149767495E+02  0.00000000000E+00 0. -1.
</event>
<event>
 4    1  0.1593135E+006  0.2183750E+02  0.7546771E-02  0.1507635E+00
          3   -1    0    0  502    0 -0.00000000000E+00  0.00000000000E+00  0.46958308186E+02  0.46958308186E+02  0.00000000000E+00 0. -1.
         21   -1    0    0  503  502  0.00000000000E+00 -0.00000000000E+00 -0.13159959888E+03  0.13159959888E+03  0.00000000000E+00 0.  1.
         21    1    1    2  503  501  0.21575975630E+02 -0.33694903489E+01 -0.12808569748E+03  0.12993391431E+03  0.00000000000E+00 0.  1.
          3    1    1    2  501    0 -0.21575975630E+02  0.33694903489E+01  0.43444406790E+02  0.48623992750E+02  0.00000000000E+00 0. -1.
</event>
<event>
 4    1  0.1593135E+006  0.2736785E+02  0.7546771E-02  0.1443948E+00
          2   -1    0    0  503    0 -0.00000000000E+00  0.00000000000E+00  0.13768194845E+03  0.13768194845E+03  0.00000000000E+00 0.  1.
         21   -1    0    0  501  502  0.00000000000E+00 -0.00000000000E+00 -0.23575695502E+03  0.23575695502E+03  0.00000000000E+00 0.  1.
         21    1    1    2  503  502  0.24475666201E+02 -0.12245029537E+02 -0.23359011642E+03  0.23518788547E+03  0.00000000000E+00 0.  1.
          2    1    1    2  501    0 -0.24475666201E+02  0.12245029537E+02  0.13551510984E+03  0.13825101800E+03  0.00000000000E+00 0.  1.
</event>
<event>
 4    1  0.1593135E+006  0.2138255E+02  0.7546771E-02  0.1513873E+00
         21   -1    0    0  503  502  0.00000000000E+00  0.00000000000E+00  0.19890489078E+03  0.19890489078E+03  0.00000000000E+00 0. -1.
          2   -1    0    0  502    0 -0.00000000000E+00 -0.00000000000E+00 -0.12736643910E+03  0.12736643910E+03  0.00000000000E+00 0. -1.
         21    1    1    2  503  501 -0.21724039545E+01  0.21271904614E+02  0.19742608834E+03  0.19858064765E+03  0.00000000000E+00 0. -1.
          2    1    1    2  501    0  0.21724039545E+01 -0.21271904614E+02 -0.12588763665E+03  0.12769068223E+03  0.00000000000E+00 0. -1.
</event>
<event>
 4    1  0.1593135E+006  0.4557940E+02  0.7546771E-02  0.1318567E+00
          2   -1    0    0  502    0 -0.00000000000E+00  0.00000000000E+00  0.36167807694E+04  0.36167807694E+04  0.00000000000E+00 0.  1.
         21   -1    0    0  503  502  0.00000000000E+00 -0.00000000000E+00 -0.12286212729E+01  0.12286212729E+01  0.00000000000E+00 0.  1.
         21    1    1    2  503  501 -0.38655223489E+02  0.24150685177E+02  0.48771892901E+03  0.48984409317E+03  0.00000000000E+00 0.  1.
          2    1    1    2  501    0  0.38655223489E+02 -0.24150685177E+02  0.31278332191E+04  0.31281652975E+04  0.00000000000E+00 0.  1.
</event>
<event>
 4    1  0.1593135E+006  0.2023841E+02  0.7546771E-02  0.1530422E+00
         21   -1    0    0  503  502  0.00000000000E+00  0.00000000000E+00  0.24901648972E+03  0.24901648972E+03  0.00000000000E+00 0. -1.
         -2   -1    0    0    0  501 -0.00000000000E+00 -0.00000000000E+00 -0.26939928184E+03  0.26939928184E+03  0.00000000000E+00 0. -1.
         21    1    1    2  503  501  0.14236246278E+01  0.20188276787E+02  0.24822396855E+03  0.24904764964E+03  0.00000000000E+00 0. -1.
         -2    1    1    2    0  502 -0.14236246278E+01 -0.20188276787E+02 -0.26860676067E+03  0.26936812192E+03  0.00000000000E+00 0. -1.
</event>
<event>
 4    1  0.1593135E+006  0.5068331E+02  0.7546771E-02  0.1295237E+00
         21   -1    0    0  503  502  0.00000000000E+00  0.00000000000E+00  0.32843328615E+02  0.32843328615E+02  0.00000000000E+00 0. -1.
         -2   -1    0    0    0  501 -0.00000000000E+00 -0.00000000000E+00 -0.21264841293E+03  0.21264841293E+03  0.00000000000E+00 0.  1.
         21    1    1    2  503  501  0.27008043988E+02  0.42887798059E+02  0.76933546886E+01  0.51263879767E+02  0.00000000000E+00 0. -1.
         -2    1    1    2    0  502 -0.27008043988E+02 -0.42887798059E+02 -0.18749843901E+03  0.19422786178E+03  0.00000000000E+00 0.  1.
</event>
<event>
 4    1  0.1593135E+006  0.2325318E+02  0.7546771E-02  0.1489343E+00
         -4   -1    0    0    0  501 -0.00000000000E+00  0.00000000000E+00  0.18355471656E+03  0.18355471656E+03  0.00000000000E+00 0. -1.
         21   -1    0    0  501  502  0.00000000000E+00 -0.00000000000E+00 -0.26417760942E+02  0.26417760942E+02  0.00000000000E+00 0. -1.
         21    1    1    2  503  502 -0.80595316484E+01  0.21811788476E+02 -0.20391440675E+02  0.30927674011E+02  0.00000000000E+00 0. -1.
         -4    1    1    2    0  503  0.80595316484E+01 -0.21811788476E+02  0.17752839629E+03  0.17904480349E+03  0.00000000000E+00 0. -1.
</event>
<event>
 4    1  0.1593135E+006  0.2222649E+02  0.7546771E-02  0.1502446E+00
         -4   -1    0    0    0  501 -0.00000000000E+00  0.00000000000E+00  0.68787470492E+02  0.68787470492E+02  0.00000000000E+00 0.  1.
         21   -1    0    0  503  502  0.00000000000E+00 -0.00000000000E+00 -0.26910842975E+02  0.26910842975E+02  0.00000000000E+00 0. -1.
         21    1    1    2  503  501  0.17678295940E+02  0.13471992664E+02 -0.20031484579E+02  0.29921181597E+02  0.00000000000E+00 0. -1.
         -4    1    1    2    0  502 -0.17678295940E+02 -0.13471992664E+02  0.61908112097E+02  0.65777131870E+02  0.00000000000E+00 0.  1.
</event>
<event>
 4    1  0.1593135E+006  0.2151062E+02  0.7546771E-02  0.1512098E+00
         21   -1    0    0  503  502  0.00000000000E+00  0.00000000000E+00  0.65184735690E+02  0.65184735690E+02  0.00000000000E+00 0.  1.
         -2   -1    0    0    0  501 -0.00000000000E+00 -0.00000000000E+00 -0.17068361328E+02  0.17068361328E+02  0.00000000000E+00 0.  1.
         21    1    1    2  503  501 -0.38917229500E+01 -0.21155641995E+02  0.55490279943E+02  0.59513677957E+02  0.00000000000E+00 0.  1.
         -2    1    1    2    0  502  0.38917229500E+01  0.21155641995E+02 -0.73739055814E+01  0.22739419061E+02  0.00000000000E+00 0.  1.
</event>
<event>
 4    1  0.1593135E+006  0.2306639E+02  0.7546771E-02  0.1491666E+00
         21   -1    0    0  503  502  0.00000000000E+00  0.00000000000E+00  0.51462042006E+02  0.51462042006E+02  0.00000000000E+00 0.  1.
         -1   -1    0    0    0  501 -0.00000000000E+00 -0.00000000000E+00 -0.10387546052E+02  0.10387546052E+02  0.00000000000E+00 0. -1.
         21    1    1    2  503  501 -0.12534350581E+02  0.19363588064E+02  0.18419940916E+02  0.29518684093E+02  0.00000000000E+00 0.  1.
         -1    1    1    2    0  502  0.12534350581E+02 -0.19363588064E+02  0.22654555038E+02  0.32330903965E+02  0.00000000000E+00 0. -1.
</event>
<event>
 4    1  0.1593135E+006  0.2460347E+02  0.7546771E-02  0.1473289E+00
         21   -1    0    0  501  502  0.00000000000E+00  0.00000000000E+00  0.17077973844E+01  0.17077973844E+01  0.00000000000E+00 0.  1.
          1   -1    0    0  503    0 -0.00000000000E+00 -0.00000000000E+00 -0.36355641685E+03  0.36355641685E+03  0.00000000000E+00 0. -1.
         21    1    1    2  503  502 -0.14440130009E+02 -0.19920172819E+02 -0.20982705244E+03  0.21126457955E+03  0.00000000000E+00 0.  1.
          1    1    1    2  501    0  0.14440130009E+02  0.19920172819E+02 -0.15202156703E+03  0.15399963468E+03  0.00000000000E+00 0. -1.
</event>
<event>
 4    1  0.1593135E+006  0.2029485E+02  0.7546771E-02  0.1529575E+00
         21   -1    0    0  503  502  0.00000000000E+00  0.00000000000E+00  0.76446034740E+02  0.76446034740E+02  0.00000000000E+00 0. -1.
          2   -1    0    0  502    0 -0.00000000000E+00 -0.00000000000E+00 -0.54317027851E+02  0.54317027851E+02  0.00000000000E+00 0.  1.
         21    1    1    2  503  501  0.13822691224E+02 -0.14859821363E+02  0.73118673544E+02  0.75882946071E+02  0.00000000000E+00 0. -1.
          2    1    1    2  501    0 -0.13822691224E+02  0.14859821363E+02 -0.50989666655E+02  0.54880116519E+02  0.00000000000E+00 0.  1.
</event>
<event>
 4    1  0.1593135E+006  0.2927666E+02  0.7546771E-02  0.1425988E+00
          2   -1    0    0  503    0 -0.00000000000E+00  0.00000000000E+00  0.21108046176E+03  0.21108046176E+03  0.00000000000E+00 0.  1.
         21   -1    0    0  501  502  0.00000000000E+00 -0.00000000000E+00 -0.11380763139E+02  0.11380763139E+02  0.00000000000E+00 0. -1.
         21    1    1    2  503  502  0.29169825692E+02 -0.24988440260E+01  0.10643110501E+02  0.31151223949E+02  0.00000000000E+00 0. -1.
          2    1    1    2  501    0 -0.29169825692E+02  0.24988440260E+01  0.18905658812E+03  0.19131000095E+03  0.00000000000E+00 0.  1.
</event>
<event>
 4    1  0.1593135E+006  0.2356065E+02  0.7546771E-02  0.1485575E+00
         21   -1    0    0  501  502  0.00000000000E+00  0.00000000000E+00  0.49417196913E+02  0.49417196913E+02  0.00000000000E+00 0. -1.
         -3   -1    0    0    0  501 -0.00000000000E+00 -0.00000000000E+00 -0.11892685146E+03  0.11892685146E+03  0.00000000000E+00 0.  1.
         21    1    1    2  503  502  0.18248799446E+02  0.14902541334E+02  0.45343458652E+02  0.51099253047E+02  0.00000000000E+00 0. -1.
         -3    1    1    2    0  503 -0.18248799446E+02 -0.14902541334E+02 -0.11485311320E+03  0.11724479533E+03  0.00000000000E+00 0.  1.
</event>
<event>
 4    1  0.1593135E+006  0.3189075E+02  0.7546771E-02  0.1403847E+00
         21   -1    0    0  501  502  0.00000000000E+00  0.00000000000E+00  0.11242469078E+03  0.11242469078E+03  0.00000000000E+00 0. -1.
         -4   -1    0    0    0  501 -0.00000000000E+00 -0.00000000000E+00 -0.98768718079E+01  0.98768718079E+01  0.00000000000E+00 0. -1.
         21    1    1    2  503  502 -0.23156600897E+02 -0.21926967662E+02  0.69007558651E+02  0.76020150137E+02  0.00000000000E+00 0. -1.
         -4    1    1    2    0  503  0.23156600897E+02  0.21926967662E+02  0.33540260321E+02  0.46281412450E+02  0.00000000000E+00 0. -1.
</event>
<event>
 4    1  0.1593135E+006  0.2931122E+02  0.7546771E-02  0.1425678E+00
         -4   -1    0    0    0  501 -0.00000000000E+00  0.00000000000E+00  0.22944886846E+04  0.22944886846E+04  0.00000000000E+00 0. -1.
         21   -1    0    0  503  502  0.00000000000E+00 -0.00000000000E+00 -0.42693350030E+00  0.42693350030E+00  0.00000000000E+00 0. -1.
         21    1    1    2  503  501 -0.25907358608E+02  0.13709714987E+02  0.74467451790E+03  0.74525115574E+03  0.00000000000E+00 0. -1.
         -4    1    1    2    0  502  0.25907358608E+02 -0.13709714987E+02  0.15493872332E+04  0.15496644624E+04  0.00000000000E+00 0. -1.
</event>
<event>
 4    1  0.1593135E+006  0.2036554E+02  0.7546771E-02  0.1528519E+00
         -2   -1    0    0    0  501 -0.00000000000E+00  0.00000000000E+00  0.56728005406E+02  0.56728005406E+02  0.00000000000E+00 0.  1.
         21   -1    0    0  503  502  0.00000000000E+00 -0.00000000000E+00 -0.81750129136E+01  0.81750129136E+01  0.00000000000E+00 0.  1.
         21    1    1    2  503  501  0.18526409572E+02 -0.84573734227E+01  0.13728320147E+02  0.24560573912E+02  0.00000000000E+00 0.  1.
         -2    1    1    2    0  502 -0.18526409572E+02  0.84573734227E+01  0.34824672345E+02  0.40342444408E+02  0.00000000000E+00 0.  1.
</event>
<event>
 4    1  0.1593135E+006  0.7003993E+02  0.7546771E-02  0.1229074E+00
         21   -1    0    0  501  502  0.00000000000E+00  0.00000000000E+00  0.23684741718E+02  0.23684741718E+02  0.00000000000E+00 0. -1.
          1   -1    0    0  503    0 -0.00000000000E+00 -0.00000000000E+00 -0.11658866041E+04  0.11658866041E+04  0.00000000000E+00 0. -1.
         21    1    1    2  503  502 -0.40087359231E+02 -0.57433405906E+02 -0.31728545883E+02  0.76891437156E+02  0.00000000000E+00 0. -1.
          1    1    1    2  501    0  0.40087359231E+02  0.57433405906E+02 -0.11104733165E+04  0.11126799087E+04  0.00000000000E+00 0. -1.
</event>
<event>
 4    1  0.1593135E+006  0.3914882E+02  0.7546771E-02  0.1353547E+00
         21   -1    0    0  503  502  0.00000000000E+00  0.00000000000E+00  0.63259174369E+02  0.63259174369E+02  0.00000000000E+00 0.  1.
          2   -1    0    0  502    0 -0.00000000000E+00 -0.00000000000E+00 -0.21232549724E+04  0.21232549724E+04  0.00000000000E+00 0. -1.
         21    1    1    2  503  501  0.35946707863E+02 -0.15506915162E+02  0.57003872809E+02  0.69152525184E+02  0.00000000000E+00 0.  1.
          2    1    1    2  501    0 -0.35946707863E+02  0.15506915162E+02 -0.21169996708E+04  0.21173616216E+04  0.00000000000E+00 0. -1.
</event>
<event>
 4    1  0.1593135E+006  0.2117915E+02  0.7546771E-02  0.1516722E+00
          1   -1    0    0  503    0 -0.00000000000E+00  0.00000000000E+00  0.31360116379E+02  0.31360116379E+02  0.00000000000E+00 0.  1.
         21   -1    0    0  501  502  0.00000000000E+00 -0.00000000000E+00 -0.26064108222E+02  0.26064108222E+02  0.00000000000E+00 0.  1.
         21    1    1    2  503  502  0.17464491151E+02  0.11981150081E+02 -0.16638804763E+02  0.26933366525E+02  0.00000000000E+00 0.  1.
          1    1    1    2  501    0 -0.17464491151E+02 -0.11981150081E+02  0.21934812920E+02  0.30490858076E+02  0.00000000000E+00 0.  1.
</event>
<event>
 4    1  0.1593135E+006  0.2327943E+02  0.7546771E-02  0.1489019E+00
          2   -1    0    0  502    0 -0.00000000000E+00  0.00000000000E+00  0.34371882940E+03  0.34371882940E+03  0.00000000000E+00 0.  1.
         21   -1    0    0  503  502  0.00000000000E+00 -0.00000000000E+00 -0.65001761862E+02  0.65001761862E+02  0.00000000000E+00 0. -1.
         21    1    1    2  503  501  0.13412622938E+02 -0.19027177432E+02 -0.62508082305E+02  0.66702265992E+02  0.00000000000E+00 0. -1.
          2    1    1    2  501    0 -0.13412622938E+02  0.19027177432E+02  0.34122514985E+03  0.34201832527E+03  0.00000000000E+00 0.  1.
</event>
<event>
 4    1  0.1593135E+006  0.2135262E+02  0.7546771E-02  0.1514289E+00
         -1   -1    0    0    0  501 -0.00000000000E+00  0.00000000000E+00  0.18283007594E+02  0.18283007594E+02  0.00000000000E+00 0.  1.
         21   -1    0    0  503  502  0.00000000000E+00 -0.00000000000E+00 -0.25451382400E+02  0.25451382400E+02  0.00000000000E+00 0.  1.
         21    1    1    2  503  501  0.10360909952E+02  0.18670456464E+02 -0.47730084225E+00  0.21357954389E+02  0.00000000000E+00 0.  1.
         -1    1    1    2    0  502 -0.10360909952E+02 -0.18670456464E+02 -0.66910739640E+01  0.22376435605E+02  0.00000000000E+00 0.  1.
</event>
<event>
 4    1  0.1593135E+006  0.2534623E+02  0.7546771E-02  0.1464967E+00
         21   -1    0    0  503  502  0.00000000000E+00  0.00000000000E+00  0.34028687859E+01  0.34028687859E+01  0.00000000000E+00 0. -1.
          2   -1    0    0  502    0 -0.00000000000E+00 -0.00000000000E+00 -0.36166205607E+03  0.36166205607E+03  0.00000000000E+00 0.  1.
         21    1    1    2  503  501 -0.22511163796E+02 -0.11648129268E+02 -0.52932419425E+02  0.58687924117E+02  0.00000000000E+00 0. -1.
          2    1    1    2  501    0  0.22511163796E+02  0.11648129268E+02 -0.30532676786E+03  0.30637700074E+03  0.00000000000E+00 0.  1.
</event>
<event>
 4    1  0.1593135E+006  0.2015525E+02  0.7546771E-02  0.1531676E+00
          1   -1    0    0  503    0 -0.00000000000E+00  0.00000000000E+00  0.24578826934E+03  0.24578826934E+03  0.00000000000E+00 0. -1.
         21   -1    0    0  501  502  0.00000000000E+00 -0.00000000000E+00 -0.68602432562E+01  0.68602432562E+01  0.00000000000E+00 0.  1.
         21    1    1    2  503  502 -0.92367311943E+01 -0.17914148492E+02  0.94038625641E+01  0.22241100478E+02  0.00000000000E+00 0.  1.
          1    1    1    2  501    0  0.92367311943E+01  0.17914148492E+02  0.22952416351E+03  0.23040741211E+03  0.00000000000E+00 0. -1.
</event>
<event>
 4    1  0.1593135E+006  0.2303561E+02  0.7546771E-02  0.1492051E+00
         21   -1    0    0  501  502  0.00000000000E+00  0.00000000000E+00  0.34682168409E+03  0.34682168409E+03  0.00000000000E+00 0. -1.
         -1   -1    0    0    0  501 -0.00000000000E+00 -0.00000000000E+00 -0.20090950356E+01  0.20090950356E+01  0.00000000000E+00 0. -1.
         21    1    1    2  503  502 -0.21438362838E+02  0.84282916082E+01  0.25757741493E+03  0.25860542180E+03  0.00000000000E+00 0. -1.
         -1    1    1    2    0  503  0.21438362838E+02 -0.84282916082E+01  0.87235174121E+02  0.90225357326E+02  0.00000000000E+00 0. -1.
</event>
<event>
 4    1  0.1593135E+006  0.5860966E+02  0.7546771E-02  0.1264631E+00
         -2   -1    0    0    0  501 -0.00000000000E+00  0.00000000000E+00  0.37105160472E+03  0.37105160472E+03  0.00000000000E+00 0.  1.
         21   -1    0    0  501  502  0.00000000000E+00 -0.00000000000E+00 -0.97118405258E+01  0.97118405258E+01  0.00000000000E+00 0.  1.
         21    1    1    2  503  502 -0.42975618077E+02  0.39852084833E+02  0.22183784095E+03  0.22944960251E+03  0.00000000000E+00 0.  1.
         -2    1    1    2    0  503  0.42975618077E+02 -0.39852084833E+02  0.13950192325E+03  0.15131384274E+03  0.00000000000E+00 0.  1.
</event>
<event>
 4    1  0.1593135E+006  0.2252544E+02  0.7546771E-02  0.1498545E+00
          1   -1    0    0  503    0 -0.00000000000E+00  0.00000000000E+00  0.28813627025E+03  0.28813627025E+03  0.00000000000E+00 0.  1.
         21   -1    0    0  501  502  0.00000000000E+00 -0.00000000000E+00 -0.42489258056E+01  0.42489258056E+01  0.00000000000E+00 0.  1.
         21    1    1    2  503  502 -0.94842565788E+01  0.20431453201E+02  0.30075039500E+02  0.37575303108E+02  0.00000000000E+00 0.  1.
          1    1    1    2  501    0  0.94842565788E+01 -0.20431453201E+02  0.25381230494E+03  0.25480989294E+03  0.00000000000E+00 0.  1.
</event>
<event>
 4    1  0.1593135E+006  0.3791122E+02  0.7546771E-02  0.1361181E+00
         21   -1    0    0  501  502  0.00000000000E+00  0.00000000000E+00  0.56264116685E+01  0.56264116685E+01  0.00000000000E+00 0. -1.
          1   -1    0    0  503    0 -0.00000000000E+00 -0.00000000000E+00 -0.32075688771E+03  0.32075688771E+03  0.00000000000E+00 0. -1.
         21    1    1    2  503  502 -0.29072523197E+02 -0.24332060511E+02 -0.83928756651E+02  0.92093957276E+02  0.00000000000E+00 0. -1.
          1    1    1    2  501    0  0.29072523197E+02  0.24332060511E+02 -0.23120171939E+03  0.23428934210E+03  0.00000000000E+00 0. -1.
</event>
<event>
 4    1  0.1593135E+006  0.3051119E+02  0.7546771E-02  0.1415205E+00
         21   -1    0    0  503  502  0.00000000000E+00  0.00000000000E+00  0.81768944165E+01  0.81768944165E+01  0.00000000000E+00 0. -1.
          1   -1    0    0  502    0 -0.00000000000E+00 -0.00000000000E+00 -0.36115129703E+03  0.36115129703E+03  0.00000000000E+00 0.  1.
         21    1    1    2  503  501 -0.13695255319E+02 -0.27264866242E+02 -0.23677204331E+02  0.38620499147E+02  0.00000000000E+00 0. -1.
          1    1    1    2  501    0  0.13695255319E+02  0.27264866242E+02 -0.32929719828E+03  0.33070769230E+03  0.00000000000E+00 0.  1.
</event>
<event>
 4    1  0.1593135E+006  0.2050929E+02  0.7546771E-02  0.1526388E+00
         -1   -1    0    0    0  501 -0.00000000000E+00  0.00000000000E+00  0.45362341851E+01  0.45362341851E+01  0.00000000000E+00 0. -1.
         21   -1    0    0  501  502  0.00000000000E+00 -0.00000000000E+00 -0.20847489971E+03  0.20847489971E+03  0.00000000000E+00 0.  1.
         21    1    1    2  503  502 -0.11926743704E+02  0.16684839418E+02 -0.18132941474E+03  0.18248558226E+03  0.00000000000E+00 0.  1.
         -1    1    1    2    0  503  0.11926743704E+02 -0.16684839418E+02 -0.22609250789E+02  0.30525551642E+02  0.00000000000E+00 0. -1.
</event>
<event>
 4    1  0.1593135E+006  0.5407558E+02  0.7546771E-02  0.1281407E+00
         21   -1    0    0  503  502  0.00000000000E+00  0.00000000000E+00  0.23859772579E+03  0.23859772579E+03  0.00000000000E+00 0. -1.
         -2   -1    0    0    0  501 -0.00000000000E+00 -0.00000000000E+00 -0.49979961621E+02  0.49979961621E+02  0.00000000000E+00 0.  1.
         21    1    1    2  503  501 -0.53135627596E+02  0.10038608769E+02  0.21966498872E+03  0.22622306658E+03  0.00000000000E+00 0. -1.
         -2    1    1    2    0  502  0.53135627596E+02 -0.10038608769E+02 -0.31047224551E+02  0.62354620826E+02  0.00000000000E+00 0.  1.
</event>
<event>
 4    1  0.1593135E+006  0.3258267E+02  0.7546771E-02  0.1398404E+00
         21   -1    0    0  503  502  0.00000000000E+00  0.00000000000E+00  0.49435814488E+01  0.49435814488E+01  0.00000000000E+00 0.  1.
         -1   -1    0    0    0  501 -0.00000000000E+00 -0.00000000000E+00 -0.41255253571E+03  0.41255253571E+03  0.00000000000E+00 0.  1.
         21    1    1    2  503  501  0.28743849096E+02  0.15343450357E+02 -0.59260638883E+02  0.67627314382E+02  0.00000000000E+00 0.  1.
         -1    1    1    2    0  502 -0.28743849096E+02 -0.15343450357E+02 -0.34834831538E+03  0.34986880278E+03  0.00000000000E+00 0.  1.
</event>
<event>
 4    1  0.1593135E+006  0.2154466E+02  0.7546771E-02  0.1511629E+00
         21   -1    0    0  501  502  0.00000000000E+00  0.00000000000E+00  0.34395360725E+00  0.34395360725E+00  0.00000000000E+00 0.  1.
          2   -1    0    0  503    0 -0.00000000000E+00 -0.00000000000E+00 -0.13549983913E+04  0.13549983913E+04  0.00000000000E+00 0.  1.
         21    1    1    2  503  502  0.21529579491E+02  0.80584475778E+00 -0.63423618743E+03  0.63460201199E+03  0.00000000000E+00 0.  1.
          2    1    1    2  501    0 -0.21529579491E+02 -0.80584475778E+00 -0.72041825028E+03  0.72074033293E+03  0.00000000000E+00 0.  1.
</event>
<event>
 4    1  0.1593135E+006  0.2156489E+02  0.7546771E-02  0.1511350E+00
         21   -1    0    0  501  502  0.00000000000E+00  0.00000000000E+00  0.45874384195E+03  0.45874384195E+03  0.00000000000E+00 0. -1.
         -4   -1    0    0    0  501 -0.00000000000E+00 -0.00000000000E+00 -0.27808711697E+01  0.27808711697E+01  0.00000000000E+00 0. -1.
         21    1    1    2  503  502  0.20271457989E+02  0.73561166648E+01  0.41193563941E+03  0.41249971573E+03  0.00000000000E+00 0. -1.
         -4    1    1    2    0  503 -0.20271457989E+02 -0.73561166648E+01  0.44027331363E+02  0.49024997382E+02  0.00000000000E+00 0. -1.
</event>
<event>
 4    1  0.1593135E+006  0.2814640E+02  0.7546771E-02  0.1436420E+00
         21   -1    0    0  503  502  0.00000000000E+00  0.00000000000E+00  0.14601051085E+02  0.14601051085E+02  0.00000000000E+00 0.  1.
         -2   -1    0    0    0  501 -0.00000000000E+00 -0.00000000000E+00 -0.21891023427E+03  0.21891023427E+03  0.00000000000E+00 0. -1.
         21    1    1    2  503  501  0.15003654613E+02 -0.23814075020E+02 -0.89666690787E+00  0.28160678833E+02  0.00000000000E+00 0.  1.
         -2    1    1    2    0  502 -0.15003654613E+02  0.23814075020E+02 -0.20341251628E+03  0.20535060652E+03  0.00000000000E+00 0. -1.
</event>
<event>
 4    1  0.1593135E+006  0.9572702E+02  0.7546771E-02  0.1171425E+00
          4   -1    0    0  502    0 -0.00000000000E+00  0.00000000000E+00  0.71601282205E+02  0.71601282205E+02  0.00000000000E+00 0. -1.
         21   -1    0    0  503  502  0.00000000000E+00 -0.00000000000E+00 -0.26237956267E+03  0.26237956267E+03  0.00000000000E+00 0.  1.
         21    1    1    2  503  501 -0.63066509327E+02  0.72015819451E+02 -0.21490417406E+03  0.23526042352E+03  0.00000000000E+00 0.  1.
          4    1    1    2  501    0  0.63066509327E+02 -0.72015819451E+02  0.24125893592E+02  0.98720421350E+02  0.00000000000E+00 0. -1.
</event>
<event>
 4    1  0.1593135E+006  0.2776413E+02  0.7546771E-02  0.1440080E+00
         -4   -1    0    0    0  501 -0.00000000000E+00  0.00000000000E+00  0.17301640992E+01  0.17301640992E+01  0.00000000000E+00 0. -1.
         21   -1    0    0  503  502  0.00000000000E+00 -0.00000000000E+00 -0.95433507463E+03  0.95433507463E+03  0.00000000000E+00 0. -1.
         21    1    1    2  503  501  0.26817912863E+02 -0.71865429978E+01 -0.82534721284E+03  0.82581406418E+03  0.00000000000E+00 0. -1.
         -4    1    1    2    0  502 -0.26817912863E+02  0.71865429978E+01 -0.12725769770E+03  0.13025117456E+03  0.00000000000E+00 0. -1.
</event>
<event>
 4    1  0.1593135E+006  0.4132907E+02  0.7546771E-02  0.1340869E+00
         21   -1    0    0  503  502  0.00000000000E+00  0.00000000000E+00  0.61502632771E+02  0.61502632771E+02  0.00000000000E+00 0. -1.
         -1   -1    0    0    0  501 -0.00000000000E+00 -0.00000000000E+00 -0.38602946648E+02  0.38602946648E+02  0.00000000000E+00 0.  1.
         21    1    1    2  503  501  0.36887205706E+02 -0.18639364362E+02  0.37961568285E+02  0.56117488498E+02  0.00000000000E+00 0. -1.
         -1    1    1    2    0  502 -0.36887205706E+02  0.18639364362E+02 -0.15061882162E+02  0.43988090921E+02  0.00000000000E+00 0.  1.
</event>
<event>
 4    1  0.1593135E+006  0.2330276E+02  0.7546771E-02  0.1488731E+00
          2   -1    0    0  502    0 -0.00000000000E+00  0.00000000000E+00  0.68458682745E+03  0.68458682745E+03  0.00000000000E+00 0.  1.
         21   -1    0    0  503  502  0.00000000000E+00 -0.00000000000E+00 -0.39827584974E+02  0.39827584974E+02  0.00000000000E+00 0. -1.
         21    1    1    2  503  501 -0.71903472693E+01 -0.22165678993E+02 -0.36202586543E+02  0.43053985779E+02  0.00000000000E+00 0. -1.
          2    1    1    2  501    0  0.71903472693E+01  0.22165678993E+02  0.68096182902E+03  0.68136042664E+03  0.00000000000E+00 0.  1.
</event>
<event>
 4    1  0.1593135E+006  0.2814554E+02  0.7546771E-02  0.1436428E+00
         21   -1    0    0  503  502  0.00000000000E+00  0.00000000000E+00  0.26251612604E+03  0.26251612604E+03  0.00000000000E+00 0.  1.
          4   -1    0    0  502    0 -0.00000000000E+00 -0.00000000000E+00 -0.16723049978E+03  0.16723049978E+03  0.00000000000E+00 0.  1.
         21    1    1    2  503  501 -0.10196009078E+02  0.26233807118E+02  0.26056864769E+03  0.26208432115E+03  0.00000000000E+00 0.  1.
          4    1    1    2  501    0  0.10196009078E+02 -0.26233807118E+02 -0.16528302142E+03  0.16766230467E+03  0.00000000000E+00 0.  1.
</event>
<event>
 4    1  0.1593135E+006  0.2997821E+02  0.7546771E-02  0.1419786E+00
         -2   -1    0    0    0  501 -0.00000000000E+00  0.00000000000E+00  0.10757475925E+02  0.10757475925E+02  0.00000000000E+00 0.  1.
         21   -1    0    0  503  502  0.00000000000E+00 -0.00000000000E+00 -0.22229991124E+03  0.22229991124E+03  0.00000000000E+00 0. -1.
         21    1    1    2  503  501  0.29428358146E+02  0.57153267166E+01 -0.19783594027E+03  0.20009435895E+03  0.00000000000E+00 0. -1.
         -2    1    1    2    0  502 -0.29428358146E+02 -0.57153267166E+01 -0.13706495049E+02  0.32963028216E+02  0.00000000000E+00 0.  1.
</event>
<event>
 4    1  0.1593135E+006  0.2053332E+02  0.7546771E-02  0.1526033E+00
         21   -1    0    0  501  502  0.00000000000E+00  0.00000000000E+00  0.75675451583E+00  0.75675451583E+00  0.00000000000E+00 0. -1.
          1   -1    0    0  503    0 -0.00000000000E+00 -0.00000000000E+00 -0.58388080018E+03  0.58388080018E+03  0.00000000000E+00 0.  1.
         21    1    1    2  503  502  0.69531762239E+01  0.19320212227E+02 -0.22900270292E+03  0.22992141093E+03  0.00000000000E+00 0. -1.
          1    1    1    2  501    0 -0.69531762239E+01 -0.19320212227E+02 -0.35412134274E+03  0.35471614376E+03  0.00000000000E+00 0.  1.
</event>
<event>
 4    1  0.1593135E+006  0.2098548E+02  0.7546771E-02  0.1519472E+00
          2   -1    0    0  503    0 -0.00000000000E+00  0.00000000000E+00  0.52082069781E+03  0.52082069781E+03  0.00000000000E+00 0.  1.
         21   -1    0    0  501  502  0.00000000000E+00 -0.00000000000E+00 -0.86651482769E+00  0.86651482769E+00  0.00000000000E+00 0. -1.
         21    1    1    2  503  502  0.14076645098E+02 -0.15564017527E+02  0.21942379283E+03  0.22042502453E+03  0.00000000000E+00 0. -1.
          2    1    1    2  501    0 -0.14076645098E+02  0.15564017527E+02  0.30053039015E+03  0.30126218811E+03  0.00000000000E+00 0.  1.
</event>
<event>
 4    1  0.1593135E+006  0.2274919E+02  0.7546771E-02  0.1495672E+00
         -2   -1    0    0    0  501 -0.00000000000E+00  0.00000000000E+00  0.74736036749E+03  0.74736036749E+03  0.00000000000E+00 0.  1.
         21   -1    0    0  501  502  0.00000000000E+00 -0.00000000000E+00 -0.24312995928E+01  0.24312995928E+01  0.00000000000E+00 0.  1.
         21    1    1    2  503  502 -0.53988284713E+01  0.22099280619E+02  0.55420392086E+02  0.59907807602E+02  0.00000000000E+00 0.  1.
         -2    1    1    2    0  503  0.53988284713E+01 -0.22099280619E+02  0.68950867581E+03  0.68988385948E+03  0.00000000000E+00 0.  1.
</event>
<event>
 4    1  0.1593135E+006  0.2274675E+02  0.7546771E-02  0.1495703E+00
          2   -1    0    0  502    0 -0.00000000000E+00  0.00000000000E+00  0.26397059250E+02  0.26397059250E+02  0.00000000000E+00 0. -1.
         21   -1    0    0  503  502  0.00000000000E+00 -0.00000000000E+00 -0.15009005529E+03  0.15009005529E+03  0.00000000000E+00 0. -1.
         21    1    1    2  503  501 -0.22668607386E+02 -0.18838770269E+01 -0.14412639017E+03  0.14591035295E+03  0.00000000000E+00 0. -1.
          2    1    1    2  501    0  0.22668607386E+02  0.18838770269E+01  0.20433394134E+02  0.30576761590E+02  0.00000000000E+00 0. -1.
</event>
<event>
 4    1  0.1593135E+006  0.2240375E+02  0.7546771E-02  0.1500124E+00
         21   -1    0    0  501  502  0.00000000000E+00  0.00000000000E+00  0.13242515104E+02  0.13242515104E+02  0.00000000000E+00 0.  1.
          2   -1    0    0  503    0 -0.00000000000E+00 -0.00000000000E+00 -0.32061836805E+03  0.32061836805E+03  0.00000000000E+00 0. -1.
         21    1    1    2  503  502 -0.14412166741E+02  0.17152767449E+02  0.30652062508E+01  0.22612462730E+02  0.00000000000E+00 0.  1.
          2    1    1    2  501    0  0.14412166741E+02 -0.17152767449E+02 -0.31044105919E+03  0.31124842042E+03  0.00000000000E+00 0. -1.
</event>
<event>
 4    1  0.1593135E+006  0.4042849E+02  0.7546771E-02  0.1345993E+00
         -1   -1    0    0    0  501 -0.00000000000E+00  0.00000000000E+00  0.10507953176E+03  0.10507953176E+03  0.00000000000E+00 0. -1.
         21   -1    0    0  503  502  0.00000000000E+00 -0.00000000000E+00 -0.18784791243E+02  0.18784791243E+02  0.00000000000E+00 0.  1.
         21    1    1    2  503  501 -0.27065194021E+02  0.30032277837E+02  0.17465179957E+02  0.44039697438E+02  0.00000000000E+00 0.  1.
         -1    1    1    2    0  502  0.27065194021E+02 -0.30032277837E+02  0.68829560558E+02  0.79824625562E+02  0.00000000000E+00 0. -1.
</event>
<event>
 4    1  0.1593135E+006  0.2233490E+02  0.7546771E-02  0.1501023E+00
         -3   -1    0    0    0  501 -0.00000000000E+00  0.00000000000E+00  0.61186139609E+03  0.61186139609E+03  0.00000000000E+00 0. -1.
         21   -1    0    0  503  502  0.00000000000E+00 -0.00000000000E+00 -0.23970020451E+01  0.23970020451E+01  0.00000000000E+00 0.  1.
         21    1    1    2  503  501 -0.20870605085E+02 -0.79539544518E+01  0.55244044564E+02  0.59588186814E+02  0.00000000000E+00 0.  1.
         -3    1    1    2    0  502  0.20870605085E+02  0.79539544518E+01  0.55422034948E+03  0.55467021132E+03  0.00000000000E+00 0. -1.
</event>
<event>
 4    1  0.1593135E+006  0.2508224E+02  0.7546771E-02  0.1467885E+00
         -4   -1    0    0    0  501 -0.00000000000E+00  0.00000000000E+00  0.12223465484E+04  0.12223465484E+04  0.00000000000E+00 0. -1.
         21   -1    0    0  501  502  0.00000000000E+00 -0.00000000000E+00 -0.45602547856E+02  0.45602547856E+02  0.00000000000E+00 0. -1.
         21    1    1    2  503  502  0.24975834550E+02  0.23079171854E+01 -0.42014802307E+02  0.48932222575E+02  0.00000000000E+00 0. -1.
         -4    1    1    2    0  503 -0.24975834550E+02 -0.23079171854E+01  0.12187588029E+04  0.12190168737E+04  0.00000000000E+00 0. -1.
</event>
<event>
 4    1  0.1593135E+006  0.3115569E+02  0.7546771E-02  0.1409812E+00
         21   -1    0    0  501  502  0.00000000000E+00  0.00000000000E+00  0.14837403076E+03  0.14837403076E+03  0.00000000000E+00 0. -1.
          3   -1    0    0  503    0 -0.00000000000E+00 -0.00000000000E+00 -0.11948427756E+03  0.11948427756E+03  0.00000000000E+00 0.  1.
         21    1    1    2  503  502  0.31113897516E+02 -0.16131179766E+01  0.14465592513E+03  0.14797301593E+03  0.00000000000E+00 0. -1.
          3    1    1    2  501    0 -0.31113897516E+02  0.16131179766E+01 -0.11576617193E+03  0.11988529239E+03  0.00000000000E+00 0.  1.
</event>
<event>
 4    1  0.1593135E+006  0.4349462E+02  0.7546771E-02  0.1329141E+00
          1   -1    0    0  502    0 -0.00000000000E+00  0.00000000000E+00  0.10819674625E+04  0.10819674625E+04  0.00000000000E+00 0.  1.
         21   -1    0    0  503  502  0.00000000000E+00 -0.00000000000E+00 -0.44941949830E+01  0.44941949830E+01  0.00000000000E+00 0.  1.
         21    1    1    2  503  501 -0.37653029158E+02 -0.21772261638E+02  0.11412940347E+03  0.12213641029E+03  0.00000000000E+00 0.  1.
          1    1    1    2  501    0  0.37653029158E+02  0.21772261638E+02  0.96334386409E+03  0.96432524723E+03  0.00000000000E+00 0.  1.
</event>
<event>
 4    1  0.1593135E+006  0.2244691E+02  0.7546771E-02  0.1499563E+00
          1   -1    0    0  503    0 -0.00000000000E+00  0.00000000000E+00  0.22848822974E+04  0.22848822974E+04  0.00000000000E+00 0.  1.
         21   -1    0    0  501  502  0.00000000000E+00 -0.00000000000E+00 -0.24257385358E+00  0.24257385358E+00  0.00000000000E+00 0.  1.
         21    1    1    2  503  502 -0.17667601127E+02  0.13846292262E+02  0.79781695727E+03  0.79813267145E+03  0.00000000000E+00 0.  1.
          1    1    1    2  501    0  0.17667601127E+02 -0.13846292262E+02  0.14868227662E+04  0.14869921998E+04  0.00000000000E+00 0.  1.
</event>
<event>
 4    1  0.1593135E+006  0.2509076E+02  0.7546771E-02  0.1467791E+00
         -1   -1    0    0    0  501 -0.00000000000E+00  0.00000000000E+00  0.36646649614E+03  0.36646649614E+03  0.00000000000E+00 0.  1.
         21   -1    0    0  501  502  0.00000000000E+00 -0.00000000000E+00 -0.17524816761E+02  0.17524816761E+02  0.00000000000E+00 0.  1.
         21    1    1    2  503  502  0.19933149152E+02 -0.15238632657E+02 -0.78719039494E+01  0.26296639180E+02  0.00000000000E+00 0.  1.
         -1    1    1    2    0  503 -0.19933149152E+02  0.15238632657E+02  0.35681358333E+03  0.35769467372E+03  0.00000000000E+00 0.  1.
</event>
<event>
 4    1  0.1593135E+006  0.2363733E+02  0.7546771E-02  0.1484647E+00
          4   -1    0    0  502    0 -0.00000000000E+00  0.00000000000E+00  0.13853250797E+02  0.13853250797E+02  0.00000000000E+00 0. -1.
         21   -1    0    0  503  502  0.00000000000E+00 -0.00000000000E+00 -0.40461172748E+02  0.40461172748E+02  0.00000000000E+00 0. -1.
         21    1    1    2  503  501  0.13222520834E+02 -0.19593062379E+02 -0.14841045249E+02  0.27910209148E+02  0.00000000000E+00 0. -1.
          4    1    1    2  501    0 -0.13222520834E+02  0.19593062379E+02 -0.11766876702E+02  0.26404214396E+02  0.00000000000E+00 0. -1.
</event>
<event>
 4    1  0.1593135E+006  0.2925216E+02  0.7546771E-02  0.1426208E+00
          2   -1    0    0  502    0 -0.00000000000E+00  0.00000000000E+00  0.15661481844E+03  0.15661481844E+03  0.00000000000E+00 0.  1.
         21   -1    0    0  503  502  0.00000000000E+00 -0.00000000000E+00 -0.20111152319E+02  0.20111152319E+02  0.00000000000E+00 0.  1.
         21    1    1    2  503  501 -0.11235245814E+02  0.27008487419E+02 -0.71589819732E+01  0.30115447267E+02  0.00000000000E+00 0.  1.
          2    1    1    2  501    0  0.11235245814E+02 -0.27008487419E+02  0.14366264810E+03  0.14661052349E+03  0.00000000000E+00 0.  1.
</event>
<event>
 4    1  0.1593135E+006  0.2212033E+02  0.7546771E-02  0.1503850E+00
          4   -1    0    0  503    0 -0.00000000000E+00  0.00000000000E+00  0.29772999245E+02  0.29772999245E+02  0.00000000000E+00 0. -1.
         21   -1    0    0  501  502  0.00000000000E+00 -0.00000000000E+00 -0.27878331648E+03  0.27878331648E+03  0.00000000000E+00 0. -1.
         21    1    1    2  503  502  0.13802725541E+02  0.17285656028E+02 -0.27416679044E+03  0.27505769961E+03  0.00000000000E+00 0. -1.
          4    1    1    2  501    0 -0.13802725541E+02 -0.17285656028E+02  0.25156473210E+02  0.33498616106E+02  0.00000000000E+00 0. -1.
</event>
<event>
 4    1  0.1593135E+006  0.2036521E+02  0.7546771E-02  0.1528524E+00
         21   -1    0    0  503  502  0.00000000000E+00  0.00000000000E+00  0.34841795155E+01  0.34841795155E+01  0.00000000000E+00 0. -1.
          2   -1    0    0  502    0 -0.00000000000E+00 -0.00000000000E+00 -0.37485797615E+03  0.37485797615E+03  0.00000000000E+00 0. -1.
         21    1    1    2  503  501  0.17977278064E+02 -0.95686510710E+01 -0.29411514887E+02  0.35773996392E+02  0.00000000000E+00 0. -1.
          2    1    1    2  501    0 -0.17977278064E+02  0.95686510710E+01 -0.34196228175E+03  0.34256815927E+03  0.00000000000E+00 0. -1.
</event>
<event>
 4    1  0.1593135E+006  0.2258116E+02  0.7546771E-02  0.1497826E+00
          1   -1    0    0  502    0 -0.00000000000E+00  0.00000000000E+00  0.21934172476E+03  0.21934172476E+03  0.00000000000E+00 0.  1.
         21   -1    0    0  503  502  0.00000000000E+00 -0.00000000000E+00 -0.57482820262E+01  0.57482820262E+01  0.00000000000E+00 0. -1.
         21    1    1    2  503  501 -0.86498923401E+01  0.20858771473E+02  0.19941480789E+02  0.30125929711E+02  0.00000000000E+00 0. -1.
          1    1    1    2  501    0  0.86498923401E+01 -0.20858771473E+02  0.19365196194E+03  0.19496407707E+03  0.00000000000E+00 0.  1.
</event>
<event>
 4    1  0.1593135E+006  0.4429111E+02  0.7546771E-02  0.1325022E+00
         21   -1    0    0  501  502  0.00000000000E+00  0.00000000000E+00  0.19740820322E+02  0.19740820322E+02  0.00000000000E+00 0. -1.
          2   -1    0    0  503    0 -0.00000000000E+00 -0.00000000000E+00 -0.26190405232E+03  0.26190405232E+03  0.00000000000E+00 0. -1.
         21    1    1    2  503  502  0.34483878171E+02 -0.27795040401E+02 -0.10146489862E+02  0.45438457073E+02  0.00000000000E+00 0. -1.
          2    1    1    2  501    0 -0.34483878171E+02  0.27795040401E+02 -0.23201674213E+03  0.23620641557E+03  0.00000000000E+00 0. -1.
</event>
<event>
 4    1  0.1593135E+006  0.2412647E+02  0.7546771E-02  0.1478818E+00
          2   -1    0    0  503    0 -0.00000000000E+00  0.00000000000E+00  0.26615856768E+01  0.26615856768E+01  0.00000000000E+00 0. -1.
         21   -1    0    0  501  502  0.00000000000E+00 -0.00000000000E+00 -0.99145033553E+03  0.99145033553E+03  0.00000000000E+00 0. -1.
         21    1    1    2  503  502 -0.14972856090E+02 -0.18918252329E+02 -0.93321762197E+03  0.93352944069E+03  0.00000000000E+00 0. -1.
          2    1    1    2  501    0  0.14972856090E+02  0.18918252329E+02 -0.55571127887E+02  0.60582480515E+02  0.00000000000E+00 0. -1.
</event>
<event>
 4    1  0.1593135E+006  0.2706024E+02  0.7546771E-02  0.1447004E+00
         21   -1    0    0  501  502  0.00000000000E+00  0.00000000000E+00  0.74966175500E+02  0.74966175500E+02  0.00000000000E+00 0. -1.
         -2   -1    0    0    0  501 -0.00000000000E+00 -0.00000000000E+00 -0.15197281614E+02  0.15197281614E+02  0.00000000000E+00 0.  1.
         21    1    1    2  503  502  0.26817325158E+02  0.36177072359E+01  0.56830530597E+02  0.62944149388E+02  0.00000000000E+00 0. -1.
         -2    1    1    2    0  503 -0.26817325158E+02 -0.36177072359E+01  0.29383632886E+01  0.27219307726E+02  0.00000000000E+00 0.  1.
</event>
<event>
 4    1  0.1593135E+006  0.2126942E+02  0.7546771E-02  0.1515453E+00
         -1   -1    0    0    0  501 -0.00000000000E+00  0.00000000000E+00  0.13815269919E+03  0.13815269919E+03  0.00000000000E+00 0. -1.
         21   -1    0    0  503  502  0.00000000000E+00 -0.00000000000E+00 -0.10281175710E+03  0.10281175710E+03  0.00000000000E+00 0. -1.
         21    1    1    2  503  501  0.91414446686E+01  0.19204742953E+02 -0.10087755350E+03  0.10309543619E+03  0.00000000000E+00 0. -1.
         -1    1    1    2    0  502 -0.91414446686E+01 -0.19204742953E+02  0.13621849559E+03  0.13786902010E+03  0.00000000000E+00 0. -1.
</event>
<event>
 4    1  0.1593135E+006  0.2500785E+02  0.7546771E-02  0.1468716E+00
         21   -1    0    0  501  502  0.00000000000E+00  0.00000000000E+00  0.19597912988E+01  0.19597912988E+01  0.00000000000E+00 0. -1.
         -3   -1    0    0    0  501 -0.00000000000E+00 -0.00000000000E+00 -0.47146291760E+03  0.47146291760E+03  0.00000000000E+00 0.  1.
         21    1    1    2  503  502 -0.72173760429E+01 -0.23943726461E+02 -0.10019089810E+03  0.10326475012E+03  0.00000000000E+00 0. -1.
         -3    1    1    2    0  503  0.72173760429E+01  0.23943726461E+02 -0.36931222820E+03  0.37015795878E+03  0.00000000000E+00 0.  1.
</event>
<event>
 4    1  0.1593135E+006  0.4948423E+02  0.7546771E-02  0.1300424E+00
          2   -1    0    0  503    0 -0.00000000000E+00  0.00000000000E+00  0.15651819222E+04  0.15651819222E+04  0.00000000000E+00 0.  1.
         21   -1    0    0  501  502  0.00000000000E+00 -0.00000000000E+00 -0.20911343769E+01  0.20911343769E+01  0.00000000000E+00 0.  1.
         21    1    1    2  503  502 -0.40912048460E+02  0.27836907135E+02  0.38827765929E+03  0.39141822877E+03  0.00000000000E+00 0.  1.
          2    1    1    2  501    0  0.40912048460E+02 -0.27836907135E+02  0.11748131286E+04  0.11758548278E+04  0.00000000000E+00 0.  1.
</event>
<event>
 4    1  0.1593135E+006  0.2362478E+02  0.7546771E-02  0.1484798E+00
          2   -1    0    0  502    0 -0.00000000000E+00  0.00000000000E+00  0.11152420253E+04  0.11152420253E+04  0.00000000000E+00 0. -1.
         21   -1    0    0  503  502  0.00000000000E+00 -0.00000000000E+00 -0.36532205967E+01  0.36532205967E+01  0.00000000000E+00 0.  1.
         21    1    1    2  503  501 -0.22837164196E+02 -0.60493259147E+01  0.36077065677E+02  0.43124066139E+02  0.00000000000E+00 0.  1.
          2    1    1    2  501    0  0.22837164196E+02  0.60493259147E+01  0.10755117390E+04  0.10757711798E+04  0.00000000000E+00 0. -1.
</event>
<event>
 4    1  0.1593135E+006  0.4782721E+02  0.7546771E-02  0.1307878E+00
         21   -1    0    0  503  502  0.00000000000E+00  0.00000000000E+00  0.13070606372E+02  0.13070606372E+02  0.00000000000E+00 0.  1.
         -4   -1    0    0    0  501 -0.00000000000E+00 -0.00000000000E+00 -0.48288503607E+03  0.48288503607E+03  0.00000000000E+00 0. -1.
         21    1    1    2  503  501  0.42643236571E+02 -0.21656329764E+02 -0.36900184922E+02  0.60407498635E+02  0.00000000000E+00 0.  1.
         -4    1    1    2    0  502 -0.42643236571E+02  0.21656329764E+02 -0.43291424478E+03  0.43554814381E+03  0.00000000000E+00 0. -1.
</event>
<event>
 4    1  0.1593135E+006  0.2803812E+02  0.7546771E-02  0.1437450E+00
         21   -1    0    0  501  502  0.00000000000E+00  0.00000000000E+00  0.19233201630E+01  0.19233201630E+01  0.00000000000E+00 0. -1.
          2   -1    0    0  503    0 -0.00000000000E+00 -0.00000000000E+00 -0.10670150677E+04  0.10670150677E+04  0.00000000000E+00 0.  1.
         21    1    1    2  503  502  0.79360074470E+01 -0.26891560265E+02 -0.11274688397E+03  0.11618087654E+03  0.00000000000E+00 0. -1.
          2    1    1    2  501    0 -0.79360074470E+01  0.26891560265E+02 -0.95234486360E+03  0.95275751136E+03  0.00000000000E+00 0.  1.
</event>
<event>
 4    1  0.1593135E+006  0.2698111E+02  0.7546771E-02  0.1447798E+00
         21   -1    0    0  503  502  0.00000000000E+00  0.00000000000E+00  0.83877584872E+00  0.83877584872E+00  0.00000000000E+00 0. -1.
          2   -1    0    0  502    0 -0.00000000000E+00 -0.00000000000E+00 -0.14216411841E+04  0.14216411841E+04  0.00000000000E+00 0.  1.
         21    1    1    2  503  501 -0.23912436774E+02 -0.12497023697E+02 -0.26651519682E+03  0.26787745401E+03  0.00000000000E+00 0. -1.
          2    1    1    2  501    0  0.23912436774E+02  0.12497023697E+02 -0.11542872115E+04  0.11546025060E+04  0.00000000000E+00 0.  1.
</event>
<event>
 4    1  0.1593135E+006  0.2070136E+02  0.7546771E-02  0.1523572E+00
         21   -1    0    0  501  502  0.00000000000E+00  0.00000000000E+00  0.11380904147E+03  0.11380904147E+03  0.00000000000E+00 0. -1.
          4   -1    0    0  503    0 -0.00000000000E+00 -0.00000000000E+00 -0.40383005677E+02  0.40383005677E+02  0.00000000000E+00 0. -1.
         21    1    1    2  503  502 -0.35112906511E+01  0.20401404565E+02  0.11012671818E+03  0.11205552430E+03  0.00000000000E+00 0. -1.
          4    1    1    2  501    0  0.35112906511E+01 -0.20401404565E+02 -0.36700682382E+02  0.42136522846E+02  0.00000000000E+00 0. -1.
</event>
<event>
 4    1  0.1593135E+006  0.2175660E+02  0.7546771E-02  0.1508731E+00
          4   -1    0    0  503    0 -0.00000000000E+00  0.00000000000E+00  0.13702172854E+03  0.13702172854E+03  0.00000000000E+00 0.  1.
         21   -1    0    0  501  502  0.00000000000E+00 -0.00000000000E+00 -0.49368213091E+02  0.49368213091E+02  0.00000000000E+00 0. -1.
         21    1    1    2  503  502 -0.80562636602E+01  0.20210053535E+02 -0.46048407455E+02  0.50929416620E+02  0.00000000000E+00 0. -1.
          4    1    1    2  501    0  0.80562636602E+01 -0.20210053535E+02  0.13370192290E+03  0.13546052501E+03  0.00000000000E+00 0.  1.
</event>
<event>
 4    1  0.1593135E+006  0.2117003E+02  0.7546771E-02  0.1516851E+00
         -2   -1    0    0    0  501 -0.00000000000E+00  0.00000000000E+00  0.11449629248E+04  0.11449629248E+04  0.00000000000E+00 0.  1.
         21   -1    0    0  503  502  0.00000000000E+00 -0.00000000000E+00 -0.20201869139E+03  0.20201869139E+03  0.00000000000E+00 0. -1.
         21    1    1    2  503  501  0.53089057244E+01 -0.20493554380E+02 -0.20136590326E+03  0.20247567075E+03  0.00000000000E+00 0. -1.
         -2    1    1    2    0  502 -0.53089057244E+01  0.20493554380E+02  0.11443101366E+04  0.11445059454E+04  0.00000000000E+00 0.  1.
</event>
<event>
 4    1  0.1593135E+006  0.2255530E+02  0.7546771E-02  0.1498159E+00
         -1   -1    0    0    0  501 -0.00000000000E+00  0.00000000000E+00  0.22299137745E+02  0.22299137745E+02  0.00000000000E+00 0.  1.
         21   -1    0    0  501  502  0.00000000000E+00 -0.00000000000E+00 -0.22823789675E+02  0.22823789675E+02  0.00000000000E+00 0.  1.
         21    1    1    2  503  502  0.22038488393E+02  0.48006790759E+01  0.19524139347E+00  0.22556143497E+02  0.00000000000E+00 0.  1.
         -1    1    1    2    0  503 -0.22038488393E+02 -0.48006790759E+01 -0.71989332412E+00  0.22566783923E+02  0.00000000000E+00 0.  1.
</event>
<event>
 4    1  0.1593135E+006  0.3239431E+02  0.7546771E-02  0.1399870E+00
         21   -1    0    0  503  502  0.00000000000E+00  0.00000000000E+00  0.20032479909E+02  0.20032479909E+02  0.00000000000E+00 0. -1.
         -2   -1    0    0    0  501 -0.00000000000E+00 -0.00000000000E+00 -0.53964011857E+02  0.53964011857E+02  0.00000000000E+00 0. -1.
         21    1    1    2  503  501  0.15158179809E+02 -0.28629024711E+02 -0.10635961748E+02  0.34095676461E+02  0.00000000000E+00 0. -1.
         -2    1    1    2    0  502 -0.15158179809E+02  0.28629024711E+02 -0.23295570201E+02  0.39900815305E+02  0.00000000000E+00 0. -1.
</event>
<event>
 4    1  0.1593135E+006  0.7509054E+02  0.7546771E-02  0.1215728E+00
         -4   -1    0    0    0  501 -0.00000000000E+00  0.00000000000E+00  0.25091723121E+03  0.25091723121E+03  0.00000000000E+00 0. -1.
         21   -1    0    0  501  502  0.00000000000E+00 -0.00000000000E+00 -0.25667626243E+02  0.25667626243E+02  0.00000000000E+00 0. -1.
         21    1    1    2  503  502  0.14429340280E+02  0.73691139508E+02  0.63828206221E+02  0.98552675318E+02  0.00000000000E+00 0. -1.
         -4    1    1    2    0  503 -0.14429340280E+02 -0.73691139508E+02  0.16142139874E+03  0.17803218213E+03  0.00000000000E+00 0. -1.
</event>
<event>
 4    1  0.1593135E+006  0.2043166E+02  0.7546771E-02  0.1527536E+00
          4   -1    0    0  503    0 -0.00000000000E+00  0.00000000000E+00  0.26328203647E+03  0.26328203647E+03  0.00000000000E+00 0. -1.
         21   -1    0    0  501  502  0.00000000000E+00 -0.00000000000E+00 -0.97159248948E+01  0.97159248948E+01  0.00000000000E+00 0.  1.
         21    1    1    2  503  502  0.19373064758E+02  0.64913008521E+01  0.19176790095E+01  0.20521455057E+02  0.00000000000E+00 0.  1.
          4    1    1    2  501    0 -0.19373064758E+02 -0.64913008521E+01  0.25164843257E+03  0.25247650631E+03  0.00000000000E+00 0. -1.
</event>
<event>
 4    1  0.1593135E+006  0.2362127E+02  0.7546771E-02  0.1484841E+00
         -2   -1    0    0    0  501 -0.00000000000E+00  0.00000000000E+00  0.21125617648E+03  0.21125617648E+03  0.00000000000E+00 0. -1.
         21   -1    0    0  501  502  0.00000000000E+00 -0.00000000000E+00 -0.46054644866E+01  0.46054644866E+01  0.00000000000E+00 0. -1.
         21    1    1    2  503  502 -0.99554213906E+01  0.21420873023E+02  0.32837926855E+02  0.40451126762E+02  0.00000000000E+00 0. -1.
         -2    1    1    2    0  503  0.99554213906E+01 -0.21420873023E+02  0.17381278514E+03  0.17541051421E+03  0.00000000000E+00 0. -1.
</event>
<event>
 4    1  0.1593135E+006  0.2569058E+02  0.7546771E-02  0.1461224E+00
          2   -1    0    0  502    0 -0.00000000000E+00  0.00000000000E+00  0.31458036664E+03  0.31458036664E+03  0.00000000000E+00 0.  1.
         21   -1    0    0  503  502  0.00000000000E+00 -0.00000000000E+00 -0.46375167866E+01  0.46375167866E+01  0.00000000000E+00 0.  1.
         21    1    1    2  503  501  0.11686513029E+02 -0.22878624716E+02  0.36861730954E+02  0.44930983347E+02  0.00000000000E+00 0.  1.
          2    1    1    2  501    0 -0.11686513029E+02  0.22878624716E+02  0.27308111889E+03  0.27428690007E+03  0.00000000000E+00 0.  1.
</event>
<event>
 4    1  0.1593135E+006  0.2080435E+02  0.7546771E-02  0.1522077E+00
         -2   -1    0    0    0  501 -0.00000000000E+00  0.00000000000E+00  0.26514686321E+02  0.26514686321E+02  0.00000000000E+00 0. -1.
         21   -1    0    0  503  502  0.00000000000E+00 -0.00000000000E+00 -0.13290219401E+03  0.13290219401E+03  0.00000000000E+00 0. -1.
         21    1    1    2  503  501 -0.17505655215E+02 -0.11241566462E+02 -0.12784675042E+03  0.12952842303E+03  0.00000000000E+00 0. -1.
         -2    1    1    2    0  502  0.17505655215E+02  0.11241566462E+02  0.21459242730E+02  0.29888457297E+02  0.00000000000E+00 0. -1.
</event>
<event>
 4    1  0.1593135E+006  0.2156322E+02  0.7546771E-02  0.1511373E+00
         21   -1    0    0  503  502  0.00000000000E+00  0.00000000000E+00  0.32483139098E+02  0.32483139098E+02  0.00000000000E+00 0. -1.
          2   -1    0    0  502    0 -0.00000000000E+00 -0.00000000000E+00 -0.30171717645E+03  0.30171717645E+03  0.00000000000E+00 0. -1.
         21    1    1    2  503  501  0.18282031449E+02  0.11434157756E+02  0.28471134753E+02  0.35715236967E+02  0.00000000000E+00 0. -1.
          2    1    1    2  501    0 -0.18282031449E+02 -0.11434157756E+02 -0.29770517211E+03  0.29848507859E+03  0.00000000000E+00 0. -1.
</event>
<event>
 4    1  0.1593135E+006  0.2796932E+02  0.7546771E-02  0.1438107E+00
         21   -1    0    0  501  502  0.00000000000E+00  0.00000000000E+00  0.70116843609E+01  0.70116843609E+01  0.00000000000E+00 0.  1.
          1   -1    0    0  503    0 -0.00000000000E+00 -0.00000000000E+00 -0.34600088967E+03  0.34600088967E+03  0.00000000000E+00 0.  1.
         21    1    1    2  503  502  0.26410277017E+02  0.92076104545E+01 -0.24206378219E+02  0.36989614338E+02  0.00000000000E+00 0.  1.
          1    1    1    2  501    0 -0.26410277017E+02 -0.92076104545E+01 -0.31478282709E+03  0.31602295969E+03  0.00000000000E+00 0.  1.
</event>
<event>
 4    1  0.1593135E+006  0.2554530E+02  0.7546771E-02  0.1462795E+00
         21   -1    0    0  503  502  0.00000000000E+00  0.00000000000E+00  0.39339798317E+02  0.39339798317E+02  0.00000000000E+00 0. -1.
         -3   -1    0    0    0  501 -0.00000000000E+00 -0.00000000000E+00 -0.22785321242E+03  0.22785321242E+03  0.00000000000E+00 0. -1.
         21    1    1    2  503  501  0.23886228130E+02  0.90559540330E+01  0.34384966677E+02  0.42835594207E+02  0.00000000000E+00 0. -1.
         -3    1    1    2    0  502 -0.23886228130E+02 -0.90559540330E+01 -0.22289838078E+03  0.22435741653E+03  0.00000000000E+00 0. -1.
</event>
<event>
 4    1  0.1593135E+006  0.2971547E+02  0.7546771E-02  0.1422085E+00
         21   -1    0    0  503  502  0.00000000000E+00  0.00000000000E+00  0.17055175742E+02  0.17055175742E+02  0.00000000000E+00 0. -1.
         -2   -1    0    0    0  501 -0.00000000000E+00 -0.00000000000E+00 -0.71734181753E+02  0.71734181753E+02  0.00000000000E+00 0. -1.
         21    1    1    2  503  501 -0.33183489518E+01 -0.29529603381E+02 -0.39212896265E+01  0.29973078387E+02  0.00000000000E+00 0. -1.
         -2    1    1    2    0  502  0.33183489518E+01  0.29529603381E+02 -0.50757716385E+02  0.58816279109E+02  0.00000000000E+00 0. -1.
</event>
<event>
 4    1  0.1593135E+006  0.6008983E+02  0.7546771E-02  0.1259528E+00
         -3   -1    0    0    0  501 -0.00000000000E+00  0.00000000000E+00  0.94960320227E+03  0.94960320227E+03  0.00000000000E+00 0.  1.
         21   -1    0    0  501  502  0.00000000000E+00 -0.00000000000E+00 -0.13904824032E+02  0.13904824032E+02  0.00000000000E+00 0.  1.
         21    1    1    2  503  502 -0.56910082677E+02 -0.19288088141E+02  0.57215087917E+02  0.82972008170E+02  0.00000000000E+00 0.  1.
         -3    1    1    2    0  503  0.56910082677E+02  0.19288088141E+02  0.87848329032E+03  0.88053601813E+03  0.00000000000E+00 0.  1.
</event>
<event>
 4    1  0.1593135E+006  0.2211355E+02  0.7546771E-02  0.1503940E+00
          4   -1    0    0  503    0 -0.00000000000E+00  0.00000000000E+00  0.10933119568E+02  0.10933119568E+02  0.00000000000E+00 0. -1.
         21   -1    0    0  501  502  0.00000000000E+00 -0.00000000000E+00 -0.28964661644E+03  0.28964661644E+03  0.00000000000E+00 0.  1.
         21    1    1    2  503  502 -0.19305596672E+01  0.22029113604E+02 -0.27755641447E+03  0.27843593898E+03  0.00000000000E+00 0.  1.
          4    1    1    2  501    0  0.19305596672E+01 -0.22029113604E+02 -0.11570824023E+01  0.22143797020E+02  0.00000000000E+00 0. -1.
</event>
<event>
 4    1  0.1593135E+006  0.3536739E+02  0.7546771E-02  0.1377999E+00
          1   -1    0    0  502    0 -0.00000000000E+00  0.00000000000E+00  0.10377047608E+02  0.10377047608E+02  0.00000000000E+00 0.  1.
         21   -1    0    0  503  502  0.00000000000E+00 -0.00000000000E+00 -0.43295408267E+03  0.43295408267E+03  0.00000000000E+00 0. -1.
         21    1    1    2  503  501 -0.35354345774E+02 -0.96052660277E+00 -0.39958508758E+03  0.40114722309E+03  0.00000000000E+00 0. -1.
          1    1    1    2  501    0  0.35354345774E+02  0.96052660277E+00 -0.22991947477E+02  0.42183907183E+02  0.00000000000E+00 0.  1.
</event>
<event>
 4    1  0.1593135E+006  0.2803762E+02  0.7546771E-02  0.1437454E+00
         21   -1    0    0  503  502  0.00000000000E+00  0.00000000000E+00  0.36413986896E+01  0.36413986896E+01  0.00000000000E+00 0. -1.
          2   -1    0    0  502    0 -0.00000000000E+00 -0.00000000000E+00 -0.34016365465E+03  0.34016365465E+03  0.00000000000E+00 0. -1.
         21    1    1    2  503  501 -0.19161611661E+02 -0.20468048018E+02 -0.64354374165E+02  0.70196822045E+02  0.00000000000E+00 0. -1.
          2    1    1    2  501    0  0.19161611661E+02  0.20468048018E+02 -0.27216788179E+03  0.27360823129E+03  0.00000000000E+00 0. -1.
</event>
<event>
 4    1  0.1593135E+006  0.2349267E+02  0.7546771E-02  0.1486403E+00
         21   -1    0    0  501  502  0.00000000000E+00  0.00000000000E+00  0.17657187529E+02  0.17657187529E+02  0.00000000000E+00 0.  1.
          1   -1    0    0  503    0 -0.00000000000E+00 -0.00000000000E+00 -0.31373249862E+02  0.31373249862E+02  0.00000000000E+00 0.  1.
         21    1    1    2  503  502  0.13398266618E+02  0.19297465608E+02 -0.83521281329E+01  0.24933186150E+02  0.00000000000E+00 0.  1.
          1    1    1    2  501    0 -0.13398266618E+02 -0.19297465608E+02 -0.53639341999E+01  0.24097251241E+02  0.00000000000E+00 0.  1.
</event>
<event>
 4    1  0.1593135E+006  0.2996258E+02  0.7546771E-02  0.1419922E+00
          3   -1    0    0  502    0 -0.00000000000E+00  0.00000000000E+00  0.24544622936E+03  0.24544622936E+03  0.00000000000E+00 0. -1.
         21   -1    0    0  503  502  0.00000000000E+00 -0.00000000000E+00 -0.13486604490E+02  0.13486604490E+02  0.00000000000E+00 0.  1.
         21    1    1    2  503  501  0.29648432764E+02  0.43274532520E+01  0.54550783622E+01  0.30455119388E+02  0.00000000000E+00 0.  1.
          3    1    1    2  501    0 -0.29648432764E+02 -0.43274532520E+01  0.22650454651E+03  0.22847771446E+03  0.00000000000E+00 0. -1.
</event>
<event>
 4    1  0.1593135E+006  0.2861361E+02  0.7546771E-02  0.1432039E+00
         -3   -1    0    0    0  501 -0.00000000000E+00  0.00000000000E+00  0.10241337936E+02  0.10241337936E+02  0.00000000000E+00 0. -1.
         21   -1    0    0  503  502  0.00000000000E+00 -0.00000000000E+00 -0.18424927494E+04  0.18424927494E+04  0.00000000000E+00 0. -1.
         21    1    1    2  503  501  0.25925614324E+02  0.12107892479E+02 -0.18221726730E+04  0.18223973191E+04  0.00000000000E+00 0. -1.
         -3    1    1    2    0  502 -0.25925614324E+02 -0.12107892479E+02 -0.10078738517E+02  0.30336768260E+02  0.00000000000E+00 0. -1.
</event>
<event>
 4    1  0.1593135E+006  0.2119947E+02  0.7546771E-02  0.1516436E+00
         -1   -1    0    0    0  501 -0.00000000000E+00  0.00000000000E+00  0.17608848610E+02  0.17608848610E+02  0.00000000000E+00 0. -1.
         21   -1    0    0  503  502  0.00000000000E+00 -0.00000000000E+00 -0.49242468228E+02  0.49242468228E+02  0.00000000000E+00 0.  1.
         21    1    1    2  503  501  0.31395445360E+01  0.20965708772E+02 -0.39015810369E+02  0.44403278516E+02  0.00000000000E+00 0.  1.
         -1    1    1    2    0  502 -0.31395445360E+01 -0.20965708772E+02  0.73821907517E+01  0.22448038322E+02  0.00000000000E+00 0. -1.
</event>
<event>
 4    1  0.1593135E+006  0.4144837E+02  0.7546771E-02  0.1340201E+00
         -1   -1    0    0    0  501 -0.00000000000E+00  0.00000000000E+00  0.13793546258E+04  0.13793546258E+04  0.00000000000E+00 0. -1.
         21   -1    0    0  501  502  0.00000000000E+00 -0.00000000000E+00 -0.61151164686E+02  0.61151164686E+02  0.00000000000E+00 0. -1.
         21    1    1    2  503  502 -0.40468033190E+02 -0.89613482038E+01 -0.53778614729E+02  0.67897767814E+02  0.00000000000E+00 0. -1.
         -1    1    1    2    0  503  0.40468033190E+02  0.89613482038E+01  0.13719820759E+04  0.13726080227E+04  0.00000000000E+00 0. -1.
</event>
<event>
 4    1  0.1593135E+006  0.3045320E+02  0.7546771E-02  0.1415698E+00
         21   -1    0    0  501  502  0.00000000000E+00  0.00000000000E+00  0.26258139845E+02  0.26258139845E+02  0.00000000000E+00 0. -1.
          2   -1    0    0  503    0 -0.00000000000E+00 -0.00000000000E+00 -0.41280176863E+03  0.41280176863E+03  0.00000000000E+00 0.  1.
         21    1    1    2  503  502  0.25549653355E+02 -0.16571440302E+02  0.16656916762E+02  0.34710953549E+02  0.00000000000E+00 0. -1.
          2    1    1    2  501    0 -0.25549653355E+02  0.16571440302E+02 -0.40320054554E+03  0.40434895492E+03  0.00000000000E+00 0.  1.
</event>
<event>
 4    1  0.1593135E+006  0.2142122E+02  0.7546771E-02  0.1513335E+00
         21   -1    0    0  501  502  0.00000000000E+00  0.00000000000E+00  0.12760243585E+02  0.12760243585E+02  0.00000000000E+00 0. -1.
         -3   -1    0    0    0  501 -0.00000000000E+00 -0.00000000000E+00 -0.58366717562E+02  0.58366717562E+02  0.00000000000E+00 0. -1.
         21    1    1    2  503  502 -0.18152370062E+02  0.11373664808E+02 -0.76875620654E+00  0.21435012856E+02  0.00000000000E+00 0. -1.
         -3    1    1    2    0  503  0.18152370062E+02 -0.11373664808E+02 -0.44837717771E+02  0.49691948291E+02  0.00000000000E+00 0. -1.
</event>
<event>
 4    1  0.1593135E+006  0.4576066E+02  0.7546771E-02  0.1317679E+00
          2   -1    0    0  503    0 -0.00000000000E+00  0.00000000000E+00  0.17112250147E+04  0.17112250147E+04  0.00000000000E+00 0. -1.
         21   -1    0    0  501  502  0.00000000000E+00 -0.00000000000E+00 -0.40936719384E+01  0.40936719384E+01  0.00000000000E+00 0.  1.
         21    1    1    2  503  502 -0.64820678037E+01 -0.45299237191E+02  0.13544637294E+03  0.14296768179E+03  0.00000000000E+00 0.  1.
          2    1    1    2  501    0  0.64820678037E+01  0.45299237191E+02  0.15716849698E+04  0.15723510048E+04  0.00000000000E+00 0. -1.
</event>
<event>
 4    1  0.1593135E+006  0.2706596E+02  0.7546771E-02  0.1446947E+00
         21   -1    0    0  503  502  0.00000000000E+00  0.00000000000E+00  0.11812351022E+03  0.11812351022E+03  0.00000000000E+00 0.  1.
          3   -1    0    0  502    0 -0.00000000000E+00 -0.00000000000E+00 -0.16390666978E+02  0.16390666978E+02  0.00000000000E+00 0. -1.
         21    1    1    2  503  501  0.26920639074E+02  0.28009835375E+01  0.10389437602E+03  0.10736204025E+03  0.00000000000E+00 0.  1.
          3    1    1    2  501    0 -0.26920639074E+02 -0.28009835375E+01 -0.21615327812E+01  0.27152136949E+02  0.00000000000E+00 0. -1.
</event>
<event>
 4    1  0.1593135E+006  0.2933571E+02  0.7546771E-02  0.1425458E+00
         -1   -1    0    0    0  501 -0.00000000000E+00  0.00000000000E+00  0.11204066588E+04  0.11204066588E+04  0.00000000000E+00 0.  1.
         21   -1    0    0  503  502  0.00000000000E+00 -0.00000000000E+00 -0.27981642616E+01  0.27981642616E+01  0.00000000000E+00 0. -1.
         21    1    1    2  503  501  0.69146879781E+01 -0.28509133389E+02  0.80452542002E+02  0.85634076809E+02  0.00000000000E+00 0. -1.
         -1    1    1    2    0  502 -0.69146879781E+01  0.28509133389E+02  0.10371559525E+04  0.10375707462E+04  0.00000000000E+00 0.  1.
</event>
<event>
 4    1  0.1593135E+006  0.2089294E+02  0.7546771E-02  0.1520799E+00
         21   -1    0    0  501  502  0.00000000000E+00  0.00000000000E+00  0.11830592612E+01  0.11830592612E+01  0.00000000000E+00 0. -1.
          4   -1    0    0  503    0 -0.00000000000E+00 -0.00000000000E+00 -0.11053279209E+04  0.11053279209E+04  0.00000000000E+00 0. -1.
         21    1    1    2  503  502  0.20070110706E+02  0.58056456673E+01 -0.10050327292E+03  0.10265194949E+03  0.00000000000E+00 0. -1.
          4    1    1    2  501    0 -0.20070110706E+02 -0.58056456673E+01 -0.10036415887E+04  0.10038590307E+04  0.00000000000E+00 0. -1.
</event>
<event>
 4    1  0.1593135E+006  0.2831603E+02  0.7546771E-02  0.1434818E+00
         21   -1    0    0  501  502  0.00000000000E+00  0.00000000000E+00  0.71347627079E+02  0.71347627079E+02  0.00000000000E+00 0. -1.
         -1   -1    0    0    0  501 -0.00000000000E+00 -0.00000000000E+00 -0.49061135667E+02  0.49061135667E+02  0.00000000000E+00 0. -1.
         21    1    1    2  503  502 -0.10770641014E+02  0.26187611246E+02  0.64004641153E+02  0.69988511770E+02  0.00000000000E+00 0. -1.
         -1    1    1    2    0  503  0.10770641014E+02 -0.26187611246E+02 -0.41718149741E+02  0.50420250976E+02  0.00000000000E+00 0. -1.
</event>
<event>
 4    1  0.1593135E+006  0.7340510E+02  0.7546771E-02  0.1220045E+00
          1   -1    0    0  502    0 -0.00000000000E+00  0.00000000000E+00  0.17137723944E+04  0.17137723944E+04  0.00000000000E+00 0. -1.
         21   -1    0    0  503  502  0.00000000000E+00 -0.00000000000E+00 -0.85700787121E+01  0.85700787121E+01  0.00000000000E+00 0.  1.
         21    1    1    2  503  501  0.11092777100E+02 -0.72562102392E+02  0.16737284690E+03  0.18276208110E+03  0.00000000000E+00 0.  1.
          1    1    1    2  501    0 -0.11092777100E+02  0.72562102392E+02  0.15378294687E+04  0.15395803920E+04  0.00000000000E+00 0. -1.
</event>
<event>
 4    1  0.1593135E+006  0.2180796E+02  0.7546771E-02  0.1508035E+00
         21   -1    0    0  501  502  0.00000000000E+00  0.00000000000E+00  0.87617783892E+02  0.87617783892E+02  0.00000000000E+00 0.  1.
          2   -1    0    0  503    0 -0.00000000000E+00 -0.00000000000E+00 -0.10420742119E+04  0.10420742119E+04  0.00000000000E+00 0.  1.
         21    1    1    2  503  502  0.70423814836E+01 -0.20639577065E+02  0.86144772775E+02  0.88862304465E+02  0.00000000000E+00 0.  1.
          2    1    1    2  501    0 -0.70423814836E+01  0.20639577065E+02 -0.10406012008E+04  0.10408296914E+04  0.00000000000E+00 0.  1.
</event>
<event>
 4    1  0.1593135E+006  0.3553083E+02  0.7546771E-02  0.1376869E+00
         21   -1    0    0  503  502  0.00000000000E+00  0.00000000000E+00  0.59997515532E+02  0.59997515532E+02  0.00000000000E+00 0.  1.
         -2   -1    0    0    0  501 -0.00000000000E+00 -0.00000000000E+00 -0.50403835464E+03  0.50403835464E+03  0.00000000000E+00 0.  1.
         21    1    1    2  503  501  0.25107332443E+02 -0.25140839551E+02  0.54048216984E+02  0.64681138788E+02  0.00000000000E+00 0.  1.
         -2    1    1    2    0  502 -0.25107332443E+02  0.25140839551E+02 -0.49808905609E+03  0.49935473138E+03  0.00000000000E+00 0.  1.
</event>
<event>
 4    1  0.1593135E+006  0.2123812E+02  0.7546771E-02  0.1515892E+00
         21   -1    0    0  501  502  0.00000000000E+00  0.00000000000E+00  0.38015872383E+00  0.38015872383E+00  0.00000000000E+00 0.  1.
          2   -1    0    0  503    0 -0.00000000000E+00 -0.00000000000E+00 -0.17433913048E+04  0.17433913048E+04  0.00000000000E+00 0. -1.
         21    1    1    2  503  502 -0.15471275116E+02  0.14549820327E+02 -0.37873125019E+03  0.37932626787E+03  0.00000000000E+00 0.  1.
          2    1    1    2  501    0  0.15471275116E+02 -0.14549820327E+02 -0.13642798959E+04  0.13644451957E+04  0.00000000000E+00 0. -1.
</event>
<event>
 4    1  0.1593135E+006  0.2178310E+02  0.7546771E-02  0.1508371E+00
          2   -1    0    0  503    0 -0.00000000000E+00  0.00000000000E+00  0.17209568399E+03  0.17209568399E+03  0.00000000000E+00 0.  1.
         21   -1    0    0  501  502  0.00000000000E+00 -0.00000000000E+00 -0.71368708991E+01  0.71368708991E+01  0.00000000000E+00 0. -1.
         21    1    1    2  503  502 -0.54257714815E+01 -0.21096554485E+02  0.12276786862E+02  0.25004461661E+02  0.00000000000E+00 0. -1.
          2    1    1    2  501    0  0.54257714815E+01  0.21096554485E+02  0.15268202623E+03  0.15422809323E+03  0.00000000000E+00 0.  1.
</event>
<event>
 4    1  0.1593135E+006  0.2168111E+02  0.7546771E-02  0.1509758E+00
          2   -1    0    0  503    0 -0.00000000000E+00  0.00000000000E+00  0.75935258951E+03  0.75935258951E+03  0.00000000000E+00 0.  1.
         21   -1    0    0  501  502  0.00000000000E+00 -0.00000000000E+00 -0.13179692854E+01  0.13179692854E+01  0.00000000000E+00 0. -1.
         21    1    1    2  503  502 -0.21671725732E+02  0.63792079006E+00  0.10204894208E+03  0.10432668507E+03  0.00000000000E+00 0. -1.
          2    1    1    2  501    0  0.21671725732E+02 -0.63792079006E+00  0.65598567814E+03  0.65634387372E+03  0.00000000000E+00 0.  1.
</event>
<event>
 4    1  0.1593135E+006  0.2797786E+02  0.7546771E-02  0.1438025E+00
          2   -1    0    0  503    0 -0.00000000000E+00  0.00000000000E+00  0.20515399912E+04  0.20515399912E+04  0.00000000000E+00 0. -1.
         21   -1    0    0  501  502  0.00000000000E+00 -0.00000000000E+00 -0.38203786590E+00  0.38203786590E+00  0.00000000000E+00 0. -1.
         21    1    1    2  503  502  0.69594548595E+01  0.27098463438E+02  0.98883638169E+03  0.98923210142E+03  0.00000000000E+00 0. -1.
          2    1    1    2  501    0 -0.69594548595E+01 -0.27098463438E+02  0.10623215717E+04  0.10626899277E+04  0.00000000000E+00 0. -1.
</event>
<event>
 4    1  0.1593135E+006  0.3982531E+02  0.7546771E-02  0.1349513E+00
         -1   -1    0    0    0  501 -0.00000000000E+00  0.00000000000E+00  0.65449557350E+02  0.65449557350E+02  0.00000000000E+00 0.  1.
         21   -1    0    0  501  502  0.00000000000E+00 -0.00000000000E+00 -0.51476025487E+02  0.51476025487E+02  0.00000000000E+00 0. -1.
         21    1    1    2  503  502 -0.35218193181E+02 -0.18593929615E+02 -0.35543954210E+02  0.53380034004E+02  0.00000000000E+00 0. -1.
         -1    1    1    2    0  503  0.35218193181E+02  0.18593929615E+02  0.49517486073E+02  0.63545548832E+02  0.00000000000E+00 0.  1.
</event>
<event>
 4    1  0.1593135E+006  0.4020624E+02  0.7546771E-02  0.1347281E+00
         21   -1    0    0  501  502  0.00000000000E+00  0.00000000000E+00  0.13663693650E+03  0.13663693650E+03  0.00000000000E+00 0. -1.
          1   -1    0    0  503    0 -0.00000000000E+00 -0.00000000000E+00 -0.14932142481E+02  0.14932142481E+02  0.00000000000E+00 0. -1.
         21    1    1    2  503  502 -0.31546780414E+02  0.24926746579E+02  0.95389452274E+02  0.10351661536E+03  0.00000000000E+00 0. -1.
          1    1    1    2  501    0  0.31546780414E+02 -0.24926746579E+02  0.26315341749E+02  0.48052463630E+02  0.00000000000E+00 0. -1.
</event>
<event>
 4    1  0.1593135E+006  0.2039280E+02  0.7546771E-02  0.1528113E+00
         21   -1    0    0  503  502  0.00000000000E+00  0.00000000000E+00  0.12190633374E+02  0.12190633374E+02  0.00000000000E+00 0. -1.
         -3   -1    0    0    0  501 -0.00000000000E+00 -0.00000000000E+00 -0.77185826821E+02  0.77185826821E+02  0.00000000000E+00 0. -1.
         21    1    1    2  503  501 -0.11416417588E+02  0.16897683602E+02  0.88522733815E+00  0.20412004534E+02  0.00000000000E+00 0. -1.
         -3    1    1    2    0  502  0.11416417588E+02 -0.16897683602E+02 -0.65880420786E+02  0.68964455661E+02  0.00000000000E+00 0. -1.
</event>
<event>
 4    1  0.1593135E+006  0.3773857E+02  0.7546771E-02  0.1362273E+00
         21   -1    0    0  503  502  0.00000000000E+00  0.00000000000E+00  0.22266488369E+02  0.22266488369E+02  0.00000000000E+00 0. -1.
         -2   -1    0    0    0  501 -0.00000000000E+00 -0.00000000000E+00 -0.77586363074E+02  0.77586363074E+02  0.00000000000E+00 0.  1.
         21    1    1    2  503  501  0.35417019057E+02 -0.13032042795E+02 -0.67379535235E+01  0.38335354387E+02  0.00000000000E+00 0. -1.
         -2    1    1    2    0  502 -0.35417019057E+02  0.13032042795E+02 -0.48581921182E+02  0.61517497056E+02  0.00000000000E+00 0.  1.
</event>
<event>
 4    1  0.1593135E+006  0.3960111E+02  0.7546771E-02  0.1350839E+00
         -3   -1    0    0    0  501 -0.00000000000E+00  0.00000000000E+00  0.76660071253E+01  0.76660071253E+01  0.00000000000E+00 0.  1.
         21   -1    0    0  501  502  0.00000000000E+00 -0.00000000000E+00 -0.21525781406E+03  0.21525781406E+03  0.00000000000E+00 0. -1.
         21    1    1    2  503  502  0.27693413332E+02 -0.28307644833E+02 -0.12863052148E+03  0.13458848002E+03  0.00000000000E+00 0. -1.
         -3    1    1    2    0  503 -0.27693413332E+02  0.28307644833E+02 -0.78961285450E+02  0.88335341160E+02  0.00000000000E+00 0.  1.
</event>
<event>
 4    1  0.1593135E+006  0.2903510E+02  0.7546771E-02  0.1428171E+00
          2   -1    0    0  502    0 -0.00000000000E+00  0.00000000000E+00  0.58025602088E+03  0.58025602088E+03  0.00000000000E+00 0. -1.
         21   -1    0    0  503  502  0.00000000000E+00 -0.00000000000E+00 -0.20442096187E+01  0.20442096187E+01  0.00000000000E+00 0. -1.
         21    1    1    2  503  501  0.13647801023E+02 -0.25627614769E+02  0.13251288729E+03  0.13565656051E+03  0.00000000000E+00 0. -1.
          2    1    1    2  501    0 -0.13647801023E+02  0.25627614769E+02  0.44569892397E+03  0.44664366999E+03  0.00000000000E+00 0. -1.
</event>
<event>
 4    1  0.1593135E+006  0.2379692E+02  0.7546771E-02  0.1482727E+00
         -2   -1    0    0    0  501 -0.00000000000E+00  0.00000000000E+00  0.20305025817E+02  0.20305025817E+02  0.00000000000E+00 0. -1.
         21   -1    0    0  503  502  0.00000000000E+00 -0.00000000000E+00 -0.28082853441E+02  0.28082853441E+02  0.00000000000E+00 0. -1.
         21    1    1    2  503  501  0.14656943429E+02 -0.18747462302E+02 -0.58973849605E+01  0.24516779618E+02  0.00000000000E+00 0. -1.
         -2    1    1    2    0  502 -0.14656943429E+02  0.18747462302E+02 -0.18804426639E+01  0.23871099641E+02  0.00000000000E+00 0. -1.
</event>
<event>
 4    1  0.1593135E+006  0.2839340E+02  0.7546771E-02  0.1434092E+00
         -1   -1    0    0    0  501 -0.00000000000E+00  0.00000000000E+00  0.43496302569E+03  0.43496302569E+03  0.00000000000E+00 0. -1.
         21   -1    0    0  501  502  0.00000000000E+00 -0.00000000000E+00 -0.36221004600E+01  0.36221004600E+01  0.00000000000E+00 0. -1.
         21    1    1    2  503  502 -0.92202890179E+01 -0.26854631253E+02  0.62433373638E+02  0.68586522678E+02  0.00000000000E+00 0. -1.
         -1    1    1    2    0  503  0.92202890179E+01  0.26854631253E+02  0.36890755159E+03  0.36999860347E+03  0.00000000000E+00 0. -1.
</event>
<event>
 4    1  0.1593135E+006  0.6010569E+02  0.7546771E-02  0.1259474E+00
         -1   -1    0    0    0  501 -0.00000000000E+00  0.00000000000E+00  0.26360345768E+03  0.26360345768E+03  0.00000000000E+00 0.  1.
         21   -1    0    0  503  502  0.00000000000E+00 -0.00000000000E+00 -0.29892090826E+02  0.29892090826E+02  0.00000000000E+00 0.  1.
         21    1    1    2  503  501  0.29338839590E+02  0.52458803633E+02  0.88672201883E+01  0.60756243967E+02  0.00000000000E+00 0.  1.
         -1    1    1    2    0  502 -0.29338839590E+02 -0.52458803633E+02  0.22484414667E+03  0.23273930454E+03  0.00000000000E+00 0.  1.
</event>
<event>
 4    1  0.1593135E+006  0.2768105E+02  0.7546771E-02  0.1440884E+00
         21   -1    0    0  501  502  0.00000000000E+00  0.00000000000E+00  0.33647940561E+02  0.33647940561E+02  0.00000000000E+00 0.  1.
          2   -1    0    0  503    0 -0.00000000000E+00 -0.00000000000E+00 -0.85525220000E+02  0.85525220000E+02  0.00000000000E+00 0.  1.
         21    1    1    2  503  502  0.16844302627E+02 -0.21966104841E+02  0.25102269673E+02  0.37367957338E+02  0.00000000000E+00 0.  1.
          2    1    1    2  501    0 -0.16844302627E+02  0.21966104841E+02 -0.76979549112E+02  0.81805203223E+02  0.00000000000E+00 0.  1.
</event>
<event>
 4    1  0.1593135E+006  0.2558315E+02  0.7546771E-02  0.1462384E+00
         21   -1    0    0  501  502  0.00000000000E+00  0.00000000000E+00  0.49943929712E+02  0.49943929712E+02  0.00000000000E+00 0. -1.
          4   -1    0    0  503    0 -0.00000000000E+00 -0.00000000000E+00 -0.38540431315E+02  0.38540431315E+02  0.00000000000E+00 0. -1.
         21    1    1    2  503  502 -0.22301659696E+02  0.12535293987E+02  0.41643629711E+02  0.48874221386E+02  0.00000000000E+00 0. -1.
          4    1    1    2  501    0  0.22301659696E+02 -0.12535293987E+02 -0.30240131313E+02  0.39610139641E+02  0.00000000000E+00 0. -1.
</event>
<event>
 4    1  0.1593135E+006  0.2104796E+02  0.7546771E-02  0.1518581E+00
         -3   -1    0    0    0  501 -0.00000000000E+00  0.00000000000E+00  0.22241144473E+03  0.22241144473E+03  0.00000000000E+00 0. -1.
         21   -1    0    0  503  502  0.00000000000E+00 -0.00000000000E+00 -0.33146138860E+01  0.33146138860E+01  0.00000000000E+00 0. -1.
         21    1    1    2  503  501 -0.20745421728E+02  0.35558765945E+01  0.38251364899E+02  0.43659863692E+02  0.00000000000E+00 0. -1.
         -3    1    1    2    0  502  0.20745421728E+02 -0.35558765945E+01  0.18084546595E+03  0.18206619493E+03  0.00000000000E+00 0. -1.
</event>
<event>
 4    1  0.1593135E+006  0.2131939E+02  0.7546771E-02  0.1514753E+00
         21   -1    0    0  501  502  0.00000000000E+00  0.00000000000E+00  0.10856663537E+03  0.10856663537E+03  0.00000000000E+00 0. -1.
         -1   -1    0    0    0  501 -0.00000000000E+00 -0.00000000000E+00 -0.60365326115E+03  0.60365326115E+03  0.00000000000E+00 0. -1.
         21    1    1    2  503  502 -0.13398811627E+02 -0.16582765513E+02  0.10732962150E+03  0.10942652291E+03  0.00000000000E+00 0. -1.
         -1    1    1    2    0  503  0.13398811627E+02  0.16582765513E+02 -0.60241624729E+03  0.60279337361E+03  0.00000000000E+00 0. -1.
</event>
<event>
 4    1  0.1593135E+006  0.2773431E+02  0.7546771E-02  0.1440368E+00
          4   -1    0    0  503    0 -0.00000000000E+00  0.00000000000E+00  0.19773721143E+01  0.19773721143E+01  0.00000000000E+00 0. -1.
         21   -1    0    0  501  502  0.00000000000E+00 -0.00000000000E+00 -0.47522825426E+03  0.47522825426E+03  0.00000000000E+00 0. -1.
         21    1    1    2  503  502 -0.27215075702E+02  0.53415047312E+01 -0.13498734230E+03  0.13780701941E+03  0.00000000000E+00 0. -1.
          4    1    1    2  501    0  0.27215075702E+02 -0.53415047312E+01 -0.33826353985E+03  0.33939860696E+03  0.00000000000E+00 0. -1.
</event>
<event>
 4    1  0.1593135E+006  0.2341646E+02  0.7546771E-02  0.1487334E+00
         21   -1    0    0  503  502  0.00000000000E+00  0.00000000000E+00  0.98088075489E+01  0.98088075489E+01  0.00000000000E+00 0. -1.
         -1   -1    0    0    0  501 -0.00000000000E+00 -0.00000000000E+00 -0.66200651733E+02  0.66200651733E+02  0.00000000000E+00 0. -1.
         21    1    1    2  503  501 -0.17316173800E+02  0.15763271896E+02 -0.13205992632E+02  0.26883616895E+02  0.00000000000E+00 0. -1.
         -1    1    1    2    0  502  0.17316173800E+02 -0.15763271896E+02 -0.43185851553E+02  0.49125842388E+02  0.00000000000E+00 0. -1.
</event>
<event>
 4    1  0.1593135E+006  0.2221675E+02  0.7546771E-02  0.1502575E+00
         21   -1    0    0  503  502  0.00000000000E+00  0.00000000000E+00  0.59336089564E+01  0.59336089564E+01  0.00000000000E+00 0. -1.
          1   -1    0    0  502    0 -0.00000000000E+00 -0.00000000000E+00 -0.11890746730E+03  0.11890746730E+03  0.00000000000E+00 0. -1.
         21    1    1    2  503  501 -0.79684887898E+01 -0.20738547143E+02 -0.22273480436E+02  0.31459371925E+02  0.00000000000E+00 0. -1.
          1    1    1    2  501    0  0.79684887898E+01  0.20738547143E+02 -0.90700377903E+02  0.93381704327E+02  0.00000000000E+00 0. -1.
</event>
<event>
 4    1  0.1593135E+006  0.2577920E+02  0.7546771E-02  0.1460272E+00
         21   -1    0    0  501  502  0.00000000000E+00  0.00000000000E+00  0.84052553245E+01  0.84052553245E+01  0.00000000000E+00 0.  1.
          1   -1    0    0  503    0 -0.00000000000E+00 -0.00000000000E+00 -0.11485012965E+04  0.11485012965E+04  0.00000000000E+00 0.  1.
         21    1    1    2  503  502 -0.25019305693E+02 -0.62130145728E+01 -0.11860834595E+02  0.28376867423E+02  0.00000000000E+00 0.  1.
          1    1    1    2  501    0  0.25019305693E+02  0.62130145728E+01 -0.11282352066E+04  0.11285296845E+04  0.00000000000E+00 0.  1.
</event>
<event>
 4    1  0.1593135E+006  0.5443363E+02  0.7546771E-02  0.1280015E+00
          2   -1    0    0  503    0 -0.00000000000E+00  0.00000000000E+00  0.21753545676E+04  0.21753545676E+04  0.00000000000E+00 0.  1.
         21   -1    0    0  501  502  0.00000000000E+00 -0.00000000000E+00 -0.31737774928E+01  0.31737774928E+01  0.00000000000E+00 0. -1.
         21    1    1    2  503  502 -0.37324537116E+02  0.39621944521E+02  0.26311447478E+03  0.26868614851E+03  0.00000000000E+00 0. -1.
          2    1    1    2  501    0  0.37324537116E+02 -0.39621944521E+02  0.19090663154E+04  0.19098421966E+04  0.00000000000E+00 0.  1.
</event>
<event>
 4    1  0.1593135E+006  0.2755266E+02  0.7546771E-02  0.1442134E+00
         21   -1    0    0  501  502  0.00000000000E+00  0.00000000000E+00  0.23476386653E+01  0.23476386653E+01  0.00000000000E+00 0. -1.
          1   -1    0    0  503    0 -0.00000000000E+00 -0.00000000000E+00 -0.32540000953E+03  0.32540000953E+03  0.00000000000E+00 0. -1.
         21    1    1    2  503  502 -0.23541117391E+02  0.14316590263E+02 -0.14857330649E+03  0.15110650670E+03  0.00000000000E+00 0. -1.
          1    1    1    2  501    0  0.23541117391E+02 -0.14316590263E+02 -0.17447906437E+03  0.17664114149E+03  0.00000000000E+00 0. -1.
</event>
<event>
 4    1  0.1593135E+006  0.3748912E+02  0.7546771E-02  0.1363863E+00
         21   -1    0    0  503  502  0.00000000000E+00  0.00000000000E+00  0.12857820641E+03  0.12857820641E+03  0.00000000000E+00 0.  1.
         -1   -1    0    0    0  501 -0.00000000000E+00 -0.00000000000E+00 -0.22894770764E+03  0.22894770764E+03  0.00000000000E+00 0. -1.
         21    1    1    2  503  501  0.37407516352E+02 -0.24722568855E+01  0.12425870746E+03  0.12979083447E+03  0.00000000000E+00 0.  1.
         -1    1    1    2    0  502 -0.37407516352E+02  0.24722568855E+01 -0.22462820869E+03  0.22773507958E+03  0.00000000000E+00 0. -1.
</event>
<event>
 4    1  0.1593135E+006  0.3888816E+02  0.7546771E-02  0.1355127E+00
          2   -1    0    0  502    0 -0.00000000000E+00  0.00000000000E+00  0.49620415071E+03  0.49620415071E+03  0.00000000000E+00 0.  1.
         21   -1    0    0  503  502  0.00000000000E+00 -0.00000000000E+00 -0.85418988919E+01  0.85418988919E+01  0.00000000000E+00 0.  1.
         21    1    1    2  503  501 -0.34235808093E+02  0.18444465358E+02  0.41427954369E+02  0.56820456364E+02  0.00000000000E+00 0.  1.
          2    1    1    2  501    0  0.34235808093E+02 -0.18444465358E+02  0.44623429745E+03  0.44792559324E+03  0.00000000000E+00 0.  1.
</event>
<event>
 4    1  0.1593135E+006  0.3367384E+02  0.7546771E-02  0.1390134E+00
         21   -1    0    0  501  502  0.00000000000E+00  0.00000000000E+00  0.40552731728E+03  0.40552731728E+03  0.00000000000E+00 0. -1.
         -1   -1    0    0    0  501 -0.00000000000E+00 -0.00000000000E+00 -0.14405818958E+02  0.14405818958E+02  0.00000000000E+00 0. -1.
         21    1    1    2  503  502  0.22331883924E+02  0.25203455897E+02  0.38405171389E+03  0.38552515634E+03  0.00000000000E+00 0. -1.
         -1    1    1    2    0  503 -0.22331883924E+02 -0.25203455897E+02  0.70697844311E+01  0.34407979898E+02  0.00000000000E+00 0. -1.
</event>
<event>
 4    1  0.1593135E+006  0.2373845E+02  0.7546771E-02  0.1483428E+00
          2   -1    0    0  502    0 -0.00000000000E+00  0.00000000000E+00  0.10415813666E+04  0.10415813666E+04  0.00000000000E+00 0.  1.
         21   -1    0    0  503  502  0.00000000000E+00 -0.00000000000E+00 -0.16394523773E+02  0.16394523773E+02  0.00000000000E+00 0. -1.
         21    1    1    2  503  501  0.47458041296E+01 -0.23259225844E+02 -0.75930224205E+01  0.24923246842E+02  0.00000000000E+00 0. -1.
          2    1    1    2  501    0 -0.47458041296E+01  0.23259225844E+02  0.10327798652E+04  0.10330526435E+04  0.00000000000E+00 0.  1.
</event>
<event>
 4    1  0.1593135E+006  0.2095938E+02  0.7546771E-02  0.1519845E+00
         21   -1    0    0  503  502  0.00000000000E+00  0.00000000000E+00  0.94624508870E+00  0.94624508870E+00  0.00000000000E+00 0.  1.
         -4   -1    0    0    0  501 -0.00000000000E+00 -0.00000000000E+00 -0.60169784465E+03  0.60169784465E+03  0.00000000000E+00 0.  1.
         21    1    1    2  503  501 -0.83884895113E+01 -0.19207525721E+02 -0.15636067325E+03  0.15775917070E+03  0.00000000000E+00 0.  1.
         -4    1    1    2    0  502  0.83884895113E+01  0.19207525721E+02 -0.44439092631E+03  0.44488491904E+03  0.00000000000E+00 0.  1.
</event>
<event>
 4    1  0.1593135E+006  0.3162205E+02  0.7546771E-02  0.1406006E+00
          2   -1    0    0  503    0 -0.00000000000E+00  0.00000000000E+00  0.10077645824E+04  0.10077645824E+04  0.00000000000E+00 0.  1.
         21   -1    0    0  501  502  0.00000000000E+00 -0.00000000000E+00 -0.14998403037E+01  0.14998403037E+01  0.00000000000E+00 0. -1.
         21    1    1    2  503  502  0.27172174024E+02 -0.16174896614E+02  0.20956407396E+03  0.21193644193E+03  0.00000000000E+00 0. -1.
          2    1    1    2  501    0 -0.27172174024E+02  0.16174896614E+02  0.79670066813E+03  0.79732798077E+03  0.00000000000E+00 0.  1.
</event>
<event>
 4    1  0.1593135E+006  0.2395194E+02  0.7546771E-02  0.1480878E+00
         21   -1    0    0  503  502  0.00000000000E+00  0.00000000000E+00  0.18695188388E+02  0.18695188388E+02  0.00000000000E+00 0.  1.
          3   -1    0    0  502    0 -0.00000000000E+00 -0.00000000000E+00 -0.18524682942E+03  0.18524682942E+03  0.00000000000E+00 0.  1.
         21    1    1    2  503  501  0.21481328229E+02 -0.10594721918E+02  0.98671134062E+01  0.25904739373E+02  0.00000000000E+00 0.  1.
          3    1    1    2  501    0 -0.21481328229E+02  0.10594721918E+02 -0.17641875444E+03  0.17803727844E+03  0.00000000000E+00 0.  1.
</event>
<event>
 4    1  0.1593135E+006  0.2736504E+02  0.7546771E-02  0.1443975E+00
          2   -1    0    0  502    0 -0.00000000000E+00  0.00000000000E+00  0.15171812526E+04  0.15171812526E+04  0.00000000000E+00 0. -1.
         21   -1    0    0  503  502  0.00000000000E+00 -0.00000000000E+00 -0.91764186399E+00  0.91764186399E+00  0.00000000000E+00 0.  1.
         21    1    1    2  503  501  0.27362630840E+02  0.36338758070E+00  0.24213185920E+03  0.24367331175E+03  0.00000000000E+00 0.  1.
          2    1    1    2  501    0 -0.27362630840E+02 -0.36338758070E+00  0.12741317516E+04  0.12744255828E+04  0.00000000000E+00 0. -1.
</event>
<event>
 4    1  0.1593135E+006  0.2091824E+02  0.7546771E-02  0.1520435E+00
          2   -1    0    0  502    0 -0.00000000000E+00  0.00000000000E+00  0.92681032668E+03  0.92681032668E+03  0.00000000000E+00 0.  1.
         21   -1    0    0  503  502  0.00000000000E+00 -0.00000000000E+00 -0.17623769161E+01  0.17623769161E+01  0.00000000000E+00 0.  1.
         21    1    1    2  503  501 -0.15924926121E+02 -0.13563531320E+02  0.65265333505E+02  0.68535657955E+02  0.00000000000E+00 0.  1.
          2    1    1    2  501    0  0.15924926121E+02  0.13563531320E+02  0.85978261626E+03  0.86003704564E+03  0.00000000000E+00 0.  1.
</event>
<event>
 4    1  0.1593135E+006  0.2269033E+02  0.7546771E-02  0.1496424E+00
         21   -1    0    0  501  502  0.00000000000E+00  0.00000000000E+00  0.18392581668E+02  0.18392581668E+02  0.00000000000E+00 0. -1.
          1   -1    0    0  503    0 -0.00000000000E+00 -0.00000000000E+00 -0.45704070456E+02  0.45704070456E+02  0.00000000000E+00 0. -1.
         21    1    1    2  503  502 -0.13283897014E+02 -0.18395359407E+02  0.62949750765E+01  0.23547353966E+02  0.00000000000E+00 0. -1.
          1    1    1    2  501    0  0.13283897014E+02  0.18395359407E+02 -0.33606463865E+02  0.40549298158E+02  0.00000000000E+00 0. -1.
</event>
<event>
 4    1  0.1593135E+006  0.2647250E+02  0.7546771E-02  0.1452980E+00
         21   -1    0    0  503  502  0.00000000000E+00  0.00000000000E+00  0.93940652162E+02  0.93940652162E+02  0.00000000000E+00 0.  1.
          2   -1    0    0  502    0 -0.00000000000E+00 -0.00000000000E+00 -0.21690865681E+02  0.21690865681E+02  0.00000000000E+00 0.  1.
         21    1    1    2  503  501 -0.24367992334E+02  0.10343801996E+02  0.82954886334E+02  0.87076440309E+02  0.00000000000E+00 0.  1.
          2    1    1    2  501    0  0.24367992334E+02 -0.10343801996E+02 -0.10705099854E+02  0.28555077534E+02  0.00000000000E+00 0.  1.
</event>
<event>
 4    1  0.1593135E+006  0.2297118E+02  0.7546771E-02  0.1492860E+00
         21   -1    0    0  501  502  0.00000000000E+00  0.00000000000E+00  0.10880119174E+02  0.10880119174E+02  0.00000000000E+00 0.  1.
          4   -1    0    0  503    0 -0.00000000000E+00 -0.00000000000E+00 -0.18799588480E+03  0.18799588480E+03  0.00000000000E+00 0.  1.
         21    1    1    2  503  502  0.92327569032E+01 -0.21034049287E+02 -0.29013573033E+01  0.23153680131E+02  0.00000000000E+00 0.  1.
          4    1    1    2  501    0 -0.92327569032E+01  0.21034049287E+02 -0.17421440832E+03  0.17572232384E+03  0.00000000000E+00 0.  1.
</event>
<event>
 4    1  0.1593135E+006  0.3110786E+02  0.7546771E-02  0.1410207E+00
         21   -1    0    0  501  502  0.00000000000E+00  0.00000000000E+00  0.23381771209E+03  0.23381771209E+03  0.00000000000E+00 0. -1.
          2   -1    0    0  503    0 -0.00000000000E+00 -0.00000000000E+00 -0.70648174321E+02  0.70648174321E+02  0.00000000000E+00 0. -1.
         21    1    1    2  503  502  0.31024998534E+02 -0.22689719112E+01  0.22929139090E+03  0.23139196336E+03  0.00000000000E+00 0. -1.
          2    1    1    2  501    0 -0.31024998534E+02  0.22689719112E+01 -0.66121853133E+02  0.73073923046E+02  0.00000000000E+00 0. -1.
</event>
<event>
 4    1  0.1593135E+006  0.6229616E+02  0.7546771E-02  0.1252224E+00
         -4   -1    0    0    0  501 -0.00000000000E+00  0.00000000000E+00  0.41646720425E+02  0.41646720425E+02  0.00000000000E+00 0.  1.
         21   -1    0    0  503  502  0.00000000000E+00 -0.00000000000E+00 -0.10264149309E+03  0.10264149309E+03  0.00000000000E+00 0.  1.
         21    1    1    2  503  501 -0.80081407672E+01  0.61779296042E+02 -0.85983333928E+01  0.62886748009E+02  0.00000000000E+00 0.  1.
         -4    1    1    2    0  502  0.80081407672E+01 -0.61779296042E+02 -0.52396439270E+02  0.81401465504E+02  0.00000000000E+00 0.  1.
</event>
<event>
 4    1  0.1593135E+006  0.2107613E+02  0.7546771E-02  0.1518181E+00
         -2   -1    0    0    0  501 -0.00000000000E+00  0.00000000000E+00  0.28210232993E+01  0.28210232993E+01  0.00000000000E+00 0.  1.
         21   -1    0    0  501  502  0.00000000000E+00 -0.00000000000E+00 -0.16470219151E+03  0.16470219151E+03  0.00000000000E+00 0.  1.
         21    1    1    2  503  502  0.20856549268E+02 -0.30344222906E+01 -0.98502697240E+02  0.10073224275E+03  0.00000000000E+00 0.  1.
         -2    1    1    2    0  503 -0.20856549268E+02  0.30344222906E+01 -0.63378470975E+02  0.66790972063E+02  0.00000000000E+00 0.  1.
</event>
<event>
 4    1  0.1593135E+006  0.2055102E+02  0.7546771E-02  0.1525773E+00
         -2   -1    0    0    0  501 -0.00000000000E+00  0.00000000000E+00  0.68235410878E+02  0.68235410878E+02  0.00000000000E+00 0. -1.
         21   -1    0    0  503  502  0.00000000000E+00 -0.00000000000E+00 -0.15217954782E+02  0.15217954782E+02  0.00000000000E+00 0.  1.
         21    1    1    2  503  501 -0.28017318725E+01 -0.20359142710E+02 -0.56309828001E+01  0.21308504421E+02  0.00000000000E+00 0.  1.
         -2    1    1    2    0  502  0.28017318725E+01  0.20359142710E+02  0.58648438897E+02  0.62144861239E+02  0.00000000000E+00 0. -1.
</event>
<event>
 4    1  0.1593135E+006  0.3885829E+02  0.7546771E-02  0.1355309E+00
         -4   -1    0    0    0  501 -0.00000000000E+00  0.00000000000E+00  0.30839394450E+02  0.30839394450E+02  0.00000000000E+00 0.  1.
         21   -1    0    0  501  502  0.00000000000E+00 -0.00000000000E+00 -0.62210286511E+02  0.62210286511E+02  0.00000000000E+00 0.  1.
         21    1    1    2  503  502 -0.21878599648E+02 -0.32113755428E+02 -0.37155315646E+02  0.53763220616E+02  0.00000000000E+00 0.  1.
         -4    1    1    2    0  503  0.21878599648E+02  0.32113755428E+02  0.57844235854E+01  0.39286460345E+02  0.00000000000E+00 0.  1.
</event>
<event>
 4    1  0.1593135E+006  0.2514638E+02  0.7546771E-02  0.1467172E+00
         21   -1    0    0  501  502  0.00000000000E+00  0.00000000000E+00  0.16456519221E+02  0.16456519221E+02  0.00000000000E+00 0. -1.
          2   -1    0    0  503    0 -0.00000000000E+00 -0.00000000000E+00 -0.38436268428E+02  0.38436268428E+02  0.00000000000E+00 0. -1.
         21    1    1    2  503  502  0.24367252284E+02 -0.62110540707E+01 -0.11461809706E+02  0.27635362460E+02  0.00000000000E+00 0. -1.
          2    1    1    2  501    0 -0.24367252284E+02  0.62110540707E+01 -0.10517939501E+02  0.27257425188E+02  0.00000000000E+00 0. -1.
</event>
<event>
 4    1  0.1593135E+006  0.2660016E+02  0.7546771E-02  0.1451666E+00
          1   -1    0    0  503    0 -0.00000000000E+00  0.00000000000E+00  0.11685890752E+04  0.11685890752E+04  0.00000000000E+00 0. -1.
         21   -1    0    0  501  502  0.00000000000E+00 -0.00000000000E+00 -0.54378095563E+01  0.54378095563E+01  0.00000000000E+00 0. -1.
         21    1    1    2  503  502 -0.25680672580E+02 -0.69333703953E+01  0.28207826503E+02  0.38771768662E+02  0.00000000000E+00 0. -1.
          1    1    1    2  501    0  0.25680672580E+02  0.69333703953E+01  0.11349434391E+04  0.11352551161E+04  0.00000000000E+00 0. -1.
</event>
<event>
 4    1  0.1593135E+006  0.2658037E+02  0.7546771E-02  0.1451870E+00
          4   -1    0    0  503    0 -0.00000000000E+00  0.00000000000E+00  0.18401861486E+03  0.18401861486E+03  0.00000000000E+00 0. -1.
         21   -1    0    0  501  502  0.00000000000E+00 -0.00000000000E+00 -0.87105881612E+01  0.87105881612E+01  0.00000000000E+00 0. -1.
         21    1    1    2  503  502 -0.15612601049E+02 -0.21511918636E+02  0.15590989554E+02  0.30815497890E+02  0.00000000000E+00 0. -1.
          4    1    1    2  501    0  0.15612601049E+02  0.21511918636E+02  0.15971703714E+03  0.16191370513E+03  0.00000000000E+00 0. -1.
</event>
<event>
 4    1  0.1593135E+006  0.3193927E+02  0.7546771E-02  0.1403460E+00
         21   -1    0    0  503  502  0.00000000000E+00  0.00000000000E+00  0.63222096238E+02  0.63222096238E+02  0.00000000000E+00 0. -1.
         -4   -1    0    0    0  501 -0.00000000000E+00 -0.00000000000E+00 -0.61427103320E+02  0.61427103320E+02  0.00000000000E+00 0. -1.
         21    1    1    2  503  501  0.30824695593E+02 -0.83639219792E+01  0.54414102317E+02  0.63095257985E+02  0.00000000000E+00 0. -1.
         -4    1    1    2    0  502 -0.30824695593E+02  0.83639219792E+01 -0.52619109399E+02  0.61553941573E+02  0.00000000000E+00 0. -1.
</event>
<event>
 4    1  0.1593135E+006  0.2525665E+02  0.7546771E-02  0.1465953E+00
         21   -1    0    0  501  502  0.00000000000E+00  0.00000000000E+00  0.30603813500E+02  0.30603813500E+02  0.00000000000E+00 0.  1.
          2   -1    0    0  503    0 -0.00000000000E+00 -0.00000000000E+00 -0.71091827883E+03  0.71091827883E+03  0.00000000000E+00 0.  1.
         21    1    1    2  503  502  0.10026328156E+01 -0.25236739279E+02  0.25128118984E+02  0.35627526516E+02  0.00000000000E+00 0.  1.
          2    1    1    2  501    0 -0.10026328156E+01  0.25236739279E+02 -0.70544258432E+03  0.70589456582E+03  0.00000000000E+00 0.  1.
</event>
<event>
 4    1  0.1593135E+006  0.3193821E+02  0.7546771E-02  0.1403469E+00
         -3   -1    0    0    0  501 -0.00000000000E+00  0.00000000000E+00  0.11178282197E+03  0.11178282197E+03  0.00000000000E+00 0. -1.
         21   -1    0    0  503  502  0.00000000000E+00 -0.00000000000E+00 -0.23672972183E+02  0.23672972183E+02  0.00000000000E+00 0. -1.
         21    1    1    2  503  501  0.31794119638E+02  0.30303968648E+01 -0.90381985803E+01  0.33192444657E+02  0.00000000000E+00 0. -1.
         -3    1    1    2    0  502 -0.31794119638E+02 -0.30303968648E+01  0.97148048364E+02  0.10226334949E+03  0.00000000000E+00 0. -1.
</event>
<event>
 4    1  0.1593135E+006  0.2482748E+02  0.7546771E-02  0.1470743E+00
         -1   -1    0    0    0  501 -0.00000000000E+00  0.00000000000E+00  0.16749229837E+03  0.16749229837E+03  0.00000000000E+00 0.  1.
         21   -1    0    0  501  502  0.00000000000E+00 -0.00000000000E+00 -0.37469992876E+01  0.37469992876E+01  0.00000000000E+00 0.  1.
         21    1    1    2  503  502  0.21316399714E+02 -0.12728513984E+02  0.70440163622E+02  0.74687486342E+02  0.00000000000E+00 0.  1.
         -1    1    1    2    0  503 -0.21316399714E+02  0.12728513984E+02  0.93305135456E+02  0.96551811311E+02  0.00000000000E+00 0.  1.
</event>
<event>
 4    1  0.1593135E+006  0.2422564E+02  0.7546771E-02  0.1477656E+00
         -4   -1    0    0    0  501 -0.00000000000E+00  0.00000000000E+00  0.32388060453E+01  0.32388060453E+01  0.00000000000E+00 0.  1.
         21   -1    0    0  501  502  0.00000000000E+00 -0.00000000000E+00 -0.45919572592E+03  0.45919572592E+03  0.00000000000E+00 0. -1.
         21    1    1    2  503  502  0.75862463219E+01  0.23007184227E+02 -0.40788128771E+03  0.40860008140E+03  0.00000000000E+00 0. -1.
         -4    1    1    2    0  503 -0.75862463219E+01 -0.23007184227E+02 -0.48075632172E+02  0.53834450569E+02  0.00000000000E+00 0.  1.
</event>
<event>
 4    1  0.1593135E+006  0.2710059E+02  0.7546771E-02  0.1446600E+00
          2   -1    0    0  503    0 -0.00000000000E+00  0.00000000000E+00  0.38151780178E+02  0.38151780178E+02  0.00000000000E+00 0. -1.
         21   -1    0    0  501  502  0.00000000000E+00 -0.00000000000E+00 -0.24261772158E+02  0.24261772158E+02  0.00000000000E+00 0. -1.
         21    1    1    2  503  502 -0.92045300969E+01  0.25489577680E+02 -0.72377441434E+01  0.28050434665E+02  0.00000000000E+00 0. -1.
          2    1    1    2  501    0  0.92045300969E+01 -0.25489577680E+02  0.21127752164E+02  0.34363117671E+02  0.00000000000E+00 0. -1.
</event>
<event>
 4    1  0.1593135E+006  0.2313196E+02  0.7546771E-02  0.1490848E+00
          3   -1    0    0  502    0 -0.00000000000E+00  0.00000000000E+00  0.73878246341E+01  0.73878246341E+01  0.00000000000E+00 0. -1.
         21   -1    0    0  503  502  0.00000000000E+00 -0.00000000000E+00 -0.15203542774E+03  0.15203542774E+03  0.00000000000E+00 0. -1.
         21    1    1    2  503  501  0.12558390791E+02 -0.19426127292E+02 -0.13000379978E+03  0.13204573283E+03  0.00000000000E+00 0. -1.
          3    1    1    2  501    0 -0.12558390791E+02  0.19426127292E+02 -0.14643803333E+02  0.27377519553E+02  0.00000000000E+00 0. -1.
</event>
<event>
 4    1  0.1593135E+006  0.2838288E+02  0.7546771E-02  0.1434190E+00
         21   -1    0    0  503  502  0.00000000000E+00  0.00000000000E+00  0.10198660705E+03  0.10198660705E+03  0.00000000000E+00 0. -1.
         -3   -1    0    0    0  501 -0.00000000000E+00 -0.00000000000E+00 -0.33347290483E+02  0.33347290483E+02  0.00000000000E+00 0. -1.
         21    1    1    2  503  501 -0.22210081397E+02 -0.17672020329E+02  0.93431702010E+02  0.97647687933E+02  0.00000000000E+00 0. -1.
         -3    1    1    2    0  502  0.22210081397E+02  0.17672020329E+02 -0.24792385442E+02  0.37686209601E+02  0.00000000000E+00 0. -1.
</event>
<event>
 4    1  0.1593135E+006  0.4598725E+02  0.7546771E-02  0.1316575E+00
         -3   -1    0    0    0  501 -0.00000000000E+00  0.00000000000E+00  0.15075350405E+03  0.15075350405E+03  0.00000000000E+00 0.  1.
         21   -1    0    0  501  502  0.00000000000E+00 -0.00000000000E+00 -0.11519775292E+03  0.11519775292E+03  0.00000000000E+00 0. -1.
         21    1    1    2  503  502  0.13295304893E+02  0.44023429551E+02 -0.10683834519E+03  0.11631534501E+03  0.00000000000E+00 0. -1.
         -3    1    1    2    0  503 -0.13295304893E+02 -0.44023429551E+02  0.14239409632E+03  0.14963591196E+03  0.00000000000E+00 0.  1.
</event>
<event>
 4    1  0.1593135E+006  0.2322267E+02  0.7546771E-02  0.1489721E+00
         21   -1    0    0  501  502  0.00000000000E+00  0.00000000000E+00  0.66177589492E+02  0.66177589492E+02  0.00000000000E+00 0.  1.
          2   -1    0    0  503    0 -0.00000000000E+00 -0.00000000000E+00 -0.92420343904E+01  0.92420343904E+01  0.00000000000E+00 0. -1.
         21    1    1    2  503  502  0.78515796207E+01 -0.21855098209E+02  0.41435184303E+02  0.47499127555E+02  0.00000000000E+00 0.  1.
          2    1    1    2  501    0 -0.78515796207E+01  0.21855098209E+02  0.15500370799E+02  0.27920496327E+02  0.00000000000E+00 0. -1.
</event>
<event>
 4    1  0.1593135E+006  0.2021430E+02  0.7546771E-02  0.1530785E+00
         21   -1    0    0  503  502  0.00000000000E+00  0.00000000000E+00  0.15883021820E+03  0.15883021820E+03  0.00000000000E+00 0.  1.
          2   -1    0    0  502    0 -0.00000000000E+00 -0.00000000000E+00 -0.18590494917E+02  0.18590494917E+02  0.00000000000E+00 0. -1.
         21    1    1    2  503  501 -0.10107810771E+02 -0.17505710586E+02  0.15246360757E+03  0.15379781980E+03  0.00000000000E+00 0.  1.
          2    1    1    2  501    0  0.10107810771E+02  0.17505710586E+02 -0.12223884286E+02  0.23622893318E+02  0.00000000000E+00 0. -1.
</event>
<event>
 4    1  0.1593135E+006  0.3233876E+02  0.7546771E-02  0.1400304E+00
          1   -1    0    0  503    0 -0.00000000000E+00  0.00000000000E+00  0.13015515942E+04  0.13015515942E+04  0.00000000000E+00 0. -1.
         21   -1    0    0  501  502  0.00000000000E+00 -0.00000000000E+00 -0.97743540420E+00  0.97743540420E+00  0.00000000000E+00 0. -1.
         21    1    1    2  503  502 -0.14685318544E+02 -0.28812090726E+02  0.37555531973E+03  0.37694507999E+03  0.00000000000E+00 0. -1.
          1    1    1    2  501    0  0.14685318544E+02  0.28812090726E+02  0.92501883903E+03  0.92558394957E+03  0.00000000000E+00 0. -1.
</event>
<event>
 4    1  0.1593135E+006  0.3634675E+02  0.7546771E-02  0.1371335E+00
         -3   -1    0    0    0  501 -0.00000000000E+00  0.00000000000E+00  0.12170546486E+03  0.12170546486E+03  0.00000000000E+00 0. -1.
         21   -1    0    0  501  502  0.00000000000E+00 -0.00000000000E+00 -0.22405925983E+02  0.22405925983E+02  0.00000000000E+00 0.  1.
         21    1    1    2  503  502  0.34380398527E+02  0.11792969180E+02 -0.20870135233E+01  0.36406614102E+02  0.00000000000E+00 0.  1.
         -3    1    1    2    0  503 -0.34380398527E+02 -0.11792969180E+02  0.10138655240E+03  0.10770477674E+03  0.00000000000E+00 0. -1.
</event>
<event>
 4    1  0.1593135E+006  0.2484216E+02  0.7546771E-02  0.1470577E+00
         21   -1    0    0  501  502  0.00000000000E+00  0.00000000000E+00  0.10560125123E+02  0.10560125123E+02  0.00000000000E+00 0.  1.
         -1   -1    0    0    0  501 -0.00000000000E+00 -0.00000000000E+00 -0.56982827192E+03  0.56982827192E+03  0.00000000000E+00 0.  1.
         21    1    1    2  503  502  0.24367562148E+02  0.48326836604E+01 -0.47230570965E+01  0.25287154540E+02  0.00000000000E+00 0.  1.
         -1    1    1    2    0  503 -0.24367562148E+02 -0.48326836604E+01 -0.55454508970E+03  0.55510124250E+03  0.00000000000E+00 0.  1.
</event>
<event>
 4    1  0.1593135E+006  0.2075487E+02  0.7546771E-02  0.1522794E+00
          2   -1    0    0  502    0 -0.00000000000E+00  0.00000000000E+00  0.12086577283E+04  0.12086577283E+04  0.00000000000E+00 0. -1.
         21   -1    0    0  503  502  0.00000000000E+00 -0.00000000000E+00 -0.94946545929E+02  0.94946545929E+02  0.00000000000E+00 0. -1.
         21    1    1    2  503  501 -0.10536282757E+02  0.17881595935E+02 -0.93722066365E+02  0.95992658319E+02  0.00000000000E+00 0. -1.
          2    1    1    2  501    0  0.10536282757E+02 -0.17881595935E+02  0.12074332487E+04  0.12076116159E+04  0.00000000000E+00 0. -1.
</event>
<event>
 4    1  0.1593135E+006  0.2030125E+02  0.7546771E-02  0.1529479E+00
         21   -1    0    0  503  502  0.00000000000E+00  0.00000000000E+00  0.10293200200E+02  0.10293200200E+02  0.00000000000E+00 0.  1.
         -3   -1    0    0    0  501 -0.00000000000E+00 -0.00000000000E+00 -0.47070823637E+02  0.47070823637E+02  0.00000000000E+00 0.  1.
         21    1    1    2  503  501  0.58655080944E+01 -0.19435444686E+02 -0.29473766777E+02  0.35788875693E+02  0.00000000000E+00 0.  1.
         -3    1    1    2    0  502 -0.58655080944E+01  0.19435444686E+02 -0.73038566610E+01  0.21575148145E+02  0.00000000000E+00 0.  1.
</event>
<event>
 4    1  0.1593135E+006  0.2475320E+02  0.7546771E-02  0.1471583E+00
         21   -1    0    0  501  502  0.00000000000E+00  0.00000000000E+00  0.33379533754E+01  0.33379533754E+01  0.00000000000E+00 0.  1.
         -3   -1    0    0    0  501 -0.00000000000E+00 -0.00000000000E+00 -0.46915759243E+03  0.46915759243E+03  0.00000000000E+00 0. -1.
         21    1    1    2  503  502  0.24304042778E+02  0.46940771331E+01 -0.48584828061E+02  0.54527115944E+02  0.00000000000E+00 0.  1.
         -3    1    1    2    0  503 -0.24304042778E+02 -0.46940771331E+01 -0.41723481100E+03  0.41796842987E+03  0.00000000000E+00 0. -1.
</event>
<event>
 4    1  0.1593135E+006  0.2164747E+02  0.7546771E-02  0.1510218E+00
         21   -1    0    0  501  502  0.00000000000E+00  0.00000000000E+00  0.12876316276E+02  0.12876316276E+02  0.00000000000E+00 0.  1.
         -2   -1    0    0    0  501 -0.00000000000E+00 -0.00000000000E+00 -0.85848213874E+02  0.85848213874E+02  0.00000000000E+00 0.  1.
         21    1    1    2  503  502 -0.20624083835E+02 -0.65772347875E+01  0.97974334061E+00  0.21669627327E+02  0.00000000000E+00 0.  1.
         -2    1    1    2    0  503  0.20624083835E+02  0.65772347875E+01 -0.73951640939E+02  0.77054902823E+02  0.00000000000E+00 0.  1.
</event>
<event>
 4    1  0.1593135E+006  0.2639187E+02  0.7546771E-02  0.1453814E+00
         -4   -1    0    0    0  501 -0.00000000000E+00  0.00000000000E+00  0.21324116157E+03  0.21324116157E+03  0.00000000000E+00 0.  1.
         21   -1    0    0  503  502  0.00000000000E+00 -0.00000000000E+00 -0.41876022008E+01  0.41876022008E+01  0.00000000000E+00 0.  1.
         21    1    1    2  503  501 -0.22785144693E+02  0.13317957050E+02  0.53537142703E+02  0.59688830173E+02  0.00000000000E+00 0.  1.
         -4    1    1    2    0  502  0.22785144693E+02 -0.13317957050E+02  0.15551641667E+03  0.15773993360E+03  0.00000000000E+00 0.  1.
</event>
<event>
 4    1  0.1593135E+006  0.3700339E+02  0.7546771E-02  0.1367001E+00
         21   -1    0    0  503  502  0.00000000000E+00  0.00000000000E+00  0.20679195761E+03  0.20679195761E+03  0.00000000000E+00 0. -1.
         -4   -1    0    0    0  501 -0.00000000000E+00 -0.00000000000E+00 -0.81564255553E+01  0.81564255553E+01  0.00000000000E+00 0. -1.
         21    1    1    2  503  501 -0.80440134413E+01  0.36118483693E+02  0.14594212887E+03  0.15056014079E+03  0.00000000000E+00 0. -1.
         -4    1    1    2    0  502  0.80440134413E+01 -0.36118483693E+02  0.52693403182E+02  0.64388242369E+02  0.00000000000E+00 0. -1.
</event>
<event>
 4    1  0.1593135E+006  0.2051147E+02  0.7546771E-02  0.1526355E+00
         21   -1    0    0  503  502  0.00000000000E+00  0.00000000000E+00  0.45264322937E+03  0.45264322937E+03  0.00000000000E+00 0. -1.
         -3   -1    0    0    0  501 -0.00000000000E+00 -0.00000000000E+00 -0.98360524587E+00  0.98360524587E+00  0.00000000000E+00 0. -1.
         21    1    1    2  503  501 -0.79334332063E-01 -0.20511318281E+02  0.27903808437E+03  0.27979094517E+03  0.00000000000E+00 0. -1.
         -3    1    1    2    0  502  0.79334332063E-01  0.20511318281E+02  0.17262153976E+03  0.17383588945E+03  0.00000000000E+00 0. -1.
</event>
<event>
 4    1  0.1593135E+006  0.8465469E+02  0.7546771E-02  0.1193435E+00
         21   -1    0    0  501  502  0.00000000000E+00  0.00000000000E+00  0.50737265810E+02  0.50737265810E+02  0.00000000000E+00 0.  1.
          1   -1    0    0  503    0 -0.00000000000E+00 -0.00000000000E+00 -0.33100100079E+03  0.33100100079E+03  0.00000000000E+00 0.  1.
         21    1    1    2  503  502 -0.84524384039E+02 -0.46952977163E+01  0.43848474725E+01  0.84768179201E+02  0.00000000000E+00 0.  1.
          1    1    1    2  501    0  0.84524384039E+02  0.46952977163E+01 -0.28464858245E+03  0.29697008740E+03  0.00000000000E+00 0.  1.
</event>
<event>
 4    1  0.1593135E+006  0.3232488E+02  0.7546771E-02  0.1400413E+00
          3   -1    0    0  502    0 -0.00000000000E+00  0.00000000000E+00  0.57979484277E+01  0.57979484277E+01  0.00000000000E+00 0. -1.
         21   -1    0    0  503  502  0.00000000000E+00 -0.00000000000E+00 -0.12609466350E+04  0.12609466350E+04  0.00000000000E+00 0. -1.
         21    1    1    2  503  501 -0.31773538145E+02 -0.59447728036E+01 -0.12139405308E+04  0.12143708290E+04  0.00000000000E+00 0. -1.
          3    1    1    2  501    0  0.31773538145E+02  0.59447728036E+01 -0.41208155822E+02  0.52373754460E+02  0.00000000000E+00 0. -1.
</event>
<event>
 4    1  0.1593135E+006  0.2148470E+02  0.7546771E-02  0.1512456E+00
          4   -1    0    0  503    0 -0.00000000000E+00  0.00000000000E+00  0.18270604118E+02  0.18270604118E+02  0.00000000000E+00 0. -1.
         21   -1    0    0  501  502  0.00000000000E+00 -0.00000000000E+00 -0.86270302844E+02  0.86270302844E+02  0.00000000000E+00 0. -1.
         21    1    1    2  503  502  0.42233768681E+01  0.21065503829E+02 -0.77955247214E+02  0.80861690138E+02  0.00000000000E+00 0. -1.
          4    1    1    2  501    0 -0.42233768681E+01 -0.21065503829E+02  0.99555484878E+01  0.23679216825E+02  0.00000000000E+00 0. -1.
</event>
<event>
 4    1  0.1593135E+006  0.4188159E+02  0.7546771E-02  0.1337799E+00
         21   -1    0    0  501  502  0.00000000000E+00  0.00000000000E+00  0.98170639494E+02  0.98170639494E+02  0.00000000000E+00 0. -1.
         -4   -1    0    0    0  501 -0.00000000000E+00 -0.00000000000E+00 -0.18301313440E+03  0.18301313440E+03  0.00000000000E+00 0. -1.
         21    1    1    2  503  502 -0.41878441059E+02 -0.51392255816E+00  0.91131437951E+02  0.10029460068E+03  0.00000000000E+00 0. -1.
         -4    1    1    2    0  503  0.41878441059E+02  0.51392255816E+00 -0.17597393286E+03  0.18088917322E+03  0.00000000000E+00 0. -1.
</event>
<event>
 4    1  0.1593135E+006  0.2562363E+02  0.7546771E-02  0.1461946E+00
         21   -1    0    0  503  502  0.00000000000E+00  0.00000000000E+00  0.64076468176E+02  0.64076468176E+02  0.00000000000E+00 0. -1.
         -1   -1    0    0    0  501 -0.00000000000E+00 -0.00000000000E+00 -0.10695620671E+02  0.10695620671E+02  0.00000000000E+00 0. -1.
         21    1    1    2  503  501 -0.23427069648E+02 -0.10379919251E+02  0.34350033639E+02  0.42854347819E+02  0.00000000000E+00 0. -1.
         -1    1    1    2    0  502  0.23427069648E+02  0.10379919251E+02  0.19030813866E+02  0.31917741028E+02  0.00000000000E+00 0. -1.
</event>
<event>
 4    1  0.1593135E+006  0.2983874E+02  0.7546771E-02  0.1421003E+00
          2   -1    0    0  503    0 -0.00000000000E+00  0.00000000000E+00  0.12494428564E+03  0.12494428564E+03  0.00000000000E+00 0.  1.
         21   -1    0    0  501  502  0.00000000000E+00 -0.00000000000E+00 -0.10533603107E+02  0.10533603107E+02  0.00000000000E+00 0.  1.
         21    1    1    2  503  502 -0.11363656895E+02  0.27590169930E+02  0.18677392981E+02  0.35202204240E+02  0.00000000000E+00 0.  1.
          2    1    1    2  501    0  0.11363656895E+02 -0.27590169930E+02  0.95733289550E+02  0.10027568450E+03  0.00000000000E+00 0.  1.
</event>
<event>
 4    1  0.1593135E+006  0.4470044E+02  0.7546771E-02  0.1322944E+00
         21   -1    0    0  501  502  0.00000000000E+00  0.00000000000E+00  0.54543863493E+02  0.54543863493E+02  0.00000000000E+00 0.  1.
         -1   -1    0    0    0  501 -0.00000000000E+00 -0.00000000000E+00 -0.36905952361E+03  0.36905952361E+03  0.00000000000E+00 0. -1.
         21    1    1    2  503  502 -0.30531818348E+01  0.44596049123E+02  0.43757308003E+02  0.62552630003E+02  0.00000000000E+00 0.  1.
         -1    1    1    2    0  503  0.30531818348E+01 -0.44596049123E+02 -0.35827296812E+03  0.36105075710E+03  0.00000000000E+00 0. -1.
</event>
<event>
 4    1  0.1593135E+006  0.2123442E+02  0.7546771E-02  0.1515944E+00
         21   -1    0    0  503  502  0.00000000000E+00  0.00000000000E+00  0.70447025032E+02  0.70447025032E+02  0.00000000000E+00 0. -1.
          1   -1    0    0  502    0 -0.00000000000E+00 -0.00000000000E+00 -0.65612895958E+01  0.65612895958E+01  0.00000000000E+00 0.  1.
         21    1    1    2  503  501 -0.18840282352E+02 -0.97951097772E+01  0.37969308135E+02  0.43503663925E+02  0.00000000000E+00 0. -1.
          1    1    1    2  501    0  0.18840282352E+02  0.97951097772E+01  0.25916427302E+02  0.33504650703E+02  0.00000000000E+00 0.  1.
</event>
<event>
 4    1  0.1593135E+006  0.2164294E+02  0.7546771E-02  0.1510280E+00
         -1   -1    0    0    0  501 -0.00000000000E+00  0.00000000000E+00  0.11437299405E+04  0.11437299405E+04  0.00000000000E+00 0.  1.
         21   -1    0    0  501  502  0.00000000000E+00 -0.00000000000E+00 -0.42144388349E+01  0.42144388349E+01  0.00000000000E+00 0. -1.
         21    1    1    2  503  502 -0.16116391268E+02  0.14445715040E+02  0.24386988251E+02  0.32605857549E+02  0.00000000000E+00 0. -1.
         -1    1    1    2    0  503  0.16116391268E+02 -0.14445715040E+02  0.11151285134E+04  0.11153385217E+04  0.00000000000E+00 0.  1.
</event>
<event>
 4    1  0.1593135E+006  0.2759416E+02  0.7546771E-02  0.1441729E+00
          2   -1    0    0  503    0 -0.00000000000E+00  0.00000000000E+00  0.17687010244E+02  0.17687010244E+02  0.00000000000E+00 0.  1.
         21   -1    0    0  501  502  0.00000000000E+00 -0.00000000000E+00 -0.43925122522E+02  0.43925122522E+02  0.00000000000E+00 0.  1.
         21    1    1    2  503  502 -0.14322622795E+02  0.23586012129E+02 -0.17465659097E+02  0.32657108561E+02  0.00000000000E+00 0.  1.
          2    1    1    2  501    0  0.14322622795E+02 -0.23586012129E+02 -0.87724531799E+01  0.28955024204E+02  0.00000000000E+00 0.  1.
</event>
<event>
 4    1  0.1593135E+006  0.2239805E+02  0.7546771E-02  0.1500198E+00
         21   -1    0    0  503  502  0.00000000000E+00  0.00000000000E+00  0.45170654265E+01  0.45170654265E+01  0.00000000000E+00 0. -1.
         -2   -1    0    0    0  501 -0.00000000000E+00 -0.00000000000E+00 -0.21572917763E+03  0.21572917763E+03  0.00000000000E+00 0. -1.
         21    1    1    2  503  501 -0.57580527044E+01  0.21645260743E+02 -0.28899908867E+02  0.36563331578E+02  0.00000000000E+00 0. -1.
         -2    1    1    2    0  502  0.57580527044E+01 -0.21645260743E+02 -0.18231220334E+03  0.18368291148E+03  0.00000000000E+00 0. -1.
</event>
<event>
 4    1  0.1593135E+006  0.2277136E+02  0.7546771E-02  0.1495389E+00
         -4   -1    0    0    0  501 -0.00000000000E+00  0.00000000000E+00  0.13797539642E+04  0.13797539642E+04  0.00000000000E+00 0. -1.
         21   -1    0    0  503  502  0.00000000000E+00 -0.00000000000E+00 -0.82526011103E+00  0.82526011103E+00  0.00000000000E+00 0. -1.
         21    1    1    2  503  501  0.17438629387E+01 -0.22704483172E+02  0.18004738178E+03  0.18148166381E+03  0.00000000000E+00 0. -1.
         -4    1    1    2    0  502 -0.17438629387E+01  0.22704483172E+02  0.11988813223E+04  0.11990975605E+04  0.00000000000E+00 0. -1.
</event>
<event>
 4    1  0.1593135E+006  0.2433585E+02  0.7546771E-02  0.1476372E+00
         21   -1    0    0  503  502  0.00000000000E+00  0.00000000000E+00  0.21251093473E+01  0.21251093473E+01  0.00000000000E+00 0.  1.
          1   -1    0    0  502    0 -0.00000000000E+00 -0.00000000000E+00 -0.90665876533E+03  0.90665876533E+03  0.00000000000E+00 0.  1.
         21    1    1    2  503  501 -0.16401110960E+02 -0.17978800213E+02 -0.74103139380E+02  0.77996852269E+02  0.00000000000E+00 0.  1.
          1    1    1    2  501    0  0.16401110960E+02  0.17978800213E+02 -0.83043051661E+03  0.83078702241E+03  0.00000000000E+00 0.  1.
</event>
<event>
 4    1  0.1593135E+006  0.2860344E+02  0.7546771E-02  0.1432134E+00
         21   -1    0    0  503  502  0.00000000000E+00  0.00000000000E+00  0.30321346921E+02  0.30321346921E+02  0.00000000000E+00 0. -1.
          3   -1    0    0  502    0 -0.00000000000E+00 -0.00000000000E+00 -0.25629292590E+03  0.25629292590E+03  0.00000000000E+00 0. -1.
         21    1    1    2  503  501 -0.27197957048E+02  0.88559637012E+01  0.22567811312E+02  0.36434366580E+02  0.00000000000E+00 0. -1.
          3    1    1    2  501    0  0.27197957048E+02 -0.88559637012E+01 -0.24853939029E+03  0.25017990624E+03  0.00000000000E+00 0. -1.
</event>
<event>
 4    1  0.1593135E+006  0.3176290E+02  0.7546771E-02  0.1404871E+00
         21   -1    0    0  501  502  0.00000000000E+00  0.00000000000E+00  0.79959940319E+01  0.79959940319E+01  0.00000000000E+00 0.  1.
         -4   -1    0    0    0  501 -0.00000000000E+00 -0.00000000000E+00 -0.24580589598E+03  0.24580589598E+03  0.00000000000E+00 0.  1.
         21    1    1    2  503  502  0.12739210761E+02  0.29096289960E+02 -0.30374366886E+02  0.43948648944E+02  0.00000000000E+00 0.  1.
         -4    1    1    2    0  503 -0.12739210761E+02 -0.29096289960E+02 -0.20743553506E+03  0.20985324107E+03  0.00000000000E+00 0.  1.
</event>
<event>
 4    1  0.1593135E+006  0.2535530E+02  0.7546771E-02  0.1464868E+00
         -4   -1    0    0    0  501 -0.00000000000E+00  0.00000000000E+00  0.14812553335E+03  0.14812553335E+03  0.00000000000E+00 0. -1.
         21   -1    0    0  501  502  0.00000000000E+00 -0.00000000000E+00 -0.16692126293E+02  0.16692126293E+02  0.00000000000E+00 0.  1.
         21    1    1    2  503  502 -0.13307905777E+02 -0.21582184955E+02 -0.51734085223E+01  0.25877697335E+02  0.00000000000E+00 0.  1.
         -4    1    1    2    0  503  0.13307905777E+02  0.21582184955E+02  0.13660681558E+03  0.13893996231E+03  0.00000000000E+00 0. -1.
</event>
<event>
 4    1  0.1593135E+006  0.2532030E+02  0.7546771E-02  0.1465252E+00
         21   -1    0    0  501  502  0.00000000000E+00  0.00000000000E+00  0.24505948079E+02  0.24505948079E+02  0.00000000000E+00 0.  1.
         -4   -1    0    0    0  501 -0.00000000000E+00 -0.00000000000E+00 -0.16310085750E+04  0.16310085750E+04  0.00000000000E+00 0. -1.
         21    1    1    2  503  502  0.16235394873E+02 -0.19430116863E+02  0.17840413489E+02  0.30974147953E+02  0.00000000000E+00 0.  1.
         -4    1    1    2    0  503 -0.16235394873E+02  0.19430116863E+02 -0.16243430404E+04  0.16245403751E+04  0.00000000000E+00 0. -1.
</event>
<event>
 4    1  0.1593135E+006  0.2254777E+02  0.7546771E-02  0.1498256E+00
         -3   -1    0    0    0  501 -0.00000000000E+00  0.00000000000E+00  0.67443335044E+03  0.67443335044E+03  0.00000000000E+00 0. -1.
         21   -1    0    0  501  502  0.00000000000E+00 -0.00000000000E+00 -0.27361568964E+01  0.27361568964E+01  0.00000000000E+00 0. -1.
         21    1    1    2  503  502  0.22216382446E+02  0.38515532026E+01  0.47654216514E+02  0.52719317737E+02  0.00000000000E+00 0. -1.
         -3    1    1    2    0  503 -0.22216382446E+02 -0.38515532026E+01  0.62404297703E+03  0.62445018960E+03  0.00000000000E+00 0. -1.
</event>
<event>
 4    1  0.1593135E+006  0.3448456E+02  0.7546771E-02  0.1384224E+00
          2   -1    0    0  503    0 -0.00000000000E+00  0.00000000000E+00  0.20167166376E+03  0.20167166376E+03  0.00000000000E+00 0.  1.
         21   -1    0    0  501  502  0.00000000000E+00 -0.00000000000E+00 -0.19071891208E+02  0.19071891208E+02  0.00000000000E+00 0. -1.
         21    1    1    2  503  502  0.44640476183E+01 -0.34194399993E+02 -0.43629304542E+00  0.34487317432E+02  0.00000000000E+00 0. -1.
          2    1    1    2  501    0 -0.44640476183E+01  0.34194399993E+02  0.18303606560E+03  0.18625623754E+03  0.00000000000E+00 0.  1.
</event>
<event>
 4    1  0.1593135E+006  0.2326070E+02  0.7546771E-02  0.1489250E+00
         -4   -1    0    0    0  501 -0.00000000000E+00  0.00000000000E+00  0.33262802045E+02  0.33262802045E+02  0.00000000000E+00 0.  1.
         21   -1    0    0  501  502  0.00000000000E+00 -0.00000000000E+00 -0.23001696319E+03  0.23001696319E+03  0.00000000000E+00 0.  1.
         21    1    1    2  503  502 -0.19815476531E+02 -0.12182245962E+02 -0.22527700550E+03  0.22647469932E+03  0.00000000000E+00 0.  1.
         -4    1    1    2    0  503  0.19815476531E+02  0.12182245962E+02  0.28522844354E+02  0.36805065913E+02  0.00000000000E+00 0.  1.
</event>
<event>
 4    1  0.1593135E+006  0.2729371E+02  0.7546771E-02  0.1444680E+00
          3   -1    0    0  503    0 -0.00000000000E+00  0.00000000000E+00  0.21826582773E+03  0.21826582773E+03  0.00000000000E+00 0. -1.
         21   -1    0    0  501  502  0.00000000000E+00 -0.00000000000E+00 -0.13050947921E+02  0.13050947921E+02  0.00000000000E+00 0.  1.
         21    1    1    2  503  502 -0.19660298543E+02  0.18931964750E+02  0.32162613112E+01  0.27482557467E+02  0.00000000000E+00 0.  1.
          3    1    1    2  501    0  0.19660298543E+02 -0.18931964750E+02  0.20199861850E+03  0.20383421819E+03  0.00000000000E+00 0. -1.
</event>
<event>
 4    1  0.1593135E+006  0.4348669E+02  0.7546771E-02  0.1329182E+00
         21   -1    0    0  503  502  0.00000000000E+00  0.00000000000E+00  0.46059284273E+03  0.46059284273E+03  0.00000000000E+00 0. -1.
          2   -1    0    0  502    0 -0.00000000000E+00 -0.00000000000E+00 -0.11886429665E+02  0.11886429665E+02  0.00000000000E+00 0. -1.
         21    1    1    2  503  501 -0.37435492626E+02 -0.22128621197E+02  0.41548592537E+03  0.41775548610E+03  0.00000000000E+00 0. -1.
          2    1    1    2  501    0  0.37435492626E+02  0.22128621197E+02  0.33220487699E+02  0.54723786302E+02  0.00000000000E+00 0. -1.
</event>
<event>
 4    1  0.1593135E+006  0.2241553E+02  0.7546771E-02  0.1499971E+00
          1   -1    0    0  503    0 -0.00000000000E+00  0.00000000000E+00  0.74452338369E+02  0.74452338369E+02  0.00000000000E+00 0.  1.
         21   -1    0    0  501  502  0.00000000000E+00 -0.00000000000E+00 -0.41183124989E+02  0.41183124989E+02  0.00000000000E+00 0.  1.
         21    1    1    2  503  502 -0.17818356032E+02  0.13600085881E+02 -0.36233997854E+02  0.42607026981E+02  0.00000000000E+00 0.  1.
          1    1    1    2  501    0  0.17818356032E+02 -0.13600085881E+02  0.69503211234E+02  0.73028436376E+02  0.00000000000E+00 0.  1.
</event>
<event>
 4    1  0.1593135E+006  0.3258590E+02  0.7546771E-02  0.1398379E+00
         21   -1    0    0  501  502  0.00000000000E+00  0.00000000000E+00  0.10804691683E+03  0.10804691683E+03  0.00000000000E+00 0. -1.
         -3   -1    0    0    0  501 -0.00000000000E+00 -0.00000000000E+00 -0.30025247411E+02  0.30025247411E+02  0.00000000000E+00 0. -1.
         21    1    1    2  503  502 -0.12060794579E+02  0.30271741632E+02  0.95632587516E+02  0.10103184103E+03  0.00000000000E+00 0. -1.
         -3    1    1    2    0  503  0.12060794579E+02 -0.30271741632E+02 -0.17610918096E+02  0.37040323210E+02  0.00000000000E+00 0. -1.
</event>
<event>
 4    1  0.1593135E+006  0.2589862E+02  0.7546771E-02  0.1458997E+00
          2   -1    0    0  503    0 -0.00000000000E+00  0.00000000000E+00  0.27856029151E+01  0.27856029151E+01  0.00000000000E+00 0.  1.
         21   -1    0    0  501  502  0.00000000000E+00 -0.00000000000E+00 -0.24323516615E+03  0.24323516615E+03  0.00000000000E+00 0.  1.
         21    1    1    2  503  502  0.22254814396E+02 -0.13246196275E+02 -0.10788518568E+03  0.11095022203E+03  0.00000000000E+00 0.  1.
          2    1    1    2  501    0 -0.22254814396E+02  0.13246196275E+02 -0.13256437756E+03  0.13507054704E+03  0.00000000000E+00 0.  1.
</event>
<event>
 4    1  0.1593135E+006  0.2270410E+02  0.7546771E-02  0.1496248E+00
         21   -1    0    0  503  502  0.00000000000E+00  0.00000000000E+00  0.78422414687E+03  0.78422414687E+03  0.00000000000E+00 0. -1.
          3   -1    0    0  502    0 -0.00000000000E+00 -0.00000000000E+00 -0.40007696206E+01  0.40007696206E+01  0.00000000000E+00 0.  1.
         21    1    1    2  503  501 -0.21651106456E+02 -0.68341681120E+01  0.75039704234E+03  0.75074043279E+03  0.00000000000E+00 0. -1.
          3    1    1    2  501    0  0.21651106456E+02  0.68341681120E+01  0.29826334905E+02  0.37484483702E+02  0.00000000000E+00 0.  1.
</event>
<event>
 4    1  0.1593135E+006  0.2617594E+02  0.7546771E-02  0.1456066E+00
         -2   -1    0    0    0  501 -0.00000000000E+00  0.00000000000E+00  0.18851260325E+02  0.18851260325E+02  0.00000000000E+00 0.  1.
         21   -1    0    0  503  502  0.00000000000E+00 -0.00000000000E+00 -0.13684483409E+03  0.13684483409E+03  0.00000000000E+00 0.  1.
         21    1    1    2  503  501 -0.16459061441E+01 -0.26124141644E+02 -0.12571012467E+03  0.12840644543E+03  0.00000000000E+00 0.  1.
         -2    1    1    2    0  502  0.16459061441E+01  0.26124141644E+02  0.77165509068E+01  0.27289648982E+02  0.00000000000E+00 0.  1.
</event>
<event>
 4    1  0.1593135E+006  0.2833257E+02  0.7546771E-02  0.1434663E+00
         -1   -1    0    0    0  501 -0.00000000000E+00  0.00000000000E+00  0.47699748356E+03  0.47699748356E+03  0.00000000000E+00 0.  1.
         21   -1    0    0  501  502  0.00000000000E+00 -0.00000000000E+00 -0.27137765160E+01  0.27137765160E+01  0.00000000000E+00 0.  1.
         21    1    1    2  503  502  0.23971197220E+02  0.15103509652E+02  0.89309903928E+02  0.93696281887E+02  0.00000000000E+00 0.  1.
         -1    1    1    2    0  503 -0.23971197220E+02 -0.15103509652E+02  0.38497380312E+03  0.38601497819E+03  0.00000000000E+00 0.  1.
</event>
<event>
 4    1  0.1593135E+006  0.2282763E+02  0.7546771E-02  0.1494674E+00
         21   -1    0    0  501  502  0.00000000000E+00  0.00000000000E+00  0.22607289672E+02  0.22607289672E+02  0.00000000000E+00 0.  1.
          1   -1    0    0  503    0 -0.00000000000E+00 -0.00000000000E+00 -0.33423803782E+03  0.33423803782E+03  0.00000000000E+00 0. -1.
         21    1    1    2  503  502  0.16818784211E+02 -0.15434673745E+02  0.16345099353E+02  0.28076020530E+02  0.00000000000E+00 0.  1.
          1    1    1    2  501    0 -0.16818784211E+02  0.15434673745E+02 -0.32797584750E+03  0.32876930697E+03  0.00000000000E+00 0. -1.
</event>
<event>
 4    1  0.1593135E+006  0.2062581E+02  0.7546771E-02  0.1524675E+00
         21   -1    0    0  501  502  0.00000000000E+00  0.00000000000E+00  0.15928695236E+02  0.15928695236E+02  0.00000000000E+00 0.  1.
          1   -1    0    0  503    0 -0.00000000000E+00 -0.00000000000E+00 -0.26717299185E+02  0.26717299185E+02  0.00000000000E+00 0.  1.
         21    1    1    2  503  502 -0.95280647755E+01  0.18293165487E+02 -0.57916680420E+01  0.21423523067E+02  0.00000000000E+00 0.  1.
          1    1    1    2  501    0  0.95280647755E+01 -0.18293165487E+02 -0.49969359062E+01  0.21222471354E+02  0.00000000000E+00 0.  1.
</event>
<event>
 4    1  0.1593135E+006  0.2180811E+02  0.7546771E-02  0.1508033E+00
         21   -1    0    0  501  502  0.00000000000E+00  0.00000000000E+00  0.35881934791E+01  0.35881934791E+01  0.00000000000E+00 0. -1.
          1   -1    0    0  503    0 -0.00000000000E+00 -0.00000000000E+00 -0.13756039750E+03  0.13756039750E+03  0.00000000000E+00 0.  1.
         21    1    1    2  503  502  0.15498623597E+02 -0.15342307248E+02 -0.53509099938E+02  0.57782501688E+02  0.00000000000E+00 0. -1.
          1    1    1    2  501    0 -0.15498623597E+02  0.15342307248E+02 -0.80463104081E+02  0.83366089289E+02  0.00000000000E+00 0.  1.
</event>
<event>
 4    1  0.1593135E+006  0.2169775E+02  0.7546771E-02  0.1509532E+00
          1   -1    0    0  503    0 -0.00000000000E+00  0.00000000000E+00  0.38399357910E+03  0.38399357910E+03  0.00000000000E+00 0. -1.
         21   -1    0    0  501  502  0.00000000000E+00 -0.00000000000E+00 -0.12260482465E+01  0.12260482465E+01  0.00000000000E+00 0. -1.
         21    1    1    2  503  502  0.16155768538E+02  0.14483907806E+02  0.19096627088E+03  0.19219497666E+03  0.00000000000E+00 0. -1.
          1    1    1    2  501    0 -0.16155768538E+02 -0.14483907806E+02  0.19180125998E+03  0.19302465068E+03  0.00000000000E+00 0. -1.
</event>
<event>
 4    1  0.1593135E+006  0.4060096E+02  0.7546771E-02  0.1345000E+00
          1   -1    0    0  503    0 -0.00000000000E+00  0.00000000000E+00  0.97586509398E+03  0.97586509398E+03  0.00000000000E+00 0.  1.
         21   -1    0    0  501  502  0.00000000000E+00 -0.00000000000E+00 -0.53764475004E+01  0.53764475004E+01  0.00000000000E+00 0. -1.
         21    1    1    2  503  502  0.16400134040E+02  0.37141263399E+02  0.78942307668E+02  0.88771199065E+02  0.00000000000E+00 0. -1.
          1    1    1    2  501    0 -0.16400134040E+02 -0.37141263399E+02  0.89154633881E+03  0.89247034242E+03  0.00000000000E+00 0.  1.
</event>
<event>
 4    1  0.1593135E+006  0.3190424E+02  0.7546771E-02  0.1403740E+00
          2   -1    0    0  503    0 -0.00000000000E+00  0.00000000000E+00  0.11499631396E+04  0.11499631396E+04  0.00000000000E+00 0. -1.
         21   -1    0    0  501  502  0.00000000000E+00 -0.00000000000E+00 -0.86882807226E+02  0.86882807226E+02  0.00000000000E+00 0. -1.
         21    1    1    2  503  502 -0.21817146981E+01  0.31829560306E+02 -0.83724567116E+02  0.89597343304E+02  0.00000000000E+00 0. -1.
          2    1    1    2  501    0  0.21817146981E+01 -0.31829560306E+02  0.11468048995E+04  0.11472486035E+04  0.00000000000E+00 0. -1.
</event>
<event>
 4    1  0.1593135E+006  0.2150123E+02  0.7546771E-02  0.1512228E+00
          4   -1    0    0  503    0 -0.00000000000E+00  0.00000000000E+00  0.15093661690E+02  0.15093661690E+02  0.00000000000E+00 0.  1.
         21   -1    0    0  501  502  0.00000000000E+00 -0.00000000000E+00 -0.16569684618E+03  0.16569684618E+03  0.00000000000E+00 0. -1.
         21    1    1    2  503  502  0.16024656212E+02  0.14335727325E+02 -0.15691558219E+03  0.15838182541E+03  0.00000000000E+00 0. -1.
          4    1    1    2  501    0 -0.16024656212E+02 -0.14335727325E+02  0.63123977076E+01  0.22408682457E+02  0.00000000000E+00 0.  1.
</event>
<event>
 4    1  0.1593135E+006  0.2027119E+02  0.7546771E-02  0.1529930E+00
         21   -1    0    0  501  502  0.00000000000E+00  0.00000000000E+00  0.10825253819E+03  0.10825253819E+03  0.00000000000E+00 0. -1.
         -4   -1    0    0    0  501 -0.00000000000E+00 -0.00000000000E+00 -0.12924560772E+02  0.12924560772E+02  0.00000000000E+00 0.  1.
         21    1    1    2  503  502 -0.39910161068E+01 -0.19874430392E+02  0.98583591871E+02  0.10064614140E+03  0.00000000000E+00 0. -1.
         -4    1    1    2    0  503  0.39910161068E+01  0.19874430392E+02 -0.32556144510E+01  0.20530957562E+02  0.00000000000E+00 0.  1.
</event>
<event>
 4    1  0.1593135E+006  0.2919525E+02  0.7546771E-02  0.1426721E+00
         21   -1    0    0  503  502  0.00000000000E+00  0.00000000000E+00  0.19058863544E+02  0.19058863544E+02  0.00000000000E+00 0.  1.
          4   -1    0    0  502    0 -0.00000000000E+00 -0.00000000000E+00 -0.44723816818E+02  0.44723816818E+02  0.00000000000E+00 0.  1.
         21    1    1    2  503  501 -0.25623019735E+02 -0.13993688617E+02 -0.12668043551E+02  0.31825175394E+02  0.00000000000E+00 0.  1.
          4    1    1    2  501    0  0.25623019735E+02  0.13993688617E+02 -0.12996909723E+02  0.31957504968E+02  0.00000000000E+00 0.  1.
</event>
<event>
 4    1  0.1593135E+006  0.2029207E+02  0.7546771E-02  0.1529617E+00
         21   -1    0    0  503  502  0.00000000000E+00  0.00000000000E+00  0.48657388198E+02  0.48657388198E+02  0.00000000000E+00 0. -1.
          2   -1    0    0  502    0 -0.00000000000E+00 -0.00000000000E+00 -0.13751559412E+03  0.13751559412E+03  0.00000000000E+00 0. -1.
         21    1    1    2  503  501  0.98340552646E+00 -0.20268222608E+02  0.45747678489E+02  0.50046158906E+02  0.00000000000E+00 0. -1.
          2    1    1    2  501    0 -0.98340552646E+00  0.20268222608E+02 -0.13460588441E+03  0.13612682341E+03  0.00000000000E+00 0. -1.
</event>
<event>
 4    1  0.1593135E+006  0.2524090E+02  0.7546771E-02  0.1466126E+00
         21   -1    0    0  501  502  0.00000000000E+00  0.00000000000E+00  0.61606094553E+01  0.61606094553E+01  0.00000000000E+00 0.  1.
         -3   -1    0    0    0  501 -0.00000000000E+00 -0.00000000000E+00 -0.33494508265E+03  0.33494508265E+03  0.00000000000E+00 0. -1.
         21    1    1    2  503  502  0.16252846390E+02  0.19311863926E+02 -0.22592533532E+02  0.33875148346E+02  0.00000000000E+00 0.  1.
         -3    1    1    2    0  503 -0.16252846390E+02 -0.19311863926E+02 -0.30619193966E+03  0.30723054376E+03  0.00000000000E+00 0. -1.
</event>
<event>
 4    1  0.1593135E+006  0.2024690E+02  0.7546771E-02  0.1530294E+00
         21   -1    0    0  501  502  0.00000000000E+00  0.00000000000E+00  0.51903777120E+01  0.51903777120E+01  0.00000000000E+00 0.  1.
          2   -1    0    0  503    0 -0.00000000000E+00 -0.00000000000E+00 -0.11036693091E+04  0.11036693091E+04  0.00000000000E+00 0.  1.
         21    1    1    2  503  502 -0.20187881034E+02  0.15447717299E+01 -0.15015723893E+02  0.25207316881E+02  0.00000000000E+00 0.  1.
          2    1    1    2  501    0  0.20187881034E+02 -0.15447717299E+01 -0.10834632075E+04  0.10836523700E+04  0.00000000000E+00 0.  1.
</event>
<event>
 4    1  0.1593135E+006  0.2742611E+02  0.7546771E-02  0.1443374E+00
         21   -1    0    0  501  502  0.00000000000E+00  0.00000000000E+00  0.29295785055E+02  0.29295785055E+02  0.00000000000E+00 0.  1.
          2   -1    0    0  503    0 -0.00000000000E+00 -0.00000000000E+00 -0.26004683418E+02  0.26004683418E+02  0.00000000000E+00 0.  1.
         21    1    1    2  503  502  0.25590198375E+02 -0.98657584451E+01  0.47552813599E+01  0.27835303903E+02  0.00000000000E+00 0.  1.
          2    1    1    2  501    0 -0.25590198375E+02  0.98657584451E+01 -0.14641797231E+01  0.27465164569E+02  0.00000000000E+00 0.  1.
</event>
<event>
 4    1  0.1593135E+006  0.3150531E+02  0.7546771E-02  0.1406951E+00
          1   -1    0    0  503    0 -0.00000000000E+00  0.00000000000E+00  0.93602498536E+03  0.93602498536E+03  0.00000000000E+00 0. -1.
         21   -1    0    0  501  502  0.00000000000E+00 -0.00000000000E+00 -0.14520916684E+02  0.14520916684E+02  0.00000000000E+00 0. -1.
         21    1    1    2  503  502 -0.19518724364E+02 -0.24730627455E+02  0.31620192479E+01  0.31663589513E+02  0.00000000000E+00 0. -1.
          1    1    1    2  501    0  0.19518724364E+02  0.24730627455E+02  0.91834204942E+03  0.91888231253E+03  0.00000000000E+00 0. -1.
</event>
<event>
 4    1  0.1593135E+006  0.2865156E+02  0.7546771E-02  0.1431688E+00
          2   -1    0    0  502    0 -0.00000000000E+00  0.00000000000E+00  0.18131563404E+04  0.18131563404E+04  0.00000000000E+00 0. -1.
         21   -1    0    0  503  502  0.00000000000E+00 -0.00000000000E+00 -0.25000960081E+03  0.25000960081E+03  0.00000000000E+00 0.  1.
         21    1    1    2  503  501  0.18433404113E+02  0.21934478204E+02 -0.24907510912E+03  0.25071761348E+03  0.00000000000E+00 0.  1.
          2    1    1    2  501    0 -0.18433404113E+02 -0.21934478204E+02  0.18122218487E+04  0.18124483277E+04  0.00000000000E+00 0. -1.
</event>
<event>
 4    1  0.1593135E+006  0.4160657E+02  0.7546771E-02  0.1339320E+00
          2   -1    0    0  502    0 -0.00000000000E+00  0.00000000000E+00  0.82076661127E+03  0.82076661127E+03  0.00000000000E+00 0.  1.
         21   -1    0    0  503  502  0.00000000000E+00 -0.00000000000E+00 -0.13700058726E+02  0.13700058726E+02  0.00000000000E+00 0. -1.
         21    1    1    2  503  501  0.41343460106E+02 -0.46717048145E+01  0.19758141218E+02  0.46059642463E+02  0.00000000000E+00 0. -1.
          2    1    1    2  501    0 -0.41343460106E+02  0.46717048145E+01  0.78730841133E+03  0.78840702753E+03  0.00000000000E+00 0.  1.
</event>
<event>
 4    1  0.1593135E+006  0.2514015E+02  0.7546771E-02  0.1467242E+00
         -3   -1    0    0    0  501 -0.00000000000E+00  0.00000000000E+00  0.18080458381E+02  0.18080458381E+02  0.00000000000E+00 0.  1.
         21   -1    0    0  503  502  0.00000000000E+00 -0.00000000000E+00 -0.25761741687E+03  0.25761741687E+03  0.00000000000E+00 0. -1.
         21    1    1    2  503  501  0.24606612097E+02  0.51518521899E+01 -0.24792418592E+03  0.24919556358E+03  0.00000000000E+00 0. -1.
         -3    1    1    2    0  502 -0.24606612097E+02 -0.51518521899E+01  0.83872274378E+01  0.26502311672E+02  0.00000000000E+00 0.  1.
</event>
<event>
 4    1  0.1593135E+006  0.2354931E+02  0.7546771E-02  0.1485713E+00
         21   -1    0    0  501  502  0.00000000000E+00  0.00000000000E+00  0.98321671066E+02  0.98321671066E+02  0.00000000000E+00 0.  1.
          2   -1    0    0  503    0 -0.00000000000E+00 -0.00000000000E+00 -0.11884210409E+03  0.11884210409E+03  0.00000000000E+00 0.  1.
         21    1    1    2  503  502 -0.22874297708E+02 -0.55978913668E+01  0.95713648720E+02  0.98568110638E+02  0.00000000000E+00 0.  1.
          2    1    1    2  501    0  0.22874297708E+02  0.55978913668E+01 -0.11623408175E+03  0.11859566452E+03  0.00000000000E+00 0.  1.
</event>
<event>
 4    1  0.1593135E+006  0.2121012E+02  0.7546771E-02  0.1516286E+00
          2   -1    0    0  503    0 -0.00000000000E+00  0.00000000000E+00  0.15366687461E+04  0.15366687461E+04  0.00000000000E+00 0. -1.
         21   -1    0    0  501  502  0.00000000000E+00 -0.00000000000E+00 -0.98340447392E+00  0.98340447392E+00  0.00000000000E+00 0.  1.
         21    1    1    2  503  502  0.16787552861E+02 -0.12963308495E+02  0.12353918532E+03  0.12534671758E+03  0.00000000000E+00 0.  1.
          2    1    1    2  501    0 -0.16787552861E+02  0.12963308495E+02  0.14121461563E+04  0.14123054330E+04  0.00000000000E+00 0. -1.
</event>
<event>
 4    1  0.1593135E+006  0.2186099E+02  0.7546771E-02  0.1507318E+00
         21   -1    0    0  501  502  0.00000000000E+00  0.00000000000E+00  0.73424601129E+01  0.73424601129E+01  0.00000000000E+00 0.  1.
          3   -1    0    0  503    0 -0.00000000000E+00 -0.00000000000E+00 -0.13236764709E+03  0.13236764709E+03  0.00000000000E+00 0.  1.
         21    1    1    2  503  502 -0.38363377473E+01  0.21521738726E+02 -0.12710199824E+02  0.25287386276E+02  0.00000000000E+00 0.  1.
          3    1    1    2  501    0  0.38363377473E+01 -0.21521738726E+02 -0.11231498715E+03  0.11442272092E+03  0.00000000000E+00 0.  1.
</event>
<event>
 4    1  0.1593135E+006  0.2153340E+02  0.7546771E-02  0.1511784E+00
         -2   -1    0    0    0  501 -0.00000000000E+00  0.00000000000E+00  0.27871861355E+02  0.27871861355E+02  0.00000000000E+00 0. -1.
         21   -1    0    0  503  502  0.00000000000E+00 -0.00000000000E+00 -0.45355979936E+02  0.45355979936E+02  0.00000000000E+00 0. -1.
         21    1    1    2  503  501  0.25461511174E+01 -0.21382339608E+02 -0.37877260921E+02  0.43570336555E+02  0.00000000000E+00 0. -1.
         -2    1    1    2    0  502 -0.25461511174E+01  0.21382339608E+02  0.20393142340E+02  0.29657504735E+02  0.00000000000E+00 0. -1.
</event>
<event>
 4    1  0.1593135E+006  0.2753569E+02  0.7546771E-02  0.1442300E+00
          4   -1    0    0  502    0 -0.00000000000E+00  0.00000000000E+00  0.90215125421E+02  0.90215125421E+02  0.00000000000E+00 0.  1.
         21   -1    0    0  503  502  0.00000000000E+00 -0.00000000000E+00 -0.39381942806E+03  0.39381942806E+03  0.00000000000E+00 0. -1.
         21    1    1    2  503  501 -0.27534861620E+02 -0.21366635616E+00 -0.39122305158E+03  0.39219088509E+03  0.00000000000E+00 0. -1.
          4    1    1    2  501    0  0.27534861620E+02  0.21366635616E+00  0.87618748942E+02  0.91843668393E+02  0.00000000000E+00 0.  1.
</event>
<event>
 4    1  0.1593135E+006  0.3230972E+02  0.7546771E-02  0.1400532E+00
          1   -1    0    0  502    0 -0.00000000000E+00  0.00000000000E+00  0.72479159934E+03  0.72479159934E+03  0.00000000000E+00 0. -1.
         21   -1    0    0  503  502  0.00000000000E+00 -0.00000000000E+00 -0.50263449228E+01  0.50263449228E+01  0.00000000000E+00 0. -1.
         21    1    1    2  503  501 -0.13299398212E+02  0.29445614851E+02  0.51658815790E+02  0.60930710447E+02  0.00000000000E+00 0. -1.
          1    1    1    2  501    0  0.13299398212E+02 -0.29445614851E+02  0.66810643862E+03  0.66888723381E+03  0.00000000000E+00 0. -1.
</event>
<event>
 4    1  0.1593135E+006  0.2503630E+02  0.7546771E-02  0.1468398E+00
         -2   -1    0    0    0  501 -0.00000000000E+00  0.00000000000E+00  0.13340423225E+03  0.13340423225E+03  0.00000000000E+00 0.  1.
         21   -1    0    0  501  502  0.00000000000E+00 -0.00000000000E+00 -0.12680679753E+02  0.12680679753E+02  0.00000000000E+00 0.  1.
         21    1    1    2  503  502 -0.25036270274E+02 -0.38123032040E-01  0.24107024151E+01  0.25152092731E+02  0.00000000000E+00 0.  1.
         -2    1    1    2    0  503  0.25036270274E+02  0.38123032040E-01  0.11831285009E+03  0.12093281928E+03  0.00000000000E+00 0.  1.
</event>
<event>
 4    1  0.1593135E+006  0.3091855E+02  0.7546771E-02  0.1411778E+00
          4   -1    0    0  503    0 -0.00000000000E+00  0.00000000000E+00  0.12671717533E+03  0.12671717533E+03  0.00000000000E+00 0.  1.
         21   -1    0    0  501  502  0.00000000000E+00 -0.00000000000E+00 -0.13076278793E+02  0.13076278793E+02  0.00000000000E+00 0.  1.
         21    1    1    2  503  502  0.75032385389E+01 -0.29994299703E+02  0.11356610650E+02  0.32938263596E+02  0.00000000000E+00 0.  1.
          4    1    1    2  501    0 -0.75032385389E+01  0.29994299703E+02  0.10228428588E+03  0.10685519052E+03  0.00000000000E+00 0.  1.
</event>
<event>
 4    1  0.1593135E+006  0.5114865E+02  0.7546771E-02  0.1293268E+00
         21   -1    0    0  503  502  0.00000000000E+00  0.00000000000E+00  0.27920614147E+03  0.27920614147E+03  0.00000000000E+00 0.  1.
         -4   -1    0    0    0  501 -0.00000000000E+00 -0.00000000000E+00 -0.12311407712E+02  0.12311407712E+02  0.00000000000E+00 0.  1.
         21    1    1    2  503  501  0.23112008984E+02 -0.45629152811E+02  0.20469203758E+03  0.21098581657E+03  0.00000000000E+00 0.  1.
         -4    1    1    2    0  502 -0.23112008984E+02  0.45629152811E+02  0.62202696184E+02  0.80531732616E+02  0.00000000000E+00 0.  1.
</event>
<event>
 4    1  0.1593135E+006  0.2734262E+02  0.7546771E-02  0.1444197E+00
         21   -1    0    0  501  502  0.00000000000E+00  0.00000000000E+00  0.10186822674E+03  0.10186822674E+03  0.00000000000E+00 0.  1.
          2   -1    0    0  503    0 -0.00000000000E+00 -0.00000000000E+00 -0.24659631954E+03  0.24659631954E+03  0.00000000000E+00 0. -1.
         21    1    1    2  503  502  0.27338973286E+02  0.44628308830E+00  0.99255936853E+02  0.10295319145E+03  0.00000000000E+00 0.  1.
          2    1    1    2  501    0 -0.27338973286E+02 -0.44628308830E+00 -0.24398402965E+03  0.24551135484E+03  0.00000000000E+00 0. -1.
</event>
<event>
 4    1  0.1593135E+006  0.2954687E+02  0.7546771E-02  0.1423575E+00
         -4   -1    0    0    0  501 -0.00000000000E+00  0.00000000000E+00  0.11787698507E+02  0.11787698507E+02  0.00000000000E+00 0. -1.
         21   -1    0    0  503  502  0.00000000000E+00 -0.00000000000E+00 -0.82986317604E+02  0.82986317604E+02  0.00000000000E+00 0. -1.
         21    1    1    2  503  501  0.31297731297E+01 -0.29380644587E+02 -0.51139247124E+02  0.59061327047E+02  0.00000000000E+00 0. -1.
         -4    1    1    2    0  502 -0.31297731297E+01  0.29380644587E+02 -0.20059371973E+02  0.35712689063E+02  0.00000000000E+00 0. -1.
</event>
<event>
 4    1  0.1593135E+006  0.3111851E+02  0.7546771E-02  0.1410119E+00
         21   -1    0    0  501  502  0.00000000000E+00  0.00000000000E+00  0.42808212637E+01  0.42808212637E+01  0.00000000000E+00 0.  1.
          2   -1    0    0  503    0 -0.00000000000E+00 -0.00000000000E+00 -0.98924175254E+03  0.98924175254E+03  0.00000000000E+00 0.  1.
         21    1    1    2  503  502  0.14128778372E+02 -0.27726151411E+02 -0.56197746525E+02  0.64238217323E+02  0.00000000000E+00 0.  1.
          2    1    1    2  501    0 -0.14128778372E+02  0.27726151411E+02 -0.92876318475E+03  0.92928435648E+03  0.00000000000E+00 0.  1.
</event>
<event>
 4    1  0.1593135E+006  0.3371287E+02  0.7546771E-02  0.1389845E+00
          2   -1    0    0  502    0 -0.00000000000E+00  0.00000000000E+00  0.18570310286E+03  0.18570310286E+03  0.00000000000E+00 0. -1.
         21   -1    0    0  503  502  0.00000000000E+00 -0.00000000000E+00 -0.13082029448E+03  0.13082029448E+03  0.00000000000E+00 0.  1.
         21    1    1    2  503  501  0.28009878164E+02 -0.18761780935E+02 -0.12707389536E+03  0.13146989229E+03  0.00000000000E+00 0.  1.
          2    1    1    2  501    0 -0.28009878164E+02  0.18761780935E+02  0.18195670373E+03  0.18505350505E+03  0.00000000000E+00 0. -1.
</event>
<event>
 4    1  0.1593135E+006  0.2863898E+02  0.7546771E-02  0.1431804E+00
          2   -1    0    0  502    0 -0.00000000000E+00  0.00000000000E+00  0.60047220808E+03  0.60047220808E+03  0.00000000000E+00 0. -1.
         21   -1    0    0  503  502  0.00000000000E+00 -0.00000000000E+00 -0.12799673908E+02  0.12799673908E+02  0.00000000000E+00 0. -1.
         21    1    1    2  503  501  0.27449294573E+02 -0.81686902371E+01  0.40230378196E+01  0.28920167808E+02  0.00000000000E+00 0. -1.
          2    1    1    2  501    0 -0.27449294573E+02  0.81686902371E+01  0.58364949635E+03  0.58435171418E+03  0.00000000000E+00 0. -1.
</event>
<event>
 4    1  0.1593135E+006  0.2664720E+02  0.7546771E-02  0.1451185E+00
         -2   -1    0    0    0  501 -0.00000000000E+00  0.00000000000E+00  0.39776926199E+02  0.39776926199E+02  0.00000000000E+00 0.  1.
         21   -1    0    0  501  502  0.00000000000E+00 -0.00000000000E+00 -0.32706554934E+02  0.32706554934E+02  0.00000000000E+00 0.  1.
         21    1    1    2  503  502  0.10492705888E+02 -0.24494413518E+02 -0.20889584114E+02  0.33859236478E+02  0.00000000000E+00 0.  1.
         -2    1    1    2    0  503 -0.10492705888E+02  0.24494413518E+02  0.27959955378E+02  0.38624244655E+02  0.00000000000E+00 0.  1.
</event>
<event>
 4    1  0.1593135E+006  0.3117103E+02  0.7546771E-02  0.1409686E+00
         21   -1    0    0  503  502  0.00000000000E+00  0.00000000000E+00  0.13655606502E+02  0.13655606502E+02  0.00000000000E+00 0.  1.
          3   -1    0    0  502    0 -0.00000000000E+00 -0.00000000000E+00 -0.12713120580E+03  0.12713120580E+03  0.00000000000E+00 0.  1.
         21    1    1    2  503  501 -0.30268458862E+02  0.74467276958E+01 -0.10027083632E+02  0.32744095061E+02  0.00000000000E+00 0.  1.
          3    1    1    2  501    0  0.30268458862E+02 -0.74467276958E+01 -0.10344851566E+03  0.10804271724E+03  0.00000000000E+00 0.  1.
</event>
<event>
 4    1  0.1593135E+006  0.2473125E+02  0.7546771E-02  0.1471832E+00
         21   -1    0    0  503  502  0.00000000000E+00  0.00000000000E+00  0.16305491810E+03  0.16305491810E+03  0.00000000000E+00 0.  1.
          2   -1    0    0  502    0 -0.00000000000E+00 -0.00000000000E+00 -0.75156387264E+01  0.75156387264E+01  0.00000000000E+00 0.  1.
         21    1    1    2  503  501  0.11942378901E+02 -0.21656740277E+02  0.13812935485E+03  0.14032588316E+03  0.00000000000E+00 0.  1.
          2    1    1    2  501    0 -0.11942378901E+02  0.21656740277E+02  0.17409924520E+02  0.30244673664E+02  0.00000000000E+00 0.  1.
</event>
<event>
 4    1  0.1593135E+006  0.2216599E+02  0.7546771E-02  0.1503245E+00
         21   -1    0    0  501  502  0.00000000000E+00  0.00000000000E+00  0.98385063864E+01  0.98385063864E+01  0.00000000000E+00 0. -1.
          2   -1    0    0  503    0 -0.00000000000E+00 -0.00000000000E+00 -0.10616876620E+04  0.10616876620E+04  0.00000000000E+00 0.  1.
         21    1    1    2  503  502  0.48515584177E+01 -0.21628538590E+02 -0.29138627711E+01  0.22356696913E+02  0.00000000000E+00 0. -1.
          2    1    1    2  501    0 -0.48515584177E+01  0.21628538590E+02 -0.10489352928E+04  0.10491694715E+04  0.00000000000E+00 0.  1.
</event>
<event>
 4    1  0.1593135E+006  0.2652253E+02  0.7546771E-02  0.1452464E+00
         -1   -1    0    0    0  501 -0.00000000000E+00  0.00000000000E+00  0.20152990882E+01  0.20152990882E+01  0.00000000000E+00 0.  1.
         21   -1    0    0  503  502  0.00000000000E+00 -0.00000000000E+00 -0.48537108021E+03  0.48537108021E+03  0.00000000000E+00 0.  1.
         21    1    1    2  503  501  0.23019576334E+02 -0.13173592240E+02 -0.37082496435E+03  0.37177224023E+03  0.00000000000E+00 0.  1.
         -1    1    1    2    0  502 -0.23019576334E+02  0.13173592240E+02 -0.11253081678E+03  0.11561413906E+03  0.00000000000E+00 0.  1.
</event>
<event>
 4    1  0.1593135E+006  0.2705997E+02  0.7546771E-02  0.1447007E+00
         -3   -1    0    0    0  501 -0.00000000000E+00  0.00000000000E+00  0.70366684089E+01  0.70366684089E+01  0.00000000000E+00 0.  1.
         21   -1    0    0  503  502  0.00000000000E+00 -0.00000000000E+00 -0.18839685008E+03  0.18839685008E+03  0.00000000000E+00 0. -1.
         21    1    1    2  503  501 -0.10682906739E+02 -0.24861964262E+02 -0.15605915677E+03  0.15838782205E+03  0.00000000000E+00 0. -1.
         -3    1    1    2    0  502  0.10682906739E+02  0.24861964262E+02 -0.25301024905E+02  0.37045696439E+02  0.00000000000E+00 0.  1.
</event>
<event>
 4    1  0.1593135E+006  0.2036134E+02  0.7546771E-02  0.1528582E+00
         21   -1    0    0  501  502  0.00000000000E+00  0.00000000000E+00  0.41701442782E+02  0.41701442782E+02  0.00000000000E+00 0.  1.
          4   -1    0    0  503    0 -0.00000000000E+00 -0.00000000000E+00 -0.20170414541E+03  0.20170414541E+03  0.00000000000E+00 0. -1.
         21    1    1    2  503  502 -0.17136928426E+02  0.10995898356E+02  0.38664263398E+02  0.43697933139E+02  0.00000000000E+00 0.  1.
          4    1    1    2  501    0  0.17136928426E+02 -0.10995898356E+02 -0.19866696602E+03  0.19970765505E+03  0.00000000000E+00 0. -1.
</event>
<event>
 4    1  0.1593135E+006  0.2093922E+02  0.7546771E-02  0.1520134E+00
          2   -1    0    0  502    0 -0.00000000000E+00  0.00000000000E+00  0.94522480929E+02  0.94522480929E+02  0.00000000000E+00 0. -1.
         21   -1    0    0  503  502  0.00000000000E+00 -0.00000000000E+00 -0.10842177070E+02  0.10842177070E+02  0.00000000000E+00 0.  1.
         21    1    1    2  503  501  0.12361635717E+02 -0.16900913890E+02  0.19901635639E+01  0.21033584548E+02  0.00000000000E+00 0.  1.
          2    1    1    2  501    0 -0.12361635717E+02  0.16900913890E+02  0.81690140295E+02  0.84331073451E+02  0.00000000000E+00 0. -1.
</event>
<event>
 4    1  0.1593135E+006  0.2369258E+02  0.7546771E-02  0.1483980E+00
         21   -1    0    0  501  502  0.00000000000E+00  0.00000000000E+00  0.60960250265E+01  0.60960250265E+01  0.00000000000E+00 0. -1.
          1   -1    0    0  503    0 -0.00000000000E+00 -0.00000000000E+00 -0.10673778547E+04  0.10673778547E+04  0.00000000000E+00 0. -1.
         21    1    1    2  503  502 -0.11843229532E+01 -0.23662963716E+02 -0.17578236470E+02  0.29501404544E+02  0.00000000000E+00 0. -1.
          1    1    1    2  501    0  0.11843229532E+01  0.23662963716E+02 -0.10437035932E+04  0.10439724752E+04  0.00000000000E+00 0. -1.
</event>
<event>
 4    1  0.1593135E+006  0.2369428E+02  0.7546771E-02  0.1483959E+00
          1   -1    0    0  503    0 -0.00000000000E+00  0.00000000000E+00  0.12597515503E+04  0.12597515503E+04  0.00000000000E+00 0.  1.
         21   -1    0    0  501  502  0.00000000000E+00 -0.00000000000E+00 -0.47979927746E+00  0.47979927746E+00  0.00000000000E+00 0.  1.
         21    1    1    2  503  502  0.21043878412E+02 -0.10889171181E+02  0.46155132742E+03  0.46215911406E+03  0.00000000000E+00 0.  1.
          1    1    1    2  501    0 -0.21043878412E+02  0.10889171181E+02  0.79772042361E+03  0.79807223553E+03  0.00000000000E+00 0.  1.
</event>
<event>
 4    1  0.1593135E+006  0.2506895E+02  0.7546771E-02  0.1468034E+00
         21   -1    0    0  503  502  0.00000000000E+00  0.00000000000E+00  0.31121394137E+03  0.31121394137E+03  0.00000000000E+00 0.  1.
          1   -1    0    0  502    0 -0.00000000000E+00 -0.00000000000E+00 -0.29127862287E+02  0.29127862287E+02  0.00000000000E+00 0. -1.
         21    1    1    2  503  501  0.48640097154E+01  0.24592548392E+02  0.30520925284E+03  0.30623706511E+03  0.00000000000E+00 0.  1.
          1    1    1    2  501    0 -0.48640097154E+01 -0.24592548392E+02 -0.23123173756E+02  0.34104738549E+02  0.00000000000E+00 0. -1.
</event>
<event>
 4    1  0.1593135E+006  0.2270005E+02  0.7546771E-02  0.1496299E+00
          2   -1    0    0  503    0 -0.00000000000E+00  0.00000000000E+00  0.31863555321E+01  0.31863555321E+01  0.00000000000E+00 0. -1.
         21   -1    0    0  501  502  0.00000000000E+00 -0.00000000000E+00 -0.11392203213E+04  0.11392203213E+04  0.00000000000E+00 0. -1.
         21    1    1    2  503  502 -0.55317376748E+01  0.22015725637E+02 -0.10971266382E+04  0.10973614503E+04  0.00000000000E+00 0. -1.
          2    1    1    2  501    0  0.55317376748E+01 -0.22015725637E+02 -0.38907327547E+02  0.45045226539E+02  0.00000000000E+00 0. -1.
</event>
<event>
 4    1  0.1593135E+006  0.3500327E+02  0.7546771E-02  0.1380540E+00
         -4   -1    0    0    0  501 -0.00000000000E+00  0.00000000000E+00  0.44783045123E+03  0.44783045123E+03  0.00000000000E+00 0. -1.
         21   -1    0    0  503  502  0.00000000000E+00 -0.00000000000E+00 -0.34536515801E+01  0.34536515801E+01  0.00000000000E+00 0.  1.
         21    1    1    2  503  501 -0.17643129159E+02 -0.30231584322E+02  0.11932484475E+03  0.12435291420E+03  0.00000000000E+00 0.  1.
         -4    1    1    2    0  502  0.17643129159E+02  0.30231584322E+02  0.32505195490E+03  0.32693118860E+03  0.00000000000E+00 0. -1.
</event>
<event>
 4    1  0.1593135E+006  0.2887672E+02  0.7546771E-02  0.1429615E+00
         -4   -1    0    0    0  501 -0.00000000000E+00  0.00000000000E+00  0.10063758470E+03  0.10063758470E+03  0.00000000000E+00 0.  1.
         21   -1    0    0  503  502  0.00000000000E+00 -0.00000000000E+00 -0.87942014798E+01  0.87942014798E+01  0.00000000000E+00 0.  1.
         21    1    1    2  503  501  0.16038590930E+02  0.24013090084E+02  0.32766104882E+02  0.43674735529E+02  0.00000000000E+00 0.  1.
         -4    1    1    2    0  502 -0.16038590930E+02 -0.24013090084E+02  0.59077278336E+02  0.65757050648E+02  0.00000000000E+00 0.  1.
</event>
<event>
 4    1  0.1593135E+006  0.2398458E+02  0.7546771E-02  0.1480491E+00
         -3   -1    0    0    0  501 -0.00000000000E+00  0.00000000000E+00  0.17983234463E+03  0.17983234463E+03  0.00000000000E+00 0.  1.
         21   -1    0    0  501  502  0.00000000000E+00 -0.00000000000E+00 -0.12780970628E+03  0.12780970628E+03  0.00000000000E+00 0.  1.
         21    1    1    2  503  502 -0.16418822203E+02 -0.17483773179E+02 -0.12587256381E+03  0.12813727938E+03  0.00000000000E+00 0.  1.
         -3    1    1    2    0  503  0.16418822203E+02  0.17483773179E+02  0.17789520216E+03  0.17950477152E+03  0.00000000000E+00 0.  1.
</event>
<event>
 4    1  0.1593135E+006  0.2004949E+02  0.7546771E-02  0.1533281E+00
          2   -1    0    0  502    0 -0.00000000000E+00  0.00000000000E+00  0.13914790621E+04  0.13914790621E+04  0.00000000000E+00 0.  1.
         21   -1    0    0  503  502  0.00000000000E+00 -0.00000000000E+00 -0.16690128636E+01  0.16690128636E+01  0.00000000000E+00 0. -1.
         21    1    1    2  503  501  0.18015290787E+02  0.87995007767E+01  0.61477988424E+02  0.64664711990E+02  0.00000000000E+00 0. -1.
          2    1    1    2  501    0 -0.18015290787E+02 -0.87995007767E+01  0.13283320608E+04  0.13284833629E+04  0.00000000000E+00 0.  1.
</event>
<event>
 4    1  0.1593135E+006  0.3072562E+02  0.7546771E-02  0.1413394E+00
          2   -1    0    0  503    0 -0.00000000000E+00  0.00000000000E+00  0.11445545411E+04  0.11445545411E+04  0.00000000000E+00 0. -1.
         21   -1    0    0  501  502  0.00000000000E+00 -0.00000000000E+00 -0.89599050731E+01  0.89599050731E+01  0.00000000000E+00 0. -1.
         21    1    1    2  503  502  0.33761131479E+01  0.30539573297E+02  0.18228475268E+02  0.35725914793E+02  0.00000000000E+00 0. -1.
          2    1    1    2  501    0 -0.33761131479E+01 -0.30539573297E+02  0.11173661608E+04  0.11177885314E+04  0.00000000000E+00 0. -1.
</event>
<event>
 4    1  0.1593135E+006  0.3889945E+02  0.7546771E-02  0.1355058E+00
         21   -1    0    0  501  502  0.00000000000E+00  0.00000000000E+00  0.83890867478E+02  0.83890867478E+02  0.00000000000E+00 0. -1.
         -2   -1    0    0    0  501 -0.00000000000E+00 -0.00000000000E+00 -0.76194115430E+02  0.76194115430E+02  0.00000000000E+00 0. -1.
         21    1    1    2  503  502 -0.80010316241E+01  0.38067712262E+02  0.73777820920E+02  0.83404640660E+02  0.00000000000E+00 0. -1.
         -2    1    1    2    0  503  0.80010316241E+01 -0.38067712262E+02 -0.66081068872E+02  0.76680342248E+02  0.00000000000E+00 0. -1.
</event>
<event>
 4    1  0.1593135E+006  0.2641117E+02  0.7546771E-02  0.1453614E+00
         21   -1    0    0  503  502  0.00000000000E+00  0.00000000000E+00  0.11028960832E+02  0.11028960832E+02  0.00000000000E+00 0. -1.
          1   -1    0    0  502    0 -0.00000000000E+00 -0.00000000000E+00 -0.23409633693E+03  0.23409633693E+03  0.00000000000E+00 0.  1.
         21    1    1    2  503  501 -0.23697371627E+02  0.11661230065E+02 -0.68287026714E+01  0.27279679045E+02  0.00000000000E+00 0. -1.
          1    1    1    2  501    0  0.23697371627E+02 -0.11661230065E+02 -0.21623867343E+03  0.21784561872E+03  0.00000000000E+00 0.  1.
</event>
<event>
 4    1  0.1593135E+006  0.4502541E+02  0.7546771E-02  0.1321312E+00
         21   -1    0    0  501  502  0.00000000000E+00  0.00000000000E+00  0.40347441486E+03  0.40347441486E+03  0.00000000000E+00 0. -1.
         -2   -1    0    0    0  501 -0.00000000000E+00 -0.00000000000E+00 -0.36608538108E+02  0.36608538108E+02  0.00000000000E+00 0.  1.
         21    1    1    2  503  502  0.45020696605E+02 -0.65117712990E+00  0.38781683471E+03  0.39042180323E+03  0.00000000000E+00 0. -1.
         -2    1    1    2    0  503 -0.45020696605E+02  0.65117712990E+00 -0.20950957953E+02  0.49661149741E+02  0.00000000000E+00 0.  1.
</event>
<event>
 4    1  0.1593135E+006  0.2015767E+02  0.7546771E-02  0.1531639E+00
         -2   -1    0    0    0  501 -0.00000000000E+00  0.00000000000E+00  0.74365578326E+01  0.74365578326E+01  0.00000000000E+00 0. -1.
         21   -1    0    0  501  502  0.00000000000E+00 -0.00000000000E+00 -0.24583706477E+03  0.24583706477E+03  0.00000000000E+00 0.  1.
         21    1    1    2  503  502 -0.14954452455E+02 -0.13516505815E+02 -0.23088071308E+03  0.23175900252E+03  0.00000000000E+00 0.  1.
         -2    1    1    2    0  503  0.14954452455E+02  0.13516505815E+02 -0.75197938608E+01  0.21514620084E+02  0.00000000000E+00 0. -1.
</event>
<event>
 4    1  0.1593135E+006  0.5261839E+02  0.7546771E-02  0.1287202E+00
         21   -1    0    0  501  502  0.00000000000E+00  0.00000000000E+00  0.53332066054E+03  0.53332066054E+03  0.00000000000E+00 0. -1.
         -3   -1    0    0    0  501 -0.00000000000E+00 -0.00000000000E+00 -0.16648844135E+02  0.16648844135E+02  0.00000000000E+00 0.  1.
         21    1    1    2  503  502  0.14272920371E+02 -0.50645623224E+02  0.48645410361E+03  0.48929162094E+03  0.00000000000E+00 0. -1.
         -3    1    1    2    0  503 -0.14272920371E+02  0.50645623224E+02  0.30217712799E+02  0.60677883734E+02  0.00000000000E+00 0.  1.
</event>
<event>
 4    1  0.1593135E+006  0.2158063E+02  0.7546771E-02  0.1511134E+00
          2   -1    0    0  503    0 -0.00000000000E+00  0.00000000000E+00  0.11970648862E+04  0.11970648862E+04  0.00000000000E+00 0.  1.
         21   -1    0    0  501  502  0.00000000000E+00 -0.00000000000E+00 -0.42971436879E+00  0.42971436879E+00  0.00000000000E+00 0. -1.
         21    1    1    2  503  502  0.21498349879E+02  0.18826507415E+01  0.78249521659E+03  0.78279274869E+03  0.00000000000E+00 0. -1.
          2    1    1    2  501    0 -0.21498349879E+02 -0.18826507415E+01  0.41413995521E+03  0.41470185184E+03  0.00000000000E+00 0.  1.
</event>
<event>
 4    1  0.1593135E+006  0.3854781E+02  0.7546771E-02  0.1357212E+00
         21   -1    0    0  503  502  0.00000000000E+00  0.00000000000E+00  0.81975645857E+03  0.81975645857E+03  0.00000000000E+00 0. -1.
          1   -1    0    0  502    0 -0.00000000000E+00 -0.00000000000E+00 -0.11634470321E+04  0.11634470321E+04  0.00000000000E+00 0. -1.
         21    1    1    2  503  501  0.93081981853E+01  0.37407095394E+02  0.81898369897E+03  0.81989037836E+03  0.00000000000E+00 0. -1.
          1    1    1    2  501    0 -0.93081981853E+01 -0.37407095394E+02 -0.11626742725E+04  0.11633131123E+04  0.00000000000E+00 0. -1.
</event>
<event>
 4    1  0.1593135E+006  0.2597181E+02  0.7546771E-02  0.1458219E+00
         21   -1    0    0  501  502  0.00000000000E+00  0.00000000000E+00  0.11317600241E+04  0.11317600241E+04  0.00000000000E+00 0. -1.
         -4   -1    0    0    0  501 -0.00000000000E+00 -0.00000000000E+00 -0.10389106343E+02  0.10389106343E+02  0.00000000000E+00 0. -1.
         21    1    1    2  503  502 -0.10297396523E+02  0.23843208634E+02  0.11151373124E+04  0.11154397162E+04  0.00000000000E+00 0. -1.
         -4    1    1    2    0  503  0.10297396523E+02 -0.23843208634E+02  0.62336053516E+01  0.26709414235E+02  0.00000000000E+00 0. -1.
</event>
<event>
 4    1  0.1593135E+006  0.2032692E+02  0.7546771E-02  0.1529095E+00
         21   -1    0    0  503  502  0.00000000000E+00  0.00000000000E+00  0.66923830407E+02  0.66923830407E+02  0.00000000000E+00 0.  1.
          2   -1    0    0  502    0 -0.00000000000E+00 -0.00000000000E+00 -0.22363846322E+03  0.22363846322E+03  0.00000000000E+00 0. -1.
         21    1    1    2  503  501 -0.17687696324E+02  0.10016442215E+02  0.64904422484E+02  0.68012997096E+02  0.00000000000E+00 0.  1.
          2    1    1    2  501    0  0.17687696324E+02 -0.10016442215E+02 -0.22161905530E+03  0.22254929654E+03  0.00000000000E+00 0. -1.
</event>
<event>
 4    1  0.1593135E+006  0.2424282E+02  0.7546771E-02  0.1477455E+00
         21   -1    0    0  503  502  0.00000000000E+00  0.00000000000E+00  0.39075000988E+03  0.39075000988E+03  0.00000000000E+00 0. -1.
          2   -1    0    0  502    0 -0.00000000000E+00 -0.00000000000E+00 -0.47896611035E+01  0.47896611035E+01  0.00000000000E+00 0.  1.
         21    1    1    2  503  501 -0.11521758974E+02 -0.21329874373E+02  0.35678042734E+03  0.35760311492E+03  0.00000000000E+00 0. -1.
          2    1    1    2  501    0  0.11521758974E+02  0.21329874373E+02  0.29179921438E+02  0.37936556060E+02  0.00000000000E+00 0.  1.
</event>
<event>
 4    1  0.1593135E+006  0.2434892E+02  0.7546771E-02  0.1476221E+00
         21   -1    0    0  503  502  0.00000000000E+00  0.00000000000E+00  0.13347454044E+04  0.13347454044E+04  0.00000000000E+00 0. -1.
          2   -1    0    0  502    0 -0.00000000000E+00 -0.00000000000E+00 -0.54937506208E+01  0.54937506208E+01  0.00000000000E+00 0. -1.
         21    1    1    2  503  501  0.83647686307E+01  0.22867013590E+02  0.13070841821E+04  0.13073109534E+04  0.00000000000E+00 0. -1.
          2    1    1    2  501    0 -0.83647686307E+01 -0.22867013590E+02  0.22167471701E+02  0.32928201688E+02  0.00000000000E+00 0. -1.
</event>
<event>
 4    1  0.1593135E+006  0.2000892E+02  0.7546771E-02  0.1533899E+00
         21   -1    0    0  501  502  0.00000000000E+00  0.00000000000E+00  0.79060082368E+02  0.79060082368E+02  0.00000000000E+00 0.  1.
          3   -1    0    0  503    0 -0.00000000000E+00 -0.00000000000E+00 -0.13144218869E+02  0.13144218869E+02  0.00000000000E+00 0.  1.
         21    1    1    2  503  502 -0.14099120940E+02 -0.14197592325E+02  0.69104453945E+02  0.71942910659E+02  0.00000000000E+00 0.  1.
          3    1    1    2  501    0  0.14099120940E+02  0.14197592325E+02 -0.31885904454E+01  0.20261390578E+02  0.00000000000E+00 0.  1.
</event>
<event>
 4    1  0.1593135E+006  0.2443906E+02  0.7546771E-02  0.1475177E+00
          2   -1    0    0  502    0 -0.00000000000E+00  0.00000000000E+00  0.32643982958E+03  0.32643982958E+03  0.00000000000E+00 0. -1.
         21   -1    0    0  503  502  0.00000000000E+00 -0.00000000000E+00 -0.85645248956E+01  0.85645248956E+01  0.00000000000E+00 0. -1.
         21    1    1    2  503  501  0.21050210331E+02 -0.12415963361E+02  0.10400910202E+02  0.26560241606E+02  0.00000000000E+00 0. -1.
          2    1    1    2  501    0 -0.21050210331E+02  0.12415963361E+02  0.30747439449E+03  0.30844411287E+03  0.00000000000E+00 0. -1.
</event>
<event>
 4    1  0.1593135E+006  0.2234047E+02  0.7546771E-02  0.1500950E+00
         -1   -1    0    0    0  501 -0.00000000000E+00  0.00000000000E+00  0.60668547450E+02  0.60668547450E+02  0.00000000000E+00 0. -1.
         21   -1    0    0  501  502  0.00000000000E+00 -0.00000000000E+00 -0.26665218625E+03  0.26665218625E+03  0.00000000000E+00 0.  1.
         21    1    1    2  503  502  0.22243821958E+02  0.20757936407E+01 -0.26410782707E+03  0.26505101557E+03  0.00000000000E+00 0.  1.
         -1    1    1    2    0  503 -0.22243821958E+02 -0.20757936407E+01  0.58124188268E+02  0.62269718133E+02  0.00000000000E+00 0. -1.
</event>
<event>
 4    1  0.1593135E+006  0.2216958E+02  0.7546771E-02  0.1503198E+00
         21   -1    0    0  503  502  0.00000000000E+00  0.00000000000E+00  0.73419949799E+01  0.73419949799E+01  0.00000000000E+00 0. -1.
          2   -1    0    0  502    0 -0.00000000000E+00 -0.00000000000E+00 -0.83554548923E+02  0.83554548923E+02  0.00000000000E+00 0. -1.
         21    1    1    2  503  501  0.21937726572E+02 -0.31978581522E+01 -0.17841289541E+02  0.28457015943E+02  0.00000000000E+00 0. -1.
          2    1    1    2  501    0 -0.21937726572E+02  0.31978581522E+01 -0.58371264402E+02  0.62439527960E+02  0.00000000000E+00 0. -1.
</event>
<event>
 4    1  0.1593135E+006  0.2003003E+02  0.7546771E-02  0.1533577E+00
          2   -1    0    0  503    0 -0.00000000000E+00  0.00000000000E+00  0.98580465374E+01  0.98580465374E+01  0.00000000000E+00 0. -1.
         21   -1    0    0  501  502  0.00000000000E+00 -0.00000000000E+00 -0.11244317620E+03  0.11244317620E+03  0.00000000000E+00 0. -1.
         21    1    1    2  503  502 -0.13673138530E+02  0.14637187447E+02 -0.10013877247E+03  0.10212235664E+03  0.00000000000E+00 0. -1.
          2    1    1    2  501    0  0.13673138530E+02 -0.14637187447E+02 -0.24463571956E+01  0.20178866102E+02  0.00000000000E+00 0. -1.
</event>
<event>
 4    1  0.1593135E+006  0.4069623E+02  0.7546771E-02  0.1344454E+00
         -2   -1    0    0    0  501 -0.00000000000E+00  0.00000000000E+00  0.16469058373E+03  0.16469058373E+03  0.00000000000E+00 0.  1.
         21   -1    0    0  501  502  0.00000000000E+00 -0.00000000000E+00 -0.12136568167E+02  0.12136568167E+02  0.00000000000E+00 0.  1.
         21    1    1    2  503  502  0.33158858524E+02 -0.23593929276E+02  0.39673121729E+02  0.56834320486E+02  0.00000000000E+00 0.  1.
         -2    1    1    2    0  503 -0.33158858524E+02  0.23593929276E+02  0.11288089383E+03  0.11999283141E+03  0.00000000000E+00 0.  1.
</event>
<event>
 4    1  0.1593135E+006  0.2605649E+02  0.7546771E-02  0.1457323E+00
          2   -1    0    0  502    0 -0.00000000000E+00  0.00000000000E+00  0.36424763454E+02  0.36424763454E+02  0.00000000000E+00 0. -1.
         21   -1    0    0  503  502  0.00000000000E+00 -0.00000000000E+00 -0.51560512855E+02  0.51560512855E+02  0.00000000000E+00 0.  1.
         21    1    1    2  503  501 -0.44947669421E+01 -0.25665890073E+02 -0.42720496466E+02  0.50039800773E+02  0.00000000000E+00 0.  1.
          2    1    1    2  501    0  0.44947669421E+01  0.25665890073E+02  0.27584747064E+02  0.37945475536E+02  0.00000000000E+00 0. -1.
</event>
<event>
 4    1  0.1593135E+006  0.3174451E+02  0.7546771E-02  0.1405019E+00
         21   -1    0    0  501  502  0.00000000000E+00  0.00000000000E+00  0.82766613798E+02  0.82766613798E+02  0.00000000000E+00 0.  1.
         -1   -1    0    0    0  501 -0.00000000000E+00 -0.00000000000E+00 -0.69477510363E+02  0.69477510363E+02  0.00000000000E+00 0. -1.
         21    1    1    2  503  502  0.23426890670E+02  0.21421828525E+02  0.75775712940E+02  0.82156391202E+02  0.00000000000E+00 0.  1.
         -1    1    1    2    0  503 -0.23426890670E+02 -0.21421828525E+02 -0.62486609505E+02  0.70087732959E+02  0.00000000000E+00 0. -1.
</event>
<event>
 4    1  0.1593135E+006  0.8272437E+02  0.7546771E-02  0.1197660E+00
          2   -1    0    0  502    0 -0.00000000000E+00  0.00000000000E+00  0.22317374541E+03  0.22317374541E+03  0.00000000000E+00 0. -1.
         21   -1    0    0  503  502  0.00000000000E+00 -0.00000000000E+00 -0.12946977051E+03  0.12946977051E+03  0.00000000000E+00 0.  1.
         21    1    1    2  503  501  0.59698024215E+02 -0.57266629351E+02 -0.10718096811E+03  0.13539232200E+03  0.00000000000E+00 0.  1.
          2    1    1    2  501    0 -0.59698024215E+02  0.57266629351E+02  0.20088494301E+03  0.21725119392E+03  0.00000000000E+00 0. -1.
</event>
<event>
 4    1  0.1593135E+006  0.3416638E+02  0.7546771E-02  0.1386520E+00
         21   -1    0    0  501  502  0.00000000000E+00  0.00000000000E+00  0.14736420273E+03  0.14736420273E+03  0.00000000000E+00 0.  1.
          1   -1    0    0  503    0 -0.00000000000E+00 -0.00000000000E+00 -0.24695387690E+02  0.24695387690E+02  0.00000000000E+00 0. -1.
         21    1    1    2  503  502 -0.20905469549E+02 -0.27024121553E+02  0.13223635397E+03  0.13657889703E+03  0.00000000000E+00 0.  1.
          1    1    1    2  501    0  0.20905469549E+02  0.27024121553E+02 -0.95675389236E+01  0.35480693395E+02  0.00000000000E+00 0. -1.
</event>
<event>
 4    1  0.1593135E+006  0.5400654E+02  0.7546771E-02  0.1281677E+00
         21   -1    0    0  501  502  0.00000000000E+00  0.00000000000E+00  0.12496738810E+02  0.12496738810E+02  0.00000000000E+00 0.  1.
          3   -1    0    0  503    0 -0.00000000000E+00 -0.00000000000E+00 -0.24708473016E+03  0.24708473016E+03  0.00000000000E+00 0.  1.
         21    1    1    2  503  502  0.36247573405E+02  0.40035234788E+02 -0.14784178481E+03  0.15739726788E+03  0.00000000000E+00 0.  1.
          3    1    1    2  501    0 -0.36247573405E+02 -0.40035234788E+02 -0.86746206546E+02  0.10218420109E+03  0.00000000000E+00 0.  1.
</event>
<event>
 4    1  0.1593135E+006  0.2219002E+02  0.7546771E-02  0.1502927E+00
         21   -1    0    0  501  502  0.00000000000E+00  0.00000000000E+00  0.77200162113E+00  0.77200162113E+00  0.00000000000E+00 0. -1.
         -1   -1    0    0    0  501 -0.00000000000E+00 -0.00000000000E+00 -0.65470558750E+03  0.65470558750E+03  0.00000000000E+00 0. -1.
         21    1    1    2  503  502 -0.22088124021E+02 -0.21241025864E+01 -0.27433111390E+03  0.27522710093E+03  0.00000000000E+00 0. -1.
         -1    1    1    2    0  503  0.22088124021E+02  0.21241025864E+01 -0.37960247198E+03  0.38025048819E+03  0.00000000000E+00 0. -1.
</event>
<event>
 4    1  0.1593135E+006  0.2248348E+02  0.7546771E-02  0.1499088E+00
          2   -1    0    0  503    0 -0.00000000000E+00  0.00000000000E+00  0.51884218069E+02  0.51884218069E+02  0.00000000000E+00 0. -1.
         21   -1    0    0  501  502  0.00000000000E+00 -0.00000000000E+00 -0.98209510381E+01  0.98209510381E+01  0.00000000000E+00 0. -1.
         21    1    1    2  503  502 -0.21562934153E+02  0.63676384266E+01  0.18282607923E+02  0.28978624896E+02  0.00000000000E+00 0. -1.
          2    1    1    2  501    0  0.21562934153E+02 -0.63676384266E+01  0.23780659109E+02  0.32726544212E+02  0.00000000000E+00 0. -1.
</event>
<event>
 4    1  0.1593135E+006  0.5920847E+02  0.7546771E-02  0.1262546E+00
         21   -1    0    0  503  502  0.00000000000E+00  0.00000000000E+00  0.18033110059E+02  0.18033110059E+02  0.00000000000E+00 0. -1.
          1   -1    0    0  502    0 -0.00000000000E+00 -0.00000000000E+00 -0.79552220065E+03  0.79552220065E+03  0.00000000000E+00 0.  1.
         21    1    1    2  503  501 -0.45335146388E+02 -0.38083695388E+02 -0.35144603223E+02  0.68853369475E+02  0.00000000000E+00 0. -1.
          1    1    1    2  501    0  0.45335146388E+02  0.38083695388E+02 -0.74234448737E+03  0.74470194124E+03  0.00000000000E+00 0.  1.
</event>
<event>
 4    1  0.1593135E+006  0.2714427E+02  0.7546771E-02  0.1446164E+00
         21   -1    0    0  501  502  0.00000000000E+00  0.00000000000E+00  0.11917604947E+01  0.11917604947E+01  0.00000000000E+00 0.  1.
          2   -1    0    0  503    0 -0.00000000000E+00 -0.00000000000E+00 -0.96166689084E+03  0.96166689084E+03  0.00000000000E+00 0. -1.
         21    1    1    2  503  502  0.26549877569E+02  0.56493832229E+01 -0.19254538198E+03  0.19444931384E+03  0.00000000000E+00 0.  1.
          2    1    1    2  501    0 -0.26549877569E+02 -0.56493832229E+01 -0.76792974837E+03  0.76840933750E+03  0.00000000000E+00 0. -1.
</event>
<event>
 4    1  0.1593135E+006  0.2212940E+02  0.7546771E-02  0.1503730E+00
         -4   -1    0    0    0  501 -0.00000000000E+00  0.00000000000E+00  0.48483882735E+02  0.48483882735E+02  0.00000000000E+00 0. -1.
         21   -1    0    0  503  502  0.00000000000E+00 -0.00000000000E+00 -0.83417703864E+02  0.83417703864E+02  0.00000000000E+00 0.  1.
         21    1    1    2  503  501 -0.16758651233E+02 -0.14451914257E+02 -0.79296153785E+02  0.82326121140E+02  0.00000000000E+00 0.  1.
         -4    1    1    2    0  502  0.16758651233E+02  0.14451914257E+02  0.44362332656E+02  0.49575465459E+02  0.00000000000E+00 0. -1.
</event>
<event>
 4    1  0.1593135E+006  0.2047747E+02  0.7546771E-02  0.1526858E+00
         21   -1    0    0  501  502  0.00000000000E+00  0.00000000000E+00  0.38752652163E+02  0.38752652163E+02  0.00000000000E+00 0. -1.
         -4   -1    0    0    0  501 -0.00000000000E+00 -0.00000000000E+00 -0.18530571970E+02  0.18530571970E+02  0.00000000000E+00 0. -1.
         21    1    1    2  503  502  0.67920772595E+01 -0.19318246537E+02  0.28585826872E+02  0.35163567235E+02  0.00000000000E+00 0. -1.
         -4    1    1    2    0  503 -0.67920772595E+01  0.19318246537E+02 -0.83637466787E+01  0.22119656898E+02  0.00000000000E+00 0. -1.
</event>
<event>
 4    1  0.1593135E+006  0.2207004E+02  0.7546771E-02  0.1504518E+00
          4   -1    0    0  503    0 -0.00000000000E+00  0.00000000000E+00  0.25641441022E+02  0.25641441022E+02  0.00000000000E+00 0. -1.
         21   -1    0    0  501  502  0.00000000000E+00 -0.00000000000E+00 -0.18996892623E+02  0.18996892623E+02  0.00000000000E+00 0. -1.
         21    1    1    2  503  502  0.21800220420E+02  0.34405089260E+01  0.31757635922E+01  0.22297358284E+02  0.00000000000E+00 0. -1.
          4    1    1    2  501    0 -0.21800220420E+02 -0.34405089260E+01  0.34687848070E+01  0.22340975361E+02  0.00000000000E+00 0. -1.
</event>
<event>
 4    1  0.1593135E+006  0.3693633E+02  0.7546771E-02  0.1367439E+00
          2   -1    0    0  503    0 -0.00000000000E+00  0.00000000000E+00  0.20380162156E+04  0.20380162156E+04  0.00000000000E+00 0. -1.
         21   -1    0    0  501  502  0.00000000000E+00 -0.00000000000E+00 -0.16638431292E+02  0.16638431292E+02  0.00000000000E+00 0. -1.
         21    1    1    2  503  502 -0.35424046360E+02 -0.10460851230E+02  0.42402000370E+01  0.37178915602E+02  0.00000000000E+00 0. -1.
          2    1    1    2  501    0  0.35424046360E+02  0.10460851230E+02  0.20171375842E+04  0.20174757313E+04  0.00000000000E+00 0. -1.
</event>
<event>
 4    1  0.1593135E+006  0.2231689E+02  0.7546771E-02  0.1501259E+00
         21   -1    0    0  501  502  0.00000000000E+00  0.00000000000E+00  0.26576438466E+02  0.26576438466E+02  0.00000000000E+00 0.  1.
         -2   -1    0    0    0  501 -0.00000000000E+00 -0.00000000000E+00 -0.56172614719E+02  0.56172614719E+02  0.00000000000E+00 0. -1.
         21    1    1    2  503  502 -0.11774327287E+01  0.22285806947E+02  0.18976927884E+02  0.29294493186E+02  0.00000000000E+00 0.  1.
         -2    1    1    2    0  503  0.11774327287E+01 -0.22285806947E+02 -0.48573104137E+02  0.53454559998E+02  0.00000000000E+00 0. -1.
</event>
<event>
 4    1  0.1593135E+006  0.2399493E+02  0.7546771E-02  0.1480369E+00
         21   -1    0    0  501  502  0.00000000000E+00  0.00000000000E+00  0.85668333381E+00  0.85668333381E+00  0.00000000000E+00 0.  1.
         -2   -1    0    0    0  501 -0.00000000000E+00 -0.00000000000E+00 -0.10699929880E+04  0.10699929880E+04  0.00000000000E+00 0.  1.
         21    1    1    2  503  502 -0.23964018540E+02 -0.12176316828E+01 -0.20805252941E+03  0.20943163993E+03  0.00000000000E+00 0.  1.
         -2    1    1    2    0  503  0.23964018540E+02  0.12176316828E+01 -0.86108377528E+03  0.86141803143E+03  0.00000000000E+00 0.  1.
</event>
<event>
 4    1  0.1593135E+006  0.3480639E+02  0.7546771E-02  0.1381929E+00
         21   -1    0    0  501  502  0.00000000000E+00  0.00000000000E+00  0.99999638018E+00  0.99999638018E+00  0.00000000000E+00 0. -1.
          1   -1    0    0  503    0 -0.00000000000E+00 -0.00000000000E+00 -0.19267844373E+04  0.19267844373E+04  0.00000000000E+00 0. -1.
         21    1    1    2  503  502  0.32674519287E+02  0.11994176860E+02 -0.37559942390E+03  0.37720871109E+03  0.00000000000E+00 0. -1.
          1    1    1    2  501    0 -0.32674519287E+02 -0.11994176860E+02 -0.15501850170E+04  0.15505757226E+04  0.00000000000E+00 0. -1.
</event>
<event>
 4    1  0.1593135E+006  0.2012871E+02  0.7546771E-02  0.1532077E+00
         21   -1    0    0  501  502  0.00000000000E+00  0.00000000000E+00  0.18993583901E+01  0.18993583901E+01  0.00000000000E+00 0. -1.
          2   -1    0    0  503    0 -0.00000000000E+00 -0.00000000000E+00 -0.33295744265E+03  0.33295744265E+03  0.00000000000E+00 0. -1.
         21    1    1    2  503  502  0.14963599186E+02 -0.13463128834E+02 -0.65165945584E+02  0.68203853282E+02  0.00000000000E+00 0. -1.
          2    1    1    2  501    0 -0.14963599186E+02  0.13463128834E+02 -0.26589213868E+03  0.26665294776E+03  0.00000000000E+00 0. -1.
</event>
<event>
 4    1  0.1593135E+006  0.2387520E+02  0.7546771E-02  0.1481791E+00
          2   -1    0    0  503    0 -0.00000000000E+00  0.00000000000E+00  0.99328667275E+03  0.99328667275E+03  0.00000000000E+00 0.  1.
         21   -1    0    0  501  502  0.00000000000E+00 -0.00000000000E+00 -0.39697218665E+01  0.39697218665E+01  0.00000000000E+00 0.  1.
         21    1    1    2  503  502  0.95696629235E+01  0.21873429316E+02  0.33478276744E+02  0.41119586236E+02  0.00000000000E+00 0.  1.
          2    1    1    2  501    0 -0.95696629235E+01 -0.21873429316E+02  0.95583867414E+03  0.95613680838E+03  0.00000000000E+00 0.  1.
</event>
<event>
 4    1  0.1593135E+006  0.2335434E+02  0.7546771E-02  0.1488096E+00
         21   -1    0    0  501  502  0.00000000000E+00  0.00000000000E+00  0.16966629373E+02  0.16966629373E+02  0.00000000000E+00 0.  1.
          1   -1    0    0  503    0 -0.00000000000E+00 -0.00000000000E+00 -0.17729615554E+03  0.17729615554E+03  0.00000000000E+00 0. -1.
         21    1    1    2  503  502 -0.15734446917E+02 -0.17258400709E+02  0.77207519456E+01  0.24597463800E+02  0.00000000000E+00 0.  1.
          1    1    1    2  501    0  0.15734446917E+02  0.17258400709E+02 -0.16805027812E+03  0.16966532112E+03  0.00000000000E+00 0. -1.
</event>
<event>
 4    1  0.1593135E+006  0.2314253E+02  0.7546771E-02  0.1490716E+00
         21   -1    0    0  503  502  0.00000000000E+00  0.00000000000E+00  0.37780339804E+03  0.37780339804E+03  0.00000000000E+00 0. -1.
          2   -1    0    0  502    0 -0.00000000000E+00 -0.00000000000E+00 -0.15308154257E+02  0.15308154257E+02  0.00000000000E+00 0.  1.
         21    1    1    2  503  501 -0.17348674683E+02 -0.15316662268E+02  0.36848134689E+03  0.36920736675E+03  0.00000000000E+00 0. -1.
          2    1    1    2  501    0  0.17348674683E+02  0.15316662268E+02 -0.59861031065E+01  0.23904185547E+02  0.00000000000E+00 0.  1.
</event>
<event>
 4    1  0.1593135E+006  0.2093001E+02  0.7546771E-02  0.1520266E+00
         -4   -1    0    0    0  501 -0.00000000000E+00  0.00000000000E+00  0.12715064746E+02  0.12715064746E+02  0.00000000000E+00 0. -1.
         21   -1    0    0  503  502  0.00000000000E+00 -0.00000000000E+00 -0.10243959343E+03  0.10243959343E+03  0.00000000000E+00 0. -1.
         21    1    1    2  503  501  0.15012367914E+02 -0.14584034285E+02 -0.91768540936E+02  0.94125078231E+02  0.00000000000E+00 0. -1.
         -4    1    1    2    0  502 -0.15012367914E+02  0.14584034285E+02  0.20440122555E+01  0.21029579941E+02  0.00000000000E+00 0. -1.
</event>
<event>
 4    1  0.1593135E+006  0.2066139E+02  0.7546771E-02  0.1524155E+00
          3   -1    0    0  503    0 -0.00000000000E+00  0.00000000000E+00  0.19407678386E+02  0.19407678386E+02  0.00000000000E+00 0. -1.
         21   -1    0    0  501  502  0.00000000000E+00 -0.00000000000E+00 -0.29318792249E+02  0.29318792249E+02  0.00000000000E+00 0.  1.
         21    1    1    2  503  502 -0.16692016050E+02 -0.12176604122E+02 -0.17131357819E+02  0.26839830634E+02  0.00000000000E+00 0.  1.
          3    1    1    2  501    0  0.16692016050E+02  0.12176604122E+02  0.72202439557E+01  0.21886640001E+02  0.00000000000E+00 0. -1.
</event>
<event>
 4    1  0.1593135E+006  0.2583867E+02  0.7546771E-02  0.1459636E+00
         21   -1    0    0  501  502  0.00000000000E+00  0.00000000000E+00  0.61802842967E+00  0.61802842967E+00  0.00000000000E+00 0. -1.
          1   -1    0    0  503    0 -0.00000000000E+00 -0.00000000000E+00 -0.14887296989E+04  0.14887296989E+04  0.00000000000E+00 0. -1.
         21    1    1    2  503  502 -0.17809540268E+02  0.18720501682E+02 -0.35399408711E+03  0.35493584014E+03  0.00000000000E+00 0. -1.
          1    1    1    2  501    0  0.17809540268E+02 -0.18720501682E+02 -0.11341175833E+04  0.11344118872E+04  0.00000000000E+00 0. -1.
</event>
<event>
 4    1  0.1593135E+006  0.6564409E+02  0.7546771E-02  0.1241774E+00
         21   -1    0    0  501  502  0.00000000000E+00  0.00000000000E+00  0.48371330620E+02  0.48371330620E+02  0.00000000000E+00 0.  1.
          1   -1    0    0  503    0 -0.00000000000E+00 -0.00000000000E+00 -0.15616676997E+03  0.15616676997E+03  0.00000000000E+00 0. -1.
         21    1    1    2  503  502  0.35965868186E+02 -0.54914504248E+02  0.13129788070E+02  0.66944288673E+02  0.00000000000E+00 0.  1.
          1    1    1    2  501    0 -0.35965868186E+02  0.54914504248E+02 -0.12092522742E+03  0.13759381192E+03  0.00000000000E+00 0. -1.
</event>
<event>
 4    1  0.1593135E+006  0.3127809E+02  0.7546771E-02  0.1408806E+00
         21   -1    0    0  503  502  0.00000000000E+00  0.00000000000E+00  0.18319930809E+02  0.18319930809E+02  0.00000000000E+00 0.  1.
         -1   -1    0    0    0  501 -0.00000000000E+00 -0.00000000000E+00 -0.29827419247E+03  0.29827419247E+03  0.00000000000E+00 0. -1.
         21    1    1    2  503  501  0.11464456370E+02 -0.29101295077E+02  0.34511644408E+01  0.31467914945E+02  0.00000000000E+00 0.  1.
         -1    1    1    2    0  502 -0.11464456370E+02  0.29101295077E+02 -0.28340542610E+03  0.28512620833E+03  0.00000000000E+00 0. -1.
</event>
<event>
 4    1  0.1593135E+006  0.2502287E+02  0.7546771E-02  0.1468548E+00
          1   -1    0    0  503    0 -0.00000000000E+00  0.00000000000E+00  0.26085045486E+03  0.26085045486E+03  0.00000000000E+00 0. -1.
         21   -1    0    0  501  502  0.00000000000E+00 -0.00000000000E+00 -0.70550469191E+01  0.70550469191E+01  0.00000000000E+00 0.  1.
         21    1    1    2  503  502 -0.12695471859E+02  0.21563137496E+02  0.18093587096E+02  0.30879148278E+02  0.00000000000E+00 0.  1.
          1    1    1    2  501    0  0.12695471859E+02 -0.21563137496E+02  0.23570182085E+03  0.23702635350E+03  0.00000000000E+00 0. -1.
</event>
<event>
 4    1  0.1593135E+006  0.2066464E+02  0.7546771E-02  0.1524107E+00
          1   -1    0    0  503    0 -0.00000000000E+00  0.00000000000E+00  0.11143232866E+02  0.11143232866E+02  0.00000000000E+00 0. -1.
         21   -1    0    0  501  502  0.00000000000E+00 -0.00000000000E+00 -0.38674818005E+02  0.38674818005E+02  0.00000000000E+00 0. -1.
         21    1    1    2  503  502  0.18688974548E+02  0.88175754295E+01 -0.16145999486E+02  0.26224429555E+02  0.00000000000E+00 0. -1.
          1    1    1    2  501    0 -0.18688974548E+02 -0.88175754295E+01 -0.11385585654E+02  0.23593621316E+02  0.00000000000E+00 0. -1.
</event>
<event>
 4    1  0.1593135E+006  0.2248306E+02  0.7546771E-02  0.1499093E+00
         21   -1    0    0  501  502  0.00000000000E+00  0.00000000000E+00  0.25316760292E+03  0.25316760292E+03  0.00000000000E+00 0.  1.
          3   -1    0    0  503    0 -0.00000000000E+00 -0.00000000000E+00 -0.22632746944E+02  0.22632746944E+02  0.00000000000E+00 0. -1.
         21    1    1    2  503  502  0.22334541986E+02  0.25799518620E+01  0.24694442961E+03  0.24796580255E+03  0.00000000000E+00 0.  1.
          3    1    1    2  501    0 -0.22334541986E+02 -0.25799518620E+01 -0.16409573637E+02  0.27834547315E+02  0.00000000000E+00 0. -1.
</event>
<event>
 4    1  0.1593135E+006  0.2856177E+02  0.7546771E-02  0.1432521E+00
         21   -1    0    0  501  502  0.00000000000E+00  0.00000000000E+00  0.50900762895E+01  0.50900762895E+01  0.00000000000E+00 0. -1.
          3   -1    0    0  503    0 -0.00000000000E+00 -0.00000000000E+00 -0.20866588345E+03  0.20866588345E+03  0.00000000000E+00 0.  1.
         21    1    1    2  503  502  0.14483820029E+02  0.24616941849E+02 -0.50315197638E+02  0.57856667567E+02  0.00000000000E+00 0. -1.
          3    1    1    2  501    0 -0.14483820029E+02 -0.24616941849E+02 -0.15326060952E+03  0.15589929217E+03  0.00000000000E+00 0.  1.
</event>
<event>
 4    1  0.1593135E+006  0.2237835E+02  0.7546771E-02  0.1500455E+00
          1   -1    0    0  502    0 -0.00000000000E+00  0.00000000000E+00  0.65187374556E+03  0.65187374556E+03  0.00000000000E+00 0.  1.
         21   -1    0    0  503  502  0.00000000000E+00 -0.00000000000E+00 -0.42952489787E+01  0.42952489787E+01  0.00000000000E+00 0.  1.
         21    1    1    2  503  501 -0.19131410269E+02 -0.11609474017E+02  0.26489002536E+02  0.34676476193E+02  0.00000000000E+00 0.  1.
          1    1    1    2  501    0  0.19131410269E+02  0.11609474017E+02  0.62108949405E+03  0.62149251835E+03  0.00000000000E+00 0.  1.
</event>
<event>
 4    1  0.1593135E+006  0.2125789E+02  0.7546771E-02  0.1515615E+00
         21   -1    0    0  503  502  0.00000000000E+00  0.00000000000E+00  0.42637322061E+02  0.42637322061E+02  0.00000000000E+00 0.  1.
          1   -1    0    0  502    0 -0.00000000000E+00 -0.00000000000E+00 -0.14677473249E+02  0.14677473249E+02  0.00000000000E+00 0.  1.
         21    1    1    2  503  501  0.35477386748E+01  0.20959758710E+02  0.29086940518E+02  0.36027046002E+02  0.00000000000E+00 0.  1.
          1    1    1    2  501    0 -0.35477386748E+01 -0.20959758710E+02 -0.11270917067E+01  0.21287749308E+02  0.00000000000E+00 0.  1.
</event>
<event>
 4    1  0.1593135E+006  0.2399870E+02  0.7546771E-02  0.1480324E+00
         21   -1    0    0  503  502  0.00000000000E+00  0.00000000000E+00  0.27862678502E+03  0.27862678502E+03  0.00000000000E+00 0.  1.
         -2   -1    0    0    0  501 -0.00000000000E+00 -0.00000000000E+00 -0.87464472088E+01  0.87464472088E+01  0.00000000000E+00 0.  1.
         21    1    1    2  503  501  0.23992123797E+02 -0.56164267311E+00  0.26050525108E+03  0.26160833948E+03  0.00000000000E+00 0.  1.
         -2    1    1    2    0  502 -0.23992123797E+02  0.56164267311E+00  0.93750867249E+01  0.25764892739E+02  0.00000000000E+00 0.  1.
</event>
<event>
 4    1  0.1593135E+006  0.2546345E+02  0.7546771E-02  0.1463685E+00
          2   -1    0    0  503    0 -0.00000000000E+00  0.00000000000E+00  0.53549761527E+03  0.53549761527E+03  0.00000000000E+00 0. -1.
         21   -1    0    0  501  502  0.00000000000E+00 -0.00000000000E+00 -0.20634559363E+01  0.20634559363E+01  0.00000000000E+00 0.  1.
         21    1    1    2  503  502 -0.21003835518E+02  0.14395344679E+02  0.93940841469E+02  0.97330718433E+02  0.00000000000E+00 0.  1.
          2    1    1    2  501    0  0.21003835518E+02 -0.14395344679E+02  0.43949331787E+03  0.44023035278E+03  0.00000000000E+00 0. -1.
</event>
<event>
 4    1  0.1593135E+006  0.2214403E+02  0.7546771E-02  0.1503536E+00
         21   -1    0    0  503  502  0.00000000000E+00  0.00000000000E+00  0.25472539627E+02  0.25472539627E+02  0.00000000000E+00 0.  1.
          2   -1    0    0  502    0 -0.00000000000E+00 -0.00000000000E+00 -0.93424241997E+02  0.93424241997E+02  0.00000000000E+00 0. -1.
         21    1    1    2  503  501 -0.22135953131E+02 -0.59799663027E+00  0.18994827013E+02  0.29174671793E+02  0.00000000000E+00 0.  1.
          2    1    1    2  501    0  0.22135953131E+02  0.59799663027E+00 -0.86946529383E+02  0.89722109832E+02  0.00000000000E+00 0. -1.
</event>
<event>
 4    1  0.1593135E+006  0.2089177E+02  0.7546771E-02  0.1520816E+00
         21   -1    0    0  501  502  0.00000000000E+00  0.00000000000E+00  0.62123805714E+02  0.62123805714E+02  0.00000000000E+00 0. -1.
         -2   -1    0    0    0  501 -0.00000000000E+00 -0.00000000000E+00 -0.13181632477E+02  0.13181632477E+02  0.00000000000E+00 0. -1.
         21    1    1    2  503  502 -0.76726414066E+01  0.19431845838E+02  0.50202109903E+02  0.54375710547E+02  0.00000000000E+00 0. -1.
         -2    1    1    2    0  503  0.76726414066E+01 -0.19431845838E+02 -0.12599366650E+01  0.20929727644E+02  0.00000000000E+00 0. -1.
</event>
<event>
 4    1  0.1593135E+006  0.2455098E+02  0.7546771E-02  0.1473890E+00
         21   -1    0    0  501  502  0.00000000000E+00  0.00000000000E+00  0.59131399766E+01  0.59131399766E+01  0.00000000000E+00 0. -1.
          2   -1    0    0  503    0 -0.00000000000E+00 -0.00000000000E+00 -0.11306708116E+03  0.11306708116E+03  0.00000000000E+00 0. -1.
         21    1    1    2  503  502 -0.22678889971E+02  0.94031244326E+01 -0.72244281917E+02  0.76301946693E+02  0.00000000000E+00 0. -1.
          2    1    1    2  501    0  0.22678889971E+02 -0.94031244326E+01 -0.34909659266E+02  0.42678274444E+02  0.00000000000E+00 0. -1.
</event>
<event>
 4    1  0.1593135E+006  0.4234028E+02  0.7546771E-02  0.1335292E+00
         -3   -1    0    0    0  501 -0.00000000000E+00  0.00000000000E+00  0.36060760595E+03  0.36060760595E+03  0.00000000000E+00 0.  1.
         21   -1    0    0  503  502  0.00000000000E+00 -0.00000000000E+00 -0.17658528658E+02  0.17658528658E+02  0.00000000000E+00 0.  1.
         21    1    1    2  503  501 -0.26274982836E+02  0.33201272077E+02  0.11159933720E+02  0.43786337038E+02  0.00000000000E+00 0.  1.
         -3    1    1    2    0  502  0.26274982836E+02 -0.33201272077E+02  0.33178914357E+03  0.33447979757E+03  0.00000000000E+00 0.  1.
</event>
<event>
 4    1  0.1593135E+006  0.2053843E+02  0.7546771E-02  0.1525958E+00
         21   -1    0    0  501  502  0.00000000000E+00  0.00000000000E+00  0.48318896104E+02  0.48318896104E+02  0.00000000000E+00 0. -1.
          1   -1    0    0  503    0 -0.00000000000E+00 -0.00000000000E+00 -0.28945351952E+02  0.28945351952E+02  0.00000000000E+00 0. -1.
         21    1    1    2  503  502  0.91286643443E+01  0.18398219166E+02  0.41971650243E+02  0.46727362490E+02  0.00000000000E+00 0. -1.
          1    1    1    2  501    0 -0.91286643443E+01 -0.18398219166E+02 -0.22598106090E+02  0.30536885566E+02  0.00000000000E+00 0. -1.
</event>
<event>
 4    1  0.1593135E+006  0.2810523E+02  0.7546771E-02  0.1436811E+00
          2   -1    0    0  503    0 -0.00000000000E+00  0.00000000000E+00  0.93604179886E+02  0.93604179886E+02  0.00000000000E+00 0.  1.
         21   -1    0    0  501  502  0.00000000000E+00 -0.00000000000E+00 -0.12031326409E+02  0.12031326409E+02  0.00000000000E+00 0.  1.
         21    1    1    2  503  502 -0.22844173583E+02  0.16372166429E+02  0.11924521611E+02  0.30530285225E+02  0.00000000000E+00 0.  1.
          2    1    1    2  501    0  0.22844173583E+02 -0.16372166429E+02  0.69648331866E+02  0.75105221070E+02  0.00000000000E+00 0.  1.
</event>
<event>
 4    1  0.1593135E+006  0.2199688E+02  0.7546771E-02  0.1505494E+00
          3   -1    0    0  503    0 -0.00000000000E+00  0.00000000000E+00  0.44844508312E+02  0.44844508312E+02  0.00000000000E+00 0. -1.
         21   -1    0    0  501  502  0.00000000000E+00 -0.00000000000E+00 -0.30292616974E+03  0.30292616974E+03  0.00000000000E+00 0. -1.
         21    1    1    2  503  502 -0.15357364231E+02  0.15748462275E+02 -0.29980132108E+03  0.30060721019E+03  0.00000000000E+00 0. -1.
          3    1    1    2  501    0  0.15357364231E+02 -0.15748462275E+02  0.41719659644E+02  0.47163467864E+02  0.00000000000E+00 0. -1.
</event>
<event>
 4    1  0.1593135E+006  0.2880696E+02  0.7546771E-02  0.1430255E+00
          4   -1    0    0  502    0 -0.00000000000E+00  0.00000000000E+00  0.69201835373E+03  0.69201835373E+03  0.00000000000E+00 0. -1.
         21   -1    0    0  503  502  0.00000000000E+00 -0.00000000000E+00 -0.27851784203E+01  0.27851784203E+01  0.00000000000E+00 0. -1.
         21    1    1    2  503  501  0.64068169023E+01  0.28085467052E+02  0.82460698650E+02  0.87347624948E+02  0.00000000000E+00 0. -1.
          4    1    1    2  501    0 -0.64068169023E+01 -0.28085467052E+02  0.60677247667E+03  0.60745590721E+03  0.00000000000E+00 0. -1.
</event>
<event>
 4    1  0.1593135E+006  0.6492283E+02  0.7546771E-02  0.1243965E+00
          1   -1    0    0  503    0 -0.00000000000E+00  0.00000000000E+00  0.89676631934E+02  0.89676631934E+02  0.00000000000E+00 0. -1.
         21   -1    0    0  501  502  0.00000000000E+00 -0.00000000000E+00 -0.12547418480E+03  0.12547418480E+03  0.00000000000E+00 0. -1.
         21    1    1    2  503  502  0.40773274471E+02  0.50522409344E+02 -0.10297219982E+03  0.12173022505E+03  0.00000000000E+00 0. -1.
          1    1    1    2  501    0 -0.40773274471E+02 -0.50522409344E+02  0.67174646950E+02  0.93420591680E+02  0.00000000000E+00 0. -1.
</event>
<event>
 4    1  0.1593135E+006  0.2209175E+02  0.7546771E-02  0.1504229E+00
         21   -1    0    0  503  502  0.00000000000E+00  0.00000000000E+00  0.82319326341E+01  0.82319326341E+01  0.00000000000E+00 0. -1.
          2   -1    0    0  502    0 -0.00000000000E+00 -0.00000000000E+00 -0.17451254929E+03  0.17451254929E+03  0.00000000000E+00 0.  1.
         21    1    1    2  503  501  0.22088168729E+02  0.39752443042E+00 -0.88938654781E+01  0.23814828713E+02  0.00000000000E+00 0. -1.
          2    1    1    2  501    0 -0.22088168729E+02 -0.39752443042E+00 -0.15738675118E+03  0.15892965321E+03  0.00000000000E+00 0.  1.
</event>
<event>
 4    1  0.1593135E+006  0.2855733E+02  0.7546771E-02  0.1432562E+00
         21   -1    0    0  503  502  0.00000000000E+00  0.00000000000E+00  0.45436916080E+01  0.45436916080E+01  0.00000000000E+00 0.  1.
          2   -1    0    0  502    0 -0.00000000000E+00 -0.00000000000E+00 -0.49982226082E+03  0.49982226082E+03  0.00000000000E+00 0. -1.
         21    1    1    2  503  501  0.14534128771E+02  0.24582114727E+02 -0.45750506998E+02  0.53931717516E+02  0.00000000000E+00 0.  1.
          2    1    1    2  501    0 -0.14534128771E+02 -0.24582114727E+02 -0.44952806222E+03  0.45043423492E+03  0.00000000000E+00 0. -1.
</event>
<event>
 4    1  0.1593135E+006  0.4752225E+02  0.7546771E-02  0.1309288E+00
         -4   -1    0    0    0  501 -0.00000000000E+00  0.00000000000E+00  0.65458419695E+02  0.65458419695E+02  0.00000000000E+00 0. -1.
         21   -1    0    0  501  502  0.00000000000E+00 -0.00000000000E+00 -0.33094778600E+03  0.33094778600E+03  0.00000000000E+00 0. -1.
         21    1    1    2  503  502  0.43850640041E+02 -0.18316257314E+02 -0.32033234601E+03  0.32383819388E+03  0.00000000000E+00 0. -1.
         -4    1    1    2    0  503 -0.43850640041E+02  0.18316257314E+02  0.54842979713E+02  0.72568011808E+02  0.00000000000E+00 0. -1.
</event>
<event>
 4    1  0.1593135E+006  0.3699831E+02  0.7546771E-02  0.1367034E+00
         21   -1    0    0  503  502  0.00000000000E+00  0.00000000000E+00  0.21360016911E+02  0.21360016911E+02  0.00000000000E+00 0. -1.
          3   -1    0    0  502    0 -0.00000000000E+00 -0.00000000000E+00 -0.75709659526E+02  0.75709659526E+02  0.00000000000E+00 0. -1.
         21    1    1    2  503  501 -0.88662885467E+01 -0.35920243519E+02 -0.81573806020E+01  0.37886908363E+02  0.00000000000E+00 0. -1.
          3    1    1    2  501    0  0.88662885467E+01  0.35920243519E+02 -0.46192262013E+02  0.59182768074E+02  0.00000000000E+00 0. -1.
</event>
<event>
 4    1  0.1593135E+006  0.2227190E+02  0.7546771E-02  0.1501849E+00
          2   -1    0    0  503    0 -0.00000000000E+00  0.00000000000E+00  0.26863907559E+03  0.26863907559E+03  0.00000000000E+00 0. -1.
         21   -1    0    0  501  502  0.00000000000E+00 -0.00000000000E+00 -0.29626854440E+02  0.29626854440E+02  0.00000000000E+00 0. -1.
         21    1    1    2  503  502  0.58896305683E+01  0.21479053446E+02 -0.24904766182E+02  0.33410849491E+02  0.00000000000E+00 0. -1.
          2    1    1    2  501    0 -0.58896305683E+01 -0.21479053446E+02  0.26391698733E+03  0.26485508054E+03  0.00000000000E+00 0. -1.
</event>
<event>
 4    1  0.1593135E+006  0.3132758E+02  0.7546771E-02  0.1408400E+00
         -4   -1    0    0    0  501 -0.00000000000E+00  0.00000000000E+00  0.87658266683E+02  0.87658266683E+02  0.00000000000E+00 0.  1.
         21   -1    0    0  503  502  0.00000000000E+00 -0.00000000000E+00 -0.18878953425E+02  0.18878953425E+02  0.00000000000E+00 0. -1.
         21    1    1    2  503  501 -0.21902158314E+02  0.22398950347E+02  0.40773463941E+00  0.31330237200E+02  0.00000000000E+00 0. -1.
         -4    1    1    2    0  502  0.21902158314E+02 -0.22398950347E+02  0.68371578618E+02  0.75206982908E+02  0.00000000000E+00 0.  1.
</event>
<event>
 4    1  0.1593135E+006  0.3994207E+02  0.7546771E-02  0.1348826E+00
         21   -1    0    0  501  502  0.00000000000E+00  0.00000000000E+00  0.40565872659E+02  0.40565872659E+02  0.00000000000E+00 0.  1.
          3   -1    0    0  503    0 -0.00000000000E+00 -0.00000000000E+00 -0.42541207424E+02  0.42541207424E+02  0.00000000000E+00 0. -1.
         21    1    1    2  503  502 -0.36250955895E+02  0.16770118851E+02  0.10432761551E+02  0.41282093008E+02  0.00000000000E+00 0.  1.
          3    1    1    2  501    0  0.36250955895E+02 -0.16770118851E+02 -0.12408096317E+02  0.41824987075E+02  0.00000000000E+00 0. -1.
</event>
<event>
 4    1  0.1593135E+006  0.3032067E+02  0.7546771E-02  0.1416830E+00
          2   -1    0    0  502    0 -0.00000000000E+00  0.00000000000E+00  0.32288330031E+03  0.32288330031E+03  0.00000000000E+00 0. -1.
         21   -1    0    0  503  502  0.00000000000E+00 -0.00000000000E+00 -0.56113327592E+01  0.56113327592E+01  0.00000000000E+00 0. -1.
         21    1    1    2  503  501 -0.11343367086E+02 -0.28118869075E+02  0.43360339961E+02  0.52909940999E+02  0.00000000000E+00 0. -1.
          2    1    1    2  501    0  0.11343367086E+02  0.28118869075E+02  0.27391162759E+03  0.27558469207E+03  0.00000000000E+00 0. -1.
</event>
<event>
 4    1  0.1593135E+006  0.2494896E+02  0.7546771E-02  0.1469375E+00
          4   -1    0    0  503    0 -0.00000000000E+00  0.00000000000E+00  0.37038418516E+02  0.37038418516E+02  0.00000000000E+00 0.  1.
         21   -1    0    0  501  502  0.00000000000E+00 -0.00000000000E+00 -0.31783920588E+02  0.31783920588E+02  0.00000000000E+00 0.  1.
         21    1    1    2  503  502 -0.12387946276E+02  0.21656157703E+02 -0.20995379879E+02  0.32607611929E+02  0.00000000000E+00 0.  1.
          4    1    1    2  501    0  0.12387946276E+02 -0.21656157703E+02  0.26249877808E+02  0.36214727175E+02  0.00000000000E+00 0.  1.
</event>
<event>
 4    1  0.1593135E+006  0.2231096E+02  0.7546771E-02  0.1501337E+00
          2   -1    0    0  502    0 -0.00000000000E+00  0.00000000000E+00  0.53986670778E+03  0.53986670778E+03  0.00000000000E+00 0.  1.
         21   -1    0    0  503  502  0.00000000000E+00 -0.00000000000E+00 -0.75283717408E+01  0.75283717408E+01  0.00000000000E+00 0.  1.
         21    1    1    2  503  501  0.69139589649E+01 -0.21212639036E+02  0.97794860793E+01  0.24360156638E+02  0.00000000000E+00 0.  1.
          2    1    1    2  501    0 -0.69139589649E+01  0.21212639036E+02  0.52255884996E+03  0.52303492288E+03  0.00000000000E+00 0.  1.
</event>
<event>
 4    1  0.1593135E+006  0.2886222E+02  0.7546771E-02  0.1429748E+00
         -3   -1    0    0    0  501 -0.00000000000E+00  0.00000000000E+00  0.20995213985E+02  0.20995213985E+02  0.00000000000E+00 0. -1.
         21   -1    0    0  503  502  0.00000000000E+00 -0.00000000000E+00 -0.28219282594E+03  0.28219282594E+03  0.00000000000E+00 0. -1.
         21    1    1    2  503  501  0.27710691554E+02 -0.80712768463E+01 -0.27113205673E+03  0.27266393257E+03  0.00000000000E+00 0. -1.
         -3    1    1    2    0  502 -0.27710691554E+02  0.80712768463E+01  0.99344447837E+01  0.30524107350E+02  0.00000000000E+00 0. -1.
</event>
<event>
 4    1  0.1593135E+006  0.2488258E+02  0.7546771E-02  0.1470121E+00
          1   -1    0    0  502    0 -0.00000000000E+00  0.00000000000E+00  0.11064173198E+04  0.11064173198E+04  0.00000000000E+00 0. -1.
         21   -1    0    0  503  502  0.00000000000E+00 -0.00000000000E+00 -0.45409371630E+03  0.45409371630E+03  0.00000000000E+00 0.  1.
         21    1    1    2  503  501  0.21406962767E+02  0.12684038818E+02 -0.45361280260E+03  0.45429474747E+03  0.00000000000E+00 0.  1.
          1    1    1    2  501    0 -0.21406962767E+02 -0.12684038818E+02  0.11059364061E+04  0.11062162886E+04  0.00000000000E+00 0. -1.
</event>
<event>
 4    1  0.1593135E+006  0.3085383E+02  0.7546771E-02  0.1412319E+00
         21   -1    0    0  501  502  0.00000000000E+00  0.00000000000E+00  0.62845385919E+00  0.62845385919E+00  0.00000000000E+00 0. -1.
          2   -1    0    0  503    0 -0.00000000000E+00 -0.00000000000E+00 -0.15603152830E+04  0.15603152830E+04  0.00000000000E+00 0.  1.
         21    1    1    2  503  502 -0.48051631518E+00 -0.30850089089E+02 -0.64648994202E+03  0.64722577515E+03  0.00000000000E+00 0. -1.
          2    1    1    2  501    0  0.48051631518E+00  0.30850089089E+02 -0.91319688714E+03  0.91371796172E+03  0.00000000000E+00 0.  1.
</event>
<event>
 4    1  0.1593135E+006  0.2184255E+02  0.7546771E-02  0.1507567E+00
         21   -1    0    0  501  502  0.00000000000E+00  0.00000000000E+00  0.19009718790E+01  0.19009718790E+01  0.00000000000E+00 0.  1.
          1   -1    0    0  503    0 -0.00000000000E+00 -0.00000000000E+00 -0.33648723716E+03  0.33648723716E+03  0.00000000000E+00 0. -1.
         21    1    1    2  503  502  0.21004420678E+02 -0.59925863421E+01 -0.81999899112E+02  0.84859178840E+02  0.00000000000E+00 0.  1.
          1    1    1    2  501    0 -0.21004420678E+02  0.59925863421E+01 -0.25258636617E+03  0.25352903020E+03  0.00000000000E+00 0. -1.
</event>
<event>
 4    1  0.1593135E+006  0.6647344E+02  0.7546771E-02  0.1239294E+00
          3   -1    0    0  503    0 -0.00000000000E+00  0.00000000000E+00  0.52555368351E+02  0.52555368351E+02  0.00000000000E+00 0. -1.
         21   -1    0    0  501  502  0.00000000000E+00 -0.00000000000E+00 -0.86502604382E+02  0.86502604382E+02  0.00000000000E+00 0. -1.
         21    1    1    2  503  502  0.42791952280E+02  0.50868132505E+02 -0.53316454066E+01  0.66686914213E+02  0.00000000000E+00 0. -1.
          3    1    1    2  501    0 -0.42791952280E+02 -0.50868132505E+02 -0.28615590625E+02  0.72371058520E+02  0.00000000000E+00 0. -1.
</event>
<event>
 4    1  0.1593135E+006  0.2270488E+02  0.7546771E-02  0.1496238E+00
         -1   -1    0    0    0  501 -0.00000000000E+00  0.00000000000E+00  0.12302446889E+04  0.12302446889E+04  0.00000000000E+00 0.  1.
         21   -1    0    0  503  502  0.00000000000E+00 -0.00000000000E+00 -0.63632745377E+00  0.63632745377E+00  0.00000000000E+00 0. -1.
         21    1    1    2  503  501  0.11862740211E+02  0.19359413012E+02  0.25516135211E+03  0.25616952802E+03  0.00000000000E+00 0. -1.
         -1    1    1    2    0  502 -0.11862740211E+02 -0.19359413012E+02  0.97444700934E+03  0.97471148833E+03  0.00000000000E+00 0.  1.
</event>
<event>
 4    1  0.1593135E+006  0.2473330E+02  0.7546771E-02  0.1471809E+00
         21   -1    0    0  501  502  0.00000000000E+00  0.00000000000E+00  0.12801344987E+03  0.12801344987E+03  0.00000000000E+00 0.  1.
         -2   -1    0    0    0  501 -0.00000000000E+00 -0.00000000000E+00 -0.42432426393E+03  0.42432426393E+03  0.00000000000E+00 0.  1.
         21    1    1    2  503  502  0.17017799793E+02 -0.17947993620E+02  0.12645395767E+03  0.12885006556E+03  0.00000000000E+00 0.  1.
         -2    1    1    2    0  503 -0.17017799793E+02  0.17947993620E+02 -0.42276477174E+03  0.42348764823E+03  0.00000000000E+00 0.  1.
</event>
<event>
 4    1  0.1593135E+006  0.2806453E+02  0.7546771E-02  0.1437198E+00
          2   -1    0    0  503    0 -0.00000000000E+00  0.00000000000E+00  0.32586866622E+02  0.32586866622E+02  0.00000000000E+00 0.  1.
         21   -1    0    0  501  502  0.00000000000E+00 -0.00000000000E+00 -0.11868437705E+04  0.11868437705E+04  0.00000000000E+00 0. -1.
         21    1    1    2  503  502  0.93242999842E+01  0.26470272622E+02 -0.11806034817E+04  0.11809370004E+04  0.00000000000E+00 0. -1.
          2    1    1    2  501    0 -0.93242999842E+01 -0.26470272622E+02  0.26346577841E+02  0.38493636705E+02  0.00000000000E+00 0.  1.
</event>
<event>
 4    1  0.1593135E+006  0.3427952E+02  0.7546771E-02  0.1385700E+00
          2   -1    0    0  503    0 -0.00000000000E+00  0.00000000000E+00  0.16449086303E+03  0.16449086303E+03  0.00000000000E+00 0.  1.
         21   -1    0    0  501  502  0.00000000000E+00 -0.00000000000E+00 -0.23185357171E+02  0.23185357171E+02  0.00000000000E+00 0. -1.
         21    1    1    2  503  502  0.74668127547E+01  0.33456419870E+02 -0.74013954344E+01  0.35069445071E+02  0.00000000000E+00 0. -1.
          2    1    1    2  501    0 -0.74668127547E+01 -0.33456419870E+02  0.14870690129E+03  0.15260677513E+03  0.00000000000E+00 0.  1.
</event>
<event>
 4    1  0.1593135E+006  0.2104648E+02  0.7546771E-02  0.1518602E+00
         21   -1    0    0  501  502  0.00000000000E+00  0.00000000000E+00  0.28123458988E+01  0.28123458988E+01  0.00000000000E+00 0. -1.
          2   -1    0    0  503    0 -0.00000000000E+00 -0.00000000000E+00 -0.18461724989E+03  0.18461724989E+03  0.00000000000E+00 0. -1.
         21    1    1    2  503  502 -0.20526111072E+02 -0.46511156962E+01 -0.54988150583E+02  0.58878271183E+02  0.00000000000E+00 0. -1.
          2    1    1    2  501    0  0.20526111072E+02  0.46511156962E+01 -0.12681675341E+03  0.12855132461E+03  0.00000000000E+00 0. -1.
</event>
<event>
 4    1  0.1593135E+006  0.2129656E+02  0.7546771E-02  0.1515073E+00
         -1   -1    0    0    0  501 -0.00000000000E+00  0.00000000000E+00  0.35679441215E+03  0.35679441215E+03  0.00000000000E+00 0. -1.
         21   -1    0    0  503  502  0.00000000000E+00 -0.00000000000E+00 -0.32003342953E+01  0.32003342953E+01  0.00000000000E+00 0. -1.
         21    1    1    2  503  501 -0.47969577485E+01  0.20749276575E+02  0.37046313457E+02  0.42731400899E+02  0.00000000000E+00 0. -1.
         -1    1    1    2    0  502  0.47969577485E+01 -0.20749276575E+02  0.31654776440E+03  0.31726334555E+03  0.00000000000E+00 0. -1.
</event>
<event>
 4    1  0.1593135E+006  0.2124218E+02  0.7546771E-02  0.1515835E+00
         -2   -1    0    0    0  501 -0.00000000000E+00  0.00000000000E+00  0.12636379936E+02  0.12636379936E+02  0.00000000000E+00 0. -1.
         21   -1    0    0  503  502  0.00000000000E+00 -0.00000000000E+00 -0.77871407257E+02  0.77871407257E+02  0.00000000000E+00 0.  1.
         21    1    1    2  503  501  0.96962998867E+01 -0.18900047944E+02 -0.65916471128E+02  0.69254683667E+02  0.00000000000E+00 0.  1.
         -2    1    1    2    0  502 -0.96962998867E+01  0.18900047944E+02  0.68144380741E+00  0.21253103525E+02  0.00000000000E+00 0. -1.
</event>
<event>
 4    1  0.1593135E+006  0.2800376E+02  0.7546771E-02  0.1437778E+00
         21   -1    0    0  501  502  0.00000000000E+00  0.00000000000E+00  0.63301205234E+02  0.63301205234E+02  0.00000000000E+00 0. -1.
          2   -1    0    0  503    0 -0.00000000000E+00 -0.00000000000E+00 -0.90109751946E+02  0.90109751946E+02  0.00000000000E+00 0. -1.
         21    1    1    2  503  502  0.12441843345E+02 -0.25088062151E+02  0.57833483026E+02  0.64256689046E+02  0.00000000000E+00 0. -1.
          2    1    1    2  501    0 -0.12441843345E+02  0.25088062151E+02 -0.84642029738E+02  0.89154268133E+02  0.00000000000E+00 0. -1.
</event>
<event>
 4    1  0.1593135E+006  0.4466902E+02  0.7546771E-02  0.1323103E+00
          2   -1    0    0  502    0 -0.00000000000E+00  0.00000000000E+00  0.16994713560E+04  0.16994713560E+04  0.00000000000E+00 0. -1.
         21   -1    0    0  503  502  0.00000000000E+00 -0.00000000000E+00 -0.13447984233E+01  0.13447984233E+01  0.00000000000E+00 0.  1.
         21    1    1    2  503  501  0.24349001350E+02 -0.37449259691E+02  0.54606874501E+03  0.54789268584E+03  0.00000000000E+00 0.  1.
          2    1    1    2  501    0 -0.24349001350E+02  0.37449259691E+02  0.11520578125E+04  0.11529234685E+04  0.00000000000E+00 0. -1.
</event>
<event>
 4    1  0.1593135E+006  0.2056721E+02  0.7546771E-02  0.1525534E+00
          4   -1    0    0  503    0 -0.00000000000E+00  0.00000000000E+00  0.11525864602E+02  0.11525864602E+02  0.00000000000E+00 0.  1.
         21   -1    0    0  501  502  0.00000000000E+00 -0.00000000000E+00 -0.21651833088E+03  0.21651833088E+03  0.00000000000E+00 0. -1.
         21    1    1    2  503  502  0.20551472156E+02  0.80456444336E+00 -0.20640627254E+03  0.20742844472E+03  0.00000000000E+00 0. -1.
          4    1    1    2  501    0 -0.20551472156E+02 -0.80456444336E+00  0.14138062611E+01  0.20615750772E+02  0.00000000000E+00 0.  1.
</event>
<event>
 4    1  0.1593135E+006  0.2311193E+02  0.7546771E-02  0.1491097E+00
         21   -1    0    0  503  502  0.00000000000E+00  0.00000000000E+00  0.39010760661E+02  0.39010760661E+02  0.00000000000E+00 0. -1.
          2   -1    0    0  502    0 -0.00000000000E+00 -0.00000000000E+00 -0.71818058458E+02  0.71818058458E+02  0.00000000000E+00 0.  1.
         21    1    1    2  503  501 -0.23042734153E+02 -0.17870569351E+01  0.33449069326E+02  0.40657120022E+02  0.00000000000E+00 0. -1.
          2    1    1    2  501    0  0.23042734153E+02  0.17870569351E+01 -0.66256367123E+02  0.70171699096E+02  0.00000000000E+00 0.  1.
</event>
<event>
 4    1  0.1593135E+006  0.3171300E+02  0.7546771E-02  0.1405272E+00
         21   -1    0    0  503  502  0.00000000000E+00  0.00000000000E+00  0.12427740741E+02  0.12427740741E+02  0.00000000000E+00 0.  1.
         -1   -1    0    0    0  501 -0.00000000000E+00 -0.00000000000E+00 -0.28367829402E+03  0.28367829402E+03  0.00000000000E+00 0. -1.
         21    1    1    2  503  501  0.24709839541E+02  0.19878078167E+02 -0.10458740334E+02  0.33393104245E+02  0.00000000000E+00 0.  1.
         -1    1    1    2    0  502 -0.24709839541E+02 -0.19878078167E+02 -0.26079181294E+03  0.26271293051E+03  0.00000000000E+00 0. -1.
</event>
<event>
 4    1  0.1593135E+006  0.2349551E+02  0.7546771E-02  0.1486368E+00
          3   -1    0    0  502    0 -0.00000000000E+00  0.00000000000E+00  0.29661356731E+02  0.29661356731E+02  0.00000000000E+00 0. -1.
         21   -1    0    0  503  502  0.00000000000E+00 -0.00000000000E+00 -0.19803069229E+02  0.19803069229E+02  0.00000000000E+00 0. -1.
         21    1    1    2  503  501  0.36625466241E+01  0.23208292624E+02 -0.11378885891E+01  0.23523050073E+02  0.00000000000E+00 0. -1.
          3    1    1    2  501    0 -0.36625466241E+01 -0.23208292624E+02  0.10996176092E+02  0.25941375887E+02  0.00000000000E+00 0. -1.
</event>
<event>
 4    1  0.1593135E+006  0.3482320E+02  0.7546771E-02  0.1381810E+00
         21   -1    0    0  503  502  0.00000000000E+00  0.00000000000E+00  0.53983762901E+02  0.53983762901E+02  0.00000000000E+00 0.  1.
          2   -1    0    0  502    0 -0.00000000000E+00 -0.00000000000E+00 -0.31202777245E+03  0.31202777245E+03  0.00000000000E+00 0.  1.
         21    1    1    2  503  501 -0.34660130853E+02 -0.33661268365E+01  0.47273306437E+02  0.58714742460E+02  0.00000000000E+00 0.  1.
          2    1    1    2  501    0  0.34660130853E+02  0.33661268365E+01 -0.30531731599E+03  0.30729679289E+03  0.00000000000E+00 0.  1.
</event>
<event>
 4    1  0.1593135E+006  0.2687719E+02  0.7546771E-02  0.1448846E+00
         -2   -1    0    0    0  501 -0.00000000000E+00  0.00000000000E+00  0.70628983120E+02  0.70628983120E+02  0.00000000000E+00 0.  1.
         21   -1    0    0  503  502  0.00000000000E+00 -0.00000000000E+00 -0.10580218740E+03  0.10580218740E+03  0.00000000000E+00 0.  1.
         21    1    1    2  503  501  0.15882138388E+02 -0.21682731354E+02 -0.10142995319E+03  0.10493054161E+03  0.00000000000E+00 0.  1.
         -2    1    1    2    0  502 -0.15882138388E+02  0.21682731354E+02  0.66256748908E+02  0.71500628911E+02  0.00000000000E+00 0.  1.
</event>
<event>
 4    1  0.1593135E+006  0.2511176E+02  0.7546771E-02  0.1467557E+00
         -1   -1    0    0    0  501 -0.00000000000E+00  0.00000000000E+00  0.43988339706E+03  0.43988339706E+03  0.00000000000E+00 0. -1.
         21   -1    0    0  501  502  0.00000000000E+00 -0.00000000000E+00 -0.62632803117E+01  0.62632803117E+01  0.00000000000E+00 0.  1.
         21    1    1    2  503  502 -0.18032672707E+01  0.25046925340E+02  0.20922148866E+02  0.32685418079E+02  0.00000000000E+00 0.  1.
         -1    1    1    2    0  503  0.18032672707E+01 -0.25046925340E+02  0.41269796789E+03  0.41346125930E+03  0.00000000000E+00 0. -1.
</event>
<event>
 4    1  0.1593135E+006  0.2748226E+02  0.7546771E-02  0.1442823E+00
          4   -1    0    0  503    0 -0.00000000000E+00  0.00000000000E+00  0.30593026823E+01  0.30593026823E+01  0.00000000000E+00 0.  1.
         21   -1    0    0  501  502  0.00000000000E+00 -0.00000000000E+00 -0.48205619063E+03  0.48205619063E+03  0.00000000000E+00 0. -1.
         21    1    1    2  503  502  0.25074499099E+01 -0.27367629676E+02 -0.40891851528E+03  0.40984097720E+03  0.00000000000E+00 0. -1.
          4    1    1    2  501    0 -0.25074499099E+01  0.27367629676E+02 -0.70078372670E+02  0.75274516108E+02  0.00000000000E+00 0.  1.
</event>
<event>
 4    1  0.1593135E+006  0.2806351E+02  0.7546771E-02  0.1437208E+00
         21   -1    0    0  503  502  0.00000000000E+00  0.00000000000E+00  0.74868440422E+03  0.74868440422E+03  0.00000000000E+00 0. -1.
         -3   -1    0    0    0  501 -0.00000000000E+00 -0.00000000000E+00 -0.16783715144E+01  0.16783715144E+01  0.00000000000E+00 0. -1.
         21    1    1    2  503  501  0.26155294095E+02  0.10171581703E+02  0.60271585366E+03  0.60336884303E+03  0.00000000000E+00 0. -1.
         -3    1    1    2    0  502 -0.26155294095E+02 -0.10171581703E+02  0.14429017904E+03  0.14699393271E+03  0.00000000000E+00 0. -1.
</event>
<event>
 4    1  0.1593135E+006  0.7526787E+02  0.7546771E-02  0.1215281E+00
         21   -1    0    0  503  502  0.00000000000E+00  0.00000000000E+00  0.17465509685E+03  0.17465509685E+03  0.00000000000E+00 0.  1.
         -1   -1    0    0    0  501 -0.00000000000E+00 -0.00000000000E+00 -0.75380200798E+02  0.75380200798E+02  0.00000000000E+00 0. -1.
         21    1    1    2  503  501  0.60004765221E+02 -0.45438750676E+02  0.14399809601E+03  0.16248293316E+03  0.00000000000E+00 0.  1.
         -1    1    1    2    0  502 -0.60004765221E+02  0.45438750676E+02 -0.44723199964E+02  0.87552364487E+02  0.00000000000E+00 0. -1.
</event>
<event>
 4    1  0.1593135E+006  0.2116404E+02  0.7546771E-02  0.1516936E+00
          4   -1    0    0  502    0 -0.00000000000E+00  0.00000000000E+00  0.13274442409E+03  0.13274442409E+03  0.00000000000E+00 0.  1.
         21   -1    0    0  503  502  0.00000000000E+00 -0.00000000000E+00 -0.99934978608E+02  0.99934978608E+02  0.00000000000E+00 0.  1.
         21    1    1    2  503  501  0.99176244678E+00  0.21140787541E+02 -0.97954024311E+02  0.10021430721E+03  0.00000000000E+00 0.  1.
          4    1    1    2  501    0 -0.99176244678E+00 -0.21140787541E+02  0.13076346980E+03  0.13246509549E+03  0.00000000000E+00 0.  1.
</event>
<event>
 4    1  0.1593135E+006  0.2512747E+02  0.7546771E-02  0.1467382E+00
         21   -1    0    0  501  502  0.00000000000E+00  0.00000000000E+00  0.55718618180E+02  0.55718618180E+02  0.00000000000E+00 0.  1.
         -1   -1    0    0    0  501 -0.00000000000E+00 -0.00000000000E+00 -0.63259637805E+02  0.63259637805E+02  0.00000000000E+00 0.  1.
         21    1    1    2  503  502  0.83744172276E+01 -0.23690906581E+02  0.50127725521E+02  0.56072977310E+02  0.00000000000E+00 0.  1.
         -1    1    1    2    0  503 -0.83744172276E+01  0.23690906581E+02 -0.57668745146E+02  0.62905278675E+02  0.00000000000E+00 0.  1.
</event>
<event>
 4    1  0.1593135E+006  0.2991338E+02  0.7546771E-02  0.1420351E+00
          1   -1    0    0  503    0 -0.00000000000E+00  0.00000000000E+00  0.13952094410E+03  0.13952094410E+03  0.00000000000E+00 0.  1.
         21   -1    0    0  501  502  0.00000000000E+00 -0.00000000000E+00 -0.64165027381E+01  0.64165027381E+01  0.00000000000E+00 0. -1.
         21    1    1    2  503  502  0.20345938538E+02  0.21928365138E+02  0.64960278415E+02  0.71516768554E+02  0.00000000000E+00 0. -1.
          1    1    1    2  501    0 -0.20345938538E+02 -0.21928365138E+02  0.68144162949E+02  0.74420678287E+02  0.00000000000E+00 0.  1.
</event>
<event>
 4    1  0.1593135E+006  0.6598359E+02  0.7546771E-02  0.1240754E+00
         21   -1    0    0  501  502  0.00000000000E+00  0.00000000000E+00  0.58597537682E+02  0.58597537682E+02  0.00000000000E+00 0. -1.
          3   -1    0    0  503    0 -0.00000000000E+00 -0.00000000000E+00 -0.16155865804E+03  0.16155865804E+03  0.00000000000E+00 0.  1.
         21    1    1    2  503  502 -0.63678904665E+02  0.17286752643E+02  0.29417566134E+02  0.72244224084E+02  0.00000000000E+00 0. -1.
          3    1    1    2  501    0  0.63678904665E+02 -0.17286752643E+02 -0.13237868649E+03  0.14791197164E+03  0.00000000000E+00 0.  1.
</event>
<event>
 4    1  0.1593135E+006  0.2172849E+02  0.7546771E-02  0.1509113E+00
          1   -1    0    0  502    0 -0.00000000000E+00  0.00000000000E+00  0.87072687539E+02  0.87072687539E+02  0.00000000000E+00 0. -1.
         21   -1    0    0  503  502  0.00000000000E+00 -0.00000000000E+00 -0.16160985476E+02  0.16160985476E+02  0.00000000000E+00 0. -1.
         21    1    1    2  503  501 -0.71214528449E+01 -0.20528323409E+02 -0.66201706006E+01  0.22714616691E+02  0.00000000000E+00 0. -1.
          1    1    1    2  501    0  0.71214528449E+01  0.20528323409E+02  0.77531872664E+02  0.80519056325E+02  0.00000000000E+00 0. -1.
</event>
<event>
 4    1  0.1593135E+006  0.2123240E+02  0.7546771E-02  0.1515972E+00
          2   -1    0    0  502    0 -0.00000000000E+00  0.00000000000E+00  0.51924304134E+02  0.51924304134E+02  0.00000000000E+00 0.  1.
         21   -1    0    0  503  502  0.00000000000E+00 -0.00000000000E+00 -0.40450932844E+02  0.40450932844E+02  0.00000000000E+00 0. -1.
         21    1    1    2  503  501  0.16280405644E+02 -0.13629499235E+02 -0.35195181228E+02  0.41103718067E+02  0.00000000000E+00 0. -1.
          2    1    1    2  501    0 -0.16280405644E+02  0.13629499235E+02  0.46668552517E+02  0.51271518910E+02  0.00000000000E+00 0.  1.
</event>
<event>
 4    1  0.1593135E+006  0.2159745E+02  0.7546771E-02  0.1510903E+00
          2   -1    0    0  502    0 -0.00000000000E+00  0.00000000000E+00  0.20844981606E+03  0.20844981606E+03  0.00000000000E+00 0.  1.
         21   -1    0    0  503  502  0.00000000000E+00 -0.00000000000E+00 -0.44516832873E+02  0.44516832873E+02  0.00000000000E+00 0. -1.
         21    1    1    2  503  501  0.11781746894E+02 -0.18100837544E+02 -0.41296906386E+02  0.46603480093E+02  0.00000000000E+00 0. -1.
          2    1    1    2  501    0 -0.11781746894E+02  0.18100837544E+02  0.20522988957E+03  0.20636316884E+03  0.00000000000E+00 0.  1.
</event>
<event>
 4    1  0.1593135E+006  0.2649223E+02  0.7546771E-02  0.1452777E+00
         21   -1    0    0  501  502  0.00000000000E+00  0.00000000000E+00  0.53717165383E+02  0.53717165383E+02  0.00000000000E+00 0. -1.
         -2   -1    0    0    0  501 -0.00000000000E+00 -0.00000000000E+00 -0.23399860119E+02  0.23399860119E+02  0.00000000000E+00 0.  1.
         21    1    1    2  503  502  0.24831802762E+02 -0.92314560226E+01  0.40783233783E+02  0.48632400378E+02  0.00000000000E+00 0. -1.
         -2    1    1    2    0  503 -0.24831802762E+02  0.92314560226E+01 -0.10465928519E+02  0.28484625125E+02  0.00000000000E+00 0.  1.
</event>
<event>
 4    1  0.1593135E+006  0.2743904E+02  0.7546771E-02  0.1443247E+00
         21   -1    0    0  503  502  0.00000000000E+00  0.00000000000E+00  0.46259991491E+02  0.46259991491E+02  0.00000000000E+00 0. -1.
          3   -1    0    0  502    0 -0.00000000000E+00 -0.00000000000E+00 -0.63378063270E+02  0.63378063270E+02  0.00000000000E+00 0. -1.
         21    1    1    2  503  501  0.10934146622E+02  0.25166350928E+02  0.38699959410E+02  0.47440358765E+02  0.00000000000E+00 0. -1.
          3    1    1    2  501    0 -0.10934146622E+02 -0.25166350928E+02 -0.55818031189E+02  0.62197695996E+02  0.00000000000E+00 0. -1.
</event>
<event>
 4    1  0.1593135E+006  0.2067541E+02  0.7546771E-02  0.1523950E+00
          3   -1    0    0  502    0 -0.00000000000E+00  0.00000000000E+00  0.24978365824E+03  0.24978365824E+03  0.00000000000E+00 0.  1.
         21   -1    0    0  503  502  0.00000000000E+00 -0.00000000000E+00 -0.16155214446E+02  0.16155214446E+02  0.00000000000E+00 0.  1.
         21    1    1    2  503  501 -0.18154485559E+02 -0.98937984513E+01 -0.89151787670E+01  0.22515616939E+02  0.00000000000E+00 0.  1.
          3    1    1    2  501    0  0.18154485559E+02  0.98937984513E+01  0.24254362256E+03  0.24342325575E+03  0.00000000000E+00 0.  1.
</event>
<event>
 4    1  0.1593135E+006  0.3738277E+02  0.7546771E-02  0.1364545E+00
          1   -1    0    0  503    0 -0.00000000000E+00  0.00000000000E+00  0.88751717332E+02  0.88751717332E+02  0.00000000000E+00 0.  1.
         21   -1    0    0  501  502  0.00000000000E+00 -0.00000000000E+00 -0.78029607448E+02  0.78029607448E+02  0.00000000000E+00 0.  1.
         21    1    1    2  503  502  0.28914496098E+02 -0.23694369518E+02 -0.69142177337E+02  0.78600966396E+02  0.00000000000E+00 0.  1.
          1    1    1    2  501    0 -0.28914496098E+02  0.23694369518E+02  0.79864287221E+02  0.88180358385E+02  0.00000000000E+00 0.  1.
</event>
<event>
 4    1  0.1593135E+006  0.2172703E+02  0.7546771E-02  0.1509133E+00
          4   -1    0    0  503    0 -0.00000000000E+00  0.00000000000E+00  0.75447562945E+02  0.75447562945E+02  0.00000000000E+00 0.  1.
         21   -1    0    0  501  502  0.00000000000E+00 -0.00000000000E+00 -0.10756935111E+02  0.10756935111E+02  0.00000000000E+00 0. -1.
         21    1    1    2  503  502  0.17073578950E+02  0.13437142255E+02  0.44670230274E+01  0.22181482928E+02  0.00000000000E+00 0. -1.
          4    1    1    2  501    0 -0.17073578950E+02 -0.13437142255E+02  0.60223604807E+02  0.64023015128E+02  0.00000000000E+00 0.  1.
</event>
<event>
 4    1  0.1593135E+006  0.2109819E+02  0.7546771E-02  0.1517867E+00
         21   -1    0    0  503  502  0.00000000000E+00  0.00000000000E+00  0.33220536909E+02  0.33220536909E+02  0.00000000000E+00 0.  1.
         -2   -1    0    0    0  501 -0.00000000000E+00 -0.00000000000E+00 -0.15498146036E+02  0.15498146036E+02  0.00000000000E+00 0. -1.
         21    1    1    2  503  501 -0.66432427163E+01  0.20025011256E+02  0.17825370403E+02  0.27620238587E+02  0.00000000000E+00 0.  1.
         -2    1    1    2    0  502  0.66432427163E+01 -0.20025011256E+02 -0.10297953021E+00  0.21098444359E+02  0.00000000000E+00 0. -1.
</event>
<event>
 4    1  0.1593135E+006  0.2039070E+02  0.7546771E-02  0.1528145E+00
          3   -1    0    0  502    0 -0.00000000000E+00  0.00000000000E+00  0.19862861082E+02  0.19862861082E+02  0.00000000000E+00 0.  1.
         21   -1    0    0  503  502  0.00000000000E+00 -0.00000000000E+00 -0.21693507795E+03  0.21693507795E+03  0.00000000000E+00 0.  1.
         21    1    1    2  503  501 -0.18275745117E+02  0.90431043363E+01 -0.21107790743E+03  0.21206051872E+03  0.00000000000E+00 0.  1.
          3    1    1    2  501    0  0.18275745117E+02 -0.90431043363E+01  0.14005690559E+02  0.24737420312E+02  0.00000000000E+00 0.  1.
</event>
<event>
 4    1  0.1593135E+006  0.2032839E+02  0.7546771E-02  0.1529074E+00
         21   -1    0    0  503  502  0.00000000000E+00  0.00000000000E+00  0.25890971772E+02  0.25890971772E+02  0.00000000000E+00 0. -1.
         -2   -1    0    0    0  501 -0.00000000000E+00 -0.00000000000E+00 -0.12834643696E+04  0.12834643696E+04  0.00000000000E+00 0. -1.
         21    1    1    2  503  501  0.17548219627E+02  0.10261738841E+02  0.21807517262E+02  0.29812935200E+02  0.00000000000E+00 0. -1.
         -2    1    1    2    0  502 -0.17548219627E+02 -0.10261738841E+02 -0.12793809150E+04  0.12795424061E+04  0.00000000000E+00 0. -1.
</event>
<event>
 4    1  0.1593135E+006  0.9038641E+02  0.7546771E-02  0.1181597E+00
         21   -1    0    0  501  502  0.00000000000E+00  0.00000000000E+00  0.10539515027E+03  0.10539515027E+03  0.00000000000E+00 0. -1.
          1   -1    0    0  503    0 -0.00000000000E+00 -0.00000000000E+00 -0.57693574868E+03  0.57693574868E+03  0.00000000000E+00 0. -1.
         21    1    1    2  503  502 -0.85715673685E+02  0.28679728281E+02  0.81649940218E+02  0.12180482859E+03  0.00000000000E+00 0. -1.
          1    1    1    2  501    0  0.85715673685E+02 -0.28679728281E+02 -0.55319053863E+03  0.56052607036E+03  0.00000000000E+00 0. -1.
</event>
<event>
 4    1  0.1593135E+006  0.6114203E+02  0.7546771E-02  0.1256001E+00
         21   -1    0    0  501  502  0.00000000000E+00  0.00000000000E+00  0.18478753262E+02  0.18478753262E+02  0.00000000000E+00 0. -1.
          2   -1    0    0  503    0 -0.00000000000E+00 -0.00000000000E+00 -0.76580154102E+03  0.76580154102E+03  0.00000000000E+00 0. -1.
         21    1    1    2  503  502 -0.53177703539E+01  0.60910340727E+02 -0.37282505510E+02  0.71612383749E+02  0.00000000000E+00 0. -1.
          2    1    1    2  501    0  0.53177703539E+01 -0.60910340727E+02 -0.71004028225E+03  0.71266791054E+03  0.00000000000E+00 0. -1.
</event>
<event>
 4    1  0.1593135E+006  0.2006082E+02  0.7546771E-02  0.1533108E+00
         21   -1    0    0  501  502  0.00000000000E+00  0.00000000000E+00  0.70007530754E+00  0.70007530754E+00  0.00000000000E+00 0.  1.
          2   -1    0    0  503    0 -0.00000000000E+00 -0.00000000000E+00 -0.10695945744E+04  0.10695945744E+04  0.00000000000E+00 0.  1.
         21    1    1    2  503  502 -0.18814418348E+02 -0.69608952051E+01 -0.17048573077E+03  0.17166193753E+03  0.00000000000E+00 0.  1.
          2    1    1    2  501    0  0.18814418348E+02  0.69608952051E+01 -0.89840876832E+03  0.89863271218E+03  0.00000000000E+00 0.  1.
</event>
<event>
 4    1  0.1593135E+006  0.2880544E+02  0.7546771E-02  0.1430269E+00
         21   -1    0    0  501  502  0.00000000000E+00  0.00000000000E+00  0.16992682548E+03  0.16992682548E+03  0.00000000000E+00 0.  1.
          2   -1    0    0  503    0 -0.00000000000E+00 -0.00000000000E+00 -0.20146096680E+02  0.20146096680E+02  0.00000000000E+00 0. -1.
         21    1    1    2  503  502 -0.19863641737E+02  0.20861188728E+02  0.15761141893E+03  0.16022207350E+03  0.00000000000E+00 0.  1.
          2    1    1    2  501    0  0.19863641737E+02 -0.20861188728E+02 -0.78306901286E+01  0.29850848666E+02  0.00000000000E+00 0. -1.
</event>
<event>
 4    1  0.1593135E+006  0.2373934E+02  0.7546771E-02  0.1483417E+00
         21   -1    0    0  503  502  0.00000000000E+00  0.00000000000E+00  0.44440186682E+02  0.44440186682E+02  0.00000000000E+00 0.  1.
          1   -1    0    0  502    0 -0.00000000000E+00 -0.00000000000E+00 -0.46515205474E+03  0.46515205474E+03  0.00000000000E+00 0.  1.
         21    1    1    2  503  501  0.18698409708E+02 -0.14626196592E+02  0.40942991157E+02  0.47327419930E+02  0.00000000000E+00 0.  1.
          1    1    1    2  501    0 -0.18698409708E+02  0.14626196592E+02 -0.46165485921E+03  0.46226482149E+03  0.00000000000E+00 0.  1.
</event>
<event>
 4    1  0.1593135E+006  0.2995378E+02  0.7546771E-02  0.1419999E+00
         21   -1    0    0  503  502  0.00000000000E+00  0.00000000000E+00  0.42550820990E+02  0.42550820990E+02  0.00000000000E+00 0.  1.
          1   -1    0    0  502    0 -0.00000000000E+00 -0.00000000000E+00 -0.60687086490E+02  0.60687086490E+02  0.00000000000E+00 0. -1.
         21    1    1    2  503  501 -0.25896105027E+02 -0.15053922035E+02  0.32629780272E+02  0.44293694639E+02  0.00000000000E+00 0.  1.
          1    1    1    2  501    0  0.25896105027E+02  0.15053922035E+02 -0.50766045772E+02  0.58944212842E+02  0.00000000000E+00 0. -1.
</event>
<event>
 4    1  0.1593135E+006  0.3342389E+02  0.7546771E-02  0.1391996E+00
          1   -1    0    0  502    0 -0.00000000000E+00  0.00000000000E+00  0.24486062946E+03  0.24486062946E+03  0.00000000000E+00 0.  1.
         21   -1    0    0  503  502  0.00000000000E+00 -0.00000000000E+00 -0.14644334607E+03  0.14644334607E+03  0.00000000000E+00 0.  1.
         21    1    1    2  503  501 -0.27706960970E+02 -0.18694412409E+02 -0.14337147782E+03  0.14721595496E+03  0.00000000000E+00 0.  1.
          1    1    1    2  501    0  0.27706960970E+02  0.18694412409E+02  0.24178876121E+03  0.24408802058E+03  0.00000000000E+00 0.  1.
</event>
<event>
 4    1  0.1593135E+006  0.2067336E+02  0.7546771E-02  0.1523980E+00
         21   -1    0    0  501  502  0.00000000000E+00  0.00000000000E+00  0.59306523780E+01  0.59306523780E+01  0.00000000000E+00 0. -1.
          2   -1    0    0  503    0 -0.00000000000E+00 -0.00000000000E+00 -0.87490705721E+02  0.87490705721E+02  0.00000000000E+00 0. -1.
         21    1    1    2  503  502  0.14382038494E+02 -0.14850748354E+02 -0.21165902917E+02  0.29586875540E+02  0.00000000000E+00 0. -1.
          2    1    1    2  501    0 -0.14382038494E+02  0.14850748354E+02 -0.60394150426E+02  0.63834482560E+02  0.00000000000E+00 0. -1.
</event>
<event>
 4    1  0.1593135E+006  0.2762207E+02  0.7546771E-02  0.1441457E+00
         21   -1    0    0  501  502  0.00000000000E+00  0.00000000000E+00  0.55378552635E+01  0.55378552635E+01  0.00000000000E+00 0.  1.
          2   -1    0    0  503    0 -0.00000000000E+00 -0.00000000000E+00 -0.10051115569E+04  0.10051115569E+04  0.00000000000E+00 0. -1.
         21    1    1    2  503  502  0.21170981835E+02  0.17741708980E+02 -0.30371602550E+02  0.41053781200E+02  0.00000000000E+00 0.  1.
          2    1    1    2  501    0 -0.21170981835E+02 -0.17741708980E+02 -0.96920209914E+03  0.96959563101E+03  0.00000000000E+00 0. -1.
</event>
<event>
 4    1  0.1593135E+006  0.2149862E+02  0.7546771E-02  0.1512264E+00
         -1   -1    0    0    0  501 -0.00000000000E+00  0.00000000000E+00  0.50924189036E+01  0.50924189036E+01  0.00000000000E+00 0.  1.
         21   -1    0    0  503  502  0.00000000000E+00 -0.00000000000E+00 -0.20331998874E+03  0.20331998874E+03  0.00000000000E+00 0.  1.
         21    1    1    2  503  501 -0.19104760375E+01 -0.21413563523E+02 -0.17664820467E+03  0.17795161937E+03  0.00000000000E+00 0.  1.
         -1    1    1    2    0  502  0.19104760375E+01  0.21413563523E+02 -0.21579365160E+02  0.30460788272E+02  0.00000000000E+00 0.  1.
</event>
<event>
 4    1  0.1593135E+006  0.2434995E+02  0.7546771E-02  0.1476208E+00
         -2   -1    0    0    0  501 -0.00000000000E+00  0.00000000000E+00  0.74318674010E+02  0.74318674010E+02  0.00000000000E+00 0.  1.
         21   -1    0    0  501  502  0.00000000000E+00 -0.00000000000E+00 -0.92145269912E+01  0.92145269912E+01  0.00000000000E+00 0.  1.
         21    1    1    2  503  502 -0.12381831956E+01 -0.24318453132E+02  0.17252458138E+02  0.29842378795E+02  0.00000000000E+00 0.  1.
         -2    1    1    2    0  503  0.12381831956E+01  0.24318453132E+02  0.47851688881E+02  0.53690822205E+02  0.00000000000E+00 0.  1.
</event>
<event>
 4    1  0.1593135E+006  0.2037200E+02  0.7546771E-02  0.1528423E+00
         -1   -1    0    0    0  501 -0.00000000000E+00  0.00000000000E+00  0.49267885762E+03  0.49267885762E+03  0.00000000000E+00 0. -1.
         21   -1    0    0  501  502  0.00000000000E+00 -0.00000000000E+00 -0.30610880842E+03  0.30610880842E+03  0.00000000000E+00 0.  1.
         21    1    1    2  503  502  0.77555268654E+01  0.18838002144E+02 -0.30555889012E+03  0.30623725092E+03  0.00000000000E+00 0.  1.
         -1    1    1    2    0  503 -0.77555268654E+01 -0.18838002144E+02  0.49212893931E+03  0.49255041512E+03  0.00000000000E+00 0. -1.
</event>
<event>
 4    1  0.1593135E+006  0.2036744E+02  0.7546771E-02  0.1528491E+00
         21   -1    0    0  503  502  0.00000000000E+00  0.00000000000E+00  0.23551974242E+03  0.23551974242E+03  0.00000000000E+00 0. -1.
          3   -1    0    0  502    0 -0.00000000000E+00 -0.00000000000E+00 -0.40498540832E+01  0.40498540832E+01  0.00000000000E+00 0.  1.
         21    1    1    2  503  501  0.14268186736E+02  0.14534490311E+02  0.20577959510E+03  0.20678509212E+03  0.00000000000E+00 0. -1.
          3    1    1    2  501    0 -0.14268186736E+02 -0.14534490311E+02  0.25690293231E+02  0.32784504382E+02  0.00000000000E+00 0.  1.
</event>
<event>
 4    1  0.1593135E+006  0.2069916E+02  0.7546771E-02  0.1523604E+00
         21   -1    0    0  501  502  0.00000000000E+00  0.00000000000E+00  0.88173548257E+01  0.88173548257E+01  0.00000000000E+00 0.  1.
          2   -1    0    0  503    0 -0.00000000000E+00 -0.00000000000E+00 -0.20561890201E+03  0.20561890201E+03  0.00000000000E+00 0. -1.
         21    1    1    2  503  502  0.92285517924E+01 -0.18528057787E+02 -0.47042684147E+01  0.21226993072E+02  0.00000000000E+00 0.  1.
          2    1    1    2  501    0 -0.92285517924E+01  0.18528057787E+02 -0.19209727877E+03  0.19320926376E+03  0.00000000000E+00 0. -1.
</event>
<event>
 4    1  0.1593135E+006  0.2067739E+02  0.7546771E-02  0.1523921E+00
         21   -1    0    0  501  502  0.00000000000E+00  0.00000000000E+00  0.23449754803E+01  0.23449754803E+01  0.00000000000E+00 0.  1.
         -3   -1    0    0    0  501 -0.00000000000E+00 -0.00000000000E+00 -0.30779435318E+03  0.30779435318E+03  0.00000000000E+00 0.  1.
         21    1    1    2  503  502  0.18669375915E+02 -0.88886935498E+01 -0.53718960715E+02  0.57561108488E+02  0.00000000000E+00 0.  1.
         -3    1    1    2    0  503 -0.18669375915E+02  0.88886935498E+01 -0.25173041699E+03  0.25257822017E+03  0.00000000000E+00 0.  1.
</event>
<event>
 4    1  0.1593135E+006  0.2677588E+02  0.7546771E-02  0.1449873E+00
         -4   -1    0    0    0  501 -0.00000000000E+00  0.00000000000E+00  0.91309961130E+02  0.91309961130E+02  0.00000000000E+00 0.  1.
         21   -1    0    0  503  502  0.00000000000E+00 -0.00000000000E+00 -0.12561414859E+02  0.12561414859E+02  0.00000000000E+00 0. -1.
         21    1    1    2  503  501 -0.34716826434E+01  0.26549858168E+02  0.75733806923E+01  0.27826312085E+02  0.00000000000E+00 0. -1.
         -4    1    1    2    0  502  0.34716826434E+01 -0.26549858168E+02  0.71175165578E+02  0.76045063905E+02  0.00000000000E+00 0.  1.
</event>
<event>
 4    1  0.1593135E+006  0.5808879E+02  0.7546771E-02  0.1266468E+00
         21   -1    0    0  501  502  0.00000000000E+00  0.00000000000E+00  0.25397776712E+02  0.25397776712E+02  0.00000000000E+00 0. -1.
          2   -1    0    0  503    0 -0.00000000000E+00 -0.00000000000E+00 -0.15510022970E+04  0.15510022970E+04  0.00000000000E+00 0. -1.
         21    1    1    2  503  502  0.94550080366E+01 -0.57314140205E+02 -0.91163761848E+01  0.58799797272E+02  0.00000000000E+00 0. -1.
          2    1    1    2  501    0 -0.94550080366E+01  0.57314140205E+02 -0.15164881441E+04  0.15176002764E+04  0.00000000000E+00 0. -1.
</event>
<event>
 4    1  0.1593135E+006  0.2239257E+02  0.7546771E-02  0.1500270E+00
         21   -1    0    0  501  502  0.00000000000E+00  0.00000000000E+00  0.19600893269E+02  0.19600893269E+02  0.00000000000E+00 0.  1.
          1   -1    0    0  503    0 -0.00000000000E+00 -0.00000000000E+00 -0.29826561580E+02  0.29826561580E+02  0.00000000000E+00 0.  1.
         21    1    1    2  503  502 -0.14963593890E+02 -0.16658869441E+02  0.42102767425E+01  0.22784940276E+02  0.00000000000E+00 0.  1.
          1    1    1    2  501    0  0.14963593890E+02  0.16658869441E+02 -0.14435945054E+02  0.26642514572E+02  0.00000000000E+00 0.  1.
</event>
<event>
 4    1  0.1593135E+006  0.4452240E+02  0.7546771E-02  0.1323845E+00
         21   -1    0    0  501  502  0.00000000000E+00  0.00000000000E+00  0.66763785106E+02  0.66763785106E+02  0.00000000000E+00 0.  1.
         -1   -1    0    0    0  501 -0.00000000000E+00 -0.00000000000E+00 -0.32313698399E+03  0.32313698399E+03  0.00000000000E+00 0. -1.
         21    1    1    2  503  502 -0.38972570214E+02  0.21526334339E+02  0.57591828142E+02  0.72794663045E+02  0.00000000000E+00 0.  1.
         -1    1    1    2    0  503  0.38972570214E+02 -0.21526334339E+02 -0.31396502703E+03  0.31710610605E+03  0.00000000000E+00 0. -1.
</event>
<event>
 4    1  0.1593135E+006  0.2036010E+02  0.7546771E-02  0.1528600E+00
         -1   -1    0    0    0  501 -0.00000000000E+00  0.00000000000E+00  0.15333489407E+03  0.15333489407E+03  0.00000000000E+00 0.  1.
         21   -1    0    0  501  502  0.00000000000E+00 -0.00000000000E+00 -0.38239840644E+01  0.38239840644E+01  0.00000000000E+00 0.  1.
         21    1    1    2  503  502  0.19295163532E+02  0.64985010365E+01  0.32218869973E+02  0.38112851294E+02  0.00000000000E+00 0.  1.
         -1    1    1    2    0  503 -0.19295163532E+02 -0.64985010365E+01  0.11729204003E+03  0.11904602684E+03  0.00000000000E+00 0.  1.
</event>
<event>
 4    1  0.1593135E+006  0.2157702E+02  0.7546771E-02  0.1511184E+00
         21   -1    0    0  501  502  0.00000000000E+00  0.00000000000E+00  0.60450370102E+01  0.60450370102E+01  0.00000000000E+00 0. -1.
         -1   -1    0    0    0  501 -0.00000000000E+00 -0.00000000000E+00 -0.72144308767E+03  0.72144308767E+03  0.00000000000E+00 0. -1.
         21    1    1    2  503  502  0.70881526562E+01  0.20379549557E+02 -0.13918255562E+02  0.25676561026E+02  0.00000000000E+00 0. -1.
         -1    1    1    2    0  503 -0.70881526562E+01 -0.20379549557E+02 -0.70147979510E+03  0.70181156365E+03  0.00000000000E+00 0. -1.
</event>
<event>
 4    1  0.1593135E+006  0.4755153E+02  0.7546771E-02  0.1309152E+00
         21   -1    0    0  501  502  0.00000000000E+00  0.00000000000E+00  0.14579129082E+02  0.14579129082E+02  0.00000000000E+00 0.  1.
          2   -1    0    0  503    0 -0.00000000000E+00 -0.00000000000E+00 -0.28736243956E+03  0.28736243956E+03  0.00000000000E+00 0.  1.
         21    1    1    2  503  502  0.36894148549E+02  0.29999497236E+02 -0.33966977057E+02  0.58437176198E+02  0.00000000000E+00 0.  1.
          2    1    1    2  501    0 -0.36894148549E+02 -0.29999497236E+02 -0.23881633342E+03  0.24350439245E+03  0.00000000000E+00 0.  1.
</event>
<event>
 4    1  0.1593135E+006  0.3399099E+02  0.7546771E-02  0.1387799E+00
          1   -1    0    0  502    0 -0.00000000000E+00  0.00000000000E+00  0.12189380490E+03  0.12189380490E+03  0.00000000000E+00 0.  1.
         21   -1    0    0  503  502  0.00000000000E+00 -0.00000000000E+00 -0.12437833362E+02  0.12437833362E+02  0.00000000000E+00 0.  1.
         21    1    1    2  503  501 -0.19566665613E+02 -0.27794481371E+02  0.21966577747E+02  0.40471201315E+02  0.00000000000E+00 0.  1.
          1    1    1    2  501    0  0.19566665613E+02  0.27794481371E+02  0.87489393792E+02  0.93860436947E+02  0.00000000000E+00 0.  1.
</event>
<event>
 4    1  0.1593135E+006  0.2542012E+02  0.7546771E-02  0.1464158E+00
         21   -1    0    0  501  502  0.00000000000E+00  0.00000000000E+00  0.44597307769E+01  0.44597307769E+01  0.00000000000E+00 0.  1.
          2   -1    0    0  503    0 -0.00000000000E+00 -0.00000000000E+00 -0.14507102337E+03  0.14507102337E+03  0.00000000000E+00 0.  1.
         21    1    1    2  503  502  0.24816299438E+02 -0.55075982844E+01 -0.72927058459E+02  0.77230422841E+02  0.00000000000E+00 0.  1.
          2    1    1    2  501    0 -0.24816299438E+02  0.55075982844E+01 -0.67684234132E+02  0.72300331305E+02  0.00000000000E+00 0.  1.
</event>
<event>
 4    1  0.1593135E+006  0.4003892E+02  0.7546771E-02  0.1348258E+00
         21   -1    0    0  501  502  0.00000000000E+00  0.00000000000E+00  0.25660030250E+02  0.25660030250E+02  0.00000000000E+00 0. -1.
          2   -1    0    0  503    0 -0.00000000000E+00 -0.00000000000E+00 -0.70741752304E+02  0.70741752304E+02  0.00000000000E+00 0. -1.
         21    1    1    2  503  502  0.93391633008E+01  0.38934503166E+02 -0.39017908212E+02  0.55906284702E+02  0.00000000000E+00 0. -1.
          2    1    1    2  501    0 -0.93391633008E+01 -0.38934503166E+02 -0.60638138419E+01  0.40495497852E+02  0.00000000000E+00 0. -1.
</event>
<event>
 4    1  0.1593135E+006  0.4655903E+02  0.7546771E-02  0.1313823E+00
         -1   -1    0    0    0  501 -0.00000000000E+00  0.00000000000E+00  0.32062487450E+01  0.32062487450E+01  0.00000000000E+00 0. -1.
         21   -1    0    0  501  502  0.00000000000E+00 -0.00000000000E+00 -0.10215819349E+04  0.10215819349E+04  0.00000000000E+00 0. -1.
         21    1    1    2  503  502  0.30801627660E+02  0.34914225299E+02 -0.80716327206E+03  0.80850497288E+03  0.00000000000E+00 0. -1.
         -1    1    1    2    0  503 -0.30801627660E+02 -0.34914225299E+02 -0.21121241408E+03  0.21628321076E+03  0.00000000000E+00 0. -1.
</event>
<event>
 4    1  0.1593135E+006  0.2324197E+02  0.7546771E-02  0.1489482E+00
          3   -1    0    0  503    0 -0.00000000000E+00  0.00000000000E+00  0.41062715698E+01  0.41062715698E+01  0.00000000000E+00 0.  1.
         21   -1    0    0  501  502  0.00000000000E+00 -0.00000000000E+00 -0.28386142830E+03  0.28386142830E+03  0.00000000000E+00 0.  1.
         21    1    1    2  503  502  0.16451947203E+02  0.16417139939E+02 -0.24534630477E+03  0.24644471655E+03  0.00000000000E+00 0.  1.
          3    1    1    2  501    0 -0.16451947203E+02 -0.16417139939E+02 -0.34408851953E+02  0.41522983313E+02  0.00000000000E+00 0.  1.
</event>
<event>
 4    1  0.1593135E+006  0.2312090E+02  0.7546771E-02  0.1490986E+00
          4   -1    0    0  502    0 -0.00000000000E+00  0.00000000000E+00  0.18291042169E+02  0.18291042169E+02  0.00000000000E+00 0. -1.
         21   -1    0    0  503  502  0.00000000000E+00 -0.00000000000E+00 -0.34933936753E+03  0.34933936753E+03  0.00000000000E+00 0. -1.
         21    1    1    2  503  501 -0.22914280683E+02 -0.30840771065E+01 -0.34148236094E+03  0.34226419419E+03  0.00000000000E+00 0. -1.
          4    1    1    2  501    0  0.22914280683E+02  0.30840771065E+01  0.10434035580E+02  0.25366215510E+02  0.00000000000E+00 0. -1.
</event>
<event>
 4    1  0.1593135E+006  0.2958911E+02  0.7546771E-02  0.1423201E+00
         21   -1    0    0  501  502  0.00000000000E+00  0.00000000000E+00  0.69042488322E+01  0.69042488322E+01  0.00000000000E+00 0. -1.
          2   -1    0    0  503    0 -0.00000000000E+00 -0.00000000000E+00 -0.10721553884E+04  0.10721553884E+04  0.00000000000E+00 0. -1.
         21    1    1    2  503  502 -0.29581369352E+02  0.67690105655E+00 -0.26005668090E+02  0.39393024517E+02  0.00000000000E+00 0. -1.
          2    1    1    2  501    0  0.29581369352E+02 -0.67690105655E+00 -0.10392454715E+04  0.10396666127E+04  0.00000000000E+00 0. -1.
</event>
<event>
 4    1  0.1593135E+006  0.2609638E+02  0.7546771E-02  0.1456903E+00
         21   -1    0    0  503  502  0.00000000000E+00  0.00000000000E+00  0.11494047719E+02  0.11494047719E+02  0.00000000000E+00 0. -1.
          2   -1    0    0  502    0 -0.00000000000E+00 -0.00000000000E+00 -0.59657201048E+02  0.59657201048E+02  0.00000000000E+00 0. -1.
         21    1    1    2  503  501  0.22638419444E+02 -0.12981634495E+02 -0.27021210146E+02  0.37565498357E+02  0.00000000000E+00 0. -1.
          2    1    1    2  501    0 -0.22638419444E+02  0.12981634495E+02 -0.21141943183E+02  0.33585750410E+02  0.00000000000E+00 0. -1.
</event>
<event>
 4    1  0.1593135E+006  0.3237574E+02  0.7546771E-02  0.1400015E+00
         21   -1    0    0  503  502  0.00000000000E+00  0.00000000000E+00  0.13936751252E+02  0.13936751252E+02  0.00000000000E+00 0. -1.
         -2   -1    0    0    0  501 -0.00000000000E+00 -0.00000000000E+00 -0.75374643262E+02  0.75374643262E+02  0.00000000000E+00 0. -1.
         21    1    1    2  503  501  0.31320811693E+02  0.81972726626E+01 -0.32803526473E+02  0.46089693786E+02  0.00000000000E+00 0. -1.
         -2    1    1    2    0  502 -0.31320811693E+02 -0.81972726626E+01 -0.28634365537E+02  0.43221700729E+02  0.00000000000E+00 0. -1.
</event>
<event>
 4    1  0.1593135E+006  0.4683806E+02  0.7546771E-02  0.1312496E+00
          2   -1    0    0  502    0 -0.00000000000E+00  0.00000000000E+00  0.23259156304E+03  0.23259156304E+03  0.00000000000E+00 0.  1.
         21   -1    0    0  503  502  0.00000000000E+00 -0.00000000000E+00 -0.16155243818E+02  0.16155243818E+02  0.00000000000E+00 0.  1.
         21    1    1    2  503  501 -0.37129639384E+02  0.28551604201E+02  0.27983852303E+02  0.54560977016E+02  0.00000000000E+00 0.  1.
          2    1    1    2  501    0  0.37129639384E+02 -0.28551604201E+02  0.18845246692E+03  0.19418582984E+03  0.00000000000E+00 0.  1.
</event>
<event>
 4    1  0.1593135E+006  0.3150215E+02  0.7546771E-02  0.1406977E+00
         21   -1    0    0  501  502  0.00000000000E+00  0.00000000000E+00  0.18534166889E+03  0.18534166889E+03  0.00000000000E+00 0.  1.
          2   -1    0    0  503    0 -0.00000000000E+00 -0.00000000000E+00 -0.23583862216E+03  0.23583862216E+03  0.00000000000E+00 0.  1.
         21    1    1    2  503  502 -0.46484084987E+01 -0.31157309002E+02  0.18293737938E+03  0.18562992856E+03  0.00000000000E+00 0.  1.
          2    1    1    2  501    0  0.46484084987E+01  0.31157309002E+02 -0.23343433265E+03  0.23555036248E+03  0.00000000000E+00 0.  1.
</event>
<event>
 4    1  0.1593135E+006  0.8360274E+02  0.7546771E-02  0.1195722E+00
         21   -1    0    0  503  502  0.00000000000E+00  0.00000000000E+00  0.17169451266E+03  0.17169451266E+03  0.00000000000E+00 0. -1.
         -3   -1    0    0    0  501 -0.00000000000E+00 -0.00000000000E+00 -0.41531256973E+02  0.41531256973E+02  0.00000000000E+00 0. -1.
         21    1    1    2  503  501 -0.76231105610E+02 -0.34325462528E+02  0.80087769940E+02  0.11577335503E+03  0.00000000000E+00 0. -1.
         -3    1    1    2    0  502  0.76231105610E+02  0.34325462528E+02  0.50075485751E+02  0.97452414610E+02  0.00000000000E+00 0. -1.
</event>
<event>
 4    1  0.1593135E+006  0.5151510E+02  0.7546771E-02  0.1291734E+00
         21   -1    0    0  503  502  0.00000000000E+00  0.00000000000E+00  0.12269570948E+03  0.12269570948E+03  0.00000000000E+00 0.  1.
          3   -1    0    0  502    0 -0.00000000000E+00 -0.00000000000E+00 -0.35496051004E+02  0.35496051004E+02  0.00000000000E+00 0.  1.
         21    1    1    2  503  501  0.31972475556E+02 -0.40392653142E+02  0.93036968546E+02  0.10634699402E+03  0.00000000000E+00 0.  1.
          3    1    1    2  501    0 -0.31972475556E+02  0.40392653142E+02 -0.58373100678E+01  0.51844766466E+02  0.00000000000E+00 0.  1.
</event>
<event>
 4    1  0.1593135E+006  0.2435484E+02  0.7546771E-02  0.1476152E+00
         -3   -1    0    0    0  501 -0.00000000000E+00  0.00000000000E+00  0.10934662351E+03  0.10934662351E+03  0.00000000000E+00 0.  1.
         21   -1    0    0  503  502  0.00000000000E+00 -0.00000000000E+00 -0.57282347045E+02  0.57282347045E+02  0.00000000000E+00 0. -1.
         21    1    1    2  503  501 -0.21469128114E+02 -0.11499345553E+02 -0.53239359139E+02  0.58545604205E+02  0.00000000000E+00 0. -1.
         -3    1    1    2    0  502  0.21469128114E+02  0.11499345553E+02  0.10530363561E+03  0.10808336635E+03  0.00000000000E+00 0.  1.
</event>
<event>
 4    1  0.1593135E+006  0.3276200E+02  0.7546771E-02  0.1397019E+00
         21   -1    0    0  503  502  0.00000000000E+00  0.00000000000E+00  0.61233338500E+02  0.61233338500E+02  0.00000000000E+00 0. -1.
          3   -1    0    0  502    0 -0.00000000000E+00 -0.00000000000E+00 -0.49345326821E+02  0.49345326821E+02  0.00000000000E+00 0. -1.
         21    1    1    2  503  501 -0.16721496793E+02 -0.28173399637E+02  0.50340072980E+02  0.60062233140E+02  0.00000000000E+00 0. -1.
          3    1    1    2  501    0  0.16721496793E+02  0.28173399637E+02 -0.38452061300E+02  0.50516432181E+02  0.00000000000E+00 0. -1.
</event>
<event>
 4    1  0.1593135E+006  0.2405861E+02  0.7546771E-02  0.1479616E+00
         -4   -1    0    0    0  501 -0.00000000000E+00  0.00000000000E+00  0.18063152747E+02  0.18063152747E+02  0.00000000000E+00 0. -1.
         21   -1    0    0  503  502  0.00000000000E+00 -0.00000000000E+00 -0.10580280202E+03  0.10580280202E+03  0.00000000000E+00 0. -1.
         21    1    1    2  503  501 -0.11507630430E+02 -0.21127965669E+02 -0.95580494885E+02  0.98561896765E+02  0.00000000000E+00 0. -1.
         -4    1    1    2    0  502  0.11507630430E+02  0.21127965669E+02  0.78408456131E+01  0.25304058001E+02  0.00000000000E+00 0. -1.
</event>
<event>
 4    1  0.1593135E+006  0.2152482E+02  0.7546771E-02  0.1511902E+00
         -3   -1    0    0    0  501 -0.00000000000E+00  0.00000000000E+00  0.89809188833E+01  0.89809188833E+01  0.00000000000E+00 0.  1.
         21   -1    0    0  503  502  0.00000000000E+00 -0.00000000000E+00 -0.63316480877E+02  0.63316480877E+02  0.00000000000E+00 0. -1.
         21    1    1    2  503  501  0.11430735438E+02 -0.18238862523E+02 -0.42725080107E+02  0.47840885118E+02  0.00000000000E+00 0. -1.
         -3    1    1    2    0  502 -0.11430735438E+02  0.18238862523E+02 -0.11610481887E+02  0.24456514642E+02  0.00000000000E+00 0.  1.
</event>
<event>
 4    1  0.1593135E+006  0.3154820E+02  0.7546771E-02  0.1406603E+00
         21   -1    0    0  503  502  0.00000000000E+00  0.00000000000E+00  0.77165570581E+02  0.77165570581E+02  0.00000000000E+00 0.  1.
         -1   -1    0    0    0  501 -0.00000000000E+00 -0.00000000000E+00 -0.79538990848E+02  0.79538990848E+02  0.00000000000E+00 0. -1.
         21    1    1    2  503  501  0.20359481295E+02 -0.24099382164E+02  0.70531926400E+02  0.77266042612E+02  0.00000000000E+00 0.  1.
         -1    1    1    2    0  502 -0.20359481295E+02  0.24099382164E+02 -0.72905346667E+02  0.79438518817E+02  0.00000000000E+00 0. -1.
</event>
<event>
 4    1  0.1593135E+006  0.2004693E+02  0.7546771E-02  0.1533319E+00
          2   -1    0    0  503    0 -0.00000000000E+00  0.00000000000E+00  0.63598496808E+03  0.63598496808E+03  0.00000000000E+00 0. -1.
         21   -1    0    0  501  502  0.00000000000E+00 -0.00000000000E+00 -0.82611204882E+00  0.82611204882E+00  0.00000000000E+00 0. -1.
         21    1    1    2  503  502  0.20031058805E+02 -0.79760237834E+00  0.47196197220E+03  0.47238753444E+03  0.00000000000E+00 0. -1.
          2    1    1    2  501    0 -0.20031058805E+02  0.79760237834E+00  0.16319688383E+03  0.16442354569E+03  0.00000000000E+00 0. -1.
</event>
<event>
 4    1  0.1593135E+006  0.2252569E+02  0.7546771E-02  0.1498542E+00
         -2   -1    0    0    0  501 -0.00000000000E+00  0.00000000000E+00  0.18327215338E+02  0.18327215338E+02  0.00000000000E+00 0. -1.
         21   -1    0    0  503  502  0.00000000000E+00 -0.00000000000E+00 -0.77282298640E+02  0.77282298640E+02  0.00000000000E+00 0. -1.
         21    1    1    2  503  501 -0.14862835995E+02  0.16926391766E+02 -0.67773759790E+02  0.71419109124E+02  0.00000000000E+00 0. -1.
         -2    1    1    2    0  502  0.14862835995E+02 -0.16926391766E+02  0.88186764874E+01  0.24190404854E+02  0.00000000000E+00 0. -1.
</event>
<event>
 4    1  0.1593135E+006  0.2340027E+02  0.7546771E-02  0.1487532E+00
         21   -1    0    0  503  502  0.00000000000E+00  0.00000000000E+00  0.69750138450E+01  0.69750138450E+01  0.00000000000E+00 0. -1.
         -1   -1    0    0    0  501 -0.00000000000E+00 -0.00000000000E+00 -0.15787324077E+03  0.15787324077E+03  0.00000000000E+00 0. -1.
         21    1    1    2  503  501  0.20379110767E+02 -0.11500619439E+02 -0.17007272527E+02  0.28927836455E+02  0.00000000000E+00 0. -1.
         -1    1    1    2    0  502 -0.20379110767E+02  0.11500619439E+02 -0.13389095439E+03  0.13592041816E+03  0.00000000000E+00 0. -1.
</event>
<event>
 4    1  0.1593135E+006  0.2108989E+02  0.7546771E-02  0.1517985E+00
         21   -1    0    0  503  502  0.00000000000E+00  0.00000000000E+00  0.14943057194E+02  0.14943057194E+02  0.00000000000E+00 0.  1.
          2   -1    0    0  502    0 -0.00000000000E+00 -0.00000000000E+00 -0.29777698040E+02  0.29777698040E+02  0.00000000000E+00 0. -1.
         21    1    1    2  503  501  0.83065226304E+01 -0.19385176012E+02 -0.78750692883E+01  0.22512220760E+02  0.00000000000E+00 0.  1.
          2    1    1    2  501    0 -0.83065226304E+01  0.19385176012E+02 -0.69595715575E+01  0.22208534474E+02  0.00000000000E+00 0. -1.
</event>
<event>
 4    1  0.1593135E+006  0.2395545E+02  0.7546771E-02  0.1480837E+00
         21   -1    0    0  501  502  0.00000000000E+00  0.00000000000E+00  0.75936850616E+02  0.75936850616E+02  0.00000000000E+00 0. -1.
          3   -1    0    0  503    0 -0.00000000000E+00 -0.00000000000E+00 -0.14773820928E+02  0.14773820928E+02  0.00000000000E+00 0. -1.
         21    1    1    2  503  502  0.12122591126E+02 -0.20661707044E+02  0.62280951084E+02  0.66729155708E+02  0.00000000000E+00 0. -1.
          3    1    1    2  501    0 -0.12122591126E+02  0.20661707044E+02 -0.11179213961E+01  0.23981515837E+02  0.00000000000E+00 0. -1.
</event>
<event>
 4    1  0.1593135E+006  0.2473703E+02  0.7546771E-02  0.1471767E+00
         21   -1    0    0  501  502  0.00000000000E+00  0.00000000000E+00  0.64929071770E+00  0.64929071770E+00  0.00000000000E+00 0.  1.
          1   -1    0    0  503    0 -0.00000000000E+00 -0.00000000000E+00 -0.95836244782E+03  0.95836244782E+03  0.00000000000E+00 0. -1.
         21    1    1    2  503  502  0.22839450582E+02  0.95015749487E+01 -0.41705873269E+03  0.41779170282E+03  0.00000000000E+00 0.  1.
          1    1    1    2  501    0 -0.22839450582E+02 -0.95015749487E+01 -0.54065442441E+03  0.54122003572E+03  0.00000000000E+00 0. -1.
</event>
<event>
 4    1  0.1593135E+006  0.2358147E+02  0.7546771E-02  0.1485323E+00
         -2   -1    0    0    0  501 -0.00000000000E+00  0.00000000000E+00  0.64777706554E+02  0.64777706554E+02  0.00000000000E+00 0. -1.
         21   -1    0    0  503  502  0.00000000000E+00 -0.00000000000E+00 -0.10397090364E+02  0.10397090364E+02  0.00000000000E+00 0. -1.
         21    1    1    2  503  501 -0.11726498389E+02  0.20459101937E+02  0.42884306813E+02  0.48940263458E+02  0.00000000000E+00 0. -1.
         -2    1    1    2    0  502  0.11726498389E+02 -0.20459101937E+02  0.11496309377E+02  0.26234533459E+02  0.00000000000E+00 0. -1.
</event>
<event>
 4    1  0.1593135E+006  0.2067083E+02  0.7546771E-02  0.1524017E+00
          3   -1    0    0  503    0 -0.00000000000E+00  0.00000000000E+00  0.47136046549E+00  0.47136046549E+00  0.00000000000E+00 0. -1.
         21   -1    0    0  501  502  0.00000000000E+00 -0.00000000000E+00 -0.93962875318E+03  0.93962875318E+03  0.00000000000E+00 0. -1.
         21    1    1    2  503  502 -0.66910463483E+01  0.19557946597E+02 -0.55785343372E+03  0.55823627335E+03  0.00000000000E+00 0. -1.
          3    1    1    2  501    0  0.66910463483E+01 -0.19557946597E+02 -0.38130395900E+03  0.38186384029E+03  0.00000000000E+00 0. -1.
</event>
<event>
 4    1  0.1593135E+006  0.2429522E+02  0.7546771E-02  0.1476844E+00
         21   -1    0    0  503  502  0.00000000000E+00  0.00000000000E+00  0.33880540336E+02  0.33880540336E+02  0.00000000000E+00 0.  1.
         -2   -1    0    0    0  501 -0.00000000000E+00 -0.00000000000E+00 -0.50815810223E+02  0.50815810223E+02  0.00000000000E+00 0. -1.
         21    1    1    2  503  501  0.22362176596E+02 -0.94968848263E+01  0.25862063725E+02  0.35483856944E+02  0.00000000000E+00 0.  1.
         -2    1    1    2    0  502 -0.22362176596E+02  0.94968848263E+01 -0.42797333612E+02  0.49212493615E+02  0.00000000000E+00 0. -1.
</event>
<event>
 4    1  0.1593135E+006  0.2444236E+02  0.7546771E-02  0.1475139E+00
          2   -1    0    0  503    0 -0.00000000000E+00  0.00000000000E+00  0.80765694155E+03  0.80765694155E+03  0.00000000000E+00 0. -1.
         21   -1    0    0  501  502  0.00000000000E+00 -0.00000000000E+00 -0.10659977512E+01  0.10659977512E+01  0.00000000000E+00 0. -1.
         21    1    1    2  503  502 -0.68178319422E+01 -0.23472245367E+02  0.17958088666E+03  0.18123665189E+03  0.00000000000E+00 0. -1.
          2    1    1    2  501    0  0.68178319422E+01  0.23472245367E+02  0.62701005714E+03  0.62748628741E+03  0.00000000000E+00 0. -1.
</event>
<event>
 4    1  0.1593135E+006  0.2117255E+02  0.7546771E-02  0.1516815E+00
         21   -1    0    0  503  502  0.00000000000E+00  0.00000000000E+00  0.12053543533E+03  0.12053543533E+03  0.00000000000E+00 0.  1.
         -4   -1    0    0    0  501 -0.00000000000E+00 -0.00000000000E+00 -0.18341308609E+02  0.18341308609E+02  0.00000000000E+00 0.  1.
         21    1    1    2  503  501  0.14640637334E+02  0.15294723713E+02  0.11309705911E+03  0.11506181649E+03  0.00000000000E+00 0.  1.
         -4    1    1    2    0  502 -0.14640637334E+02 -0.15294723713E+02 -0.10902932384E+02  0.23814927453E+02  0.00000000000E+00 0.  1.
</event>
<event>
 4    1  0.1593135E+006  0.2562821E+02  0.7546771E-02  0.1461897E+00
         21   -1    0    0  501  502  0.00000000000E+00  0.00000000000E+00  0.30326212512E+01  0.30326212512E+01  0.00000000000E+00 0.  1.
          4   -1    0    0  503    0 -0.00000000000E+00 -0.00000000000E+00 -0.25864205587E+03  0.25864205587E+03  0.00000000000E+00 0. -1.
         21    1    1    2  503  502  0.11478599524E+02 -0.22913906642E+02 -0.75042025382E+02  0.79297609914E+02  0.00000000000E+00 0.  1.
          4    1    1    2  501    0 -0.11478599524E+02  0.22913906642E+02 -0.18056740923E+03  0.18237706720E+03  0.00000000000E+00 0. -1.
</event>
<event>
 4    1  0.1593135E+006  0.2421621E+02  0.7546771E-02  0.1477766E+00
          1   -1    0    0  503    0 -0.00000000000E+00  0.00000000000E+00  0.29923137977E+03  0.29923137977E+03  0.00000000000E+00 0. -1.
         21   -1    0    0  501  502  0.00000000000E+00 -0.00000000000E+00 -0.25971316547E+02  0.25971316547E+02  0.00000000000E+00 0. -1.
         21    1    1    2  503  502 -0.23814903606E+02 -0.43903318051E+01 -0.19716131221E+02  0.31227399467E+02  0.00000000000E+00 0. -1.
          1    1    1    2  501    0  0.23814903606E+02  0.43903318051E+01  0.29297619444E+03  0.29397529685E+03  0.00000000000E+00 0. -1.
</event>
<event>
 4    1  0.1593135E+006  0.2665580E+02  0.7546771E-02  0.1451097E+00
          1   -1    0    0  503    0 -0.00000000000E+00  0.00000000000E+00  0.82322042311E+02  0.82322042311E+02  0.00000000000E+00 0. -1.
         21   -1    0    0  501  502  0.00000000000E+00 -0.00000000000E+00 -0.86460877436E+01  0.86460877436E+01  0.00000000000E+00 0. -1.
         21    1    1    2  503  502  0.17411643004E+02  0.20183318690E+02  0.34945697324E+02  0.43951489473E+02  0.00000000000E+00 0. -1.
          1    1    1    2  501    0 -0.17411643004E+02 -0.20183318690E+02  0.38730257244E+02  0.47016640582E+02  0.00000000000E+00 0. -1.
</event>
<event>
 4    1  0.1593135E+006  0.2598642E+02  0.7546771E-02  0.1458064E+00
          2   -1    0    0  502    0 -0.00000000000E+00  0.00000000000E+00  0.14427453833E+04  0.14427453833E+04  0.00000000000E+00 0.  1.
         21   -1    0    0  503  502  0.00000000000E+00 -0.00000000000E+00 -0.95798414194E+00  0.95798414194E+00  0.00000000000E+00 0.  1.
         21    1    1    2  503  501 -0.25795612305E+02  0.31432852844E+01  0.20467648786E+03  0.20631955442E+03  0.00000000000E+00 0.  1.
          2    1    1    2  501    0  0.25795612305E+02 -0.31432852844E+01  0.12371109113E+04  0.12373838130E+04  0.00000000000E+00 0.  1.
</event>
<event>
 4    1  0.1593135E+006  0.2150619E+02  0.7546771E-02  0.1512159E+00
         21   -1    0    0  501  502  0.00000000000E+00  0.00000000000E+00  0.13520110064E+02  0.13520110064E+02  0.00000000000E+00 0. -1.
          2   -1    0    0  503    0 -0.00000000000E+00 -0.00000000000E+00 -0.61914651812E+02  0.61914651812E+02  0.00000000000E+00 0.  1.
         21    1    1    2  503  502  0.21504951106E+02 -0.23046935109E+00  0.10331894728E+01  0.21530989728E+02  0.00000000000E+00 0. -1.
          2    1    1    2  501    0 -0.21504951106E+02  0.23046935109E+00 -0.49427731220E+02  0.53903772148E+02  0.00000000000E+00 0.  1.
</event>
<event>
 4    1  0.1593135E+006  0.2020726E+02  0.7546771E-02  0.1530891E+00
          2   -1    0    0  502    0 -0.00000000000E+00  0.00000000000E+00  0.34627450037E+03  0.34627450037E+03  0.00000000000E+00 0.  1.
         21   -1    0    0  503  502  0.00000000000E+00 -0.00000000000E+00 -0.64123971881E+01  0.64123971881E+01  0.00000000000E+00 0.  1.
         21    1    1    2  503  501 -0.19978388315E+02 -0.30327301549E+01  0.10625142201E+02  0.22830398565E+02  0.00000000000E+00 0.  1.
          2    1    1    2  501    0  0.19978388315E+02  0.30327301549E+01  0.32923696098E+03  0.32985649899E+03  0.00000000000E+00 0.  1.
</event>
<event>
 4    1  0.1593135E+006  0.2470719E+02  0.7546771E-02  0.1472106E+00
          3   -1    0    0  503    0 -0.00000000000E+00  0.00000000000E+00  0.18776436316E+03  0.18776436316E+03  0.00000000000E+00 0. -1.
         21   -1    0    0  501  502  0.00000000000E+00 -0.00000000000E+00 -0.45863412003E+01  0.45863412003E+01  0.00000000000E+00 0. -1.
         21    1    1    2  503  502 -0.16802668959E+02 -0.18113964091E+02  0.39696291299E+02  0.46757255289E+02  0.00000000000E+00 0. -1.
          3    1    1    2  501    0  0.16802668959E+02  0.18113964091E+02  0.14348173066E+03  0.14559344907E+03  0.00000000000E+00 0. -1.
</event>
<event>
 4    1  0.1593135E+006  0.2071762E+02  0.7546771E-02  0.1523335E+00
         21   -1    0    0  501  502  0.00000000000E+00  0.00000000000E+00  0.79690324952E+01  0.79690324952E+01  0.00000000000E+00 0.  1.
          2   -1    0    0  503    0 -0.00000000000E+00 -0.00000000000E+00 -0.14804961859E+04  0.14804961859E+04  0.00000000000E+00 0.  1.
         21    1    1    2  503  502 -0.51833486723E+01  0.20058733211E+02 -0.56941097434E+01  0.21485873667E+02  0.00000000000E+00 0.  1.
          2    1    1    2  501    0  0.51833486723E+01 -0.20058733211E+02 -0.14668330437E+04  0.14669793447E+04  0.00000000000E+00 0.  1.
</event>
<event>
 4    1  0.1593135E+006  0.2825243E+02  0.7546771E-02  0.1435417E+00
         -1   -1    0    0    0  501 -0.00000000000E+00  0.00000000000E+00  0.61769991374E+01  0.61769991374E+01  0.00000000000E+00 0. -1.
         21   -1    0    0  503  502  0.00000000000E+00 -0.00000000000E+00 -0.13638904585E+03  0.13638904585E+03  0.00000000000E+00 0.  1.
         21    1    1    2  503  501 -0.18703221342E+02 -0.21175204788E+02 -0.81447376441E+02  0.86208322774E+02  0.00000000000E+00 0.  1.
         -1    1    1    2    0  502  0.18703221342E+02  0.21175204788E+02 -0.48764670273E+02  0.56357722215E+02  0.00000000000E+00 0. -1.
</event>
<event>
 4    1  0.1593135E+006  0.2703902E+02  0.7546771E-02  0.1447217E+00
         21   -1    0    0  503  502  0.00000000000E+00  0.00000000000E+00  0.18108154477E+02  0.18108154477E+02  0.00000000000E+00 0. -1.
          1   -1    0    0  502    0 -0.00000000000E+00 -0.00000000000E+00 -0.31395467290E+03  0.31395467290E+03  0.00000000000E+00 0. -1.
         21    1    1    2  503  501 -0.26517296384E+02  0.52859976964E+01  0.70650897177E+01  0.27946811480E+02  0.00000000000E+00 0. -1.
          1    1    1    2  501    0  0.26517296384E+02 -0.52859976964E+01 -0.30291160814E+03  0.30411601590E+03  0.00000000000E+00 0. -1.
</event>
<event>
 4    1  0.1593135E+006  0.2650670E+02  0.7546771E-02  0.1452627E+00
         -3   -1    0    0    0  501 -0.00000000000E+00  0.00000000000E+00  0.18053772507E+02  0.18053772507E+02  0.00000000000E+00 0. -1.
         21   -1    0    0  503  502  0.00000000000E+00 -0.00000000000E+00 -0.70700181892E+02  0.70700181892E+02  0.00000000000E+00 0.  1.
         21    1    1    2  503  501  0.17253045798E+02 -0.20123064486E+02 -0.56077085658E+02  0.62026162621E+02  0.00000000000E+00 0.  1.
         -3    1    1    2    0  502 -0.17253045798E+02  0.20123064486E+02  0.34306762734E+01  0.26727791778E+02  0.00000000000E+00 0. -1.
</event>
<event>
 4    1  0.1593135E+006  0.2110775E+02  0.7546771E-02  0.1517732E+00
         21   -1    0    0  501  502  0.00000000000E+00  0.00000000000E+00  0.23142957888E+02  0.23142957888E+02  0.00000000000E+00 0.  1.
          1   -1    0    0  503    0 -0.00000000000E+00 -0.00000000000E+00 -0.30916579693E+03  0.30916579693E+03  0.00000000000E+00 0. -1.
         21    1    1    2  503  502 -0.19210152572E+02  0.87468408054E+01  0.17886661973E+02  0.27667126025E+02  0.00000000000E+00 0.  1.
          1    1    1    2  501    0  0.19210152572E+02 -0.87468408054E+01 -0.30390950102E+03  0.30464162879E+03  0.00000000000E+00 0. -1.
</event>
<event>
 4    1  0.1593135E+006  0.2891128E+02  0.7546771E-02  0.1429299E+00
          1   -1    0    0  503    0 -0.00000000000E+00  0.00000000000E+00  0.46977020406E+01  0.46977020406E+01  0.00000000000E+00 0.  1.
         21   -1    0    0  501  502  0.00000000000E+00 -0.00000000000E+00 -0.39663494444E+03  0.39663494444E+03  0.00000000000E+00 0. -1.
         21    1    1    2  503  502 -0.20539488009E+02  0.20346777008E+02 -0.34497619863E+03  0.34618555649E+03  0.00000000000E+00 0. -1.
          1    1    1    2  501    0  0.20539488009E+02 -0.20346777008E+02 -0.46961043768E+02  0.55147089988E+02  0.00000000000E+00 0.  1.
</event>
<event>
 4    1  0.1593135E+006  0.4584099E+02  0.7546771E-02  0.1317287E+00
         -3   -1    0    0    0  501 -0.00000000000E+00  0.00000000000E+00  0.87731628738E+02  0.87731628738E+02  0.00000000000E+00 0. -1.
         21   -1    0    0  503  502  0.00000000000E+00 -0.00000000000E+00 -0.34789627394E+03  0.34789627394E+03  0.00000000000E+00 0. -1.
         21    1    1    2  503  501  0.25892389825E+02 -0.37828305354E+02 -0.34026435523E+03  0.34333835786E+03  0.00000000000E+00 0. -1.
         -3    1    1    2    0  502 -0.25892389825E+02  0.37828305354E+02  0.80099710027E+02  0.92289544820E+02  0.00000000000E+00 0. -1.
</event>
<event>
 4    1  0.1593135E+006  0.2884375E+02  0.7546771E-02  0.1429917E+00
         -2   -1    0    0    0  501 -0.00000000000E+00  0.00000000000E+00  0.20371823250E+02  0.20371823250E+02  0.00000000000E+00 0.  1.
         21   -1    0    0  501  502  0.00000000000E+00 -0.00000000000E+00 -0.14350325476E+03  0.14350325476E+03  0.00000000000E+00 0. -1.
         21    1    1    2  503  502  0.72816582243E-01 -0.28843660258E+02 -0.13087030048E+03  0.13401118456E+03  0.00000000000E+00 0. -1.
         -2    1    1    2    0  503 -0.72816582243E-01  0.28843660258E+02  0.77388689667E+01  0.29863893454E+02  0.00000000000E+00 0.  1.
</event>
<event>
 4    1  0.1593135E+006  0.6583769E+02  0.7546771E-02  0.1241192E+00
         21   -1    0    0  503  502  0.00000000000E+00  0.00000000000E+00  0.15513656663E+02  0.15513656663E+02  0.00000000000E+00 0. -1.
         -1   -1    0    0    0  501 -0.00000000000E+00 -0.00000000000E+00 -0.46704159390E+03  0.46704159390E+03  0.00000000000E+00 0.  1.
         21    1    1    2  503  501 -0.64151314874E+02  0.14805766223E+02 -0.72832311924E+02  0.98179160588E+02  0.00000000000E+00 0. -1.
         -1    1    1    2    0  502  0.64151314874E+02 -0.14805766223E+02 -0.37869562531E+03  0.38437608997E+03  0.00000000000E+00 0.  1.
</event>
<event>
 4    1  0.1593135E+006  0.2088953E+02  0.7546771E-02  0.1520848E+00
          2   -1    0    0  503    0 -0.00000000000E+00  0.00000000000E+00  0.45954787240E+02  0.45954787240E+02  0.00000000000E+00 0.  1.
         21   -1    0    0  501  502  0.00000000000E+00 -0.00000000000E+00 -0.98013225015E+01  0.98013225015E+01  0.00000000000E+00 0.  1.
         21    1    1    2  503  502 -0.41523648788E+01  0.20472672925E+02  0.22999609698E+02  0.31070154764E+02  0.00000000000E+00 0.  1.
          2    1    1    2  501    0  0.41523648788E+01 -0.20472672925E+02  0.13153855041E+02  0.24685954978E+02  0.00000000000E+00 0.  1.
</event>
<event>
 4    1  0.1593135E+006  0.2346503E+02  0.7546771E-02  0.1486740E+00
         21   -1    0    0  503  502  0.00000000000E+00  0.00000000000E+00  0.11170624297E+02  0.11170624297E+02  0.00000000000E+00 0.  1.
         -2   -1    0    0    0  501 -0.00000000000E+00 -0.00000000000E+00 -0.13984605885E+03  0.13984605885E+03  0.00000000000E+00 0. -1.
         21    1    1    2  503  501 -0.16752635252E+01 -0.23405147794E+02 -0.35764268948E+01  0.23736012312E+02  0.00000000000E+00 0.  1.
         -2    1    1    2    0  502  0.16752635252E+01  0.23405147794E+02 -0.12509900765E+03  0.12728067083E+03  0.00000000000E+00 0. -1.
</event>
<event>
 4    1  0.1593135E+006  0.2769571E+02  0.7546771E-02  0.1440742E+00
         21   -1    0    0  503  502  0.00000000000E+00  0.00000000000E+00  0.20712370913E+02  0.20712370913E+02  0.00000000000E+00 0. -1.
         -1   -1    0    0    0  501 -0.00000000000E+00 -0.00000000000E+00 -0.28570750563E+03  0.28570750563E+03  0.00000000000E+00 0. -1.
         21    1    1    2  503  501 -0.99732926426E+01  0.25837681311E+02  0.10438317988E+02  0.29597480030E+02  0.00000000000E+00 0. -1.
         -1    1    1    2    0  502  0.99732926426E+01 -0.25837681311E+02 -0.27543345270E+03  0.27682239651E+03  0.00000000000E+00 0. -1.
</event>
<event>
 4    1  0.1593135E+006  0.2618831E+02  0.7546771E-02  0.1455937E+00
         21   -1    0    0  501  502  0.00000000000E+00  0.00000000000E+00  0.28345813668E+02  0.28345813668E+02  0.00000000000E+00 0. -1.
          2   -1    0    0  503    0 -0.00000000000E+00 -0.00000000000E+00 -0.18216855171E+04  0.18216855171E+04  0.00000000000E+00 0.  1.
         21    1    1    2  503  502 -0.17917226455E+02  0.19099752363E+02  0.22182405123E+02  0.34320353163E+02  0.00000000000E+00 0. -1.
          2    1    1    2  501    0  0.17917226455E+02 -0.19099752363E+02 -0.18155221085E+04  0.18157109776E+04  0.00000000000E+00 0.  1.
</event>
<event>
 4    1  0.1593135E+006  0.2152403E+02  0.7546771E-02  0.1511913E+00
         21   -1    0    0  501  502  0.00000000000E+00  0.00000000000E+00  0.10075730200E+03  0.10075730200E+03  0.00000000000E+00 0.  1.
         -1   -1    0    0    0  501 -0.00000000000E+00 -0.00000000000E+00 -0.30838406325E+02  0.30838406325E+02  0.00000000000E+00 0. -1.
         21    1    1    2  503  502 -0.14908003890E+02 -0.15525310581E+02  0.95654166031E+02  0.98045924585E+02  0.00000000000E+00 0.  1.
         -1    1    1    2    0  503  0.14908003890E+02  0.15525310581E+02 -0.25735270357E+02  0.33549783739E+02  0.00000000000E+00 0. -1.
</event>
<event>
 4    1  0.1593135E+006  0.4208895E+02  0.7546771E-02  0.1336661E+00
         21   -1    0    0  501  502  0.00000000000E+00  0.00000000000E+00  0.18769053444E+03  0.18769053444E+03  0.00000000000E+00 0.  1.
          4   -1    0    0  503    0 -0.00000000000E+00 -0.00000000000E+00 -0.21081173464E+02  0.21081173464E+02  0.00000000000E+00 0.  1.
         21    1    1    2  503  502 -0.18864086182E+02  0.37624803386E+02  0.16088013802E+03  0.16629461322E+03  0.00000000000E+00 0.  1.
          4    1    1    2  501    0  0.18864086182E+02 -0.37624803386E+02  0.57292229624E+01  0.42477094688E+02  0.00000000000E+00 0.  1.
</event>
<event>
 4    1  0.1593135E+006  0.2748467E+02  0.7546771E-02  0.1442799E+00
         21   -1    0    0  501  502  0.00000000000E+00  0.00000000000E+00  0.72459108917E+02  0.72459108917E+02  0.00000000000E+00 0.  1.
          2   -1    0    0  503    0 -0.00000000000E+00 -0.00000000000E+00 -0.15798945506E+02  0.15798945506E+02  0.00000000000E+00 0.  1.
         21    1    1    2  503  502  0.63974014302E+01 -0.26729768668E+02  0.54066326782E+02  0.60651256952E+02  0.00000000000E+00 0.  1.
          2    1    1    2  501    0 -0.63974014302E+01  0.26729768668E+02  0.25938366288E+01  0.27606797471E+02  0.00000000000E+00 0.  1.
</event>
<event>
 4    1  0.1593135E+006  0.2046693E+02  0.7546771E-02  0.1527014E+00
         21   -1    0    0  503  502  0.00000000000E+00  0.00000000000E+00  0.94980782858E+01  0.94980782858E+01  0.00000000000E+00 0. -1.
         -1   -1    0    0    0  501 -0.00000000000E+00 -0.00000000000E+00 -0.61783017789E+03  0.61783017789E+03  0.00000000000E+00 0.  1.
         21    1    1    2  503  501  0.96469269569E+01 -0.18050818311E+02 -0.19044705568E+01  0.20555346008E+02  0.00000000000E+00 0. -1.
         -1    1    1    2    0  502 -0.96469269569E+01  0.18050818311E+02 -0.60642762904E+03  0.60677291016E+03  0.00000000000E+00 0.  1.
</event>
<event>
 4    1  0.1593135E+006  0.2148022E+02  0.7546771E-02  0.1512518E+00
         -4   -1    0    0    0  501 -0.00000000000E+00  0.00000000000E+00  0.94449164813E+01  0.94449164813E+01  0.00000000000E+00 0.  1.
         21   -1    0    0  501  502  0.00000000000E+00 -0.00000000000E+00 -0.11934581153E+03  0.11934581153E+03  0.00000000000E+00 0. -1.
         21    1    1    2  503  502  0.15230385915E+02 -0.15147122833E+02 -0.10444159359E+03  0.10662760644E+03  0.00000000000E+00 0. -1.
         -4    1    1    2    0  503 -0.15230385915E+02  0.15147122833E+02 -0.54593014655E+01  0.22163121570E+02  0.00000000000E+00 0.  1.
</event>
<event>
 4    1  0.1593135E+006  0.2435318E+02  0.7546771E-02  0.1476171E+00
         -2   -1    0    0    0  501 -0.00000000000E+00  0.00000000000E+00  0.52669080349E+02  0.52669080349E+02  0.00000000000E+00 0. -1.
         21   -1    0    0  503  502  0.00000000000E+00 -0.00000000000E+00 -0.13406703913E+02  0.13406703913E+02  0.00000000000E+00 0. -1.
         21    1    1    2  503  501  0.23909014990E+02 -0.46299446209E+01  0.64123836829E+01  0.25183249383E+02  0.00000000000E+00 0. -1.
         -2    1    1    2    0  502 -0.23909014990E+02  0.46299446209E+01  0.32849992753E+02  0.40892534879E+02  0.00000000000E+00 0. -1.
</event>
<event>
 4    1  0.1593135E+006  0.2242136E+02  0.7546771E-02  0.1499895E+00
          2   -1    0    0  502    0 -0.00000000000E+00  0.00000000000E+00  0.12463552472E+04  0.12463552472E+04  0.00000000000E+00 0. -1.
         21   -1    0    0  503  502  0.00000000000E+00 -0.00000000000E+00 -0.82115788714E+01  0.82115788714E+01  0.00000000000E+00 0.  1.
         21    1    1    2  503  501 -0.18768273998E+02  0.12266589279E+02  0.73883725837E+01  0.23607316045E+02  0.00000000000E+00 0.  1.
          2    1    1    2  501    0  0.18768273998E+02 -0.12266589279E+02  0.12307552958E+04  0.12309595101E+04  0.00000000000E+00 0. -1.
</event>
<event>
 4    1  0.1593135E+006  0.2079151E+02  0.7546771E-02  0.1522263E+00
         21   -1    0    0  503  502  0.00000000000E+00  0.00000000000E+00  0.17691618378E+01  0.17691618378E+01  0.00000000000E+00 0.  1.
          2   -1    0    0  502    0 -0.00000000000E+00 -0.00000000000E+00 -0.10002851838E+04  0.10002851838E+04  0.00000000000E+00 0.  1.
         21    1    1    2  503  501 -0.20721703327E+02  0.17022968621E+01 -0.63703091725E+02  0.67010228313E+02  0.00000000000E+00 0.  1.
          2    1    1    2  501    0  0.20721703327E+02 -0.17022968621E+01 -0.93481293021E+03  0.93504411729E+03  0.00000000000E+00 0.  1.
</event>
<event>
 4    1  0.1593135E+006  0.2094548E+02  0.7546771E-02  0.1520045E+00
         21   -1    0    0  501  502  0.00000000000E+00  0.00000000000E+00  0.11554215872E+01  0.11554215872E+01  0.00000000000E+00 0.  1.
         -1   -1    0    0    0  501 -0.00000000000E+00 -0.00000000000E+00 -0.59025177492E+03  0.59025177492E+03  0.00000000000E+00 0.  1.
         21    1    1    2  503  502 -0.20336874446E+02 -0.50124716338E+01 -0.11793722599E+03  0.11978273085E+03  0.00000000000E+00 0.  1.
         -1    1    1    2    0  503  0.20336874446E+02  0.50124716338E+01 -0.47115912734E+03  0.47162446566E+03  0.00000000000E+00 0.  1.
</event>
<event>
 4    1  0.1593135E+006  0.2283404E+02  0.7546771E-02  0.1494593E+00
          1   -1    0    0  502    0 -0.00000000000E+00  0.00000000000E+00  0.15977302955E+03  0.15977302955E+03  0.00000000000E+00 0.  1.
         21   -1    0    0  503  502  0.00000000000E+00 -0.00000000000E+00 -0.35657543727E+01  0.35657543727E+01  0.00000000000E+00 0. -1.
         21    1    1    2  503  501  0.15158345405E+02  0.17076831115E+02  0.54319611519E+02  0.58923796483E+02  0.00000000000E+00 0. -1.
          1    1    1    2  501    0 -0.15158345405E+02 -0.17076831115E+02  0.10188766366E+03  0.10441498744E+03  0.00000000000E+00 0.  1.
</event>
<event>
 4    1  0.1593135E+006  0.3167649E+02  0.7546771E-02  0.1405566E+00
         21   -1    0    0  503  502  0.00000000000E+00  0.00000000000E+00  0.28082135713E+03  0.28082135713E+03  0.00000000000E+00 0. -1.
         -3   -1    0    0    0  501 -0.00000000000E+00 -0.00000000000E+00 -0.52291161663E+01  0.52291161663E+01  0.00000000000E+00 0.  1.
         21    1    1    2  503  501  0.23322691634E+02  0.21434836891E+02  0.21828428737E+03  0.22057069227E+03  0.00000000000E+00 0. -1.
         -3    1    1    2    0  502 -0.23322691634E+02 -0.21434836891E+02  0.57307953592E+02  0.65479781021E+02  0.00000000000E+00 0.  1.
</event>
<event>
 4    1  0.1593135E+006  0.2762894E+02  0.7546771E-02  0.1441391E+00
         21   -1    0    0  501  502  0.00000000000E+00  0.00000000000E+00  0.17170629079E+03  0.17170629079E+03  0.00000000000E+00 0. -1.
          2   -1    0    0  503    0 -0.00000000000E+00 -0.00000000000E+00 -0.12510899739E+03  0.12510899739E+03  0.00000000000E+00 0.  1.
         21    1    1    2  503  502 -0.16694457080E+02  0.22014843181E+02  0.16904562393E+03  0.17128859036E+03  0.00000000000E+00 0. -1.
          2    1    1    2  501    0  0.16694457080E+02 -0.22014843181E+02 -0.12244833052E+03  0.12552669782E+03  0.00000000000E+00 0.  1.
</event>
<event>
 4    1  0.1593135E+006  0.2178583E+02  0.7546771E-02  0.1508334E+00
         21   -1    0    0  501  502  0.00000000000E+00  0.00000000000E+00  0.85850357341E+01  0.85850357341E+01  0.00000000000E+00 0.  1.
          1   -1    0    0  503    0 -0.00000000000E+00 -0.00000000000E+00 -0.17563522131E+03  0.17563522131E+03  0.00000000000E+00 0. -1.
         21    1    1    2  503  502  0.19888025805E+02 -0.88931985658E+01 -0.72776521837E+01  0.22969257116E+02  0.00000000000E+00 0.  1.
          1    1    1    2  501    0 -0.19888025805E+02  0.88931985658E+01 -0.15977253339E+03  0.16125099992E+03  0.00000000000E+00 0. -1.
</event>
<event>
 4    1  0.1593135E+006  0.3605720E+02  0.7546771E-02  0.1373279E+00
         21   -1    0    0  501  502  0.00000000000E+00  0.00000000000E+00  0.43587906869E+01  0.43587906869E+01  0.00000000000E+00 0.  1.
         -2   -1    0    0    0  501 -0.00000000000E+00 -0.00000000000E+00 -0.14820416705E+04  0.14820416705E+04  0.00000000000E+00 0.  1.
         21    1    1    2  503  502 -0.85466508832E+00  0.36047072056E+02 -0.74626664316E+02  0.82881004357E+02  0.00000000000E+00 0.  1.
         -2    1    1    2    0  503  0.85466508832E+00 -0.36047072056E+02 -0.14030562155E+04  0.14035194569E+04  0.00000000000E+00 0.  1.
</event>
<event>
 4    1  0.1593135E+006  0.4212925E+02  0.7546771E-02  0.1336441E+00
         -3   -1    0    0    0  501 -0.00000000000E+00  0.00000000000E+00  0.28248750118E+02  0.28248750118E+02  0.00000000000E+00 0. -1.
         21   -1    0    0  503  502  0.00000000000E+00 -0.00000000000E+00 -0.93914212937E+02  0.93914212937E+02  0.00000000000E+00 0. -1.
         21    1    1    2  503  501  0.30583355229E+01  0.42018094212E+02 -0.67973615154E+02  0.79970532163E+02  0.00000000000E+00 0. -1.
         -3    1    1    2    0  502 -0.30583355229E+01 -0.42018094212E+02  0.23081523351E+01  0.42192430892E+02  0.00000000000E+00 0. -1.
</event>
<event>
 4    1  0.1593135E+006  0.3554416E+02  0.7546771E-02  0.1376777E+00
          4   -1    0    0  502    0 -0.00000000000E+00  0.00000000000E+00  0.28171689605E+02  0.28171689605E+02  0.00000000000E+00 0.  1.
         21   -1    0    0  503  502  0.00000000000E+00 -0.00000000000E+00 -0.10079134499E+03  0.10079134499E+03  0.00000000000E+00 0. -1.
         21    1    1    2  503  501  0.27537631557E+02  0.22473671270E+02 -0.84350124337E+02  0.91533220897E+02  0.00000000000E+00 0. -1.
          4    1    1    2  501    0 -0.27537631557E+02 -0.22473671270E+02  0.11730468947E+02  0.37429813703E+02  0.00000000000E+00 0.  1.
</event>
<event>
 4    1  0.1593135E+006  0.2478919E+02  0.7546771E-02  0.1471176E+00
         -3   -1    0    0    0  501 -0.00000000000E+00  0.00000000000E+00  0.11904135513E+03  0.11904135513E+03  0.00000000000E+00 0. -1.
         21   -1    0    0  501  502  0.00000000000E+00 -0.00000000000E+00 -0.71960556665E+01  0.71960556665E+01  0.00000000000E+00 0.  1.
         21    1    1    2  503  502 -0.24308764189E+02 -0.48567649984E+01  0.22365826024E+02  0.33387637778E+02  0.00000000000E+00 0.  1.
         -3    1    1    2    0  503  0.24308764189E+02  0.48567649984E+01  0.89479473435E+02  0.92849773014E+02  0.00000000000E+00 0. -1.
</event>
<event>
 4    1  0.1593135E+006  0.2363452E+02  0.7546771E-02  0.1484680E+00
         21   -1    0    0  503  502  0.00000000000E+00  0.00000000000E+00  0.12009523990E+03  0.12009523990E+03  0.00000000000E+00 0. -1.
          3   -1    0    0  502    0 -0.00000000000E+00 -0.00000000000E+00 -0.75745266385E+03  0.75745266385E+03  0.00000000000E+00 0.  1.
         21    1    1    2  503  501  0.33479818896E+01  0.23396189928E+02  0.11874599281E+03  0.12107518943E+03  0.00000000000E+00 0. -1.
          3    1    1    2  501    0 -0.33479818896E+01 -0.23396189928E+02 -0.75610341675E+03  0.75647271432E+03  0.00000000000E+00 0.  1.
</event>
<event>
 4    1  0.1593135E+006  0.2130197E+02  0.7546771E-02  0.1514997E+00
          1   -1    0    0  503    0 -0.00000000000E+00  0.00000000000E+00  0.38681509247E+02  0.38681509247E+02  0.00000000000E+00 0. -1.
         21   -1    0    0  501  502  0.00000000000E+00 -0.00000000000E+00 -0.27482495919E+02  0.27482495919E+02  0.00000000000E+00 0. -1.
         21    1    1    2  503  502 -0.20803165972E+02 -0.45827955531E+01 -0.19445679894E+02  0.28842818795E+02  0.00000000000E+00 0. -1.
          1    1    1    2  501    0  0.20803165972E+02  0.45827955531E+01  0.30644693221E+02  0.37321186371E+02  0.00000000000E+00 0. -1.
</event>
<event>
 4    1  0.1593135E+006  0.2052257E+02  0.7546771E-02  0.1526192E+00
          2   -1    0    0  502    0 -0.00000000000E+00  0.00000000000E+00  0.10845505253E+04  0.10845505253E+04  0.00000000000E+00 0.  1.
         21   -1    0    0  503  502  0.00000000000E+00 -0.00000000000E+00 -0.14097941847E+01  0.14097941847E+01  0.00000000000E+00 0.  1.
         21    1    1    2  503  501  0.41209061218E+01 -0.20104577394E+02  0.79386004644E+02  0.81995814727E+02  0.00000000000E+00 0.  1.
          2    1    1    2  501    0 -0.41209061218E+01  0.20104577394E+02  0.10037547265E+04  0.10039645048E+04  0.00000000000E+00 0.  1.
</event>
<event>
 4    1  0.1593135E+006  0.2350899E+02  0.7546771E-02  0.1486204E+00
         21   -1    0    0  503  502  0.00000000000E+00  0.00000000000E+00  0.74619066948E+02  0.74619066948E+02  0.00000000000E+00 0. -1.
         -2   -1    0    0    0  501 -0.00000000000E+00 -0.00000000000E+00 -0.98497489601E+02  0.98497489601E+02  0.00000000000E+00 0. -1.
         21    1    1    2  503  501 -0.35941907731E+01  0.23232616372E+02  0.71301068066E+02  0.75076727274E+02  0.00000000000E+00 0. -1.
         -2    1    1    2    0  502  0.35941907731E+01 -0.23232616372E+02 -0.95179490719E+02  0.98039829275E+02  0.00000000000E+00 0. -1.
</event>
<event>
 4    1  0.1593135E+006  0.2597497E+02  0.7546771E-02  0.1458186E+00
          1   -1    0    0  502    0 -0.00000000000E+00  0.00000000000E+00  0.79239827017E+01  0.79239827017E+01  0.00000000000E+00 0.  1.
         21   -1    0    0  503  502  0.00000000000E+00 -0.00000000000E+00 -0.15462800438E+03  0.15462800438E+03  0.00000000000E+00 0.  1.
         21    1    1    2  503  501 -0.24405633513E+02 -0.88918144375E+01 -0.12783398683E+03  0.13044626289E+03  0.00000000000E+00 0.  1.
          1    1    1    2  501    0  0.24405633513E+02  0.88918144375E+01 -0.18870034848E+02  0.32105724199E+02  0.00000000000E+00 0.  1.
</event>
<event>
 4    1  0.1593135E+006  0.2614838E+02  0.7546771E-02  0.1456356E+00
         21   -1    0    0  501  502  0.00000000000E+00  0.00000000000E+00  0.34166189167E+03  0.34166189167E+03  0.00000000000E+00 0.  1.
          1   -1    0    0  503    0 -0.00000000000E+00 -0.00000000000E+00 -0.30414027779E+02  0.30414027779E+02  0.00000000000E+00 0.  1.
         21    1    1    2  503  502 -0.26133943198E+02  0.86882740991E+00  0.33543720122E+03  0.33645483176E+03  0.00000000000E+00 0.  1.
          1    1    1    2  501    0  0.26133943198E+02 -0.86882740991E+00 -0.24189337329E+02  0.35621087695E+02  0.00000000000E+00 0.  1.
</event>
<event>
 4    1  0.1593135E+006  0.2877325E+02  0.7546771E-02  0.1430565E+00
         21   -1    0    0  501  502  0.00000000000E+00  0.00000000000E+00  0.39147919019E+01  0.39147919019E+01  0.00000000000E+00 0. -1.
          2   -1    0    0  503    0 -0.00000000000E+00 -0.00000000000E+00 -0.10476483458E+04  0.10476483458E+04  0.00000000000E+00 0.  1.
         21    1    1    2  503  502 -0.26001792457E+02  0.12320992090E+02 -0.52140925363E+02  0.59553137237E+02  0.00000000000E+00 0. -1.
          2    1    1    2  501    0  0.26001792457E+02 -0.12320992090E+02 -0.99159262854E+03  0.99201000047E+03  0.00000000000E+00 0.  1.
</event>
<event>
 4    1  0.1593135E+006  0.2428753E+02  0.7546771E-02  0.1476934E+00
         21   -1    0    0  501  502  0.00000000000E+00  0.00000000000E+00  0.21364300879E+03  0.21364300879E+03  0.00000000000E+00 0.  1.
         -4   -1    0    0    0  501 -0.00000000000E+00 -0.00000000000E+00 -0.63865884697E+01  0.63865884697E+01  0.00000000000E+00 0.  1.
         21    1    1    2  503  502 -0.21175639795E+02 -0.11894380459E+02  0.18651808908E+03  0.18809274723E+03  0.00000000000E+00 0.  1.
         -4    1    1    2    0  503  0.21175639795E+02  0.11894380459E+02  0.20738331248E+02  0.31936850035E+02  0.00000000000E+00 0.  1.
</event>
<event>
 4    1  0.1593135E+006  0.3338327E+02  0.7546771E-02  0.1392300E+00
         21   -1    0    0  503  502  0.00000000000E+00  0.00000000000E+00  0.17923711767E+01  0.17923711767E+01  0.00000000000E+00 0.  1.
          2   -1    0    0  502    0 -0.00000000000E+00 -0.00000000000E+00 -0.94576424884E+03  0.94576424884E+03  0.00000000000E+00 0.  1.
         21    1    1    2  503  501  0.28545440121E+02  0.17308966153E+02 -0.19468429733E+03  0.19752574031E+03  0.00000000000E+00 0.  1.
          2    1    1    2  501    0 -0.28545440121E+02 -0.17308966153E+02 -0.74928758034E+03  0.75003087971E+03  0.00000000000E+00 0.  1.
</event>
<event>
 4    1  0.1593135E+006  0.3887466E+02  0.7546771E-02  0.1355209E+00
          1   -1    0    0  502    0 -0.00000000000E+00  0.00000000000E+00  0.16531061632E+04  0.16531061632E+04  0.00000000000E+00 0. -1.
         21   -1    0    0  503  502  0.00000000000E+00 -0.00000000000E+00 -0.93083992187E+00  0.93083992187E+00  0.00000000000E+00 0.  1.
         21    1    1    2  503  501 -0.19476138228E+02  0.33644007974E+02  0.71545244658E+03  0.71650781053E+03  0.00000000000E+00 0.  1.
          1    1    1    2  501    0  0.19476138228E+02 -0.33644007974E+02  0.93672287671E+03  0.93752919260E+03  0.00000000000E+00 0. -1.
</event>
<event>
 4    1  0.1593135E+006  0.2123414E+02  0.7546771E-02  0.1515948E+00
         -2   -1    0    0    0  501 -0.00000000000E+00  0.00000000000E+00  0.22095847011E+03  0.22095847011E+03  0.00000000000E+00 0.  1.
         21   -1    0    0  501  502  0.00000000000E+00 -0.00000000000E+00 -0.85346031581E+01  0.85346031581E+01  0.00000000000E+00 0. -1.
         21    1    1    2  503  502 -0.20710255505E+02  0.46876468506E+01  0.61188571236E+01  0.22098170254E+02  0.00000000000E+00 0. -1.
         -2    1    1    2    0  503  0.20710255505E+02 -0.46876468506E+01  0.20630500983E+03  0.20739490301E+03  0.00000000000E+00 0.  1.
</event>
<event>
 4    1  0.1593135E+006  0.2007834E+02  0.7546771E-02  0.1532841E+00
         -4   -1    0    0    0  501 -0.00000000000E+00  0.00000000000E+00  0.21623306525E+03  0.21623306525E+03  0.00000000000E+00 0. -1.
         21   -1    0    0  501  502  0.00000000000E+00 -0.00000000000E+00 -0.22998612407E+01  0.22998612407E+01  0.00000000000E+00 0. -1.
         21    1    1    2  503  502 -0.12273148115E+02 -0.15890552235E+02  0.59419657853E+02  0.62720296192E+02  0.00000000000E+00 0. -1.
         -4    1    1    2    0  503  0.12273148115E+02  0.15890552235E+02  0.15451354616E+03  0.15581263030E+03  0.00000000000E+00 0. -1.
</event>
<event>
 4    1  0.1593135E+006  0.2408291E+02  0.7546771E-02  0.1479330E+00
          4   -1    0    0  502    0 -0.00000000000E+00  0.00000000000E+00  0.59901582713E+01  0.59901582713E+01  0.00000000000E+00 0.  1.
         21   -1    0    0  503  502  0.00000000000E+00 -0.00000000000E+00 -0.13086672689E+03  0.13086672689E+03  0.00000000000E+00 0. -1.
         21    1    1    2  503  501  0.33351712929E+01  0.23850849414E+02 -0.97339391903E+02  0.10027434169E+03  0.00000000000E+00 0. -1.
          4    1    1    2  501    0 -0.33351712929E+01 -0.23850849414E+02 -0.27537176712E+02  0.36582543468E+02  0.00000000000E+00 0.  1.
</event>
<event>
 4    1  0.1593135E+006  0.2135888E+02  0.7546771E-02  0.1514202E+00
         21   -1    0    0  503  502  0.00000000000E+00  0.00000000000E+00  0.77665724790E+01  0.77665724790E+01  0.00000000000E+00 0. -1.
          2   -1    0    0  502    0 -0.00000000000E+00 -0.00000000000E+00 -0.22040179436E+03  0.22040179436E+03  0.00000000000E+00 0.  1.
         21    1    1    2  503  501  0.17104563176E+01  0.21290277460E+02 -0.86112665678E+01  0.23029448257E+02  0.00000000000E+00 0. -1.
          2    1    1    2  501    0 -0.17104563176E+01 -0.21290277460E+02 -0.20402395531E+03  0.20513891858E+03  0.00000000000E+00 0.  1.
</event>
<event>
 4    1  0.1593135E+006  0.2085760E+02  0.7546771E-02  0.1521308E+00
         21   -1    0    0  503  502  0.00000000000E+00  0.00000000000E+00  0.21114041157E+01  0.21114041157E+01  0.00000000000E+00 0.  1.
         -1   -1    0    0    0  501 -0.00000000000E+00 -0.00000000000E+00 -0.88566441860E+03  0.88566441860E+03  0.00000000000E+00 0.  1.
         21    1    1    2  503  501  0.96284241596E+01 -0.18502242928E+02 -0.52935264511E+02  0.56896236906E+02  0.00000000000E+00 0.  1.
         -1    1    1    2    0  502 -0.96284241596E+01  0.18502242928E+02 -0.83061774998E+03  0.83087958581E+03  0.00000000000E+00 0.  1.
</event>
<event>
 4    1  0.1593135E+006  0.2957603E+02  0.7546771E-02  0.1423317E+00
          1   -1    0    0  503    0 -0.00000000000E+00  0.00000000000E+00  0.25566905692E+03  0.25566905692E+03  0.00000000000E+00 0.  1.
         21   -1    0    0  501  502  0.00000000000E+00 -0.00000000000E+00 -0.10742125043E+02  0.10742125043E+02  0.00000000000E+00 0. -1.
         21    1    1    2  503  502  0.29556161095E+02  0.10837904660E+01  0.12498343392E+02  0.32108407746E+02  0.00000000000E+00 0. -1.
          1    1    1    2  501    0 -0.29556161095E+02 -0.10837904660E+01  0.23242858848E+03  0.23430277421E+03  0.00000000000E+00 0.  1.
</event>
<event>
 4    1  0.1593135E+006  0.2693573E+02  0.7546771E-02  0.1448255E+00
          2   -1    0    0  503    0 -0.00000000000E+00  0.00000000000E+00  0.10044663013E+04  0.10044663013E+04  0.00000000000E+00 0. -1.
         21   -1    0    0  501  502  0.00000000000E+00 -0.00000000000E+00 -0.53092464748E+02  0.53092464748E+02  0.00000000000E+00 0.  1.
         21    1    1    2  503  502  0.16947969384E+02 -0.20935606980E+02 -0.49483203501E+02  0.56339335589E+02  0.00000000000E+00 0.  1.
          2    1    1    2  501    0 -0.16947969384E+02  0.20935606980E+02  0.10008570401E+04  0.10012194305E+04  0.00000000000E+00 0. -1.
</event>
<event>
 4    1  0.1593135E+006  0.6910378E+02  0.7546771E-02  0.1231688E+00
         21   -1    0    0  501  502  0.00000000000E+00  0.00000000000E+00  0.11753281020E+02  0.11753281020E+02  0.00000000000E+00 0.  1.
          1   -1    0    0  503    0 -0.00000000000E+00 -0.00000000000E+00 -0.42640466736E+03  0.42640466736E+03  0.00000000000E+00 0.  1.
         21    1    1    2  503  502 -0.31129139845E+02 -0.61695297605E+02 -0.15975262864E+03  0.17405813813E+03  0.00000000000E+00 0.  1.
          1    1    1    2  501    0  0.31129139845E+02  0.61695297605E+02 -0.25489875770E+03  0.26409981025E+03  0.00000000000E+00 0.  1.
</event>
<event>
 4    1  0.1593135E+006  0.4091092E+02  0.7546771E-02  0.1343229E+00
         -3   -1    0    0    0  501 -0.00000000000E+00  0.00000000000E+00  0.41590169260E+03  0.41590169260E+03  0.00000000000E+00 0.  1.
         21   -1    0    0  501  502  0.00000000000E+00 -0.00000000000E+00 -0.28322949159E+02  0.28322949159E+02  0.00000000000E+00 0. -1.
         21    1    1    2  503  502  0.33776506613E+02  0.23083562729E+02 -0.11939238372E+02  0.42617469189E+02  0.00000000000E+00 0. -1.
         -3    1    1    2    0  503 -0.33776506613E+02 -0.23083562729E+02  0.39951798182E+03  0.40160717257E+03  0.00000000000E+00 0.  1.
</event>
<event>
 4    1  0.1593135E+006  0.3787811E+02  0.7546771E-02  0.1361390E+00
         21   -1    0    0  501  502  0.00000000000E+00  0.00000000000E+00  0.36716129574E+01  0.36716129574E+01  0.00000000000E+00 0. -1.
          2   -1    0    0  503    0 -0.00000000000E+00 -0.00000000000E+00 -0.39093807853E+03  0.39093807853E+03  0.00000000000E+00 0. -1.
         21    1    1    2  503  502  0.44877799934E+00 -0.37875450126E+02 -0.18952535900E+03  0.19327341470E+03  0.00000000000E+00 0. -1.
          2    1    1    2  501    0 -0.44877799934E+00  0.37875450126E+02 -0.19774110657E+03  0.20133627679E+03  0.00000000000E+00 0. -1.
</event>
<event>
 4    1  0.1593135E+006  0.2060570E+02  0.7546771E-02  0.1524969E+00
          2   -1    0    0  502    0 -0.00000000000E+00  0.00000000000E+00  0.60411184103E+03  0.60411184103E+03  0.00000000000E+00 0. -1.
         21   -1    0    0  503  502  0.00000000000E+00 -0.00000000000E+00 -0.18199818292E+01  0.18199818292E+01  0.00000000000E+00 0. -1.
         21    1    1    2  503  501  0.88549308471E+00  0.20586668575E+02  0.63782363850E+02  0.67028240013E+02  0.00000000000E+00 0. -1.
          2    1    1    2  501    0 -0.88549308471E+00 -0.20586668575E+02  0.53850949535E+03  0.53890358285E+03  0.00000000000E+00 0. -1.
</event>
<event>
 4    1  0.1593135E+006  0.2649819E+02  0.7546771E-02  0.1452715E+00
         -4   -1    0    0    0  501 -0.00000000000E+00  0.00000000000E+00  0.32835705356E+02  0.32835705356E+02  0.00000000000E+00 0.  1.
         21   -1    0    0  503  502  0.00000000000E+00 -0.00000000000E+00 -0.36732467085E+02  0.36732467085E+02  0.00000000000E+00 0. -1.
         21    1    1    2  503  501  0.23833514625E+02  0.11580909648E+02 -0.24433238232E+02  0.36043543363E+02  0.00000000000E+00 0. -1.
         -4    1    1    2    0  502 -0.23833514625E+02 -0.11580909648E+02  0.20536476503E+02  0.33524629078E+02  0.00000000000E+00 0.  1.
</event>
<event>
 4    1  0.1593135E+006  0.2045846E+02  0.7546771E-02  0.1527139E+00
         -1   -1    0    0    0  501 -0.00000000000E+00  0.00000000000E+00  0.21006630170E+02  0.21006630170E+02  0.00000000000E+00 0.  1.
         21   -1    0    0  501  502  0.00000000000E+00 -0.00000000000E+00 -0.11144387770E+03  0.11144387770E+03  0.00000000000E+00 0.  1.
         21    1    1    2  503  502 -0.97133780074E+01 -0.18005527399E+02 -0.10523251871E+03  0.10720275987E+03  0.00000000000E+00 0.  1.
         -1    1    1    2    0  503  0.97133780074E+01  0.18005527399E+02  0.14795271188E+02  0.25247747994E+02  0.00000000000E+00 0.  1.
</event>
<event>
 4    1  0.1593135E+006  0.4481617E+02  0.7546771E-02  0.1322361E+00
         21   -1    0    0  501  502  0.00000000000E+00  0.00000000000E+00  0.63993030701E+03  0.63993030701E+03  0.00000000000E+00 0.  1.
         -1   -1    0    0    0  501 -0.00000000000E+00 -0.00000000000E+00 -0.28542642338E+02  0.28542642338E+02  0.00000000000E+00 0.  1.
         21    1    1    2  503  502 -0.42419608051E+02  0.14459100507E+02  0.62101862713E+03  0.62263361937E+03  0.00000000000E+00 0.  1.
         -1    1    1    2    0  503  0.42419608051E+02 -0.14459100507E+02 -0.96309624559E+01  0.45839329974E+02  0.00000000000E+00 0.  1.
</event>
<event>
 4    1  0.1593135E+006  0.2255987E+02  0.7546771E-02  0.1498100E+00
         21   -1    0    0  501  502  0.00000000000E+00  0.00000000000E+00  0.82997765070E+01  0.82997765070E+01  0.00000000000E+00 0.  1.
         -2   -1    0    0    0  501 -0.00000000000E+00 -0.00000000000E+00 -0.32976141652E+03  0.32976141652E+03  0.00000000000E+00 0. -1.
         21    1    1    2  503  502 -0.22299690196E+01 -0.22449382843E+02 -0.82238640157E+01  0.24012069698E+02  0.00000000000E+00 0.  1.
         -2    1    1    2    0  503  0.22299690196E+01  0.22449382843E+02 -0.31323777600E+03  0.31404912333E+03  0.00000000000E+00 0. -1.
</event>
<event>
 4    1  0.1593135E+006  0.3087974E+02  0.7546771E-02  0.1412102E+00
          2   -1    0    0  502    0 -0.00000000000E+00  0.00000000000E+00  0.16683026531E+03  0.16683026531E+03  0.00000000000E+00 0.  1.
         21   -1    0    0  503  502  0.00000000000E+00 -0.00000000000E+00 -0.67251985362E+01  0.67251985362E+01  0.00000000000E+00 0.  1.
         21    1    1    2  503  501 -0.12327123590E+01 -0.30855129162E+02  0.46432372837E+02  0.55763104493E+02  0.00000000000E+00 0.  1.
          2    1    1    2  501    0  0.12327123590E+01  0.30855129162E+02  0.11367269394E+03  0.11779235936E+03  0.00000000000E+00 0.  1.
</event>
<event>
 4    1  0.1593135E+006  0.2006573E+02  0.7546771E-02  0.1533033E+00
         21   -1    0    0  501  502  0.00000000000E+00  0.00000000000E+00  0.18711165852E+02  0.18711165852E+02  0.00000000000E+00 0.  1.
          4   -1    0    0  503    0 -0.00000000000E+00 -0.00000000000E+00 -0.21624613602E+02  0.21624613602E+02  0.00000000000E+00 0. -1.
         21    1    1    2  503  502 -0.14312572644E+02  0.14063561976E+02 -0.28704592494E+01  0.20270003637E+02  0.00000000000E+00 0.  1.
          4    1    1    2  501    0  0.14312572644E+02 -0.14063561976E+02 -0.42988500465E-01  0.20065775817E+02  0.00000000000E+00 0. -1.
</event>
<event>
 4    1  0.1593135E+006  0.4274008E+02  0.7546771E-02  0.1333136E+00
          3   -1    0    0  503    0 -0.00000000000E+00  0.00000000000E+00  0.43584006053E+03  0.43584006053E+03  0.00000000000E+00 0.  1.
         21   -1    0    0  501  502  0.00000000000E+00 -0.00000000000E+00 -0.65107945977E+01  0.65107945977E+01  0.00000000000E+00 0. -1.
         21    1    1    2  503  502  0.32182216958E+02 -0.28125069766E+02  0.82650251491E+02  0.93047185391E+02  0.00000000000E+00 0. -1.
          3    1    1    2  501    0 -0.32182216958E+02  0.28125069766E+02  0.34667901444E+03  0.34930366974E+03  0.00000000000E+00 0.  1.
</event>
<event>
 4    1  0.1593135E+006  0.2224409E+02  0.7546771E-02  0.1502215E+00
          1   -1    0    0  503    0 -0.00000000000E+00  0.00000000000E+00  0.72484277281E+01  0.72484277281E+01  0.00000000000E+00 0. -1.
         21   -1    0    0  501  502  0.00000000000E+00 -0.00000000000E+00 -0.17780208709E+03  0.17780208709E+03  0.00000000000E+00 0. -1.
         21    1    1    2  503  502 -0.19204714705E+02  0.11224006121E+02 -0.15790020750E+03  0.15945932055E+03  0.00000000000E+00 0. -1.
          1    1    1    2  501    0  0.19204714705E+02 -0.11224006121E+02 -0.12653451863E+02  0.25591194274E+02  0.00000000000E+00 0. -1.
</event>
<event>
 4    1  0.1593135E+006  0.2067362E+02  0.7546771E-02  0.1523976E+00
          2   -1    0    0  503    0 -0.00000000000E+00  0.00000000000E+00  0.97989780138E+03  0.97989780138E+03  0.00000000000E+00 0. -1.
         21   -1    0    0  501  502  0.00000000000E+00 -0.00000000000E+00 -0.67392088332E+00  0.67392088332E+00  0.00000000000E+00 0.  1.
         21    1    1    2  503  502 -0.31036178780E+01 -0.20439327457E+02  0.19839997253E+03  0.19947417790E+03  0.00000000000E+00 0.  1.
          2    1    1    2  501    0  0.31036178780E+01  0.20439327457E+02  0.78082390796E+03  0.78109754436E+03  0.00000000000E+00 0. -1.
</event>
<event>
 4    1  0.1593135E+006  0.3530403E+02  0.7546771E-02  0.1378438E+00
         21   -1    0    0  503  502  0.00000000000E+00  0.00000000000E+00  0.87106730408E+01  0.87106730408E+01  0.00000000000E+00 0. -1.
         -4   -1    0    0    0  501 -0.00000000000E+00 -0.00000000000E+00 -0.16643241243E+03  0.16643241243E+03  0.00000000000E+00 0.  1.
         21    1    1    2  503  501  0.25670244509E+02 -0.24236607679E+02 -0.46062297939E+02  0.58035419326E+02  0.00000000000E+00 0. -1.
         -4    1    1    2    0  502 -0.25670244509E+02  0.24236607679E+02 -0.11165944145E+03  0.11710766615E+03  0.00000000000E+00 0.  1.
</event>
<event>
 4    1  0.1593135E+006  0.2891999E+02  0.7546771E-02  0.1429220E+00
          2   -1    0    0  503    0 -0.00000000000E+00  0.00000000000E+00  0.12691334579E+04  0.12691334579E+04  0.00000000000E+00 0. -1.
         21   -1    0    0  501  502  0.00000000000E+00 -0.00000000000E+00 -0.30720588670E+01  0.30720588670E+01  0.00000000000E+00 0. -1.
         21    1    1    2  503  502 -0.28911022617E+02 -0.72028377216E+00  0.69268480552E+02  0.75063229583E+02  0.00000000000E+00 0. -1.
          2    1    1    2  501    0  0.28911022617E+02  0.72028377216E+00  0.11967929184E+04  0.11971422871E+04  0.00000000000E+00 0. -1.
</event>
<event>
 4    1  0.1593135E+006  0.2994895E+02  0.7546771E-02  0.1420041E+00
         21   -1    0    0  503  502  0.00000000000E+00  0.00000000000E+00  0.13930562476E+01  0.13930562476E+01  0.00000000000E+00 0. -1.
          1   -1    0    0  502    0 -0.00000000000E+00 -0.00000000000E+00 -0.10887096647E+04  0.10887096647E+04  0.00000000000E+00 0. -1.
         21    1    1    2  503  501  0.25155156164E+02 -0.16252933279E+02 -0.19525221574E+03  0.19753573720E+03  0.00000000000E+00 0. -1.
          1    1    1    2  501    0 -0.25155156164E+02  0.16252933279E+02 -0.89206439276E+03  0.89256698379E+03  0.00000000000E+00 0. -1.
</event>
<event>
 4    1  0.1593135E+006  0.4957349E+02  0.7546771E-02  0.1300032E+00
          3   -1    0    0  502    0 -0.00000000000E+00  0.00000000000E+00  0.56174341354E+01  0.56174341354E+01  0.00000000000E+00 0.  1.
         21   -1    0    0  503  502  0.00000000000E+00 -0.00000000000E+00 -0.60643943462E+03  0.60643943462E+03  0.00000000000E+00 0.  1.
         21    1    1    2  503  501 -0.40737318998E+02  0.28248924389E+02 -0.46194192212E+03  0.46459430722E+03  0.00000000000E+00 0.  1.
          3    1    1    2  501    0  0.40737318998E+02 -0.28248924389E+02 -0.13888007836E+03  0.14746256153E+03  0.00000000000E+00 0.  1.
</event>
<event>
 4    1  0.1593135E+006  0.3128349E+02  0.7546771E-02  0.1408761E+00
         21   -1    0    0  501  502  0.00000000000E+00  0.00000000000E+00  0.14164471533E+03  0.14164471533E+03  0.00000000000E+00 0.  1.
         -1   -1    0    0    0  501 -0.00000000000E+00 -0.00000000000E+00 -0.39193359423E+02  0.39193359423E+02  0.00000000000E+00 0. -1.
         21    1    1    2  503  502 -0.50309605611E+01  0.30876304775E+02  0.13328881857E+03  0.13691079547E+03  0.00000000000E+00 0.  1.
         -1    1    1    2    0  503  0.50309605611E+01 -0.30876304775E+02 -0.30837462670E+02  0.43927279276E+02  0.00000000000E+00 0. -1.
</event>
<event>
 4    1  0.1593135E+006  0.3001224E+02  0.7546771E-02  0.1419490E+00
         21   -1    0    0  501  502  0.00000000000E+00  0.00000000000E+00  0.14612293101E+03  0.14612293101E+03  0.00000000000E+00 0. -1.
          4   -1    0    0  503    0 -0.00000000000E+00 -0.00000000000E+00 -0.14614030695E+02  0.14614030695E+02  0.00000000000E+00 0.  1.
         21    1    1    2  503  502  0.69924656613E+01 -0.29186297740E+02  0.12686611647E+03  0.13036773396E+03  0.00000000000E+00 0. -1.
          4    1    1    2  501    0 -0.69924656613E+01  0.29186297740E+02  0.46427838506E+01  0.30369227743E+02  0.00000000000E+00 0.  1.
</event>
<event>
 4    1  0.1593135E+006  0.2354946E+02  0.7546771E-02  0.1485711E+00
          2   -1    0    0  503    0 -0.00000000000E+00  0.00000000000E+00  0.50621068216E+02  0.50621068216E+02  0.00000000000E+00 0.  1.
         21   -1    0    0  501  502  0.00000000000E+00 -0.00000000000E+00 -0.35965006557E+03  0.35965006557E+03  0.00000000000E+00 0. -1.
         21    1    1    2  503  502 -0.52460203431E+01 -0.22957708220E+02 -0.35650154024E+03  0.35727849822E+03  0.00000000000E+00 0. -1.
          2    1    1    2  501    0  0.52460203431E+01  0.22957708220E+02  0.47472542887E+02  0.52992635566E+02  0.00000000000E+00 0.  1.
</event>
<event>
 4    1  0.1593135E+006  0.2860744E+02  0.7546771E-02  0.1432097E+00
         21   -1    0    0  503  502  0.00000000000E+00  0.00000000000E+00  0.12360016547E+02  0.12360016547E+02  0.00000000000E+00 0.  1.
         -2   -1    0    0    0  501 -0.00000000000E+00 -0.00000000000E+00 -0.66953236146E+02  0.66953236146E+02  0.00000000000E+00 0. -1.
         21    1    1    2  503  501  0.22960416635E+02 -0.17064733739E+02 -0.23125009594E+02  0.36785213583E+02  0.00000000000E+00 0.  1.
         -2    1    1    2    0  502 -0.22960416635E+02  0.17064733739E+02 -0.31468210006E+02  0.42528039111E+02  0.00000000000E+00 0. -1.
</event>
<event>
 4    1  0.1593135E+006  0.2279490E+02  0.7546771E-02  0.1495090E+00
         -1   -1    0    0    0  501 -0.00000000000E+00  0.00000000000E+00  0.19058216802E+02  0.19058216802E+02  0.00000000000E+00 0. -1.
         21   -1    0    0  503  502  0.00000000000E+00 -0.00000000000E+00 -0.14755298509E+03  0.14755298509E+03  0.00000000000E+00 0.  1.
         21    1    1    2  503  501 -0.92929812840E+01  0.20814609111E+02 -0.13946381667E+03  0.14131441404E+03  0.00000000000E+00 0.  1.
         -1    1    1    2    0  502  0.92929812840E+01 -0.20814609111E+02  0.10969048382E+02  0.25296787859E+02  0.00000000000E+00 0. -1.
</event>
<event>
 4    1  0.1593135E+006  0.2659681E+02  0.7546771E-02  0.1451701E+00
         21   -1    0    0  501  502  0.00000000000E+00  0.00000000000E+00  0.10493354458E+03  0.10493354458E+03  0.00000000000E+00 0.  1.
         -1   -1    0    0    0  501 -0.00000000000E+00 -0.00000000000E+00 -0.14333707561E+02  0.14333707561E+02  0.00000000000E+00 0.  1.
         21    1    1    2  503  502  0.88430461928E+01  0.25083676154E+02  0.88701066964E+02  0.92602751341E+02  0.00000000000E+00 0.  1.
         -1    1    1    2    0  503 -0.88430461928E+01 -0.25083676154E+02  0.18987700578E+01  0.26664500803E+02  0.00000000000E+00 0.  1.
</event>
<event>
 4    1  0.1593135E+006  0.2769577E+02  0.7546771E-02  0.1440741E+00
         -2   -1    0    0    0  501 -0.00000000000E+00  0.00000000000E+00  0.44433455045E+02  0.44433455045E+02  0.00000000000E+00 0. -1.
         21   -1    0    0  503  502  0.00000000000E+00 -0.00000000000E+00 -0.21413759507E+02  0.21413759507E+02  0.00000000000E+00 0.  1.
         21    1    1    2  503  501  0.26628178297E+02 -0.76155026356E+01 -0.29853294870E+01  0.27856201320E+02  0.00000000000E+00 0.  1.
         -2    1    1    2    0  502 -0.26628178297E+02  0.76155026356E+01  0.26005025025E+02  0.37991013232E+02  0.00000000000E+00 0. -1.
</event>
<event>
 4    1  0.1593135E+006  0.2173414E+02  0.7546771E-02  0.1509036E+00
         21   -1    0    0  503  502  0.00000000000E+00  0.00000000000E+00  0.19995568993E+02  0.19995568993E+02  0.00000000000E+00 0. -1.
         -4   -1    0    0    0  501 -0.00000000000E+00 -0.00000000000E+00 -0.25013139042E+02  0.25013139042E+02  0.00000000000E+00 0. -1.
         21    1    1    2  503  501 -0.36079902480E+01 -0.21432573766E+02  0.27948659075E+01  0.21913103097E+02  0.00000000000E+00 0. -1.
         -4    1    1    2    0  502  0.36079902480E+01  0.21432573766E+02 -0.78124359566E+01  0.23095604938E+02  0.00000000000E+00 0. -1.
</event>
<event>
 4    1  0.1593135E+006  0.2212432E+02  0.7546771E-02  0.1503797E+00
          3   -1    0    0  503    0 -0.00000000000E+00  0.00000000000E+00  0.28739211707E+02  0.28739211707E+02  0.00000000000E+00 0. -1.
         21   -1    0    0  501  502  0.00000000000E+00 -0.00000000000E+00 -0.59081218549E+02  0.59081218549E+02  0.00000000000E+00 0. -1.
         21    1    1    2  503  502  0.20354611396E+02  0.86703834123E+01 -0.52215175871E+02  0.56708997036E+02  0.00000000000E+00 0. -1.
          3    1    1    2  501    0 -0.20354611396E+02 -0.86703834123E+01  0.21873169029E+02  0.31111433219E+02  0.00000000000E+00 0. -1.
</event>
<event>
 4    1  0.1593135E+006  0.2136886E+02  0.7546771E-02  0.1514063E+00
         -1   -1    0    0    0  501 -0.00000000000E+00  0.00000000000E+00  0.15218566959E+04  0.15218566959E+04  0.00000000000E+00 0. -1.
         21   -1    0    0  503  502  0.00000000000E+00 -0.00000000000E+00 -0.27255927214E+01  0.27255927214E+01  0.00000000000E+00 0.  1.
         21    1    1    2  503  501  0.12382927745E+02 -0.17415262503E+02  0.40455858721E+02  0.45752647710E+02  0.00000000000E+00 0.  1.
         -1    1    1    2    0  502 -0.12382927745E+02  0.17415262503E+02  0.14786752445E+04  0.14788296409E+04  0.00000000000E+00 0. -1.
</event>
<event>
 4    1  0.1593135E+006  0.2155773E+02  0.7546771E-02  0.1511449E+00
         21   -1    0    0  501  502  0.00000000000E+00  0.00000000000E+00  0.27351329569E+01  0.27351329569E+01  0.00000000000E+00 0. -1.
          4   -1    0    0  503    0 -0.00000000000E+00 -0.00000000000E+00 -0.17703196999E+03  0.17703196999E+03  0.00000000000E+00 0. -1.
         21    1    1    2  503  502 -0.75353201155E+01  0.20197883987E+02 -0.69124355963E+02  0.72407956428E+02  0.00000000000E+00 0. -1.
          4    1    1    2  501    0  0.75353201155E+01 -0.20197883987E+02 -0.10517248107E+03  0.10735914652E+03  0.00000000000E+00 0. -1.
</event>
<event>
 4    1  0.1593135E+006  0.4078160E+02  0.7546771E-02  0.1343966E+00
          2   -1    0    0  503    0 -0.00000000000E+00  0.00000000000E+00  0.19936334129E+04  0.19936334129E+04  0.00000000000E+00 0.  1.
         21   -1    0    0  501  502  0.00000000000E+00 -0.00000000000E+00 -0.25072949306E+03  0.25072949306E+03  0.00000000000E+00 0. -1.
         21    1    1    2  503  502  0.29044262952E+02 -0.28628132588E+02 -0.24886108102E+03  0.25218044498E+03  0.00000000000E+00 0. -1.
          2    1    1    2  501    0 -0.29044262952E+02  0.28628132588E+02  0.19917650008E+04  0.19921824610E+04  0.00000000000E+00 0.  1.
</event>
<event>
 4    1  0.1593135E+006  0.2469818E+02  0.7546771E-02  0.1472208E+00
         -4   -1    0    0    0  501 -0.00000000000E+00  0.00000000000E+00  0.96532305568E+03  0.96532305568E+03  0.00000000000E+00 0.  1.
         21   -1    0    0  503  502  0.00000000000E+00 -0.00000000000E+00 -0.54563103582E+01  0.54563103582E+01  0.00000000000E+00 0. -1.
         21    1    1    2  503  501  0.68995731298E+01  0.23714886892E+02  0.23515592741E+02  0.34102537613E+02  0.00000000000E+00 0. -1.
         -4    1    1    2    0  502 -0.68995731298E+01 -0.23714886892E+02  0.93635115259E+03  0.93667682843E+03  0.00000000000E+00 0.  1.
</event>
<event>
 4    1  0.1593135E+006  0.3255691E+02  0.7546771E-02  0.1398603E+00
         21   -1    0    0  503  502  0.00000000000E+00  0.00000000000E+00  0.21253355818E+02  0.21253355818E+02  0.00000000000E+00 0. -1.
          2   -1    0    0  502    0 -0.00000000000E+00 -0.00000000000E+00 -0.67314605035E+03  0.67314605035E+03  0.00000000000E+00 0.  1.
         21    1    1    2  503  501  0.61227518049E+01 -0.31975996496E+02  0.81441582919E+01  0.33560091714E+02  0.00000000000E+00 0. -1.
          2    1    1    2  501    0 -0.61227518049E+01  0.31975996496E+02 -0.66003685283E+03  0.66083931446E+03  0.00000000000E+00 0.  1.
</event>
<event>
 4    1  0.1593135E+006  0.5705357E+02  0.7546771E-02  0.1270186E+00
          4   -1    0    0  503    0 -0.00000000000E+00  0.00000000000E+00  0.16800958886E+03  0.16800958886E+03  0.00000000000E+00 0.  1.
         21   -1    0    0  501  502  0.00000000000E+00 -0.00000000000E+00 -0.29855029942E+02  0.29855029942E+02  0.00000000000E+00 0.  1.
         21    1    1    2  503  502 -0.53196555256E+02  0.20621260524E+02  0.10460761729E+02  0.58004632683E+02  0.00000000000E+00 0.  1.
          4    1    1    2  501    0  0.53196555256E+02 -0.20621260524E+02  0.12769379719E+03  0.13985998612E+03  0.00000000000E+00 0.  1.
</event>
<event>
 4    1  0.1593135E+006  0.2633508E+02  0.7546771E-02  0.1454404E+00
          2   -1    0    0  502    0 -0.00000000000E+00  0.00000000000E+00  0.20680543161E+03  0.20680543161E+03  0.00000000000E+00 0. -1.
         21   -1    0    0  503  502  0.00000000000E+00 -0.00000000000E+00 -0.34026269112E+02  0.34026269112E+02  0.00000000000E+00 0. -1.
         21    1    1    2  503  501  0.89876949160E+01  0.24753939772E+02 -0.27938390278E+02  0.38393877708E+02  0.00000000000E+00 0. -1.
          2    1    1    2  501    0 -0.89876949160E+01 -0.24753939772E+02  0.20071755278E+03  0.20243782302E+03  0.00000000000E+00 0. -1.
</event>
<event>
 4    1  0.1593135E+006  0.3792537E+02  0.7546771E-02  0.1361091E+00
         21   -1    0    0  503  502  0.00000000000E+00  0.00000000000E+00  0.11014654395E+02  0.11014654395E+02  0.00000000000E+00 0. -1.
          1   -1    0    0  502    0 -0.00000000000E+00 -0.00000000000E+00 -0.12627271077E+04  0.12627271077E+04  0.00000000000E+00 0. -1.
         21    1    1    2  503  501 -0.34558885572E+02 -0.15621035343E+02 -0.22814478272E+02  0.44258713674E+02  0.00000000000E+00 0. -1.
          1    1    1    2  501    0  0.34558885572E+02  0.15621035343E+02 -0.12288979750E+04  0.12294830484E+04  0.00000000000E+00 0. -1.
</event>
<event>
 4    1  0.1593135E+006  0.2067137E+02  0.7546771E-02  0.1524009E+00
         21   -1    0    0  501  502  0.00000000000E+00  0.00000000000E+00  0.79882371319E+00  0.79882371319E+00  0.00000000000E+00 0. -1.
          2   -1    0    0  503    0 -0.00000000000E+00 -0.00000000000E+00 -0.61438618003E+03  0.61438618003E+03  0.00000000000E+00 0. -1.
         21    1    1    2  503  502  0.65164656736E+01  0.19617374746E+02 -0.19616955711E+03  0.19725567381E+03  0.00000000000E+00 0. -1.
          2    1    1    2  501    0 -0.65164656736E+01 -0.19617374746E+02 -0.41741779921E+03  0.41792932993E+03  0.00000000000E+00 0. -1.
</event>
<event>
 4    1  0.1593135E+006  0.3395686E+02  0.7546771E-02  0.1388049E+00
         21   -1    0    0  503  502  0.00000000000E+00  0.00000000000E+00  0.40580680391E+01  0.40580680391E+01  0.00000000000E+00 0.  1.
          1   -1    0    0  502    0 -0.00000000000E+00 -0.00000000000E+00 -0.34177875999E+03  0.34177875999E+03  0.00000000000E+00 0.  1.
         21    1    1    2  503  501 -0.29553566166E+02  0.16722900129E+02 -0.97850679387E+02  0.10357520996E+03  0.00000000000E+00 0.  1.
          1    1    1    2  501    0  0.29553566166E+02 -0.16722900129E+02 -0.23987001256E+03  0.24226161807E+03  0.00000000000E+00 0.  1.
</event>
<event>
 4    1  0.1593135E+006  0.2106525E+02  0.7546771E-02  0.1518335E+00
          1   -1    0    0  502    0 -0.00000000000E+00  0.00000000000E+00  0.33981240954E+03  0.33981240954E+03  0.00000000000E+00 0. -1.
         21   -1    0    0  503  502  0.00000000000E+00 -0.00000000000E+00 -0.31513340098E+02  0.31513340098E+02  0.00000000000E+00 0.  1.
         21    1    1    2  503  501 -0.20249031362E+02 -0.58070030691E+01 -0.27625887662E+02  0.34740958894E+02  0.00000000000E+00 0.  1.
          1    1    1    2  501    0  0.20249031362E+02  0.58070030691E+01  0.33592495710E+03  0.33658479074E+03  0.00000000000E+00 0. -1.
</event>
<event>
 4    1  0.1593135E+006  0.2222398E+02  0.7546771E-02  0.1502479E+00
         21   -1    0    0  501  502  0.00000000000E+00  0.00000000000E+00  0.10947459211E+03  0.10947459211E+03  0.00000000000E+00 0. -1.
          2   -1    0    0  503    0 -0.00000000000E+00 -0.00000000000E+00 -0.49305940622E+01  0.49305940622E+01  0.00000000000E+00 0. -1.
         21    1    1    2  503  502 -0.19117157255E+02 -0.11333128398E+02  0.68947172202E+02  0.72440444887E+02  0.00000000000E+00 0. -1.
          2    1    1    2  501    0  0.19117157255E+02  0.11333128398E+02  0.35596825843E+02  0.41964741282E+02  0.00000000000E+00 0. -1.
</event>
<event>
 4    1  0.1593135E+006  0.3329528E+02  0.7546771E-02  0.1392961E+00
          1   -1    0    0  503    0 -0.00000000000E+00  0.00000000000E+00  0.59538079560E+03  0.59538079560E+03  0.00000000000E+00 0. -1.
         21   -1    0    0  501  502  0.00000000000E+00 -0.00000000000E+00 -0.52041087769E+01  0.52041087769E+01  0.00000000000E+00 0.  1.
         21    1    1    2  503  502 -0.23895213562E+02  0.23186086309E+02  0.54439345754E+02  0.63813934181E+02  0.00000000000E+00 0.  1.
          1    1    1    2  501    0  0.23895213562E+02 -0.23186086309E+02  0.53573734107E+03  0.53677097020E+03  0.00000000000E+00 0. -1.
</event>
<event>
 4    1  0.1593135E+006  0.2150578E+02  0.7546771E-02  0.1512165E+00
         -3   -1    0    0    0  501 -0.00000000000E+00  0.00000000000E+00  0.18522308309E+01  0.18522308309E+01  0.00000000000E+00 0. -1.
         21   -1    0    0  503  502  0.00000000000E+00 -0.00000000000E+00 -0.25184928821E+03  0.25184928821E+03  0.00000000000E+00 0. -1.
         21    1    1    2  503  501 -0.34774825679E+01 -0.21222763572E+02 -0.13672206611E+03  0.13840311391E+03  0.00000000000E+00 0. -1.
         -3    1    1    2    0  502  0.34774825679E+01  0.21222763572E+02 -0.11327499127E+03  0.11529840513E+03  0.00000000000E+00 0. -1.
</event>
<event>
 4    1  0.1593135E+006  0.4056401E+02  0.7546771E-02  0.1345212E+00
          1   -1    0    0  503    0 -0.00000000000E+00  0.00000000000E+00  0.18118270101E+03  0.18118270101E+03  0.00000000000E+00 0.  1.
         21   -1    0    0  501  502  0.00000000000E+00 -0.00000000000E+00 -0.11431380860E+02  0.11431380860E+02  0.00000000000E+00 0. -1.
         21    1    1    2  503  502 -0.16781646917E+02  0.36929869750E+02  0.41212294972E+02  0.57826397172E+02  0.00000000000E+00 0. -1.
          1    1    1    2  501    0  0.16781646917E+02 -0.36929869750E+02  0.12853902518E+03  0.13478768470E+03  0.00000000000E+00 0.  1.
</event>
<event>
 4    1  0.1593135E+006  0.2302656E+02  0.7546771E-02  0.1492165E+00
          1   -1    0    0  503    0 -0.00000000000E+00  0.00000000000E+00  0.91078778543E+03  0.91078778543E+03  0.00000000000E+00 0. -1.
         21   -1    0    0  501  502  0.00000000000E+00 -0.00000000000E+00 -0.71431176280E+00  0.71431176280E+00  0.00000000000E+00 0.  1.
         21    1    1    2  503  502 -0.49626745024E+01 -0.22485429633E+02  0.25900651925E+03  0.26002807483E+03  0.00000000000E+00 0.  1.
          1    1    1    2  501    0  0.49626745024E+01  0.22485429633E+02  0.65106695442E+03  0.65147402237E+03  0.00000000000E+00 0. -1.
</event>
<event>
 4    1  0.1593135E+006  0.2101476E+02  0.7546771E-02  0.1519054E+00
          1   -1    0    0  503    0 -0.00000000000E+00  0.00000000000E+00  0.97299559881E+01  0.97299559881E+01  0.00000000000E+00 0.  1.
         21   -1    0    0  501  502  0.00000000000E+00 -0.00000000000E+00 -0.19954919546E+03  0.19954919546E+03  0.00000000000E+00 0. -1.
         21    1    1    2  503  502 -0.51706606909E+01  0.20368708043E+02 -0.18688232983E+03  0.18806016378E+03  0.00000000000E+00 0. -1.
          1    1    1    2  501    0  0.51706606909E+01 -0.20368708043E+02 -0.29369096430E+01  0.21218987666E+02  0.00000000000E+00 0.  1.
</event>
<event>
 4    1  0.1593135E+006  0.2323813E+02  0.7546771E-02  0.1489529E+00
         21   -1    0    0  501  502  0.00000000000E+00  0.00000000000E+00  0.79337358742E+01  0.79337358742E+01  0.00000000000E+00 0. -1.
          1   -1    0    0  503    0 -0.00000000000E+00 -0.00000000000E+00 -0.77023692575E+02  0.77023692575E+02  0.00000000000E+00 0. -1.
         21    1    1    2  503  502 -0.92431281382E+01 -0.21320770083E+02 -0.20057970555E+02  0.30697440243E+02  0.00000000000E+00 0. -1.
          1    1    1    2  501    0  0.92431281382E+01  0.21320770083E+02 -0.49031986146E+02  0.54259988206E+02  0.00000000000E+00 0. -1.
</event>
<event>
 4    1  0.1593135E+006  0.4084291E+02  0.7546771E-02  0.1343616E+00
         21   -1    0    0  501  502  0.00000000000E+00  0.00000000000E+00  0.76869865707E+01  0.76869865707E+01  0.00000000000E+00 0. -1.
          1   -1    0    0  503    0 -0.00000000000E+00 -0.00000000000E+00 -0.45282623562E+03  0.45282623562E+03  0.00000000000E+00 0. -1.
         21    1    1    2  503  502  0.27639665096E+02  0.30069782649E+02 -0.56406606400E+02  0.69640851236E+02  0.00000000000E+00 0. -1.
          1    1    1    2  501    0 -0.27639665096E+02 -0.30069782649E+02 -0.38873264264E+03  0.39087237095E+03  0.00000000000E+00 0. -1.
</event>
<event>
 4    1  0.1593135E+006  0.2573069E+02  0.7546771E-02  0.1460793E+00
          2   -1    0    0  503    0 -0.00000000000E+00  0.00000000000E+00  0.37360460674E+03  0.37360460674E+03  0.00000000000E+00 0. -1.
         21   -1    0    0  501  502  0.00000000000E+00 -0.00000000000E+00 -0.73986755452E+02  0.73986755452E+02  0.00000000000E+00 0.  1.
         21    1    1    2  503  502  0.25360159789E+02  0.43509665063E+01 -0.71290365505E+02  0.75791720048E+02  0.00000000000E+00 0.  1.
          2    1    1    2  501    0 -0.25360159789E+02 -0.43509665063E+01  0.37090821680E+03  0.37179964215E+03  0.00000000000E+00 0. -1.
</event>
<event>
 4    1  0.1593135E+006  0.2751676E+02  0.7546771E-02  0.1442485E+00
         -4   -1    0    0    0  501 -0.00000000000E+00  0.00000000000E+00  0.85206039518E+01  0.85206039518E+01  0.00000000000E+00 0. -1.
         21   -1    0    0  503  502  0.00000000000E+00 -0.00000000000E+00 -0.36426591762E+03  0.36426591762E+03  0.00000000000E+00 0.  1.
         21    1    1    2  503  501  0.22194634346E+02 -0.16265624576E+02 -0.33994341302E+03  0.34105526883E+03  0.00000000000E+00 0.  1.
         -4    1    1    2    0  502 -0.22194634346E+02  0.16265624576E+02 -0.15801900641E+02  0.31731252741E+02  0.00000000000E+00 0. -1.
</event>
<event>
 4    1  0.1593135E+006  0.3765149E+02  0.7546771E-02  0.1362826E+00
         -3   -1    0    0    0  501 -0.00000000000E+00  0.00000000000E+00  0.88854611445E+01  0.88854611445E+01  0.00000000000E+00 0. -1.
         21   -1    0    0  503  502  0.00000000000E+00 -0.00000000000E+00 -0.22113588898E+03  0.22113588898E+03  0.00000000000E+00 0. -1.
         21    1    1    2  503  501  0.16549841998E+02  0.33819186743E+02 -0.16682194186E+03  0.17101811293E+03  0.00000000000E+00 0. -1.
         -3    1    1    2    0  502 -0.16549841998E+02 -0.33819186743E+02 -0.45428485974E+02  0.59003237200E+02  0.00000000000E+00 0. -1.
</event>
<event>
 4    1  0.1593135E+006  0.2043020E+02  0.7546771E-02  0.1527558E+00
          1   -1    0    0  503    0 -0.00000000000E+00  0.00000000000E+00  0.23905259446E+03  0.23905259446E+03  0.00000000000E+00 0.  1.
         21   -1    0    0  501  502  0.00000000000E+00 -0.00000000000E+00 -0.43335833782E+02  0.43335833782E+02  0.00000000000E+00 0. -1.
         21    1    1    2  503  502 -0.10525007239E+02 -0.17510490313E+02 -0.40462185464E+02  0.45327491668E+02  0.00000000000E+00 0. -1.
          1    1    1    2  501    0  0.10525007239E+02  0.17510490313E+02  0.23617894614E+03  0.23706093657E+03  0.00000000000E+00 0.  1.
</event>
<event>
 4    1  0.1593135E+006  0.3137615E+02  0.7546771E-02  0.1408003E+00
          2   -1    0    0  502    0 -0.00000000000E+00  0.00000000000E+00  0.23299348503E+04  0.23299348503E+04  0.00000000000E+00 0.  1.
         21   -1    0    0  503  502  0.00000000000E+00 -0.00000000000E+00 -0.75413201883E+02  0.75413201883E+02  0.00000000000E+00 0.  1.
         21    1    1    2  503  501 -0.30791465853E+01  0.31224691269E+02 -0.72039275881E+02  0.78575567182E+02  0.00000000000E+00 0.  1.
          2    1    1    2  501    0  0.30791465853E+01 -0.31224691269E+02  0.23265609243E+04  0.23267724850E+04  0.00000000000E+00 0.  1.
</event>
<event>
 4    1  0.1593135E+006  0.2107455E+02  0.7546771E-02  0.1518203E+00
         21   -1    0    0  503  502  0.00000000000E+00  0.00000000000E+00  0.80717772558E+03  0.80717772558E+03  0.00000000000E+00 0.  1.
          2   -1    0    0  502    0 -0.00000000000E+00 -0.00000000000E+00 -0.21427508630E+01  0.21427508630E+01  0.00000000000E+00 0.  1.
         21    1    1    2  503  501 -0.85588121583E+01 -0.19258330868E+02  0.75137390978E+03  0.75166940131E+03  0.00000000000E+00 0.  1.
          2    1    1    2  501    0  0.85588121583E+01  0.19258330868E+02  0.53661064936E+02  0.57651075129E+02  0.00000000000E+00 0.  1.
</event>
<event>
 4    1  0.1593135E+006  0.2403799E+02  0.7546771E-02  0.1479860E+00
         21   -1    0    0  503  502  0.00000000000E+00  0.00000000000E+00  0.16205679382E+03  0.16205679382E+03  0.00000000000E+00 0. -1.
          3   -1    0    0  502    0 -0.00000000000E+00 -0.00000000000E+00 -0.16206116056E+03  0.16206116056E+03  0.00000000000E+00 0. -1.
         21    1    1    2  503  501 -0.22592339696E+02 -0.82104384546E+01  0.16026411681E+03  0.16205681797E+03  0.00000000000E+00 0. -1.
          3    1    1    2  501    0  0.22592339696E+02  0.82104384546E+01 -0.16026848356E+03  0.16206113641E+03  0.00000000000E+00 0. -1.
</event>
<event>
 4    1  0.1593135E+006  0.2652004E+02  0.7546771E-02  0.1452490E+00
          1   -1    0    0  502    0 -0.00000000000E+00  0.00000000000E+00  0.10652248174E+03  0.10652248174E+03  0.00000000000E+00 0.  1.
         21   -1    0    0  503  502  0.00000000000E+00 -0.00000000000E+00 -0.69264448949E+02  0.69264448949E+02  0.00000000000E+00 0. -1.
         21    1    1    2  503  501 -0.20851831285E+02  0.16386391245E+02 -0.64970431663E+02  0.70174565738E+02  0.00000000000E+00 0. -1.
          1    1    1    2  501    0  0.20851831285E+02 -0.16386391245E+02  0.10222846445E+03  0.10561236495E+03  0.00000000000E+00 0.  1.
</event>
<event>
 4    1  0.1593135E+006  0.2204461E+02  0.7546771E-02  0.1504857E+00
          1   -1    0    0  503    0 -0.00000000000E+00  0.00000000000E+00  0.24816610584E+02  0.24816610584E+02  0.00000000000E+00 0.  1.
         21   -1    0    0  501  502  0.00000000000E+00 -0.00000000000E+00 -0.20544779455E+02  0.20544779455E+02  0.00000000000E+00 0.  1.
         21    1    1    2  503  502  0.21937826144E+02 -0.21671958643E+01 -0.27733181833E+01  0.22218376349E+02  0.00000000000E+00 0.  1.
          1    1    1    2  501    0 -0.21937826144E+02  0.21671958643E+01  0.70451493117E+01  0.23143013690E+02  0.00000000000E+00 0.  1.
</event>
<event>
 4    1  0.1593135E+006  0.2376487E+02  0.7546771E-02  0.1483111E+00
         21   -1    0    0  501  502  0.00000000000E+00  0.00000000000E+00  0.11382153976E+02  0.11382153976E+02  0.00000000000E+00 0. -1.
          1   -1    0    0  503    0 -0.00000000000E+00 -0.00000000000E+00 -0.48769490973E+03  0.48769490973E+03  0.00000000000E+00 0.  1.
         21    1    1    2  503  502 -0.21776992154E+02  0.95148140691E+01 -0.16524934440E+01  0.23822254482E+02  0.00000000000E+00 0. -1.
          1    1    1    2  501    0  0.21776992154E+02 -0.95148140691E+01 -0.47466026231E+03  0.47525480922E+03  0.00000000000E+00 0.  1.
</event>
<event>
 4    1  0.1593135E+006  0.2492250E+02  0.7546771E-02  0.1469672E+00
         21   -1    0    0  501  502  0.00000000000E+00  0.00000000000E+00  0.71341961207E+02  0.71341961207E+02  0.00000000000E+00 0.  1.
         -1   -1    0    0    0  501 -0.00000000000E+00 -0.00000000000E+00 -0.54599919688E+02  0.54599919688E+02  0.00000000000E+00 0. -1.
         21    1    1    2  503  502  0.22371054090E+02  0.10984855966E+02  0.66103458461E+02  0.70645582609E+02  0.00000000000E+00 0.  1.
         -1    1    1    2    0  503 -0.22371054090E+02 -0.10984855966E+02 -0.49361416942E+02  0.55296298287E+02  0.00000000000E+00 0. -1.
</event>
<event>
 4    1  0.1593135E+006  0.2534948E+02  0.7546771E-02  0.1464931E+00
          3   -1    0    0  502    0 -0.00000000000E+00  0.00000000000E+00  0.27810875982E+02  0.27810875982E+02  0.00000000000E+00 0. -1.
         21   -1    0    0  503  502  0.00000000000E+00 -0.00000000000E+00 -0.44827965124E+02  0.44827965124E+02  0.00000000000E+00 0.  1.
         21    1    1    2  503  501 -0.36073147580E+00  0.25346917457E+02 -0.33790728295E+02  0.42242273501E+02  0.00000000000E+00 0.  1.
          3    1    1    2  501    0  0.36073147580E+00 -0.25346917457E+02  0.16773639153E+02  0.30396567606E+02  0.00000000000E+00 0. -1.
</event>
<event>
 4    1  0.1593135E+006  0.2804908E+02  0.7546771E-02  0.1437345E+00
         21   -1    0    0  501  502  0.00000000000E+00  0.00000000000E+00  0.71658676932E+02  0.71658676932E+02  0.00000000000E+00 0.  1.
         -2   -1    0    0    0  501 -0.00000000000E+00 -0.00000000000E+00 -0.15225755110E+03  0.15225755110E+03  0.00000000000E+00 0.  1.
         21    1    1    2  503  502  0.23188622054E+02 -0.15780953641E+02  0.67546565902E+02  0.73138835482E+02  0.00000000000E+00 0.  1.
         -2    1    1    2    0  503 -0.23188622054E+02  0.15780953641E+02 -0.14814544007E+03  0.15077739255E+03  0.00000000000E+00 0.  1.
</event>
<event>
 4    1  0.1593135E+006  0.2488730E+02  0.7546771E-02  0.1470068E+00
         21   -1    0    0  501  502  0.00000000000E+00  0.00000000000E+00  0.49911139593E+02  0.49911139593E+02  0.00000000000E+00 0.  1.
          3   -1    0    0  503    0 -0.00000000000E+00 -0.00000000000E+00 -0.52284282700E+02  0.52284282700E+02  0.00000000000E+00 0. -1.
         21    1    1    2  503  502  0.17519415679E+02 -0.17676192579E+02  0.43437011886E+02  0.50061479317E+02  0.00000000000E+00 0.  1.
          3    1    1    2  501    0 -0.17519415679E+02  0.17676192579E+02 -0.45810154992E+02  0.52133942976E+02  0.00000000000E+00 0. -1.
</event>
<event>
 4    1  0.1593135E+006  0.2553847E+02  0.7546771E-02  0.1462869E+00
         21   -1    0    0  501  502  0.00000000000E+00  0.00000000000E+00  0.96758024765E+01  0.96758024765E+01  0.00000000000E+00 0. -1.
          1   -1    0    0  503    0 -0.00000000000E+00 -0.00000000000E+00 -0.70810777327E+02  0.70810777327E+02  0.00000000000E+00 0.  1.
         21    1    1    2  503  502 -0.15573448792E+02  0.20240577665E+02 -0.39391124036E+02  0.46945435820E+02  0.00000000000E+00 0. -1.
          1    1    1    2  501    0  0.15573448792E+02 -0.20240577665E+02 -0.21743850814E+02  0.33541143983E+02  0.00000000000E+00 0.  1.
</event>
<event>
 4    1  0.1593135E+006  0.2253654E+02  0.7546771E-02  0.1498401E+00
         21   -1    0    0  501  502  0.00000000000E+00  0.00000000000E+00  0.74664774755E+01  0.74664774755E+01  0.00000000000E+00 0.  1.
          3   -1    0    0  503    0 -0.00000000000E+00 -0.00000000000E+00 -0.77118961276E+02  0.77118961276E+02  0.00000000000E+00 0.  1.
         21    1    1    2  503  502 -0.94789140452E+01  0.20446170514E+02 -0.20301844394E+02  0.30332500490E+02  0.00000000000E+00 0.  1.
          3    1    1    2  501    0  0.94789140452E+01 -0.20446170514E+02 -0.49350639406E+02  0.54252938261E+02  0.00000000000E+00 0.  1.
</event>
<event>
 4    1  0.1593135E+006  0.2079918E+02  0.7546771E-02  0.1522152E+00
         21   -1    0    0  501  502  0.00000000000E+00  0.00000000000E+00  0.57352528807E+02  0.57352528807E+02  0.00000000000E+00 0.  1.
          1   -1    0    0  503    0 -0.00000000000E+00 -0.00000000000E+00 -0.75442576196E+01  0.75442576196E+01  0.00000000000E+00 0.  1.
         21    1    1    2  503  502  0.65728215248E+01  0.19733317626E+02  0.24472831551E+02  0.32117367443E+02  0.00000000000E+00 0.  1.
          1    1    1    2  501    0 -0.65728215248E+01 -0.19733317626E+02  0.25335439636E+02  0.32779418984E+02  0.00000000000E+00 0.  1.
</event>
<event>
 4    1  0.1593135E+006  0.2572251E+02  0.7546771E-02  0.1460881E+00
         21   -1    0    0  503  502  0.00000000000E+00  0.00000000000E+00  0.31267999721E+03  0.31267999721E+03  0.00000000000E+00 0. -1.
          4   -1    0    0  502    0 -0.00000000000E+00 -0.00000000000E+00 -0.49222147575E+01  0.49222147575E+01  0.00000000000E+00 0. -1.
         21    1    1    2  503  501 -0.14862066733E+02  0.20994434671E+02  0.27378177464E+03  0.27498746779E+03  0.00000000000E+00 0. -1.
          4    1    1    2  501    0  0.14862066733E+02 -0.20994434671E+02  0.33976007814E+02  0.42614744182E+02  0.00000000000E+00 0. -1.
</event>
<event>
 4    1  0.1593135E+006  0.3177476E+02  0.7546771E-02  0.1404776E+00
          2   -1    0    0  503    0 -0.00000000000E+00  0.00000000000E+00  0.16256607815E+04  0.16256607815E+04  0.00000000000E+00 0. -1.
         21   -1    0    0  501  502  0.00000000000E+00 -0.00000000000E+00 -0.55233238036E+02  0.55233238036E+02  0.00000000000E+00 0. -1.
         21    1    1    2  503  502  0.21967860962E+02  0.22957531497E+02 -0.50494743368E+02  0.59660324131E+02  0.00000000000E+00 0. -1.
          2    1    1    2  501    0 -0.21967860962E+02 -0.22957531497E+02  0.16209222869E+04  0.16212336954E+04  0.00000000000E+00 0. -1.
</event>
<event>
 4    1  0.1593135E+006  0.2882035E+02  0.7546771E-02  0.1430132E+00
         21   -1    0    0  503  502  0.00000000000E+00  0.00000000000E+00  0.63909761857E+02  0.63909761857E+02  0.00000000000E+00 0.  1.
         -2   -1    0    0    0  501 -0.00000000000E+00 -0.00000000000E+00 -0.69991763483E+02  0.69991763483E+02  0.00000000000E+00 0.  1.
         21    1    1    2  503  501  0.24393355572E+02 -0.15348507501E+02  0.57374849403E+02  0.64206587066E+02  0.00000000000E+00 0.  1.
         -2    1    1    2    0  502 -0.24393355572E+02  0.15348507501E+02 -0.63456851029E+02  0.69694938275E+02  0.00000000000E+00 0.  1.
</event>
<event>
 4    1  0.1593135E+006  0.2249771E+02  0.7546771E-02  0.1498904E+00
         21   -1    0    0  503  502  0.00000000000E+00  0.00000000000E+00  0.31435469520E+02  0.31435469520E+02  0.00000000000E+00 0. -1.
          2   -1    0    0  502    0 -0.00000000000E+00 -0.00000000000E+00 -0.49331052688E+03  0.49331052688E+03  0.00000000000E+00 0.  1.
         21    1    1    2  503  501 -0.19837584141E+02  0.10612133156E+02  0.27118157052E+02  0.35235515557E+02  0.00000000000E+00 0. -1.
          2    1    1    2  501    0  0.19837584141E+02 -0.10612133156E+02 -0.48899321441E+03  0.48951048085E+03  0.00000000000E+00 0.  1.
</event>
<event>
 4    1  0.1593135E+006  0.2059877E+02  0.7546771E-02  0.1525071E+00
          1   -1    0    0  502    0 -0.00000000000E+00  0.00000000000E+00  0.97924238757E+00  0.97924238757E+00  0.00000000000E+00 0. -1.
         21   -1    0    0  503  502  0.00000000000E+00 -0.00000000000E+00 -0.49830733690E+03  0.49830733690E+03  0.00000000000E+00 0. -1.
         21    1    1    2  503  501  0.59424023743E+01 -0.19723013407E+02 -0.33882944429E+03  0.33945500692E+03  0.00000000000E+00 0. -1.
          1    1    1    2  501    0 -0.59424023743E+01  0.19723013407E+02 -0.15849865022E+03  0.15983157237E+03  0.00000000000E+00 0. -1.
</event>
<event>
 4    1  0.1593135E+006  0.2399429E+02  0.7546771E-02  0.1480376E+00
         21   -1    0    0  501  502  0.00000000000E+00  0.00000000000E+00  0.36845925538E+02  0.36845925538E+02  0.00000000000E+00 0. -1.
          3   -1    0    0  503    0 -0.00000000000E+00 -0.00000000000E+00 -0.26298894689E+02  0.26298894689E+02  0.00000000000E+00 0.  1.
         21    1    1    2  503  502  0.60127712732E+00  0.23986751256E+02  0.25387398719E+02  0.34932016599E+02  0.00000000000E+00 0. -1.
          3    1    1    2  501    0 -0.60127712732E+00 -0.23986751256E+02 -0.14840367870E+02  0.28212803627E+02  0.00000000000E+00 0.  1.
</event>
<event>
 4    1  0.1593135E+006  0.3063040E+02  0.7546771E-02  0.1414196E+00
         -1   -1    0    0    0  501 -0.00000000000E+00  0.00000000000E+00  0.15388852534E+03  0.15388852534E+03  0.00000000000E+00 0. -1.
         21   -1    0    0  503  502  0.00000000000E+00 -0.00000000000E+00 -0.83217229572E+01  0.83217229572E+01  0.00000000000E+00 0. -1.
         21    1    1    2  503  501  0.10085312064E+02 -0.28922442915E+02  0.30845839660E+02  0.43470530798E+02  0.00000000000E+00 0. -1.
         -1    1    1    2    0  502 -0.10085312064E+02  0.28922442915E+02  0.11472096272E+03  0.11873971750E+03  0.00000000000E+00 0. -1.
</event>
<event>
 4    1  0.1593135E+006  0.2818406E+02  0.7546771E-02  0.1436063E+00
         21   -1    0    0  503  502  0.00000000000E+00  0.00000000000E+00  0.41374686458E+03  0.41374686458E+03  0.00000000000E+00 0. -1.
         -1   -1    0    0    0  501 -0.00000000000E+00 -0.00000000000E+00 -0.21499116854E+03  0.21499116854E+03  0.00000000000E+00 0. -1.
         21    1    1    2  503  501  0.26014510242E+02 -0.10843742062E+02  0.41234005773E+03  0.41330214697E+03  0.00000000000E+00 0. -1.
         -1    1    1    2    0  502 -0.26014510242E+02  0.10843742062E+02 -0.21358436169E+03  0.21543588615E+03  0.00000000000E+00 0. -1.
</event>
<event>
 4    1  0.1593135E+006  0.2000259E+02  0.7546771E-02  0.1533996E+00
          4   -1    0    0  503    0 -0.00000000000E+00  0.00000000000E+00  0.46385925436E+01  0.46385925436E+01  0.00000000000E+00 0.  1.
         21   -1    0    0  501  502  0.00000000000E+00 -0.00000000000E+00 -0.23236209489E+03  0.23236209489E+03  0.00000000000E+00 0.  1.
         21    1    1    2  503  502 -0.10276859787E+02  0.17160707326E+02 -0.20782802489E+03  0.20878838965E+03  0.00000000000E+00 0.  1.
          4    1    1    2  501    0  0.10276859787E+02 -0.17160707326E+02 -0.19895477456E+02  0.28212297783E+02  0.00000000000E+00 0.  1.
</event>
<event>
 4    1  0.1593135E+006  0.4661020E+02  0.7546771E-02  0.1313579E+00
         21   -1    0    0  503  502  0.00000000000E+00  0.00000000000E+00  0.77648654302E+02  0.77648654302E+02  0.00000000000E+00 0.  1.
         -1   -1    0    0    0  501 -0.00000000000E+00 -0.00000000000E+00 -0.11900317793E+03  0.11900317793E+03  0.00000000000E+00 0.  1.
         21    1    1    2  503  501  0.34224540069E+02 -0.31641613819E+02  0.65316657790E+02  0.80241988091E+02  0.00000000000E+00 0.  1.
         -1    1    1    2    0  502 -0.34224540069E+02  0.31641613819E+02 -0.10667118141E+03  0.11640984414E+03  0.00000000000E+00 0.  1.
</event>
<event>
 4    1  0.1593135E+006  0.3342886E+02  0.7546771E-02  0.1391958E+00
         -3   -1    0    0    0  501 -0.00000000000E+00  0.00000000000E+00  0.91969190787E+02  0.91969190787E+02  0.00000000000E+00 0.  1.
         21   -1    0    0  503  502  0.00000000000E+00 -0.00000000000E+00 -0.32480463830E+02  0.32480463830E+02  0.00000000000E+00 0. -1.
         21    1    1    2  503  501  0.22313550116E+02  0.24891654827E+02 -0.19484394313E+02  0.38692772200E+02  0.00000000000E+00 0. -1.
         -3    1    1    2    0  502 -0.22313550116E+02 -0.24891654827E+02  0.78973121270E+02  0.85756882417E+02  0.00000000000E+00 0.  1.
</event>
<event>
 4    1  0.1593135E+006  0.2348017E+02  0.7546771E-02  0.1486555E+00
          1   -1    0    0  502    0 -0.00000000000E+00  0.00000000000E+00  0.31688843430E+02  0.31688843430E+02  0.00000000000E+00 0. -1.
         21   -1    0    0  503  502  0.00000000000E+00 -0.00000000000E+00 -0.99999540628E+02  0.99999540628E+02  0.00000000000E+00 0. -1.
         21    1    1    2  503  501  0.17259407441E+02  0.15919529381E+02 -0.93998281582E+02  0.96886508355E+02  0.00000000000E+00 0. -1.
          1    1    1    2  501    0 -0.17259407441E+02 -0.15919529381E+02  0.25687584384E+02  0.34801875703E+02  0.00000000000E+00 0. -1.
</event>
<event>
 4    1  0.1593135E+006  0.2199330E+02  0.7546771E-02  0.1505542E+00
         -2   -1    0    0    0  501 -0.00000000000E+00  0.00000000000E+00  0.36664522714E+03  0.36664522714E+03  0.00000000000E+00 0.  1.
         21   -1    0    0  503  502  0.00000000000E+00 -0.00000000000E+00 -0.29293097886E+01  0.29293097886E+01  0.00000000000E+00 0. -1.
         21    1    1    2  503  501  0.21419989651E+02 -0.49888995944E+01  0.44862137186E+02  0.49963150708E+02  0.00000000000E+00 0. -1.
         -2    1    1    2    0  502 -0.21419989651E+02  0.49888995944E+01  0.31885378017E+03  0.31961138622E+03  0.00000000000E+00 0.  1.
</event>
<event>
 4    1  0.1593135E+006  0.3794878E+02  0.7546771E-02  0.1360944E+00
          2   -1    0    0  503    0 -0.00000000000E+00  0.00000000000E+00  0.90240290462E+02  0.90240290462E+02  0.00000000000E+00 0.  1.
         21   -1    0    0  501  502  0.00000000000E+00 -0.00000000000E+00 -0.26576099133E+02  0.26576099133E+02  0.00000000000E+00 0.  1.
         21    1    1    2  503  502 -0.35437724398E+02 -0.13574899416E+02 -0.50859703673E+01  0.38288082992E+02  0.00000000000E+00 0.  1.
          2    1    1    2  501    0  0.35437724398E+02  0.13574899416E+02  0.68750161697E+02  0.78528306603E+02  0.00000000000E+00 0.  1.
</event>
<event>
 4    1  0.1593135E+006  0.2477492E+02  0.7546771E-02  0.1471337E+00
         21   -1    0    0  503  502  0.00000000000E+00  0.00000000000E+00  0.50543706237E+02  0.50543706237E+02  0.00000000000E+00 0. -1.
         -2   -1    0    0    0  501 -0.00000000000E+00 -0.00000000000E+00 -0.14651919949E+02  0.14651919949E+02  0.00000000000E+00 0. -1.
         21    1    1    2  503  501  0.21355939835E+02  0.12558683866E+02  0.31432677571E+02  0.40022617680E+02  0.00000000000E+00 0. -1.
         -2    1    1    2    0  502 -0.21355939835E+02 -0.12558683866E+02  0.44591087167E+01  0.25173008505E+02  0.00000000000E+00 0. -1.
</event>
<event>
 4    1  0.1593135E+006  0.2053389E+02  0.7546771E-02  0.1526025E+00
         21   -1    0    0  501  502  0.00000000000E+00  0.00000000000E+00  0.39314851474E+02  0.39314851474E+02  0.00000000000E+00 0. -1.
         -4   -1    0    0    0  501 -0.00000000000E+00 -0.00000000000E+00 -0.11818265799E+02  0.11818265799E+02  0.00000000000E+00 0. -1.
         21    1    1    2  503  502  0.82108061686E+01  0.18820817869E+02  0.21525347508E+02  0.29748632045E+02  0.00000000000E+00 0. -1.
         -4    1    1    2    0  503 -0.82108061686E+01 -0.18820817869E+02  0.59712381666E+01  0.21384485228E+02  0.00000000000E+00 0. -1.
</event>
<event>
 4    1  0.1593135E+006  0.2123010E+02  0.7546771E-02  0.1516005E+00
         21   -1    0    0  501  502  0.00000000000E+00  0.00000000000E+00  0.34735642640E+02  0.34735642640E+02  0.00000000000E+00 0.  1.
          1   -1    0    0  503    0 -0.00000000000E+00 -0.00000000000E+00 -0.54755566336E+02  0.54755566336E+02  0.00000000000E+00 0.  1.
         21    1    1    2  503  502 -0.12964012180E+02  0.16812239556E+02  0.29075937050E+02  0.36001765596E+02  0.00000000000E+00 0.  1.
          1    1    1    2  501    0  0.12964012180E+02 -0.16812239556E+02 -0.49095860747E+02  0.53489443380E+02  0.00000000000E+00 0.  1.
</event>
<event>
 4    1  0.1593135E+006  0.2675705E+02  0.7546771E-02  0.1450064E+00
          1   -1    0    0  503    0 -0.00000000000E+00  0.00000000000E+00  0.15313111411E+03  0.15313111411E+03  0.00000000000E+00 0. -1.
         21   -1    0    0  501  502  0.00000000000E+00 -0.00000000000E+00 -0.45481828814E+02  0.45481828814E+02  0.00000000000E+00 0.  1.
         21    1    1    2  503  502  0.11461836286E+02 -0.24177803374E+02 -0.40239307027E+02  0.48323303872E+02  0.00000000000E+00 0.  1.
          1    1    1    2  501    0 -0.11461836286E+02  0.24177803374E+02  0.14788859233E+03  0.15028963905E+03  0.00000000000E+00 0. -1.
</event>
<event>
 4    1  0.1593135E+006  0.2464891E+02  0.7546771E-02  0.1472770E+00
          1   -1    0    0  503    0 -0.00000000000E+00  0.00000000000E+00  0.20210617309E+02  0.20210617309E+02  0.00000000000E+00 0.  1.
         21   -1    0    0  501  502  0.00000000000E+00 -0.00000000000E+00 -0.41676563101E+02  0.41676563101E+02  0.00000000000E+00 0. -1.
         21    1    1    2  503  502 -0.14512042656E+01  0.24606150399E+02 -0.27068340674E+02  0.36609612100E+02  0.00000000000E+00 0. -1.
          1    1    1    2  501    0  0.14512042656E+01 -0.24606150399E+02  0.56023948816E+01  0.25277568310E+02  0.00000000000E+00 0.  1.
</event>
<event>
 4    1  0.1593135E+006  0.2387437E+02  0.7546771E-02  0.1481801E+00
         21   -1    0    0  503  502  0.00000000000E+00  0.00000000000E+00  0.62036203847E+00  0.62036203847E+00  0.00000000000E+00 0.  1.
          2   -1    0    0  502    0 -0.00000000000E+00 -0.00000000000E+00 -0.14552604202E+04  0.14552604202E+04  0.00000000000E+00 0.  1.
         21    1    1    2  503  501 -0.23835782881E+02 -0.13568386881E+01 -0.28534644422E+03  0.28634346297E+03  0.00000000000E+00 0.  1.
          2    1    1    2  501    0  0.23835782881E+02  0.13568386881E+01 -0.11692936140E+04  0.11695373193E+04  0.00000000000E+00 0.  1.
</event>
<event>
 4    1  0.1593135E+006  0.2962206E+02  0.7546771E-02  0.1422910E+00
         21   -1    0    0  503  502  0.00000000000E+00  0.00000000000E+00  0.44203963469E+02  0.44203963469E+02  0.00000000000E+00 0.  1.
          1   -1    0    0  502    0 -0.00000000000E+00 -0.00000000000E+00 -0.66978430545E+03  0.66978430545E+03  0.00000000000E+00 0. -1.
         21    1    1    2  503  501 -0.18665133673E+02 -0.23001723463E+02  0.38874056725E+02  0.48873906980E+02  0.00000000000E+00 0.  1.
          1    1    1    2  501    0  0.18665133673E+02  0.23001723463E+02 -0.66445439870E+03  0.66511436194E+03  0.00000000000E+00 0. -1.
</event>
<event>
 4    1  0.1593135E+006  0.2437465E+02  0.7546771E-02  0.1475922E+00
         21   -1    0    0  501  502  0.00000000000E+00  0.00000000000E+00  0.24083132034E+02  0.24083132034E+02  0.00000000000E+00 0. -1.
         -3   -1    0    0    0  501 -0.00000000000E+00 -0.00000000000E+00 -0.90406439942E+02  0.90406439942E+02  0.00000000000E+00 0. -1.
         21    1    1    2  503  502 -0.14413952068E+02 -0.19656076741E+02  0.15651893574E+02  0.28967311569E+02  0.00000000000E+00 0. -1.
         -3    1    1    2    0  503  0.14413952068E+02  0.19656076741E+02 -0.81975201483E+02  0.85522260407E+02  0.00000000000E+00 0. -1.
</event>
<event>
 4    1  0.1593135E+006  0.2533752E+02  0.7546771E-02  0.1465063E+00
         21   -1    0    0  503  502  0.00000000000E+00  0.00000000000E+00  0.30863789730E+03  0.30863789730E+03  0.00000000000E+00 0.  1.
         -2   -1    0    0    0  501 -0.00000000000E+00 -0.00000000000E+00 -0.62807046427E+02  0.62807046427E+02  0.00000000000E+00 0. -1.
         21    1    1    2  503  501  0.14629951645E+01 -0.25295243072E+02  0.30553658020E+03  0.30658537395E+03  0.00000000000E+00 0.  1.
         -2    1    1    2    0  502 -0.14629951645E+01  0.25295243072E+02 -0.59705729331E+02  0.64859569778E+02  0.00000000000E+00 0. -1.
</event>
<event>
 4    1  0.1593135E+006  0.2133987E+02  0.7546771E-02  0.1514467E+00
         -1   -1    0    0    0  501 -0.00000000000E+00  0.00000000000E+00  0.15802825701E+03  0.15802825701E+03  0.00000000000E+00 0.  1.
         21   -1    0    0  503  502  0.00000000000E+00 -0.00000000000E+00 -0.62029235746E+03  0.62029235746E+03  0.00000000000E+00 0.  1.
         21    1    1    2  503  501 -0.44347969977E+01  0.20873969095E+02 -0.61938734170E+03  0.61975484594E+03  0.00000000000E+00 0.  1.
         -1    1    1    2    0  502  0.44347969977E+01 -0.20873969095E+02  0.15712324125E+03  0.15856576854E+03  0.00000000000E+00 0.  1.
</event>
<event>
 4    1  0.1593135E+006  0.2158856E+02  0.7546771E-02  0.1511025E+00
         -1   -1    0    0    0  501 -0.00000000000E+00  0.00000000000E+00  0.64258810361E+03  0.64258810361E+03  0.00000000000E+00 0. -1.
         21   -1    0    0  501  502  0.00000000000E+00 -0.00000000000E+00 -0.77017421334E+00  0.77017421334E+00  0.00000000000E+00 0. -1.
         21    1    1    2  503  502 -0.12061543592E+02 -0.17904887772E+02  0.39856080834E+03  0.39914506609E+03  0.00000000000E+00 0. -1.
         -1    1    1    2    0  503  0.12061543592E+02  0.17904887772E+02  0.24325712105E+03  0.24421321173E+03  0.00000000000E+00 0. -1.
</event>
<event>
 4    1  0.1593135E+006  0.2204059E+02  0.7546771E-02  0.1504910E+00
          4   -1    0    0  502    0 -0.00000000000E+00  0.00000000000E+00  0.13040480781E+03  0.13040480781E+03  0.00000000000E+00 0. -1.
         21   -1    0    0  503  502  0.00000000000E+00 -0.00000000000E+00 -0.82051833642E+01  0.82051833642E+01  0.00000000000E+00 0. -1.
         21    1    1    2  503  501  0.30534746188E+01  0.21828052884E+02  0.98895200486E+01  0.24157611777E+02  0.00000000000E+00 0. -1.
          4    1    1    2  501    0 -0.30534746188E+01 -0.21828052884E+02  0.11231010440E+03  0.11445237940E+03  0.00000000000E+00 0. -1.
</event>
<event>
 4    1  0.1593135E+006  0.2307703E+02  0.7546771E-02  0.1491533E+00
         -3   -1    0    0    0  501 -0.00000000000E+00  0.00000000000E+00  0.78993958251E+01  0.78993958251E+01  0.00000000000E+00 0. -1.
         21   -1    0    0  501  502  0.00000000000E+00 -0.00000000000E+00 -0.31369348826E+03  0.31369348826E+03  0.00000000000E+00 0. -1.
         21    1    1    2  503  502 -0.41894147852E+00 -0.23073225889E+02 -0.29537105347E+03  0.29627117391E+03  0.00000000000E+00 0. -1.
         -3    1    1    2    0  503  0.41894147852E+00  0.23073225889E+02 -0.10423038971E+02  0.25321710176E+02  0.00000000000E+00 0. -1.
</event>
<event>
 4    1  0.1593135E+006  0.2379317E+02  0.7546771E-02  0.1482771E+00
         -2   -1    0    0    0  501 -0.00000000000E+00  0.00000000000E+00  0.43468454240E+02  0.43468454240E+02  0.00000000000E+00 0. -1.
         21   -1    0    0  503  502  0.00000000000E+00 -0.00000000000E+00 -0.27127492543E+02  0.27127492543E+02  0.00000000000E+00 0.  1.
         21    1    1    2  503  501 -0.23633177425E+02 -0.27546040432E+01 -0.17281098597E+02  0.29406653793E+02  0.00000000000E+00 0.  1.
         -2    1    1    2    0  502  0.23633177425E+02  0.27546040432E+01  0.33622060293E+02  0.41189292989E+02  0.00000000000E+00 0. -1.
</event>
<event>
 4    1  0.1593135E+006  0.2064911E+02  0.7546771E-02  0.1524334E+00
         -1   -1    0    0    0  501 -0.00000000000E+00  0.00000000000E+00  0.25530246621E+02  0.25530246621E+02  0.00000000000E+00 0. -1.
         21   -1    0    0  503  502  0.00000000000E+00 -0.00000000000E+00 -0.12303971131E+03  0.12303971131E+03  0.00000000000E+00 0. -1.
         21    1    1    2  503  501  0.18448643123E+02  0.92754188428E+01 -0.11781426503E+03  0.11961014535E+03  0.00000000000E+00 0. -1.
         -1    1    1    2    0  502 -0.18448643123E+02 -0.92754188428E+01  0.20304800338E+02  0.28959812578E+02  0.00000000000E+00 0. -1.
</event>
<event>
 4    1  0.1593135E+006  0.2940411E+02  0.7546771E-02  0.1424846E+00
         21   -1    0    0  501  502  0.00000000000E+00  0.00000000000E+00  0.18730843329E+01  0.18730843329E+01  0.00000000000E+00 0. -1.
          2   -1    0    0  503    0 -0.00000000000E+00 -0.00000000000E+00 -0.46232929629E+03  0.46232929629E+03  0.00000000000E+00 0. -1.
         21    1    1    2  503  502 -0.94720849079E+01 -0.27836686309E+02 -0.22096185345E+03  0.22290971754E+03  0.00000000000E+00 0. -1.
          2    1    1    2  501    0  0.94720849079E+01  0.27836686309E+02 -0.23949435852E+03  0.24129266308E+03  0.00000000000E+00 0. -1.
</event>
<event>
 4    1  0.1593135E+006  0.2034634E+02  0.7546771E-02  0.1528806E+00
          2   -1    0    0  503    0 -0.00000000000E+00  0.00000000000E+00  0.19848278586E+02  0.19848278586E+02  0.00000000000E+00 0.  1.
         21   -1    0    0  501  502  0.00000000000E+00 -0.00000000000E+00 -0.26818363692E+02  0.26818363692E+02  0.00000000000E+00 0. -1.
         21    1    1    2  503  502 -0.19515831267E+02  0.57537580688E+01 -0.14486169213E+02  0.24976438906E+02  0.00000000000E+00 0. -1.
          2    1    1    2  501    0  0.19515831267E+02 -0.57537580688E+01  0.75160841073E+01  0.21690203371E+02  0.00000000000E+00 0.  1.
</event>
<event>
 4    1  0.1593135E+006  0.2424227E+02  0.7546771E-02  0.1477462E+00
         21   -1    0    0  503  502  0.00000000000E+00  0.00000000000E+00  0.21106934689E+01  0.21106934689E+01  0.00000000000E+00 0.  1.
          2   -1    0    0  502    0 -0.00000000000E+00 -0.00000000000E+00 -0.76689743877E+03  0.76689743877E+03  0.00000000000E+00 0.  1.
         21    1    1    2  503  501  0.23400850757E+02 -0.63314864911E+01 -0.75527497466E+02  0.79322697955E+02  0.00000000000E+00 0.  1.
          2    1    1    2  501    0 -0.23400850757E+02  0.63314864911E+01 -0.68925924783E+03  0.68968543428E+03  0.00000000000E+00 0.  1.
</event>
<event>
 4    1  0.1593135E+006  0.2699516E+02  0.7546771E-02  0.1447657E+00
         21   -1    0    0  501  502  0.00000000000E+00  0.00000000000E+00  0.28415043617E+03  0.28415043617E+03  0.00000000000E+00 0.  1.
         -4   -1    0    0    0  501 -0.00000000000E+00 -0.00000000000E+00 -0.36090074174E+01  0.36090074174E+01  0.00000000000E+00 0.  1.
         21    1    1    2  503  502 -0.18244933263E+02 -0.19896253260E+02  0.21766984533E+03  0.21933741142E+03  0.00000000000E+00 0.  1.
         -4    1    1    2    0  503  0.18244933263E+02  0.19896253260E+02  0.62871583424E+02  0.68422032167E+02  0.00000000000E+00 0.  1.
</event>
<event>
 4    1  0.1593135E+006  0.2733196E+02  0.7546771E-02  0.1444302E+00
          2   -1    0    0  503    0 -0.00000000000E+00  0.00000000000E+00  0.20309907700E+02  0.20309907700E+02  0.00000000000E+00 0.  1.
         21   -1    0    0  501  502  0.00000000000E+00 -0.00000000000E+00 -0.36829753572E+02  0.36829753572E+02  0.00000000000E+00 0.  1.
         21    1    1    2  503  502 -0.19135744390E+02  0.19515618266E+02 -0.72296035565E+01  0.28271951423E+02  0.00000000000E+00 0.  1.
          2    1    1    2  501    0  0.19135744390E+02 -0.19515618266E+02 -0.92902423152E+01  0.28867709849E+02  0.00000000000E+00 0.  1.
</event>
<event>
 4    1  0.1593135E+006  0.2076396E+02  0.7546771E-02  0.1522662E+00
         21   -1    0    0  503  502  0.00000000000E+00  0.00000000000E+00  0.36057083427E+01  0.36057083427E+01  0.00000000000E+00 0.  1.
          2   -1    0    0  502    0 -0.00000000000E+00 -0.00000000000E+00 -0.52297288633E+03  0.52297288633E+03  0.00000000000E+00 0.  1.
         21    1    1    2  503  501 -0.14852996692E+02 -0.14509674512E+02 -0.28444110077E+02  0.35216609196E+02  0.00000000000E+00 0.  1.
          2    1    1    2  501    0  0.14852996692E+02  0.14509674512E+02 -0.49092306791E+03  0.49136198548E+03  0.00000000000E+00 0.  1.
</event>
<event>
 4    1  0.1593135E+006  0.2348123E+02  0.7546771E-02  0.1486542E+00
         -1   -1    0    0    0  501 -0.00000000000E+00  0.00000000000E+00  0.14510031460E+03  0.14510031460E+03  0.00000000000E+00 0. -1.
         21   -1    0    0  503  502  0.00000000000E+00 -0.00000000000E+00 -0.38088930570E+01  0.38088930570E+01  0.00000000000E+00 0. -1.
         21    1    1    2  503  501 -0.22053996565E+02  0.80616137077E+01  0.67030249983E+02  0.71024100085E+02  0.00000000000E+00 0. -1.
         -1    1    1    2    0  502  0.22053996565E+02 -0.80616137077E+01  0.74261171562E+02  0.77885107574E+02  0.00000000000E+00 0. -1.
</event>
<event>
 4    1  0.1593135E+006  0.2209846E+02  0.7546771E-02  0.1504140E+00
         21   -1    0    0  503  502  0.00000000000E+00  0.00000000000E+00  0.71873045484E+03  0.71873045484E+03  0.00000000000E+00 0. -1.
         -2   -1    0    0    0  501 -0.00000000000E+00 -0.00000000000E+00 -0.25679345140E+01  0.25679345140E+01  0.00000000000E+00 0.  1.
         21    1    1    2  503  501 -0.19672437752E+02  0.10066645064E+02  0.66735966000E+03  0.66772543605E+03  0.00000000000E+00 0. -1.
         -2    1    1    2    0  502  0.19672437752E+02 -0.10066645064E+02  0.48802860328E+02  0.53572953308E+02  0.00000000000E+00 0.  1.
</event>
<event>
 4    1  0.1593135E+006  0.3122093E+02  0.7546771E-02  0.1409275E+00
          4   -1    0    0  503    0 -0.00000000000E+00  0.00000000000E+00  0.38527032274E+03  0.38527032274E+03  0.00000000000E+00 0.  1.
         21   -1    0    0  501  502  0.00000000000E+00 -0.00000000000E+00 -0.52160766426E+01  0.52160766426E+01  0.00000000000E+00 0.  1.
         21    1    1    2  503  502  0.24400337772E+02 -0.19477426995E+02  0.49919919958E+02  0.58879071446E+02  0.00000000000E+00 0.  1.
          4    1    1    2  501    0 -0.24400337772E+02  0.19477426995E+02  0.33013432614E+03  0.33160732793E+03  0.00000000000E+00 0.  1.
</event>
<event>
 4    1  0.1593135E+006  0.2360422E+02  0.7546771E-02  0.1485047E+00
         21   -1    0    0  503  502  0.00000000000E+00  0.00000000000E+00  0.49837175198E+03  0.49837175198E+03  0.00000000000E+00 0.  1.
         -2   -1    0    0    0  501 -0.00000000000E+00 -0.00000000000E+00 -0.30998230104E+02  0.30998230104E+02  0.00000000000E+00 0.  1.
         21    1    1    2  503  501 -0.26926016811E+01  0.23450137124E+02  0.49355495924E+03  0.49411907150E+03  0.00000000000E+00 0.  1.
         -2    1    1    2    0  502  0.26926016811E+01 -0.23450137124E+02 -0.26181437358E+02  0.35250910585E+02  0.00000000000E+00 0.  1.
</event>
<event>
 4    1  0.1593135E+006  0.2512767E+02  0.7546771E-02  0.1467380E+00
         21   -1    0    0  503  502  0.00000000000E+00  0.00000000000E+00  0.16518344547E+04  0.16518344547E+04  0.00000000000E+00 0. -1.
          2   -1    0    0  502    0 -0.00000000000E+00 -0.00000000000E+00 -0.16817504679E+01  0.16817504679E+01  0.00000000000E+00 0. -1.
         21    1    1    2  503  501  0.14476201307E+02  0.20538730018E+02  0.15518301434E+04  0.15520335672E+04  0.00000000000E+00 0. -1.
          2    1    1    2  501    0 -0.14476201307E+02 -0.20538730018E+02  0.98322560866E+02  0.10148263797E+03  0.00000000000E+00 0. -1.
</event>
<event>
 4    1  0.1593135E+006  0.4911677E+02  0.7546771E-02  0.1302048E+00
          2   -1    0    0  503    0 -0.00000000000E+00  0.00000000000E+00  0.11027314826E+03  0.11027314826E+03  0.00000000000E+00 0. -1.
         21   -1    0    0  501  502  0.00000000000E+00 -0.00000000000E+00 -0.11458842413E+03  0.11458842413E+03  0.00000000000E+00 0.  1.
         21    1    1    2  503  502 -0.68320821552E+00  0.49112019040E+02 -0.10328792862E+03  0.11437155846E+03  0.00000000000E+00 0.  1.
          2    1    1    2  501    0  0.68320821552E+00 -0.49112019040E+02  0.98972652741E+02  0.11049001393E+03  0.00000000000E+00 0. -1.
</event>
<event>
 4    1  0.1593135E+006  0.2158180E+02  0.7546771E-02  0.1511118E+00
         -3   -1    0    0    0  501 -0.00000000000E+00  0.00000000000E+00  0.60627682379E+03  0.60627682379E+03  0.00000000000E+00 0.  1.
         21   -1    0    0  501  502  0.00000000000E+00 -0.00000000000E+00 -0.16067714404E+01  0.16067714404E+01  0.00000000000E+00 0.  1.
         21    1    1    2  503  502 -0.62128260447E+00 -0.21572853005E+02  0.82766701099E+02  0.85534208301E+02  0.00000000000E+00 0.  1.
         -3    1    1    2    0  503  0.62128260447E+00  0.21572853005E+02  0.52190335125E+03  0.52234938693E+03  0.00000000000E+00 0.  1.
</event>
<event>
 4    1  0.1593135E+006  0.2497271E+02  0.7546771E-02  0.1469109E+00
         21   -1    0    0  503  502  0.00000000000E+00  0.00000000000E+00  0.36524701481E+01  0.36524701481E+01  0.00000000000E+00 0.  1.
          1   -1    0    0  502    0 -0.00000000000E+00 -0.00000000000E+00 -0.17361607721E+03  0.17361607721E+03  0.00000000000E+00 0. -1.
         21    1    1    2  503  501  0.22082823437E+02  0.11661268289E+02 -0.73581211129E+02  0.77703480619E+02  0.00000000000E+00 0.  1.
          1    1    1    2  501    0 -0.22082823437E+02 -0.11661268289E+02 -0.96382395937E+02  0.99565066743E+02  0.00000000000E+00 0. -1.
</event>
<event>
 4    1  0.1593135E+006  0.2055785E+02  0.7546771E-02  0.1525672E+00
          2   -1    0    0  502    0 -0.00000000000E+00  0.00000000000E+00  0.47273372471E+02  0.47273372471E+02  0.00000000000E+00 0. -1.
         21   -1    0    0  503  502  0.00000000000E+00 -0.00000000000E+00 -0.47928704563E+02  0.47928704563E+02  0.00000000000E+00 0.  1.
         21    1    1    2  503  501 -0.16190058427E+02 -0.12669140677E+02 -0.43260331046E+02  0.47896569392E+02  0.00000000000E+00 0.  1.
          2    1    1    2  501    0  0.16190058427E+02  0.12669140677E+02  0.42604998954E+02  0.47305507642E+02  0.00000000000E+00 0. -1.
</event>
<event>
 4    1  0.1593135E+006  0.2450913E+02  0.7546771E-02  0.1474370E+00
         -2   -1    0    0    0  501 -0.00000000000E+00  0.00000000000E+00  0.67527388074E+03  0.67527388074E+03  0.00000000000E+00 0.  1.
         21   -1    0    0  503  502  0.00000000000E+00 -0.00000000000E+00 -0.10552440484E+03  0.10552440484E+03  0.00000000000E+00 0.  1.
         21    1    1    2  503  501  0.87132780939E+01 -0.22907992340E+02 -0.10387540782E+03  0.10672768000E+03  0.00000000000E+00 0.  1.
         -2    1    1    2    0  502 -0.87132780939E+01  0.22907992340E+02  0.67362488373E+03  0.67407060558E+03  0.00000000000E+00 0.  1.
</event>
<event>
 4    1  0.1593135E+006  0.2917771E+02  0.7546771E-02  0.1426879E+00
         21   -1    0    0  501  502  0.00000000000E+00  0.00000000000E+00  0.72494254991E+01  0.72494254991E+01  0.00000000000E+00 0. -1.
          2   -1    0    0  503    0 -0.00000000000E+00 -0.00000000000E+00 -0.20955345889E+04  0.20955345889E+04  0.00000000000E+00 0. -1.
         21    1    1    2  503  502  0.25289805460E+02  0.14552134237E+02 -0.22635712430E+02  0.36928503196E+02  0.00000000000E+00 0. -1.
          2    1    1    2  501    0 -0.25289805460E+02 -0.14552134237E+02 -0.20656494510E+04  0.20658555112E+04  0.00000000000E+00 0. -1.
</event>
<event>
 4    1  0.1593135E+006  0.2280752E+02  0.7546771E-02  0.1494929E+00
         21   -1    0    0  503  502  0.00000000000E+00  0.00000000000E+00  0.13500228127E+03  0.13500228127E+03  0.00000000000E+00 0. -1.
          2   -1    0    0  502    0 -0.00000000000E+00 -0.00000000000E+00 -0.44077336915E+01  0.44077336915E+01  0.00000000000E+00 0.  1.
         21    1    1    2  503  501  0.20387892317E+02  0.10223353870E+02  0.90022628320E+02  0.92866876372E+02  0.00000000000E+00 0. -1.
          2    1    1    2  501    0 -0.20387892317E+02 -0.10223353870E+02  0.40571919263E+02  0.46543138593E+02  0.00000000000E+00 0.  1.
</event>
<event>
 4    1  0.1593135E+006  0.4382376E+02  0.7546771E-02  0.1327427E+00
         21   -1    0    0  503  502  0.00000000000E+00  0.00000000000E+00  0.96106552953E+00  0.96106552953E+00  0.00000000000E+00 0. -1.
          2   -1    0    0  502    0 -0.00000000000E+00 -0.00000000000E+00 -0.22231540733E+04  0.22231540733E+04  0.00000000000E+00 0. -1.
         21    1    1    2  503  501  0.16170272481E+02 -0.40731363308E+02 -0.75745084774E+03  0.75871754191E+03  0.00000000000E+00 0. -1.
          2    1    1    2  501    0 -0.16170272481E+02  0.40731363308E+02 -0.14647421600E+04  0.14653975969E+04  0.00000000000E+00 0. -1.
</event>
<event>
 4    1  0.1593135E+006  0.2239152E+02  0.7546771E-02  0.1500283E+00
         21   -1    0    0  501  502  0.00000000000E+00  0.00000000000E+00  0.27683770490E+00  0.27683770490E+00  0.00000000000E+00 0. -1.
          2   -1    0    0  503    0 -0.00000000000E+00 -0.00000000000E+00 -0.18788474679E+04  0.18788474679E+04  0.00000000000E+00 0.  1.
         21    1    1    2  503  502 -0.21574724821E+02 -0.59926288489E+01 -0.11177002063E+04  0.11179244749E+04  0.00000000000E+00 0. -1.
          2    1    1    2  501    0  0.21574724821E+02  0.59926288489E+01 -0.76087042390E+03  0.76119983074E+03  0.00000000000E+00 0.  1.
</event>
<event>
 4    1  0.1593135E+006  0.3403584E+02  0.7546771E-02  0.1387471E+00
         21   -1    0    0  501  502  0.00000000000E+00  0.00000000000E+00  0.32653455305E+02  0.32653455305E+02  0.00000000000E+00 0. -1.
          4   -1    0    0  503    0 -0.00000000000E+00 -0.00000000000E+00 -0.41052743490E+03  0.41052743490E+03  0.00000000000E+00 0. -1.
         21    1    1    2  503  502 -0.20258124032E+01  0.33975501930E+02  0.22862502794E+02  0.41001618033E+02  0.00000000000E+00 0. -1.
          4    1    1    2  501    0  0.20258124032E+01 -0.33975501930E+02 -0.40073648239E+03  0.40217927217E+03  0.00000000000E+00 0. -1.
</event>
<event>
 4    1  0.1593135E+006  0.2012664E+02  0.7546771E-02  0.1532109E+00
         -1   -1    0    0    0  501 -0.00000000000E+00  0.00000000000E+00  0.25988815405E+03  0.25988815405E+03  0.00000000000E+00 0.  1.
         21   -1    0    0  501  502  0.00000000000E+00 -0.00000000000E+00 -0.24276249558E+02  0.24276249558E+02  0.00000000000E+00 0.  1.
         21    1    1    2  503  502 -0.18000687704E+02  0.90031509851E+01 -0.19639334385E+02  0.28120898644E+02  0.00000000000E+00 0.  1.
         -1    1    1    2    0  503  0.18000687704E+02 -0.90031509851E+01  0.25525123888E+03  0.25604350496E+03  0.00000000000E+00 0.  1.
</event>
<event>
 4    1  0.1593135E+006  0.2655761E+02  0.7546771E-02  0.1452103E+00
          1   -1    0    0  502    0 -0.00000000000E+00  0.00000000000E+00  0.34014550960E+03  0.34014550960E+03  0.00000000000E+00 0. -1.
         21   -1    0    0  503  502  0.00000000000E+00 -0.00000000000E+00 -0.41681240074E+01  0.41681240074E+01  0.00000000000E+00 0. -1.
         21    1    1    2  503  501 -0.75063462624E+01  0.25474723416E+02  0.45948647894E+02  0.53071508464E+02  0.00000000000E+00 0. -1.
          1    1    1    2  501    0  0.75063462624E+01 -0.25474723416E+02  0.29002873770E+03  0.29124212515E+03  0.00000000000E+00 0. -1.
</event>
<event>
 4    1  0.1593135E+006  0.4741698E+02  0.7546771E-02  0.1309777E+00
          2   -1    0    0  502    0 -0.00000000000E+00  0.00000000000E+00  0.85493271101E+03  0.85493271101E+03  0.00000000000E+00 0.  1.
         21   -1    0    0  503  502  0.00000000000E+00 -0.00000000000E+00 -0.45859864894E+02  0.45859864894E+02  0.00000000000E+00 0. -1.
         21    1    1    2  503  501  0.38381791044E+02 -0.27842557022E+02 -0.32755003055E+02  0.57630374720E+02  0.00000000000E+00 0. -1.
          2    1    1    2  501    0 -0.38381791044E+02  0.27842557022E+02  0.84182784917E+03  0.84316220119E+03  0.00000000000E+00 0.  1.
</event>
<event>
 4    1  0.1593135E+006  0.2668392E+02  0.7546771E-02  0.1450809E+00
         21   -1    0    0  503  502  0.00000000000E+00  0.00000000000E+00  0.39440795444E+01  0.39440795444E+01  0.00000000000E+00 0. -1.
          2   -1    0    0  502    0 -0.00000000000E+00 -0.00000000000E+00 -0.51971105455E+03  0.51971105455E+03  0.00000000000E+00 0. -1.
         21    1    1    2  503  501 -0.26185607155E+02  0.51327745954E+01 -0.46364628237E+02  0.53494954423E+02  0.00000000000E+00 0. -1.
          2    1    1    2  501    0  0.26185607155E+02 -0.51327745954E+01 -0.46940234677E+03  0.47016017968E+03  0.00000000000E+00 0. -1.
</event>
<event>
 4    1  0.1593135E+006  0.2226666E+02  0.7546771E-02  0.1501918E+00
         -3   -1    0    0    0  501 -0.00000000000E+00  0.00000000000E+00  0.63177628740E+03  0.63177628740E+03  0.00000000000E+00 0.  1.
         21   -1    0    0  503  502  0.00000000000E+00 -0.00000000000E+00 -0.11394814824E+02  0.11394814824E+02  0.00000000000E+00 0. -1.
         21    1    1    2  503  501 -0.17748068937E+02  0.13446570551E+02 -0.12323884724E+00  0.22267002456E+02  0.00000000000E+00 0. -1.
         -3    1    1    2    0  502  0.17748068937E+02 -0.13446570551E+02  0.62050471142E+03  0.62090409977E+03  0.00000000000E+00 0.  1.
</event>
<event>
 4    1  0.1593135E+006  0.2601146E+02  0.7546771E-02  0.1457799E+00
         -1   -1    0    0    0  501 -0.00000000000E+00  0.00000000000E+00  0.13249563647E+03  0.13249563647E+03  0.00000000000E+00 0.  1.
         21   -1    0    0  501  502  0.00000000000E+00 -0.00000000000E+00 -0.20983804454E+02  0.20983804454E+02  0.00000000000E+00 0. -1.
         21    1    1    2  503  502  0.25721262320E+02 -0.38746082863E+01 -0.10996311997E+02  0.28240304570E+02  0.00000000000E+00 0. -1.
         -1    1    1    2    0  503 -0.25721262320E+02  0.38746082863E+01  0.12250814401E+03  0.12523913635E+03  0.00000000000E+00 0.  1.
</event>
<event>
 4    1  0.1593135E+006  0.2199633E+02  0.7546771E-02  0.1505501E+00
         21   -1    0    0  501  502  0.00000000000E+00  0.00000000000E+00  0.46293766708E+02  0.46293766708E+02  0.00000000000E+00 0.  1.
          2   -1    0    0  503    0 -0.00000000000E+00 -0.00000000000E+00 -0.12891730127E+02  0.12891730127E+02  0.00000000000E+00 0.  1.
         21    1    1    2  503  502  0.90287303177E+01 -0.20057930454E+02  0.29575997833E+02  0.36858895711E+02  0.00000000000E+00 0.  1.
          2    1    1    2  501    0 -0.90287303177E+01  0.20057930454E+02  0.38260387479E+01  0.22326601124E+02  0.00000000000E+00 0.  1.
</event>
<event>
 4    1  0.1593135E+006  0.2815378E+02  0.7546771E-02  0.1436350E+00
         21   -1    0    0  501  502  0.00000000000E+00  0.00000000000E+00  0.27884113178E+01  0.27884113178E+01  0.00000000000E+00 0.  1.
          2   -1    0    0  503    0 -0.00000000000E+00 -0.00000000000E+00 -0.13730415678E+04  0.13730415678E+04  0.00000000000E+00 0. -1.
         21    1    1    2  503  502 -0.26761754357E+02 -0.87432143635E+01 -0.72546028402E+02  0.77817488591E+02  0.00000000000E+00 0.  1.
          2    1    1    2  501    0  0.26761754357E+02  0.87432143635E+01 -0.12977071280E+04  0.12980124905E+04  0.00000000000E+00 0. -1.
</event>
<event>
 4    1  0.1593135E+006  0.3368885E+02  0.7546771E-02  0.1390023E+00
         21   -1    0    0  501  502  0.00000000000E+00  0.00000000000E+00  0.51930509091E+02  0.51930509091E+02  0.00000000000E+00 0. -1.
          1   -1    0    0  503    0 -0.00000000000E+00 -0.00000000000E+00 -0.12314156595E+03  0.12314156595E+03  0.00000000000E+00 0. -1.
         21    1    1    2  503  502  0.11928225230E+02 -0.31506444110E+02  0.43783517436E+02  0.55244320764E+02  0.00000000000E+00 0. -1.
          1    1    1    2  501    0 -0.11928225230E+02  0.31506444110E+02 -0.11499457430E+03  0.11982775428E+03  0.00000000000E+00 0. -1.
</event>
<event>
 4    1  0.1593135E+006  0.3654522E+02  0.7546771E-02  0.1370013E+00
         21   -1    0    0  501  502  0.00000000000E+00  0.00000000000E+00  0.54386639049E+01  0.54386639049E+01  0.00000000000E+00 0. -1.
          2   -1    0    0  503    0 -0.00000000000E+00 -0.00000000000E+00 -0.11646102863E+04  0.11646102863E+04  0.00000000000E+00 0. -1.
         21    1    1    2  503  502 -0.36493863818E+02  0.19368215754E+01 -0.59886861934E+02  0.70156892793E+02  0.00000000000E+00 0. -1.
          2    1    1    2  501    0  0.36493863818E+02 -0.19368215754E+01 -0.10992847605E+04  0.10998920574E+04  0.00000000000E+00 0. -1.
</event>
<event>
 4    1  0.1593135E+006  0.2337030E+02  0.7546771E-02  0.1487900E+00
         21   -1    0    0  501  502  0.00000000000E+00  0.00000000000E+00  0.64749399869E+03  0.64749399869E+03  0.00000000000E+00 0. -1.
         -4   -1    0    0    0  501 -0.00000000000E+00 -0.00000000000E+00 -0.84431029458E+00  0.84431029458E+00  0.00000000000E+00 0. -1.
         21    1    1    2  503  502  0.16262567462E+02 -0.16783919939E+02  0.33327233434E+03  0.33409073604E+03  0.00000000000E+00 0. -1.
         -4    1    1    2    0  503 -0.16262567462E+02  0.16783919939E+02  0.31337735405E+03  0.31424757295E+03  0.00000000000E+00 0. -1.
</event>
<event>
 4    1  0.1593135E+006  0.2092142E+02  0.7546771E-02  0.1520390E+00
         -3   -1    0    0    0  501 -0.00000000000E+00  0.00000000000E+00  0.24492133554E+02  0.24492133554E+02  0.00000000000E+00 0. -1.
         21   -1    0    0  503  502  0.00000000000E+00 -0.00000000000E+00 -0.25301934705E+02  0.25301934705E+02  0.00000000000E+00 0. -1.
         21    1    1    2  503  501 -0.20812757247E+02  0.21295896643E+01  0.13087337736E+02  0.24677609798E+02  0.00000000000E+00 0. -1.
         -3    1    1    2    0  502  0.20812757247E+02 -0.21295896643E+01 -0.13897138887E+02  0.25116458461E+02  0.00000000000E+00 0. -1.
</event>
<event>
 4    1  0.1593135E+006  0.5018249E+02  0.7546771E-02  0.1297383E+00
         21   -1    0    0  501  502  0.00000000000E+00  0.00000000000E+00  0.24268813869E+02  0.24268813869E+02  0.00000000000E+00 0.  1.
         -3   -1    0    0    0  501 -0.00000000000E+00 -0.00000000000E+00 -0.27796289917E+03  0.27796289917E+03  0.00000000000E+00 0.  1.
         21    1    1    2  503  502  0.41711756308E+02 -0.27900037921E+02 -0.72180145702E+01  0.50698939482E+02  0.00000000000E+00 0.  1.
         -3    1    1    2    0  503 -0.41711756308E+02  0.27900037921E+02 -0.24647607073E+03  0.25153277355E+03  0.00000000000E+00 0.  1.
</event>
<event>
 4    1  0.1593135E+006  0.4964815E+02  0.7546771E-02  0.1299705E+00
          2   -1    0    0  503    0 -0.00000000000E+00  0.00000000000E+00  0.69698015617E+03  0.69698015617E+03  0.00000000000E+00 0.  1.
         21   -1    0    0  501  502  0.00000000000E+00 -0.00000000000E+00 -0.41261625540E+01  0.41261625540E+01  0.00000000000E+00 0.  1.
         21    1    1    2  503  502 -0.39240346202E+02 -0.30416013296E+02  0.21391768553E+03  0.21960354008E+03  0.00000000000E+00 0.  1.
          2    1    1    2  501    0  0.39240346202E+02  0.30416013296E+02  0.47893630809E+03  0.48150277865E+03  0.00000000000E+00 0.  1.
</event>
<event>
 4    1  0.1593135E+006  0.2969215E+02  0.7546771E-02  0.1422291E+00
         21   -1    0    0  503  502  0.00000000000E+00  0.00000000000E+00  0.17953097136E+01  0.17953097136E+01  0.00000000000E+00 0.  1.
          1   -1    0    0  502    0 -0.00000000000E+00 -0.00000000000E+00 -0.15388023262E+04  0.15388023262E+04  0.00000000000E+00 0.  1.
         21    1    1    2  503  501  0.16837901308E+02 -0.24456261930E+02 -0.13289035015E+03  0.13616706221E+03  0.00000000000E+00 0.  1.
          1    1    1    2  501    0 -0.16837901308E+02  0.24456261930E+02 -0.14041166663E+04  0.14044305737E+04  0.00000000000E+00 0.  1.
</event>
<event>
 4    1  0.1593135E+006  0.2780586E+02  0.7546771E-02  0.1439677E+00
          2   -1    0    0  503    0 -0.00000000000E+00  0.00000000000E+00  0.18931077581E+03  0.18931077581E+03  0.00000000000E+00 0.  1.
         21   -1    0    0  501  502  0.00000000000E+00 -0.00000000000E+00 -0.11687809870E+02  0.11687809870E+02  0.00000000000E+00 0. -1.
         21    1    1    2  503  502 -0.25809472073E+02 -0.10345862590E+02  0.77510410915E+01  0.28865972345E+02  0.00000000000E+00 0. -1.
          2    1    1    2  501    0  0.25809472073E+02  0.10345862590E+02  0.16987192485E+03  0.17213261334E+03  0.00000000000E+00 0.  1.
</event>
<event>
 4    1  0.1593135E+006  0.3107885E+02  0.7546771E-02  0.1410447E+00
          3   -1    0    0  503    0 -0.00000000000E+00  0.00000000000E+00  0.63156459509E+02  0.63156459509E+02  0.00000000000E+00 0. -1.
         21   -1    0    0  501  502  0.00000000000E+00 -0.00000000000E+00 -0.30459478681E+02  0.30459478681E+02  0.00000000000E+00 0. -1.
         21    1    1    2  503  502 -0.10512309156E+02 -0.29246990354E+02 -0.16680181909E+02  0.35272135703E+02  0.00000000000E+00 0. -1.
          3    1    1    2  501    0  0.10512309156E+02  0.29246990354E+02  0.49377162738E+02  0.58343802487E+02  0.00000000000E+00 0. -1.
</event>
<event>
 4    1  0.1593135E+006  0.2971653E+02  0.7546771E-02  0.1422076E+00
          1   -1    0    0  503    0 -0.00000000000E+00  0.00000000000E+00  0.93243466035E+02  0.93243466035E+02  0.00000000000E+00 0.  1.
         21   -1    0    0  501  502  0.00000000000E+00 -0.00000000000E+00 -0.29893421086E+02  0.29893421086E+02  0.00000000000E+00 0. -1.
         21    1    1    2  503  502 -0.29038170274E+02 -0.63132371321E+01 -0.19214473381E+02  0.35387402889E+02  0.00000000000E+00 0. -1.
          1    1    1    2  501    0  0.29038170274E+02  0.63132371321E+01  0.82564518329E+02  0.87749484231E+02  0.00000000000E+00 0.  1.
</event>
<event>
 4    1  0.1593135E+006  0.2040045E+02  0.7546771E-02  0.1528000E+00
         21   -1    0    0  503  502  0.00000000000E+00  0.00000000000E+00  0.14767733634E+01  0.14767733634E+01  0.00000000000E+00 0. -1.
          1   -1    0    0  502    0 -0.00000000000E+00 -0.00000000000E+00 -0.61380330689E+03  0.61380330689E+03  0.00000000000E+00 0. -1.
         21    1    1    2  503  501 -0.68834052512E+01  0.19204095251E+02 -0.79913100360E+02  0.82475948927E+02  0.00000000000E+00 0. -1.
          1    1    1    2  501    0  0.68834052512E+01 -0.19204095251E+02 -0.53241343316E+03  0.53280413132E+03  0.00000000000E+00 0. -1.
</event>
<event>
 4    1  0.1593135E+006  0.2832590E+02  0.7546771E-02  0.1434725E+00
         21   -1    0    0  503  502  0.00000000000E+00  0.00000000000E+00  0.11505583316E+03  0.11505583316E+03  0.00000000000E+00 0. -1.
         -1   -1    0    0    0  501 -0.00000000000E+00 -0.00000000000E+00 -0.10144793020E+02  0.10144793020E+02  0.00000000000E+00 0. -1.
         21    1    1    2  503  501 -0.20975280214E+02 -0.19036648836E+02  0.87455230448E+02  0.91928089895E+02  0.00000000000E+00 0. -1.
         -1    1    1    2    0  502  0.20975280214E+02  0.19036648836E+02  0.17455809697E+02  0.33272536290E+02  0.00000000000E+00 0. -1.
</event>
<event>
 4    1  0.1593135E+006  0.2766938E+02  0.7546771E-02  0.1440998E+00
          1   -1    0    0  503    0 -0.00000000000E+00  0.00000000000E+00  0.96031159942E+03  0.96031159942E+03  0.00000000000E+00 0.  1.
         21   -1    0    0  501  502  0.00000000000E+00 -0.00000000000E+00 -0.13661777146E+03  0.13661777146E+03  0.00000000000E+00 0.  1.
         21    1    1    2  503  502  0.27646836339E+02  0.11167114048E+01 -0.13501514193E+03  0.13782119995E+03  0.00000000000E+00 0.  1.
          1    1    1    2  501    0 -0.27646836339E+02 -0.11167114048E+01  0.95870896989E+03  0.95910817094E+03  0.00000000000E+00 0.  1.
</event>
<event>
 4    1  0.1593135E+006  0.2998799E+02  0.7546771E-02  0.1419701E+00
         -4   -1    0    0    0  501 -0.00000000000E+00  0.00000000000E+00  0.32460526240E+02  0.32460526240E+02  0.00000000000E+00 0. -1.
         21   -1    0    0  501  502  0.00000000000E+00 -0.00000000000E+00 -0.19931269114E+03  0.19931269114E+03  0.00000000000E+00 0.  1.
         21    1    1    2  503  502  0.14016024331E+02  0.26510951111E+02 -0.19095757844E+03  0.19329789505E+03  0.00000000000E+00 0.  1.
         -4    1    1    2    0  503 -0.14016024331E+02 -0.26510951111E+02  0.24105413537E+02  0.38475322333E+02  0.00000000000E+00 0. -1.
</event>
<event>
 4    1  0.1593135E+006  0.4209023E+02  0.7546771E-02  0.1336654E+00
         21   -1    0    0  501  502  0.00000000000E+00  0.00000000000E+00  0.23515960102E+03  0.23515960102E+03  0.00000000000E+00 0.  1.
          1   -1    0    0  503    0 -0.00000000000E+00 -0.00000000000E+00 -0.43413175683E+02  0.43413175683E+02  0.00000000000E+00 0. -1.
         21    1    1    2  503  502  0.28724182517E+02 -0.30765386838E+02  0.22249890231E+03  0.22644502471E+03  0.00000000000E+00 0.  1.
          1    1    1    2  501    0 -0.28724182517E+02  0.30765386838E+02 -0.30752476966E+02  0.52127751995E+02  0.00000000000E+00 0. -1.
</event>
<event>
 4    1  0.1593135E+006  0.2688071E+02  0.7546771E-02  0.1448810E+00
         21   -1    0    0  503  502  0.00000000000E+00  0.00000000000E+00  0.91785570932E+02  0.91785570932E+02  0.00000000000E+00 0. -1.
         -2   -1    0    0    0  501 -0.00000000000E+00 -0.00000000000E+00 -0.18915761856E+03  0.18915761856E+03  0.00000000000E+00 0. -1.
         21    1    1    2  503  501  0.99966144514E+01 -0.24952763028E+02  0.88831420264E+02  0.92809449461E+02  0.00000000000E+00 0. -1.
         -2    1    1    2    0  502 -0.99966144514E+01  0.24952763028E+02 -0.18620346789E+03  0.18813374003E+03  0.00000000000E+00 0. -1.
</event>
<event>
 4    1  0.1593135E+006  0.2174651E+02  0.7546771E-02  0.1508868E+00
         21   -1    0    0  503  502  0.00000000000E+00  0.00000000000E+00  0.40617103150E+03  0.40617103150E+03  0.00000000000E+00 0. -1.
         -1   -1    0    0    0  501 -0.00000000000E+00 -0.00000000000E+00 -0.56782534427E+01  0.56782534427E+01  0.00000000000E+00 0. -1.
         21    1    1    2  503  501  0.21627105391E+02  0.22757577002E+01  0.38384896984E+03  0.38446448783E+03  0.00000000000E+00 0. -1.
         -1    1    1    2    0  502 -0.21627105391E+02 -0.22757577002E+01  0.16643808224E+02  0.27384797112E+02  0.00000000000E+00 0. -1.
</event>
<event>
 4    1  0.1593135E+006  0.2495306E+02  0.7546771E-02  0.1469329E+00
         21   -1    0    0  501  502  0.00000000000E+00  0.00000000000E+00  0.10647498724E+03  0.10647498724E+03  0.00000000000E+00 0.  1.
         -1   -1    0    0    0  501 -0.00000000000E+00 -0.00000000000E+00 -0.60930394200E+02  0.60930394200E+02  0.00000000000E+00 0. -1.
         21    1    1    2  503  502  0.68622588999E+01  0.23990925540E+02  0.10235693043E+03  0.10535462170E+03  0.00000000000E+00 0.  1.
         -1    1    1    2    0  503 -0.68622588999E+01 -0.23990925540E+02 -0.56812337389E+02  0.62050759746E+02  0.00000000000E+00 0. -1.
</event>
<event>
 4    1  0.1593135E+006  0.2655187E+02  0.7546771E-02  0.1452162E+00
         21   -1    0    0  501  502  0.00000000000E+00  0.00000000000E+00  0.99034145204E+03  0.99034145204E+03  0.00000000000E+00 0.  1.
          1   -1    0    0  503    0 -0.00000000000E+00 -0.00000000000E+00 -0.48895078948E+02  0.48895078948E+02  0.00000000000E+00 0.  1.
         21    1    1    2  503  502  0.26110015987E+02 -0.48237582376E+01  0.98654494816E+03  0.98690219187E+03  0.00000000000E+00 0.  1.
          1    1    1    2  501    0 -0.26110015987E+02  0.48237582376E+01 -0.45098575065E+02  0.52334339121E+02  0.00000000000E+00 0.  1.
</event>
<event>
 4    1  0.1593135E+006  0.2548356E+02  0.7546771E-02  0.1463466E+00
         21   -1    0    0  501  502  0.00000000000E+00  0.00000000000E+00  0.30101757279E+03  0.30101757279E+03  0.00000000000E+00 0.  1.
          3   -1    0    0  503    0 -0.00000000000E+00 -0.00000000000E+00 -0.22101222421E+01  0.22101222421E+01  0.00000000000E+00 0. -1.
         21    1    1    2  503  502 -0.16088717226E+02  0.19762717445E+02  0.17282310492E+03  0.17469183558E+03  0.00000000000E+00 0.  1.
          3    1    1    2  501    0  0.16088717226E+02 -0.19762717445E+02  0.12598434562E+03  0.12853585945E+03  0.00000000000E+00 0. -1.
</event>
<event>
 4    1  0.1593135E+006  0.2299772E+02  0.7546771E-02  0.1492527E+00
          2   -1    0    0  502    0 -0.00000000000E+00  0.00000000000E+00  0.30619685438E+03  0.30619685438E+03  0.00000000000E+00 0. -1.
         21   -1    0    0  503  502  0.00000000000E+00 -0.00000000000E+00 -0.10756580898E+02  0.10756580898E+02  0.00000000000E+00 0. -1.
         21    1    1    2  503  501  0.22357264931E+02 -0.53896133415E+01  0.25240820896E+01  0.23135821091E+02  0.00000000000E+00 0. -1.
          2    1    1    2  501    0 -0.22357264931E+02  0.53896133415E+01  0.29291619139E+03  0.29381761419E+03  0.00000000000E+00 0. -1.
</event>
<event>
 4    1  0.1593135E+006  0.2323946E+02  0.7546771E-02  0.1489513E+00
         -2   -1    0    0    0  501 -0.00000000000E+00  0.00000000000E+00  0.71738864154E+02  0.71738864154E+02  0.00000000000E+00 0. -1.
         21   -1    0    0  501  502  0.00000000000E+00 -0.00000000000E+00 -0.72578196394E+02  0.72578196394E+02  0.00000000000E+00 0.  1.
         21    1    1    2  503  502 -0.55764058548E+01 -0.22560505518E+02 -0.68733372734E+02  0.72555835320E+02  0.00000000000E+00 0.  1.
         -2    1    1    2    0  503  0.55764058548E+01  0.22560505518E+02  0.67894040495E+02  0.71761225228E+02  0.00000000000E+00 0. -1.
</event>
<event>
 4    1  0.1593135E+006  0.2359738E+02  0.7546771E-02  0.1485130E+00
         21   -1    0    0  501  502  0.00000000000E+00  0.00000000000E+00  0.15503267019E+02  0.15503267019E+02  0.00000000000E+00 0.  1.
          3   -1    0    0  503    0 -0.00000000000E+00 -0.00000000000E+00 -0.42999904297E+02  0.42999904297E+02  0.00000000000E+00 0.  1.
         21    1    1    2  503  502 -0.21803313662E+02  0.90250809038E+01 -0.18766976459E+01  0.23671894010E+02  0.00000000000E+00 0.  1.
          3    1    1    2  501    0  0.21803313662E+02 -0.90250809038E+01 -0.25619939632E+02  0.34831277306E+02  0.00000000000E+00 0.  1.
</event>
<event>
 4    1  0.1593135E+006  0.2415869E+02  0.7546771E-02  0.1478439E+00
          2   -1    0    0  503    0 -0.00000000000E+00  0.00000000000E+00  0.11069394069E+04  0.11069394069E+04  0.00000000000E+00 0.  1.
         21   -1    0    0  501  502  0.00000000000E+00 -0.00000000000E+00 -0.89598221803E+00  0.89598221803E+00  0.00000000000E+00 0. -1.
         21    1    1    2  503  502  0.23150355360E+02  0.69067623489E+01  0.19767970202E+03  0.19915046300E+03  0.00000000000E+00 0. -1.
          2    1    1    2  501    0 -0.23150355360E+02 -0.69067623489E+01  0.90836372264E+03  0.90868492610E+03  0.00000000000E+00 0.  1.
</event>
<event>
 4    1  0.1593135E+006  0.2080209E+02  0.7546771E-02  0.1522109E+00
          1   -1    0    0  502    0 -0.00000000000E+00  0.00000000000E+00  0.12133696471E+03  0.12133696471E+03  0.00000000000E+00 0. -1.
         21   -1    0    0  503  502  0.00000000000E+00 -0.00000000000E+00 -0.46583429878E+01  0.46583429878E+01  0.00000000000E+00 0. -1.
         21    1    1    2  503  501  0.41969322168E+01 -0.20374314092E+02  0.27837630639E+02  0.34751411401E+02  0.00000000000E+00 0. -1.
          1    1    1    2  501    0 -0.41969322168E+01  0.20374314092E+02  0.88840991082E+02  0.91243896296E+02  0.00000000000E+00 0. -1.
</event>
<event>
 4    1  0.1593135E+006  0.3728863E+02  0.7546771E-02  0.1365151E+00
         21   -1    0    0  503  502  0.00000000000E+00  0.00000000000E+00  0.15318376608E+03  0.15318376608E+03  0.00000000000E+00 0. -1.
          1   -1    0    0  502    0 -0.00000000000E+00 -0.00000000000E+00 -0.11649800227E+04  0.11649800227E+04  0.00000000000E+00 0.  1.
         21    1    1    2  503  501  0.10020865598E+02 -0.35916910602E+02  0.15061112296E+03  0.15515847567E+03  0.00000000000E+00 0. -1.
          1    1    1    2  501    0 -0.10020865598E+02  0.35916910602E+02 -0.11624073795E+04  0.11630053131E+04  0.00000000000E+00 0.  1.
</event>
<event>
 4    1  0.1593135E+006  0.2658273E+02  0.7546771E-02  0.1451845E+00
          1   -1    0    0  502    0 -0.00000000000E+00  0.00000000000E+00  0.70699914347E+03  0.70699914347E+03  0.00000000000E+00 0. -1.
         21   -1    0    0  503  502  0.00000000000E+00 -0.00000000000E+00 -0.83086164559E+01  0.83086164559E+01  0.00000000000E+00 0. -1.
         21    1    1    2  503  501  0.18736861754E+02 -0.18856606101E+02  0.13892637083E+02  0.29994115209E+02  0.00000000000E+00 0. -1.
          1    1    1    2  501    0 -0.18736861754E+02  0.18856606101E+02  0.68479788993E+03  0.68531364472E+03  0.00000000000E+00 0. -1.
</event>
<event>
 4    1  0.1593135E+006  0.7818303E+02  0.7546771E-02  0.1208130E+00
          4   -1    0    0  503    0 -0.00000000000E+00  0.00000000000E+00  0.94611324228E+03  0.94611324228E+03  0.00000000000E+00 0. -1.
         21   -1    0    0  501  502  0.00000000000E+00 -0.00000000000E+00 -0.11122009810E+02  0.11122009810E+02  0.00000000000E+00 0. -1.
         21    1    1    2  503  502 -0.47386838166E+02  0.62185797479E+02  0.15764707239E+03  0.17596927366E+03  0.00000000000E+00 0. -1.
          4    1    1    2  501    0  0.47386838166E+02 -0.62185797479E+02  0.77734416009E+03  0.78126597844E+03  0.00000000000E+00 0. -1.
</event>
<event>
 4    1  0.1593135E+006  0.2437096E+02  0.7546771E-02  0.1475965E+00
         21   -1    0    0  503  502  0.00000000000E+00  0.00000000000E+00  0.41581843196E+02  0.41581843196E+02  0.00000000000E+00 0.  1.
         -2   -1    0    0    0  501 -0.00000000000E+00 -0.00000000000E+00 -0.14616240675E+02  0.14616240675E+02  0.00000000000E+00 0.  1.
         21    1    1    2  503  501 -0.16426615674E+01 -0.24315535138E+02  0.92446138497E+01  0.26065426743E+02  0.00000000000E+00 0.  1.
         -2    1    1    2    0  502  0.16426615674E+01  0.24315535138E+02  0.17720988671E+02  0.30132657127E+02  0.00000000000E+00 0.  1.
</event>
<event>
 4    1  0.1593135E+006  0.2015670E+02  0.7546771E-02  0.1531654E+00
          2   -1    0    0  503    0 -0.00000000000E+00  0.00000000000E+00  0.12444073153E+04  0.12444073153E+04  0.00000000000E+00 0.  1.
         21   -1    0    0  501  502  0.00000000000E+00 -0.00000000000E+00 -0.90927355166E+00  0.90927355166E+00  0.00000000000E+00 0.  1.
         21    1    1    2  503  502  0.82553701950E+01 -0.18388624965E+02  0.12326147951E+03  0.12489869894E+03  0.00000000000E+00 0.  1.
          2    1    1    2  501    0 -0.82553701950E+01  0.18388624965E+02  0.11202365623E+04  0.11204178899E+04  0.00000000000E+00 0.  1.
</event>
<event>
 4    1  0.1593135E+006  0.2076373E+02  0.7546771E-02  0.1522665E+00
         21   -1    0    0  501  502  0.00000000000E+00  0.00000000000E+00  0.12124091026E+01  0.12124091026E+01  0.00000000000E+00 0.  1.
          2   -1    0    0  503    0 -0.00000000000E+00 -0.00000000000E+00 -0.84834269805E+03  0.84834269805E+03  0.00000000000E+00 0. -1.
         21    1    1    2  503  502  0.20736549303E+02 -0.10620638361E+01 -0.99832813010E+02  0.10196922580E+03  0.00000000000E+00 0.  1.
          2    1    1    2  501    0 -0.20736549303E+02  0.10620638361E+01 -0.74729747593E+03  0.74758588135E+03  0.00000000000E+00 0. -1.
</event>
<event>
 4    1  0.1593135E+006  0.2242497E+02  0.7546771E-02  0.1499848E+00
          2   -1    0    0  502    0 -0.00000000000E+00  0.00000000000E+00  0.14047042069E+04  0.14047042069E+04  0.00000000000E+00 0. -1.
         21   -1    0    0  503  502  0.00000000000E+00 -0.00000000000E+00 -0.23448355207E+02  0.23448355207E+02  0.00000000000E+00 0. -1.
         21    1    1    2  503  501 -0.20159695417E+02  0.98217102630E+01 -0.17976326993E+02  0.28740696651E+02  0.00000000000E+00 0. -1.
          2    1    1    2  501    0  0.20159695417E+02 -0.98217102630E+01  0.13992321787E+04  0.13994118655E+04  0.00000000000E+00 0. -1.
</event>
<event>
 4    1  0.1593135E+006  0.2173491E+02  0.7546771E-02  0.1509026E+00
         21   -1    0    0  501  502  0.00000000000E+00  0.00000000000E+00  0.31072722599E+02  0.31072722599E+02  0.00000000000E+00 0.  1.
          1   -1    0    0  503    0 -0.00000000000E+00 -0.00000000000E+00 -0.29376283838E+02  0.29376283838E+02  0.00000000000E+00 0. -1.
         21    1    1    2  503  502 -0.12794594789E+01 -0.21697214815E+02  0.21842077857E+02  0.30813674114E+02  0.00000000000E+00 0.  1.
          1    1    1    2  501    0  0.12794594789E+01  0.21697214815E+02 -0.20145639096E+02  0.29635332323E+02  0.00000000000E+00 0. -1.
</event>
<event>
 4    1  0.1593135E+006  0.2053427E+02  0.7546771E-02  0.1526019E+00
         21   -1    0    0  503  502  0.00000000000E+00  0.00000000000E+00  0.53747089912E+01  0.53747089912E+01  0.00000000000E+00 0.  1.
         -3   -1    0    0    0  501 -0.00000000000E+00 -0.00000000000E+00 -0.25973045654E+03  0.25973045654E+03  0.00000000000E+00 0.  1.
         21    1    1    2  503  501  0.19473261746E+02 -0.65152420361E+01 -0.16439042864E+02  0.26303962289E+02  0.00000000000E+00 0.  1.
         -3    1    1    2    0  502 -0.19473261746E+02  0.65152420361E+01 -0.23791670468E+03  0.23880120324E+03  0.00000000000E+00 0.  1.
</event>
<event>
 4    1  0.1593135E+006  0.2777741E+02  0.7546771E-02  0.1439951E+00
          2   -1    0    0  503    0 -0.00000000000E+00  0.00000000000E+00  0.12966027081E+04  0.12966027081E+04  0.00000000000E+00 0. -1.
         21   -1    0    0  501  502  0.00000000000E+00 -0.00000000000E+00 -0.14238867804E+01  0.14238867804E+01  0.00000000000E+00 0.  1.
         21    1    1    2  503  502 -0.93196942160E+01 -0.26167304436E+02  0.15243338007E+03  0.15494360226E+03  0.00000000000E+00 0.  1.
          2    1    1    2  501    0  0.93196942160E+01  0.26167304436E+02  0.11427454413E+04  0.11430829926E+04  0.00000000000E+00 0. -1.
</event>
<event>
 4    1  0.1593135E+006  0.4023876E+02  0.7546771E-02  0.1347092E+00
         -1   -1    0    0    0  501 -0.00000000000E+00  0.00000000000E+00  0.24899192720E+03  0.24899192720E+03  0.00000000000E+00 0.  1.
         21   -1    0    0  503  502  0.00000000000E+00 -0.00000000000E+00 -0.14322216646E+02  0.14322216646E+02  0.00000000000E+00 0. -1.
         21    1    1    2  503  501 -0.21089193991E+02  0.34269579315E+02  0.20054589584E+02  0.44959367578E+02  0.00000000000E+00 0. -1.
         -1    1    1    2    0  502  0.21089193991E+02 -0.34269579315E+02  0.21461512097E+03  0.21835477627E+03  0.00000000000E+00 0.  1.
</event>
<event>
 4    1  0.1593135E+006  0.2424190E+02  0.7546771E-02  0.1477466E+00
         21   -1    0    0  501  502  0.00000000000E+00  0.00000000000E+00  0.31848773771E+02  0.31848773771E+02  0.00000000000E+00 0. -1.
         -1   -1    0    0    0  501 -0.00000000000E+00 -0.00000000000E+00 -0.31620981578E+03  0.31620981578E+03  0.00000000000E+00 0. -1.
         21    1    1    2  503  502 -0.22186112923E+02 -0.97696599602E+01  0.26694865766E+02  0.36059474769E+02  0.00000000000E+00 0. -1.
         -1    1    1    2    0  503  0.22186112923E+02  0.97696599602E+01 -0.31105590777E+03  0.31199911478E+03  0.00000000000E+00 0. -1.
</event>
<event>
 4    1  0.1593135E+006  0.2744811E+02  0.7546771E-02  0.1443158E+00
          2   -1    0    0  502    0 -0.00000000000E+00  0.00000000000E+00  0.74749573105E+02  0.74749573105E+02  0.00000000000E+00 0.  1.
         21   -1    0    0  503  502  0.00000000000E+00 -0.00000000000E+00 -0.29991268736E+02  0.29991268736E+02  0.00000000000E+00 0. -1.
         21    1    1    2  503  501 -0.23706957626E+01 -0.27345537814E+02 -0.20293472385E+02  0.34135372536E+02  0.00000000000E+00 0. -1.
          2    1    1    2  501    0  0.23706957626E+01  0.27345537814E+02  0.65051776755E+02  0.70605469305E+02  0.00000000000E+00 0.  1.
</event>
<event>
 4    1  0.1593135E+006  0.2964265E+02  0.7546771E-02  0.1422728E+00
          1   -1    0    0  502    0 -0.00000000000E+00  0.00000000000E+00  0.13959404194E+04  0.13959404194E+04  0.00000000000E+00 0.  1.
         21   -1    0    0  503  502  0.00000000000E+00 -0.00000000000E+00 -0.11044505562E+01  0.11044505562E+01  0.00000000000E+00 0.  1.
         21    1    1    2  503  501  0.25133202764E+02 -0.15716506278E+02  0.23932838668E+03  0.24115713367E+03  0.00000000000E+00 0.  1.
          1    1    1    2  501    0 -0.25133202764E+02  0.15716506278E+02  0.11555075822E+04  0.11558877363E+04  0.00000000000E+00 0.  1.
</event>
<event>
 4    1  0.1593135E+006  0.2423166E+02  0.7546771E-02  0.1477585E+00
          1   -1    0    0  502    0 -0.00000000000E+00  0.00000000000E+00  0.42142496087E+03  0.42142496087E+03  0.00000000000E+00 0.  1.
         21   -1    0    0  503  502  0.00000000000E+00 -0.00000000000E+00 -0.23881608194E+01  0.23881608194E+01  0.00000000000E+00 0. -1.
         21    1    1    2  503  501 -0.24212586219E+02  0.96126267350E+00  0.72747795179E+02  0.76677343856E+02  0.00000000000E+00 0. -1.
          1    1    1    2  501    0  0.24212586219E+02 -0.96126267350E+00  0.34628900487E+03  0.34713577783E+03  0.00000000000E+00 0.  1.
</event>
<event>
 4    1  0.1593135E+006  0.3076248E+02  0.7546771E-02  0.1413084E+00
          1   -1    0    0  503    0 -0.00000000000E+00  0.00000000000E+00  0.65627749742E+03  0.65627749742E+03  0.00000000000E+00 0. -1.
         21   -1    0    0  501  502  0.00000000000E+00 -0.00000000000E+00 -0.21624264395E+02  0.21624264395E+02  0.00000000000E+00 0. -1.
         21    1    1    2  503  502  0.19034986904E+02 -0.24166076319E+02 -0.10128216608E+02  0.32386891527E+02  0.00000000000E+00 0. -1.
          1    1    1    2  501    0 -0.19034986904E+02  0.24166076319E+02  0.64478144963E+03  0.64551487029E+03  0.00000000000E+00 0. -1.
</event>
<event>
 4    1  0.1593135E+006  0.2047294E+02  0.7546771E-02  0.1526925E+00
         -1   -1    0    0    0  501 -0.00000000000E+00  0.00000000000E+00  0.11249344532E+03  0.11249344532E+03  0.00000000000E+00 0. -1.
         21   -1    0    0  503  502  0.00000000000E+00 -0.00000000000E+00 -0.24702955529E+02  0.24702955529E+02  0.00000000000E+00 0. -1.
         21    1    1    2  503  501 -0.16439586201E+02 -0.12201691383E+02 -0.19318329773E+02  0.28148519185E+02  0.00000000000E+00 0. -1.
         -1    1    1    2    0  502  0.16439586201E+02  0.12201691383E+02  0.10710881956E+03  0.10904788166E+03  0.00000000000E+00 0. -1.
</event>
<event>
 4    1  0.1593135E+006  0.2429798E+02  0.7546771E-02  0.1476812E+00
          2   -1    0    0  503    0 -0.00000000000E+00  0.00000000000E+00  0.65146454893E+03  0.65146454893E+03  0.00000000000E+00 0. -1.
         21   -1    0    0  501  502  0.00000000000E+00 -0.00000000000E+00 -0.15588639202E+01  0.15588639202E+01  0.00000000000E+00 0. -1.
         21    1    1    2  503  502  0.15442784616E+02  0.18759320567E+02  0.11369063148E+03  0.11625812398E+03  0.00000000000E+00 0. -1.
          2    1    1    2  501    0 -0.15442784616E+02 -0.18759320567E+02  0.53621505353E+03  0.53676528887E+03  0.00000000000E+00 0. -1.
</event>
<event>
 4    1  0.1593135E+006  0.2129066E+02  0.7546771E-02  0.1515155E+00
         21   -1    0    0  503  502  0.00000000000E+00  0.00000000000E+00  0.35910078999E+03  0.35910078999E+03  0.00000000000E+00 0. -1.
          1   -1    0    0  502    0 -0.00000000000E+00 -0.00000000000E+00 -0.31150348158E+01  0.31150348158E+01  0.00000000000E+00 0. -1.
         21    1    1    2  503  501 -0.16736289786E+02 -0.13160126199E+02  0.31766598728E+03  0.31837866102E+03  0.00000000000E+00 0. -1.
          1    1    1    2  501    0  0.16736289786E+02  0.13160126199E+02  0.38319767887E+02  0.43837163781E+02  0.00000000000E+00 0. -1.
</event>
<event>
 4    1  0.1593135E+006  0.2371494E+02  0.7546771E-02  0.1483711E+00
         21   -1    0    0  501  502  0.00000000000E+00  0.00000000000E+00  0.19464841099E+03  0.19464841099E+03  0.00000000000E+00 0. -1.
         -3   -1    0    0    0  501 -0.00000000000E+00 -0.00000000000E+00 -0.70434193102E+01  0.70434193102E+01  0.00000000000E+00 0.  1.
         21    1    1    2  503  502  0.21567144102E+02 -0.98618878998E+01  0.17124970727E+03  0.17288395176E+03  0.00000000000E+00 0. -1.
         -3    1    1    2    0  503 -0.21567144102E+02  0.98618878998E+01  0.16355284412E+02  0.28807878538E+02  0.00000000000E+00 0.  1.
</event>
<event>
 4    1  0.1593135E+006  0.2173756E+02  0.7546771E-02  0.1508990E+00
         21   -1    0    0  503  502  0.00000000000E+00  0.00000000000E+00  0.32764718290E+02  0.32764718290E+02  0.00000000000E+00 0. -1.
          2   -1    0    0  502    0 -0.00000000000E+00 -0.00000000000E+00 -0.13055143184E+03  0.13055143184E+03  0.00000000000E+00 0.  1.
         21    1    1    2  503  501  0.19381137892E+02  0.98434288014E+01  0.28122492078E+02  0.35544284453E+02  0.00000000000E+00 0. -1.
          2    1    1    2  501    0 -0.19381137892E+02 -0.98434288014E+01 -0.12590920563E+03  0.12777186567E+03  0.00000000000E+00 0.  1.
</event>
<event>
 4    1  0.1593135E+006  0.2154272E+02  0.7546771E-02  0.1511655E+00
         21   -1    0    0  501  502  0.00000000000E+00  0.00000000000E+00  0.16860051992E+03  0.16860051992E+03  0.00000000000E+00 0. -1.
          2   -1    0    0  503    0 -0.00000000000E+00 -0.00000000000E+00 -0.66003919868E+01  0.66003919868E+01  0.00000000000E+00 0.  1.
         21    1    1    2  503  502  0.19784124574E+02 -0.85250821277E+01  0.14788490367E+03  0.14944575385E+03  0.00000000000E+00 0. -1.
          2    1    1    2  501    0 -0.19784124574E+02  0.85250821277E+01  0.14115224260E+02  0.25755158053E+02  0.00000000000E+00 0.  1.
</event>
<event>
 4    1  0.1593135E+006  0.2135664E+02  0.7546771E-02  0.1514233E+00
         21   -1    0    0  501  502  0.00000000000E+00  0.00000000000E+00  0.31605558289E+02  0.31605558289E+02  0.00000000000E+00 0.  1.
         -3   -1    0    0    0  501 -0.00000000000E+00 -0.00000000000E+00 -0.33224883659E+02  0.33224883659E+02  0.00000000000E+00 0. -1.
         21    1    1    2  503  502  0.17263287233E+02  0.12573180171E+02  0.23569752115E+02  0.31806275489E+02  0.00000000000E+00 0.  1.
         -3    1    1    2    0  503 -0.17263287233E+02 -0.12573180171E+02 -0.25189077485E+02  0.33024166458E+02  0.00000000000E+00 0. -1.
</event>
<event>
 4    1  0.1593135E+006  0.2069011E+02  0.7546771E-02  0.1523736E+00
         -1   -1    0    0    0  501 -0.00000000000E+00  0.00000000000E+00  0.11439589877E+03  0.11439589877E+03  0.00000000000E+00 0. -1.
         21   -1    0    0  501  502  0.00000000000E+00 -0.00000000000E+00 -0.13739099270E+03  0.13739099270E+03  0.00000000000E+00 0. -1.
         21    1    1    2  503  502  0.10445348831E+02 -0.17859881573E+02 -0.13566468618E+03  0.13723333326E+03  0.00000000000E+00 0. -1.
         -1    1    1    2    0  503 -0.10445348831E+02  0.17859881573E+02  0.11266959225E+03  0.11455355822E+03  0.00000000000E+00 0. -1.
</event>
