<event>
 4    1  0.6210801E+003  0.2272272E+02  0.7546771E-02  0.1496010E+00
          2   -1    0    0  501    0  0.00000000000E+00  0.00000000000E+00  0.97106926584E+03  0.97106926584E+03  0.00000000000E+00 0. -1.
          2   -1    0    0  502    0 -0.00000000000E+00 -0.00000000000E+00 -0.31724669327E+01  0.31724669327E+01  0.00000000000E+00 0. -1.
          2    1    1    2  501    0  0.12069623794E+02  0.19252167993E+02  0.39518921326E+02  0.45585819437E+02  0.00000000000E+00 0. -1.
          2    1    1    2  502    0 -0.12069623794E+02 -0.19252167993E+02  0.92837787758E+03  0.92865591334E+03  0.00000000000E+00 0. -1.
</event>
<event>
 4    1  0.6210801E+003  0.2188922E+02  0.7546771E-02  0.1506938E+00
          2   -1    0    0  502    0  0.00000000000E+00  0.00000000000E+00  0.74540622718E+03  0.74540622718E+03  0.00000000000E+00 0. -1.
          2   -1    0    0  501    0 -0.00000000000E+00 -0.00000000000E+00 -0.20462363726E+01  0.20462363726E+01  0.00000000000E+00 0. -1.
          2    1    1    2  501    0 -0.17691290315E+02 -0.12890159140E+02  0.68118947046E+03  0.68154107185E+03  0.00000000000E+00 0. -1.
          2    1    1    2  502    0  0.17691290315E+02  0.12890159140E+02  0.62170520352E+02  0.65911391705E+02  0.00000000000E+00 0. -1.
</event>
<event>
 4    1  0.6210801E+003  0.3251730E+02  0.7546771E-02  0.1398911E+00
          2   -1    0    0  502    0  0.00000000000E+00  0.00000000000E+00  0.29516258809E+03  0.29516258809E+03  0.00000000000E+00 0. -1.
          2   -1    0    0  501    0 -0.00000000000E+00 -0.00000000000E+00 -0.25427108045E+02  0.25427108045E+02  0.00000000000E+00 0.  1.
          2    1    1    2  501    0 -0.21840158828E+02  0.24091123245E+02  0.28344239522E+03  0.28530153551E+03  0.00000000000E+00 0. -1.
          2    1    1    2  502    0  0.21840158828E+02 -0.24091123245E+02 -0.13706915172E+02  0.35288160626E+02  0.00000000000E+00 0.  1.
</event>
<event>
 4    1  0.6210801E+003  0.3588259E+02  0.7546771E-02  0.1374462E+00
          2   -1    0    0  502    0  0.00000000000E+00  0.00000000000E+00  0.38809699913E+03  0.38809699913E+03  0.00000000000E+00 0.  1.
          2   -1    0    0  501    0 -0.00000000000E+00 -0.00000000000E+00 -0.85744117785E+01  0.85744117785E+01  0.00000000000E+00 0.  1.
          2    1    1    2  501    0 -0.34443240453E+02 -0.10060975956E+02  0.34505682014E+03  0.34691752503E+03  0.00000000000E+00 0.  1.
          2    1    1    2  502    0  0.34443240453E+02  0.10060975956E+02  0.34465767207E+02  0.49753885870E+02  0.00000000000E+00 0.  1.
</event>
<event>
 4    1  0.6210801E+003  0.2010205E+02  0.7546771E-02  0.1532481E+00
          2   -1    0    0  502    0  0.00000000000E+00  0.00000000000E+00  0.54662505834E+00  0.54662505834E+00  0.00000000000E+00 0. -1.
          2   -1    0    0  501    0 -0.00000000000E+00 -0.00000000000E+00 -0.76765055489E+03  0.76765055489E+03  0.00000000000E+00 0. -1.
          2    1    1    2  501    0 -0.18532401027E+02  0.77873331191E+01 -0.30967208991E+03  0.31032385618E+03  0.00000000000E+00 0. -1.
          2    1    1    2  502    0  0.18532401027E+02 -0.77873331191E+01 -0.45743183992E+03  0.45787332376E+03  0.00000000000E+00 0. -1.
</event>
<event>
 4    1  0.6210801E+003  0.2043055E+02  0.7546771E-02  0.1527553E+00
          2   -1    0    0  502    0  0.00000000000E+00  0.00000000000E+00  0.25501741029E+02  0.25501741029E+02  0.00000000000E+00 0.  1.
          2   -1    0    0  501    0 -0.00000000000E+00 -0.00000000000E+00 -0.16147979053E+03  0.16147979053E+03  0.00000000000E+00 0. -1.
          2    1    1    2  501    0  0.58421732253E+01 -0.19577445380E+02  0.20637002190E+02  0.29039511273E+02  0.00000000000E+00 0.  1.
          2    1    1    2  502    0 -0.58421732253E+01  0.19577445380E+02 -0.15661505169E+03  0.15794202028E+03  0.00000000000E+00 0. -1.
</event>
<event>
 4    1  0.6210801E+003  0.4261429E+02  0.7546771E-02  0.1333811E+00
          2   -1    0    0  501    0  0.00000000000E+00  0.00000000000E+00  0.83525910324E+01  0.83525910324E+01  0.00000000000E+00 0.  1.
          2   -1    0    0  502    0 -0.00000000000E+00 -0.00000000000E+00 -0.35868804700E+03  0.35868804700E+03  0.00000000000E+00 0.  1.
          2    1    1    2  501    0  0.33698067350E+02  0.26084823429E+02 -0.29034200927E+03  0.29345265394E+03  0.00000000000E+00 0.  1.
          2    1    1    2  502    0 -0.33698067350E+02 -0.26084823429E+02 -0.59993446697E+02  0.73587984094E+02  0.00000000000E+00 0.  1.
</event>
<event>
 4    1  0.6210801E+003  0.2304042E+02  0.7546771E-02  0.1491991E+00
          2   -1    0    0  502    0  0.00000000000E+00  0.00000000000E+00  0.65389416439E+02  0.65389416439E+02  0.00000000000E+00 0. -1.
          2   -1    0    0  501    0 -0.00000000000E+00 -0.00000000000E+00 -0.35322988899E+02  0.35322988899E+02  0.00000000000E+00 0.  1.
          2    1    1    2  501    0 -0.23029980320E+02 -0.69341015649E+00  0.59225342542E+02  0.63549209361E+02  0.00000000000E+00 0. -1.
          2    1    1    2  502    0  0.23029980320E+02  0.69341015649E+00 -0.29158915002E+02  0.37163195977E+02  0.00000000000E+00 0.  1.
</event>
<event>
 4    1  0.6210801E+003  0.1044206E+03  0.7546771E-02  0.1156361E+00
          2   -1    0    0  501    0  0.00000000000E+00  0.00000000000E+00  0.24146659486E+03  0.24146659486E+03  0.00000000000E+00 0.  1.
          2   -1    0    0  502    0 -0.00000000000E+00 -0.00000000000E+00 -0.32200103269E+03  0.32200103269E+03  0.00000000000E+00 0.  1.
          2    1    1    2  501    0 -0.10283234400E+03 -0.18142814005E+02 -0.30150064824E+03  0.31907098515E+03  0.00000000000E+00 0.  1.
          2    1    1    2  502    0  0.10283234400E+03  0.18142814005E+02  0.22096621042E+03  0.24439664240E+03  0.00000000000E+00 0.  1.
</event>
<event>
 4    1  0.6210801E+003  0.2048698E+02  0.7546771E-02  0.1526717E+00
          2   -1    0    0  501    0  0.00000000000E+00  0.00000000000E+00  0.13967544941E+04  0.13967544941E+04  0.00000000000E+00 0. -1.
          2   -1    0    0  502    0 -0.00000000000E+00 -0.00000000000E+00 -0.46724052656E+01  0.46724052656E+01  0.00000000000E+00 0. -1.
          2    1    1    2  501    0 -0.19180532490E+02 -0.71988454852E+01  0.18234316080E+02  0.27426383025E+02  0.00000000000E+00 0. -1.
          2    1    1    2  502    0  0.19180532490E+02  0.71988454852E+01  0.13738477728E+04  0.13740005164E+04  0.00000000000E+00 0. -1.
</event>
<event>
 4    1  0.6210801E+003  0.3355736E+02  0.7546771E-02  0.1390999E+00
          2   -1    0    0  501    0  0.00000000000E+00  0.00000000000E+00  0.33696658308E+03  0.33696658308E+03  0.00000000000E+00 0. -1.
          2   -1    0    0  502    0 -0.00000000000E+00 -0.00000000000E+00 -0.13911002446E+03  0.13911002446E+03  0.00000000000E+00 0.  1.
          2    1    1    2  501    0  0.28169193542E+02  0.18237123986E+02 -0.13623342653E+03  0.14030553324E+03  0.00000000000E+00 0.  1.
          2    1    1    2  502    0 -0.28169193542E+02 -0.18237123986E+02  0.33408998514E+03  0.33577107429E+03  0.00000000000E+00 0. -1.
</event>
<event>
 4    1  0.6210801E+003  0.3965148E+02  0.7546771E-02  0.1350540E+00
          2   -1    0    0  501    0  0.00000000000E+00  0.00000000000E+00  0.18943102596E+02  0.18943102596E+02  0.00000000000E+00 0. -1.
          2   -1    0    0  502    0 -0.00000000000E+00 -0.00000000000E+00 -0.12648517080E+04  0.12648517080E+04  0.00000000000E+00 0.  1.
          2    1    1    2  501    0  0.36061637555E+02 -0.16486300372E+02 -0.12434341403E+04  0.12440661964E+04  0.00000000000E+00 0.  1.
          2    1    1    2  502    0 -0.36061637555E+02  0.16486300372E+02 -0.24744650513E+01  0.39728614126E+02  0.00000000000E+00 0. -1.
</event>
<event>
 4    1  0.6210801E+003  0.2444102E+02  0.7546771E-02  0.1475155E+00
          2   -1    0    0  501    0  0.00000000000E+00  0.00000000000E+00  0.16538786909E+01  0.16538786909E+01  0.00000000000E+00 0. -1.
          2   -1    0    0  502    0 -0.00000000000E+00 -0.00000000000E+00 -0.63376468520E+03  0.63376468520E+03  0.00000000000E+00 0.  1.
          2    1    1    2  501    0 -0.15304781247E+02  0.19055890685E+02 -0.52441293142E+03  0.52498217678E+03  0.00000000000E+00 0.  1.
          2    1    1    2  502    0  0.15304781247E+02 -0.19055890685E+02 -0.10769787509E+03  0.11043638711E+03  0.00000000000E+00 0. -1.
</event>
<event>
 4    1  0.6210801E+003  0.3009446E+02  0.7546771E-02  0.1418777E+00
          2   -1    0    0  502    0  0.00000000000E+00  0.00000000000E+00  0.11957235139E+02  0.11957235139E+02  0.00000000000E+00 0.  1.
          2   -1    0    0  501    0 -0.00000000000E+00 -0.00000000000E+00 -0.18703244443E+04  0.18703244443E+04  0.00000000000E+00 0. -1.
          2    1    1    2  501    0  0.29974099091E+02  0.26888446637E+01 -0.72965115158E+01  0.30966362109E+02  0.00000000000E+00 0.  1.
          2    1    1    2  502    0 -0.29974099091E+02 -0.26888446637E+01 -0.18510706977E+04  0.18513153174E+04  0.00000000000E+00 0. -1.
</event>
<event>
 4    1  0.6210801E+003  0.2632538E+02  0.7546771E-02  0.1454505E+00
          2   -1    0    0  502    0  0.00000000000E+00  0.00000000000E+00  0.44076785464E+03  0.44076785464E+03  0.00000000000E+00 0. -1.
          2   -1    0    0  501    0 -0.00000000000E+00 -0.00000000000E+00 -0.43869558514E+01  0.43869558514E+01  0.00000000000E+00 0.  1.
          2    1    1    2  501    0  0.17842546383E+02  0.19356376248E+02  0.39647387174E+03  0.39734689723E+03  0.00000000000E+00 0. -1.
          2    1    1    2  502    0 -0.17842546383E+02 -0.19356376248E+02  0.39907027049E+02  0.47807913265E+02  0.00000000000E+00 0.  1.
</event>
<event>
 4    1  0.6210801E+003  0.2220641E+02  0.7546771E-02  0.1502711E+00
          2   -1    0    0  502    0  0.00000000000E+00  0.00000000000E+00  0.45769445569E+03  0.45769445569E+03  0.00000000000E+00 0. -1.
          2   -1    0    0  501    0 -0.00000000000E+00 -0.00000000000E+00 -0.25981672579E+01  0.25981672579E+01  0.00000000000E+00 0.  1.
          2    1    1    2  501    0  0.21904161805E+02  0.36513516103E+01  0.40362423486E+03  0.40423464428E+03  0.00000000000E+00 0. -1.
          2    1    1    2  502    0 -0.21904161805E+02 -0.36513516103E+01  0.51472053571E+02  0.56057978663E+02  0.00000000000E+00 0.  1.
</event>
<event>
 4    1  0.6210801E+003  0.3509794E+02  0.7546771E-02  0.1379876E+00
          2   -1    0    0  502    0  0.00000000000E+00  0.00000000000E+00  0.92474480449E+03  0.92474480449E+03  0.00000000000E+00 0.  1.
          2   -1    0    0  501    0 -0.00000000000E+00 -0.00000000000E+00 -0.11653807599E+02  0.11653807599E+02  0.00000000000E+00 0.  1.
          2    1    1    2  501    0 -0.33584917646E+02 -0.10194059488E+02  0.89717373487E+03  0.89785999804E+03  0.00000000000E+00 0.  1.
          2    1    1    2  502    0  0.33584917646E+02  0.10194059488E+02  0.15917262013E+02  0.38538614040E+02  0.00000000000E+00 0.  1.
</event>
<event>
 4    1  0.6210801E+003  0.3465056E+02  0.7546771E-02  0.1383037E+00
          2   -1    0    0  502    0  0.00000000000E+00  0.00000000000E+00  0.20494594640E+03  0.20494594640E+03  0.00000000000E+00 0.  1.
          2   -1    0    0  501    0 -0.00000000000E+00 -0.00000000000E+00 -0.39810791969E+03  0.39810791969E+03  0.00000000000E+00 0. -1.
          2    1    1    2  501    0  0.75672669061E+01 -0.33814166214E+02  0.20271913659E+03  0.20565920768E+03  0.00000000000E+00 0.  1.
          2    1    1    2  502    0 -0.75672669061E+01  0.33814166214E+02 -0.39588110988E+03  0.39739465840E+03  0.00000000000E+00 0. -1.
</event>
<event>
 4    1  0.6210801E+003  0.3071232E+02  0.7546771E-02  0.1413505E+00
          2   -1    0    0  501    0  0.00000000000E+00  0.00000000000E+00  0.43274558141E+02  0.43274558141E+02  0.00000000000E+00 0.  1.
          2   -1    0    0  502    0 -0.00000000000E+00 -0.00000000000E+00 -0.30876745150E+02  0.30876745150E+02  0.00000000000E+00 0. -1.
          2    1    1    2  501    0  0.73942559045E+01  0.29808922565E+02 -0.13906583002E+02  0.33714091055E+02  0.00000000000E+00 0. -1.
          2    1    1    2  502    0 -0.73942559045E+01 -0.29808922565E+02  0.26304395993E+02  0.40437212236E+02  0.00000000000E+00 0.  1.
</event>
<event>
 4    1  0.6210801E+003  0.3685587E+02  0.7546771E-02  0.1367965E+00
          2   -1    0    0  501    0  0.00000000000E+00  0.00000000000E+00  0.19991510638E+02  0.19991510638E+02  0.00000000000E+00 0. -1.
          2   -1    0    0  502    0 -0.00000000000E+00 -0.00000000000E+00 -0.16840381838E+04  0.16840381838E+04  0.00000000000E+00 0. -1.
          2    1    1    2  501    0  0.31288669935E+02  0.19477538279E+02 -0.16666729155E+04  0.16670803708E+04  0.00000000000E+00 0. -1.
          2    1    1    2  502    0 -0.31288669935E+02 -0.19477538279E+02  0.26262424212E+01  0.36949323579E+02  0.00000000000E+00 0. -1.
</event>
<event>
 4    1  0.6380680E+003  0.4714653E+02  0.7546771E-02  0.1311042E+00
          2   -1    0    0  501    0  0.00000000000E+00  0.00000000000E+00  0.72440546338E+03  0.72440546338E+03  0.00000000000E+00 0.  1.
          2   -1    0    0  502    0 -0.00000000000E+00 -0.00000000000E+00 -0.93124402560E+03  0.93124402560E+03  0.00000000000E+00 0. -1.
          2    1    1    2  501    0 -0.29958776064E+02 -0.36404215553E+02 -0.92987906276E+03  0.93107350221E+03  0.00000000000E+00 0. -1.
          2    1    1    2  502    0  0.29958776064E+02  0.36404215553E+02  0.72304050054E+03  0.72457598676E+03  0.00000000000E+00 0.  1.
</event>
<event>
 4    1  0.6210801E+003  0.2236850E+02  0.7546771E-02  0.1500584E+00
          2   -1    0    0  501    0  0.00000000000E+00  0.00000000000E+00  0.11120786062E+02  0.11120786062E+02  0.00000000000E+00 0. -1.
          2   -1    0    0  502    0 -0.00000000000E+00 -0.00000000000E+00 -0.11415731932E+03  0.11415731932E+03  0.00000000000E+00 0. -1.
          2    1    1    2  501    0  0.13491436447E+02 -0.17841834277E+02 -0.10027521376E+03  0.10273980924E+03  0.00000000000E+00 0. -1.
          2    1    1    2  502    0 -0.13491436447E+02  0.17841834277E+02 -0.27613195005E+01  0.22538296146E+02  0.00000000000E+00 0. -1.
</event>
<event>
 4    1  0.6210801E+003  0.2034474E+02  0.7546771E-02  0.1528829E+00
          2   -1    0    0  501    0  0.00000000000E+00  0.00000000000E+00  0.77108312059E+03  0.77108312059E+03  0.00000000000E+00 0. -1.
          2   -1    0    0  502    0 -0.00000000000E+00 -0.00000000000E+00 -0.78335914753E+00  0.78335914753E+00  0.00000000000E+00 0.  1.
          2    1    1    2  501    0  0.17890964384E+02 -0.96861643103E+01  0.16862759493E+03  0.16985044645E+03  0.00000000000E+00 0.  1.
          2    1    1    2  502    0 -0.17890964384E+02  0.96861643103E+01  0.60167216651E+03  0.60201603329E+03  0.00000000000E+00 0. -1.
</event>
<event>
 4    1  0.6210801E+003  0.3363939E+02  0.7546771E-02  0.1390389E+00
          2   -1    0    0  502    0  0.00000000000E+00  0.00000000000E+00  0.60921638214E+03  0.60921638214E+03  0.00000000000E+00 0.  1.
          2   -1    0    0  501    0 -0.00000000000E+00 -0.00000000000E+00 -0.68271947234E+01  0.68271947234E+01  0.00000000000E+00 0.  1.
          2    1    1    2  501    0 -0.29112255445E+02  0.16854821656E+02  0.56399494296E+03  0.56499726027E+03  0.00000000000E+00 0.  1.
          2    1    1    2  502    0  0.29112255445E+02 -0.16854821656E+02  0.38394244456E+02  0.51046316591E+02  0.00000000000E+00 0.  1.
</event>
<event>
 4    1  0.6210801E+003  0.9028193E+02  0.7546771E-02  0.1181804E+00
          2   -1    0    0  502    0  0.00000000000E+00  0.00000000000E+00  0.23317338526E+03  0.23317338526E+03  0.00000000000E+00 0.  1.
          2   -1    0    0  501    0 -0.00000000000E+00 -0.00000000000E+00 -0.20362145402E+04  0.20362145402E+04  0.00000000000E+00 0.  1.
          2    1    1    2  501    0  0.85910879826E+02  0.27751532399E+02  0.22339146944E+03  0.24094517103E+03  0.00000000000E+00 0.  1.
          2    1    1    2  502    0 -0.85910879826E+02 -0.27751532399E+02 -0.20264326243E+04  0.20284427544E+04  0.00000000000E+00 0.  1.
</event>
<event>
 4    1  0.6210801E+003  0.2086326E+02  0.7546771E-02  0.1521226E+00
          2   -1    0    0  502    0  0.00000000000E+00  0.00000000000E+00  0.56836824194E+01  0.56836824194E+01  0.00000000000E+00 0. -1.
          2   -1    0    0  501    0 -0.00000000000E+00 -0.00000000000E+00 -0.46432786169E+03  0.46432786169E+03  0.00000000000E+00 0.  1.
          2    1    1    2  501    0 -0.55104244707E+00 -0.20855976852E+02 -0.14569213443E+02  0.25446756150E+02  0.00000000000E+00 0. -1.
          2    1    1    2  502    0  0.55104244707E+00  0.20855976852E+02 -0.44407496583E+03  0.44456478796E+03  0.00000000000E+00 0.  1.
</event>
<event>
 4    1  0.6210801E+003  0.2095171E+02  0.7546771E-02  0.1519955E+00
          2   -1    0    0  502    0  0.00000000000E+00  0.00000000000E+00  0.12981020689E+01  0.12981020689E+01  0.00000000000E+00 0. -1.
          2   -1    0    0  501    0 -0.00000000000E+00 -0.00000000000E+00 -0.35146785073E+03  0.35146785073E+03  0.00000000000E+00 0.  1.
          2    1    1    2  501    0  0.20606244522E+02 -0.37890252040E+01 -0.20939871910E+03  0.21044428618E+03  0.00000000000E+00 0.  1.
          2    1    1    2  502    0 -0.20606244522E+02  0.37890252040E+01 -0.14077102956E+03  0.14232166661E+03  0.00000000000E+00 0. -1.
</event>
<event>
 4    1  0.6210801E+003  0.4557945E+02  0.7546771E-02  0.1318567E+00
          2   -1    0    0  502    0  0.00000000000E+00  0.00000000000E+00  0.20883458905E+04  0.20883458905E+04  0.00000000000E+00 0. -1.
          2   -1    0    0  501    0 -0.00000000000E+00 -0.00000000000E+00 -0.13473762847E+01  0.13473762847E+01  0.00000000000E+00 0. -1.
          2    1    1    2  501    0  0.44870215605E+02  0.80093696358E+01  0.15779832682E+04  0.15786414035E+04  0.00000000000E+00 0. -1.
          2    1    1    2  502    0 -0.44870215605E+02 -0.80093696358E+01  0.50901524605E+03  0.51105186328E+03  0.00000000000E+00 0. -1.
</event>
<event>
 4    1  0.6210801E+003  0.2475835E+02  0.7546771E-02  0.1471525E+00
          2   -1    0    0  502    0  0.00000000000E+00  0.00000000000E+00  0.38911911179E+02  0.38911911179E+02  0.00000000000E+00 0. -1.
          2   -1    0    0  501    0 -0.00000000000E+00 -0.00000000000E+00 -0.16865732745E+03  0.16865732745E+03  0.00000000000E+00 0. -1.
          2    1    1    2  501    0 -0.23627548930E+02  0.73969350172E+01  0.33946281716E+02  0.42015779874E+02  0.00000000000E+00 0. -1.
          2    1    1    2  502    0  0.23627548930E+02 -0.73969350172E+01 -0.16369169798E+03  0.16555345875E+03  0.00000000000E+00 0. -1.
</event>
<event>
 4    1  0.6210801E+003  0.2034175E+02  0.7546771E-02  0.1528874E+00
          2   -1    0    0  502    0  0.00000000000E+00  0.00000000000E+00  0.72458276663E+01  0.72458276663E+01  0.00000000000E+00 0.  1.
          2   -1    0    0  501    0 -0.00000000000E+00 -0.00000000000E+00 -0.23469702172E+03  0.23469702172E+03  0.00000000000E+00 0.  1.
          2    1    1    2  501    0 -0.25336043888E+01 -0.20183351053E+02 -0.84958807747E+01  0.22044654705E+02  0.00000000000E+00 0.  1.
          2    1    1    2  502    0  0.25336043888E+01  0.20183351053E+02 -0.21895531328E+03  0.21989819468E+03  0.00000000000E+00 0.  1.
</event>
<event>
 4    1  0.6210801E+003  0.2860687E+02  0.7546771E-02  0.1432102E+00
          2   -1    0    0  501    0  0.00000000000E+00  0.00000000000E+00  0.17099918360E+03  0.17099918360E+03  0.00000000000E+00 0. -1.
          2   -1    0    0  502    0 -0.00000000000E+00 -0.00000000000E+00 -0.51360010679E+02  0.51360010679E+02  0.00000000000E+00 0. -1.
          2    1    1    2  501    0 -0.23341519710E+02  0.16538635413E+02 -0.46053530958E+02  0.54215133656E+02  0.00000000000E+00 0. -1.
          2    1    1    2  502    0  0.23341519710E+02 -0.16538635413E+02  0.16569270388E+03  0.16814406062E+03  0.00000000000E+00 0. -1.
</event>
<event>
 4    1  0.6210801E+003  0.2360882E+02  0.7546771E-02  0.1484991E+00
          2   -1    0    0  501    0  0.00000000000E+00  0.00000000000E+00  0.36722581935E+03  0.36722581935E+03  0.00000000000E+00 0.  1.
          2   -1    0    0  502    0 -0.00000000000E+00 -0.00000000000E+00 -0.19405061154E+01  0.19405061154E+01  0.00000000000E+00 0.  1.
          2    1    1    2  501    0 -0.13686297439E+02  0.19236986487E+02  0.96493230536E+02  0.99339417785E+02  0.00000000000E+00 0.  1.
          2    1    1    2  502    0  0.13686297439E+02 -0.19236986487E+02  0.26879208270E+03  0.26982690768E+03  0.00000000000E+00 0.  1.
</event>
<event>
 4    1  0.6210801E+003  0.2098305E+02  0.7546771E-02  0.1519507E+00
          2   -1    0    0  501    0  0.00000000000E+00  0.00000000000E+00  0.29188168699E+02  0.29188168699E+02  0.00000000000E+00 0. -1.
          2   -1    0    0  502    0 -0.00000000000E+00 -0.00000000000E+00 -0.27311335998E+02  0.27311335998E+02  0.00000000000E+00 0.  1.
          2    1    1    2  501    0  0.20771656552E+02 -0.29709662221E+01 -0.17963270568E+02  0.27621865355E+02  0.00000000000E+00 0.  1.
          2    1    1    2  502    0 -0.20771656552E+02  0.29709662221E+01  0.19840103269E+02  0.28877639342E+02  0.00000000000E+00 0. -1.
</event>
<event>
 4    1  0.6210801E+003  0.3061693E+02  0.7546771E-02  0.1414310E+00
          2   -1    0    0  502    0  0.00000000000E+00  0.00000000000E+00  0.13590767297E+03  0.13590767297E+03  0.00000000000E+00 0.  1.
          2   -1    0    0  501    0 -0.00000000000E+00 -0.00000000000E+00 -0.61677853365E+03  0.61677853365E+03  0.00000000000E+00 0.  1.
          2    1    1    2  501    0 -0.89292770594E+01  0.29285910040E+02  0.13379747426E+03  0.13725582185E+03  0.00000000000E+00 0.  1.
          2    1    1    2  502    0  0.89292770594E+01 -0.29285910040E+02 -0.61466833493E+03  0.61543038476E+03  0.00000000000E+00 0.  1.
</event>
<event>
 4    1  0.6210801E+003  0.4167716E+02  0.7546771E-02  0.1338928E+00
          2   -1    0    0  502    0  0.00000000000E+00  0.00000000000E+00  0.53081230346E+03  0.53081230346E+03  0.00000000000E+00 0.  1.
          2   -1    0    0  501    0 -0.00000000000E+00 -0.00000000000E+00 -0.33353956994E+03  0.33353956994E+03  0.00000000000E+00 0.  1.
          2    1    1    2  501    0 -0.16444518639E+02 -0.38295742370E+02  0.52868706473E+03  0.53032725603E+03  0.00000000000E+00 0.  1.
          2    1    1    2  502    0  0.16444518639E+02  0.38295742370E+02 -0.33141433121E+03  0.33402461737E+03  0.00000000000E+00 0.  1.
</event>
<event>
 4    1  0.6210801E+003  0.3963783E+02  0.7546771E-02  0.1350621E+00
          2   -1    0    0  502    0  0.00000000000E+00  0.00000000000E+00  0.14171406010E+04  0.14171406010E+04  0.00000000000E+00 0. -1.
          2   -1    0    0  501    0 -0.00000000000E+00 -0.00000000000E+00 -0.12589266532E+02  0.12589266532E+02  0.00000000000E+00 0.  1.
          2    1    1    2  501    0  0.23086602526E+02 -0.32220592196E+02  0.13849377588E+04  0.13855048732E+04  0.00000000000E+00 0. -1.
          2    1    1    2  502    0 -0.23086602526E+02  0.32220592196E+02  0.19613575672E+02  0.44224994384E+02  0.00000000000E+00 0.  1.
</event>
<event>
 4    1  0.6210801E+003  0.2029483E+02  0.7546771E-02  0.1529575E+00
          2   -1    0    0  502    0  0.00000000000E+00  0.00000000000E+00  0.67858888691E+03  0.67858888691E+03  0.00000000000E+00 0.  1.
          2   -1    0    0  501    0 -0.00000000000E+00 -0.00000000000E+00 -0.35321456583E+01  0.35321456583E+01  0.00000000000E+00 0.  1.
          2    1    1    2  501    0 -0.51589740817E+01  0.19628174817E+02  0.64790458265E+03  0.64822236037E+03  0.00000000000E+00 0.  1.
          2    1    1    2  502    0  0.51589740817E+01 -0.19628174817E+02  0.27152158597E+02  0.33898672197E+02  0.00000000000E+00 0.  1.
</event>
<event>
 4    1  0.6210801E+003  0.2277696E+02  0.7546771E-02  0.1495318E+00
          2   -1    0    0  502    0  0.00000000000E+00  0.00000000000E+00  0.82386351341E+03  0.82386351341E+03  0.00000000000E+00 0.  1.
          2   -1    0    0  501    0 -0.00000000000E+00 -0.00000000000E+00 -0.47288212271E+01  0.47288212271E+01  0.00000000000E+00 0. -1.
          2    1    1    2  501    0  0.64121911270E+01 -0.21855751671E+02  0.79529399275E+03  0.79562008834E+03  0.00000000000E+00 0.  1.
          2    1    1    2  502    0 -0.64121911270E+01  0.21855751671E+02  0.23840699440E+02  0.32972246298E+02  0.00000000000E+00 0. -1.
</event>
<event>
 4    1  0.6210801E+003  0.2227689E+02  0.7546771E-02  0.1501783E+00
          2   -1    0    0  501    0  0.00000000000E+00  0.00000000000E+00  0.18560074684E+01  0.18560074684E+01  0.00000000000E+00 0. -1.
          2   -1    0    0  502    0 -0.00000000000E+00 -0.00000000000E+00 -0.29254379762E+03  0.29254379762E+03  0.00000000000E+00 0. -1.
          2    1    1    2  501    0 -0.11785347257E+02 -0.18904113106E+02 -0.10217238307E+03  0.10457272955E+03  0.00000000000E+00 0. -1.
          2    1    1    2  502    0  0.11785347257E+02  0.18904113106E+02 -0.18851540708E+03  0.18982707554E+03  0.00000000000E+00 0. -1.
</event>
<event>
 4    1  0.6210801E+003  0.2700046E+02  0.7546771E-02  0.1447604E+00
          2   -1    0    0  502    0  0.00000000000E+00  0.00000000000E+00  0.96232412919E+02  0.96232412919E+02  0.00000000000E+00 0. -1.
          2   -1    0    0  501    0 -0.00000000000E+00 -0.00000000000E+00 -0.58917506008E+03  0.58917506008E+03  0.00000000000E+00 0.  1.
          2    1    1    2  501    0 -0.16280114597E+02 -0.21540252004E+02  0.94022026930E+02  0.97822114758E+02  0.00000000000E+00 0. -1.
          2    1    1    2  502    0  0.16280114597E+02  0.21540252004E+02 -0.58696467409E+03  0.58758535824E+03  0.00000000000E+00 0.  1.
</event>
<event>
 4    1  0.6210801E+003  0.3721027E+02  0.7546771E-02  0.1365657E+00
          2   -1    0    0  501    0  0.00000000000E+00  0.00000000000E+00  0.13177150256E+02  0.13177150256E+02  0.00000000000E+00 0.  1.
          2   -1    0    0  502    0 -0.00000000000E+00 -0.00000000000E+00 -0.67068610927E+03  0.67068610927E+03  0.00000000000E+00 0.  1.
          2    1    1    2  501    0 -0.36718169383E+02  0.60316280240E+01 -0.64276061656E+03  0.64383679198E+03  0.00000000000E+00 0.  1.
          2    1    1    2  502    0  0.36718169383E+02 -0.60316280240E+01 -0.14748342454E+02  0.40026467550E+02  0.00000000000E+00 0.  1.
</event>
<event>
 4    1  0.6210801E+003  0.2128992E+02  0.7546771E-02  0.1515166E+00
          2   -1    0    0  501    0  0.00000000000E+00  0.00000000000E+00  0.97779309524E+02  0.97779309524E+02  0.00000000000E+00 0.  1.
          2   -1    0    0  502    0 -0.00000000000E+00 -0.00000000000E+00 -0.13463527934E+03  0.13463527934E+03  0.00000000000E+00 0. -1.
          2    1    1    2  501    0 -0.20085494436E+02 -0.70593008750E+01 -0.13261722352E+03  0.13431525896E+03  0.00000000000E+00 0. -1.
          2    1    1    2  502    0  0.20085494436E+02  0.70593008750E+01  0.95761253706E+02  0.98099329901E+02  0.00000000000E+00 0.  1.
</event>
<event>
 4    1  0.6210801E+003  0.2150546E+02  0.7546771E-02  0.1512169E+00
          2   -1    0    0  502    0  0.00000000000E+00  0.00000000000E+00  0.12065019260E+04  0.12065019260E+04  0.00000000000E+00 0. -1.
          2   -1    0    0  501    0 -0.00000000000E+00 -0.00000000000E+00 -0.22951685501E+01  0.22951685501E+01  0.00000000000E+00 0.  1.
          2    1    1    2  501    0 -0.18005253659E+02 -0.11759908564E+02  0.11537260185E+04  0.11539264320E+04  0.00000000000E+00 0. -1.
          2    1    1    2  502    0  0.18005253659E+02  0.11759908564E+02  0.50480738998E+02  0.54870662640E+02  0.00000000000E+00 0.  1.
</event>
<event>
 4    1  0.6210801E+003  0.3088833E+02  0.7546771E-02  0.1412030E+00
          2   -1    0    0  501    0  0.00000000000E+00  0.00000000000E+00  0.56889435633E+01  0.56889435633E+01  0.00000000000E+00 0.  1.
          2   -1    0    0  502    0 -0.00000000000E+00 -0.00000000000E+00 -0.46753706863E+03  0.46753706863E+03  0.00000000000E+00 0.  1.
          2    1    1    2  501    0  0.14404018651E+01 -0.30854731745E+02 -0.42040540493E+03  0.42153860288E+03  0.00000000000E+00 0.  1.
          2    1    1    2  502    0 -0.14404018651E+01  0.30854731745E+02 -0.41442720136E+02  0.51687409307E+02  0.00000000000E+00 0.  1.
</event>
<event>
 4    1  0.6210801E+003  0.5762400E+02  0.7546771E-02  0.1268126E+00
          2   -1    0    0  502    0  0.00000000000E+00  0.00000000000E+00  0.61814948372E+03  0.61814948372E+03  0.00000000000E+00 0.  1.
          2   -1    0    0  501    0 -0.00000000000E+00 -0.00000000000E+00 -0.11184877720E+03  0.11184877720E+03  0.00000000000E+00 0.  1.
          2    1    1    2  501    0 -0.43898027138E+02  0.37329453624E+02  0.60927680520E+03  0.61199571097E+03  0.00000000000E+00 0.  1.
          2    1    1    2  502    0  0.43898027138E+02 -0.37329453624E+02 -0.10297609868E+03  0.11800254994E+03  0.00000000000E+00 0.  1.
</event>
<event>
 4    1  0.6210801E+003  0.2691636E+02  0.7546771E-02  0.1448450E+00
          2   -1    0    0  501    0  0.00000000000E+00  0.00000000000E+00  0.15917861752E+04  0.15917861752E+04  0.00000000000E+00 0. -1.
          2   -1    0    0  502    0 -0.00000000000E+00 -0.00000000000E+00 -0.53783281320E+01  0.53783281320E+01  0.00000000000E+00 0. -1.
          2    1    1    2  501    0 -0.20268512788E+02  0.17710954163E+02  0.29158664514E+02  0.39682719467E+02  0.00000000000E+00 0. -1.
          2    1    1    2  502    0  0.20268512788E+02 -0.17710954163E+02  0.15572491825E+04  0.15574817838E+04  0.00000000000E+00 0. -1.
</event>
<event>
 4    1  0.6210801E+003  0.2776610E+02  0.7546771E-02  0.1440061E+00
          2   -1    0    0  502    0  0.00000000000E+00  0.00000000000E+00  0.11017195502E+02  0.11017195502E+02  0.00000000000E+00 0. -1.
          2   -1    0    0  501    0 -0.00000000000E+00 -0.00000000000E+00 -0.32163403223E+03  0.32163403223E+03  0.00000000000E+00 0. -1.
          2    1    1    2  501    0 -0.62447943526E+01 -0.27054740249E+02 -0.81848695828E+01  0.28947340405E+02  0.00000000000E+00 0. -1.
          2    1    1    2  502    0  0.62447943526E+01  0.27054740249E+02 -0.30243196714E+03  0.30370388732E+03  0.00000000000E+00 0. -1.
</event>
<event>
 4    1  0.6210801E+003  0.2385146E+02  0.7546771E-02  0.1482074E+00
          2   -1    0    0  501    0  0.00000000000E+00  0.00000000000E+00  0.82454324868E+03  0.82454324868E+03  0.00000000000E+00 0. -1.
          2   -1    0    0  502    0 -0.00000000000E+00 -0.00000000000E+00 -0.17662230356E+02  0.17662230356E+02  0.00000000000E+00 0. -1.
          2    1    1    2  501    0  0.23299519936E+02 -0.51014399190E+01 -0.93554269083E+01  0.25620623161E+02  0.00000000000E+00 0. -1.
          2    1    1    2  502    0 -0.23299519936E+02  0.51014399190E+01  0.81623644523E+03  0.81658485588E+03  0.00000000000E+00 0. -1.
</event>
<event>
 4    1  0.6210801E+003  0.2938014E+02  0.7546771E-02  0.1425061E+00
          2   -1    0    0  502    0  0.00000000000E+00  0.00000000000E+00  0.27021103884E+01  0.27021103884E+01  0.00000000000E+00 0.  1.
          2   -1    0    0  501    0 -0.00000000000E+00 -0.00000000000E+00 -0.53853267917E+03  0.53853267917E+03  0.00000000000E+00 0. -1.
          2    1    1    2  501    0 -0.28663659963E+02 -0.64488354907E+01 -0.95310696405E+02  0.99736260863E+02  0.00000000000E+00 0.  1.
          2    1    1    2  502    0  0.28663659963E+02  0.64488354907E+01 -0.44051987237E+03  0.44149852869E+03  0.00000000000E+00 0. -1.
</event>
<event>
 4    1  0.6210801E+003  0.2146329E+02  0.7546771E-02  0.1512752E+00
          2   -1    0    0  502    0  0.00000000000E+00  0.00000000000E+00  0.32384789338E+02  0.32384789338E+02  0.00000000000E+00 0.  1.
          2   -1    0    0  501    0 -0.00000000000E+00 -0.00000000000E+00 -0.38172460408E+02  0.38172460408E+02  0.00000000000E+00 0.  1.
          2    1    1    2  501    0 -0.96724159040E+01  0.19160303895E+02  0.25048745218E+02  0.32986550467E+02  0.00000000000E+00 0.  1.
          2    1    1    2  502    0  0.96724159040E+01 -0.19160303895E+02 -0.30836416288E+02  0.37570699278E+02  0.00000000000E+00 0.  1.
</event>
<event>
 4    1  0.6210801E+003  0.2227208E+02  0.7546771E-02  0.1501847E+00
          2   -1    0    0  502    0  0.00000000000E+00  0.00000000000E+00  0.12820181605E+02  0.12820181605E+02  0.00000000000E+00 0. -1.
          2   -1    0    0  501    0 -0.00000000000E+00 -0.00000000000E+00 -0.20730648415E+03  0.20730648415E+03  0.00000000000E+00 0.  1.
          2    1    1    2  501    0  0.23516811145E+01  0.22147578827E+02  0.20188287371E+01  0.22363392441E+02  0.00000000000E+00 0. -1.
          2    1    1    2  502    0 -0.23516811145E+01 -0.22147578827E+02 -0.19650513128E+03  0.19776327332E+03  0.00000000000E+00 0.  1.
</event>
<event>
 4    1  0.6210801E+003  0.2028567E+02  0.7546771E-02  0.1529713E+00
          2   -1    0    0  502    0  0.00000000000E+00  0.00000000000E+00  0.32122450383E+03  0.32122450383E+03  0.00000000000E+00 0. -1.
          2   -1    0    0  501    0 -0.00000000000E+00 -0.00000000000E+00 -0.10897537667E+02  0.10897537667E+02  0.00000000000E+00 0. -1.
          2    1    1    2  501    0 -0.15665795976E+02 -0.12887632541E+02  0.31115877860E+03  0.31181932868E+03  0.00000000000E+00 0. -1.
          2    1    1    2  502    0  0.15665795976E+02  0.12887632541E+02 -0.83181243453E+00  0.20302712823E+02  0.00000000000E+00 0. -1.
</event>
<event>
 4    1  0.6210801E+003  0.2342293E+02  0.7546771E-02  0.1487255E+00
          2   -1    0    0  501    0  0.00000000000E+00  0.00000000000E+00  0.37193596404E+03  0.37193596404E+03  0.00000000000E+00 0. -1.
          2   -1    0    0  502    0 -0.00000000000E+00 -0.00000000000E+00 -0.13248177604E+02  0.13248177604E+02  0.00000000000E+00 0.  1.
          2    1    1    2  501    0  0.84598728269E+01 -0.21841798337E+02 -0.22100929311E+01  0.23526965669E+02  0.00000000000E+00 0.  1.
          2    1    1    2  502    0 -0.84598728269E+01  0.21841798337E+02  0.36089787937E+03  0.36165717597E+03  0.00000000000E+00 0. -1.
</event>
<event>
 4    1  0.6210801E+003  0.2044908E+02  0.7546771E-02  0.1527278E+00
          2   -1    0    0  502    0  0.00000000000E+00  0.00000000000E+00  0.22317276532E+03  0.22317276532E+03  0.00000000000E+00 0. -1.
          2   -1    0    0  501    0 -0.00000000000E+00 -0.00000000000E+00 -0.94645007802E+01  0.94645007802E+01  0.00000000000E+00 0.  1.
          2    1    1    2  501    0 -0.61861493325E+01  0.19490935601E+02  0.21102431733E+03  0.21201280037E+03  0.00000000000E+00 0. -1.
          2    1    1    2  502    0  0.61861493325E+01 -0.19490935601E+02  0.26839472082E+01  0.20624465733E+02  0.00000000000E+00 0.  1.
</event>
<event>
 4    1  0.6210801E+003  0.3094704E+02  0.7546771E-02  0.1411541E+00
          2   -1    0    0  501    0  0.00000000000E+00  0.00000000000E+00  0.47111615948E+01  0.47111615948E+01  0.00000000000E+00 0. -1.
          2   -1    0    0  502    0 -0.00000000000E+00 -0.00000000000E+00 -0.26401122891E+03  0.26401122891E+03  0.00000000000E+00 0.  1.
          2    1    1    2  501    0 -0.33129591455E+01 -0.30769201624E+02 -0.19408809705E+03  0.19653984045E+03  0.00000000000E+00 0.  1.
          2    1    1    2  502    0  0.33129591455E+01  0.30769201624E+02 -0.65211970273E+02  0.72182550064E+02  0.00000000000E+00 0. -1.
</event>
<event>
 4    1  0.6210801E+003  0.3444699E+02  0.7546771E-02  0.1384493E+00
          2   -1    0    0  501    0  0.00000000000E+00  0.00000000000E+00  0.11168315936E+04  0.11168315936E+04  0.00000000000E+00 0. -1.
          2   -1    0    0  502    0 -0.00000000000E+00 -0.00000000000E+00 -0.16917023098E+01  0.16917023098E+01  0.00000000000E+00 0.  1.
          2    1    1    2  501    0 -0.38676864891E-01 -0.34446966698E+02  0.21648689745E+03  0.21921033685E+03  0.00000000000E+00 0.  1.
          2    1    1    2  502    0  0.38676864891E-01  0.34446966698E+02  0.89865299381E+03  0.89931295904E+03  0.00000000000E+00 0. -1.
</event>
<event>
 4    1  0.6210801E+003  0.2168181E+02  0.7546771E-02  0.1509749E+00
          2   -1    0    0  502    0  0.00000000000E+00  0.00000000000E+00  0.17709858849E+03  0.17709858849E+03  0.00000000000E+00 0.  1.
          2   -1    0    0  501    0 -0.00000000000E+00 -0.00000000000E+00 -0.34079532387E+03  0.34079532387E+03  0.00000000000E+00 0.  1.
          2    1    1    2  501    0 -0.21145638272E+02  0.47919461289E+01  0.17608814692E+03  0.17741797048E+03  0.00000000000E+00 0.  1.
          2    1    1    2  502    0  0.21145638272E+02 -0.47919461289E+01 -0.33978488229E+03  0.34047594188E+03  0.00000000000E+00 0.  1.
</event>
<event>
 4    1  0.6210801E+003  0.2206042E+02  0.7546771E-02  0.1504646E+00
          2   -1    0    0  502    0  0.00000000000E+00  0.00000000000E+00  0.86371702403E+03  0.86371702403E+03  0.00000000000E+00 0.  1.
          2   -1    0    0  501    0 -0.00000000000E+00 -0.00000000000E+00 -0.12810524377E+02  0.12810524377E+02  0.00000000000E+00 0. -1.
          2    1    1    2  501    0  0.20845261509E+02  0.72206189839E+01  0.85397047088E+03  0.85425536428E+03  0.00000000000E+00 0.  1.
          2    1    1    2  502    0 -0.20845261509E+02 -0.72206189839E+01 -0.30639712307E+01  0.22272184123E+02  0.00000000000E+00 0. -1.
</event>
<event>
 4    1  0.6210801E+003  0.2280888E+02  0.7546771E-02  0.1494912E+00
          2   -1    0    0  501    0  0.00000000000E+00  0.00000000000E+00  0.35189631916E+01  0.35189631916E+01  0.00000000000E+00 0. -1.
          2   -1    0    0  502    0 -0.00000000000E+00 -0.00000000000E+00 -0.18245556416E+03  0.18245556416E+03  0.00000000000E+00 0. -1.
          2    1    1    2  501    0 -0.29517839511E+01  0.22617074383E+02 -0.48966173494E+02  0.54017878789E+02  0.00000000000E+00 0. -1.
          2    1    1    2  502    0  0.29517839511E+01 -0.22617074383E+02 -0.12997042747E+03  0.13195664856E+03  0.00000000000E+00 0. -1.
</event>
<event>
 4    1  0.6210801E+003  0.2091961E+02  0.7546771E-02  0.1520416E+00
          2   -1    0    0  501    0  0.00000000000E+00  0.00000000000E+00  0.14035301845E+04  0.14035301845E+04  0.00000000000E+00 0.  1.
          2   -1    0    0  502    0 -0.00000000000E+00 -0.00000000000E+00 -0.82950286602E+00  0.82950286602E+00  0.00000000000E+00 0.  1.
          2    1    1    2  501    0  0.58440243750E+01 -0.20086752589E+02  0.14662647971E+03  0.14811129195E+03  0.00000000000E+00 0.  1.
          2    1    1    2  502    0 -0.58440243750E+01  0.20086752589E+02  0.12560742019E+04  0.12562483954E+04  0.00000000000E+00 0.  1.
</event>
<event>
 4    1  0.6210801E+003  0.6344167E+02  0.7546771E-02  0.1248567E+00
          2   -1    0    0  501    0  0.00000000000E+00  0.00000000000E+00  0.72462255365E+03  0.72462255365E+03  0.00000000000E+00 0. -1.
          2   -1    0    0  502    0 -0.00000000000E+00 -0.00000000000E+00 -0.36634473187E+03  0.36634473187E+03  0.00000000000E+00 0. -1.
          2    1    1    2  501    0 -0.53733806848E+02 -0.33727186339E+02 -0.36219371301E+03  0.36770794231E+03  0.00000000000E+00 0. -1.
          2    1    1    2  502    0  0.53733806848E+02  0.33727186339E+02  0.72047153479E+03  0.72325934321E+03  0.00000000000E+00 0. -1.
</event>
<event>
 4    1  0.6210801E+003  0.3098874E+02  0.7546771E-02  0.1411194E+00
          2   -1    0    0  502    0  0.00000000000E+00  0.00000000000E+00  0.11269362018E+01  0.11269362018E+01  0.00000000000E+00 0. -1.
          2   -1    0    0  501    0 -0.00000000000E+00 -0.00000000000E+00 -0.14014829351E+04  0.14014829351E+04  0.00000000000E+00 0. -1.
          2    1    1    2  501    0 -0.30500331039E+02 -0.54801055033E+01 -0.26110498376E+03  0.26293747221E+03  0.00000000000E+00 0. -1.
          2    1    1    2  502    0  0.30500331039E+02  0.54801055033E+01 -0.11392510152E+04  0.11396723991E+04  0.00000000000E+00 0. -1.
</event>
<event>
 4    1  0.6210801E+003  0.2953565E+02  0.7546771E-02  0.1423675E+00
          2   -1    0    0  502    0  0.00000000000E+00  0.00000000000E+00  0.50612927517E+03  0.50612927517E+03  0.00000000000E+00 0. -1.
          2   -1    0    0  501    0 -0.00000000000E+00 -0.00000000000E+00 -0.11346983803E+03  0.11346983803E+03  0.00000000000E+00 0. -1.
          2    1    1    2  501    0 -0.22086995972E+02  0.19609155334E+02  0.50376738051E+03  0.50463246827E+03  0.00000000000E+00 0. -1.
          2    1    1    2  502    0  0.22086995972E+02 -0.19609155334E+02 -0.11110794337E+03  0.11496664492E+03  0.00000000000E+00 0. -1.
</event>
<event>
 4    1  0.6210801E+003  0.2296585E+02  0.7546771E-02  0.1492927E+00
          2   -1    0    0  501    0  0.00000000000E+00  0.00000000000E+00  0.20805491610E+02  0.20805491610E+02  0.00000000000E+00 0.  1.
          2   -1    0    0  502    0 -0.00000000000E+00 -0.00000000000E+00 -0.20898728422E+03  0.20898728422E+03  0.00000000000E+00 0. -1.
          2    1    1    2  501    0  0.20109543518E+02 -0.11092190491E+02 -0.20179350872E+03  0.20309616095E+03  0.00000000000E+00 0. -1.
          2    1    1    2  502    0 -0.20109543518E+02  0.11092190491E+02  0.13611716115E+02  0.26696614878E+02  0.00000000000E+00 0.  1.
</event>
<event>
 4    1  0.6210801E+003  0.4819886E+02  0.7546771E-02  0.1306176E+00
          2   -1    0    0  502    0  0.00000000000E+00  0.00000000000E+00  0.14849797485E+04  0.14849797485E+04  0.00000000000E+00 0. -1.
          2   -1    0    0  501    0 -0.00000000000E+00 -0.00000000000E+00 -0.21873207564E+03  0.21873207564E+03  0.00000000000E+00 0. -1.
          2    1    1    2  501    0 -0.47801420680E+02  0.61768863777E+01  0.14819279543E+04  0.14827115672E+04  0.00000000000E+00 0. -1.
          2    1    1    2  502    0  0.47801420680E+02 -0.61768863777E+01 -0.21568028147E+03  0.22100025692E+03  0.00000000000E+00 0. -1.
</event>
<event>
 4    1  0.6210801E+003  0.4222370E+02  0.7546771E-02  0.1335926E+00
          2   -1    0    0  502    0  0.00000000000E+00  0.00000000000E+00  0.64489941180E+03  0.64489941180E+03  0.00000000000E+00 0. -1.
          2   -1    0    0  501    0 -0.00000000000E+00 -0.00000000000E+00 -0.27693424692E+01  0.27693424692E+01  0.00000000000E+00 0. -1.
          2    1    1    2  501    0 -0.17156215964E+02 -0.38581152411E+02  0.33457044107E+03  0.33722428902E+03  0.00000000000E+00 0. -1.
          2    1    1    2  502    0  0.17156215964E+02  0.38581152411E+02  0.30755962826E+03  0.31044446525E+03  0.00000000000E+00 0. -1.
</event>
<event>
 4    1  0.6210801E+003  0.2221882E+02  0.7546771E-02  0.1502548E+00
          2   -1    0    0  501    0  0.00000000000E+00  0.00000000000E+00  0.74441552603E+02  0.74441552603E+02  0.00000000000E+00 0. -1.
          2   -1    0    0  502    0 -0.00000000000E+00 -0.00000000000E+00 -0.12604698017E+02  0.12604698017E+02  0.00000000000E+00 0. -1.
          2    1    1    2  501    0 -0.13535219553E+02 -0.17620266583E+02  0.95792436242E+00  0.22239460018E+02  0.00000000000E+00 0. -1.
          2    1    1    2  502    0  0.13535219553E+02  0.17620266583E+02  0.60878930224E+02  0.64806790602E+02  0.00000000000E+00 0. -1.
</event>
<event>
 4    1  0.6210801E+003  0.2578012E+02  0.7546771E-02  0.1460262E+00
          2   -1    0    0  502    0  0.00000000000E+00  0.00000000000E+00  0.11611245291E+01  0.11611245291E+01  0.00000000000E+00 0.  1.
          2   -1    0    0  501    0 -0.00000000000E+00 -0.00000000000E+00 -0.16457455834E+04  0.16457455834E+04  0.00000000000E+00 0.  1.
          2    1    1    2  501    0  0.15675458937E+02 -0.20466917975E+02 -0.15727990442E+03  0.15937874099E+03  0.00000000000E+00 0.  1.
          2    1    1    2  502    0 -0.15675458937E+02  0.20466917975E+02 -0.14873045544E+04  0.14875279669E+04  0.00000000000E+00 0.  1.
</event>
<event>
 4    1  0.6210801E+003  0.4457770E+02  0.7546771E-02  0.1323565E+00
          2   -1    0    0  501    0  0.00000000000E+00  0.00000000000E+00  0.19465326570E+02  0.19465326570E+02  0.00000000000E+00 0.  1.
          2   -1    0    0  502    0 -0.00000000000E+00 -0.00000000000E+00 -0.21520829140E+03  0.21520829140E+03  0.00000000000E+00 0.  1.
          2    1    1    2  501    0 -0.44029556743E+02  0.69692113724E+01 -0.18294129448E+03  0.18829415552E+03  0.00000000000E+00 0.  1.
          2    1    1    2  502    0  0.44029556743E+02 -0.69692113724E+01 -0.12801670350E+02  0.46379462458E+02  0.00000000000E+00 0.  1.
</event>
<event>
 4    1  0.6210801E+003  0.2477044E+02  0.7546771E-02  0.1471388E+00
          2   -1    0    0  501    0  0.00000000000E+00  0.00000000000E+00  0.15847332772E+03  0.15847332772E+03  0.00000000000E+00 0. -1.
          2   -1    0    0  502    0 -0.00000000000E+00 -0.00000000000E+00 -0.14370843631E+04  0.14370843631E+04  0.00000000000E+00 0.  1.
          2    1    1    2  501    0  0.19607002156E+02  0.15137369695E+02 -0.14360089528E+04  0.14362225757E+04  0.00000000000E+00 0.  1.
          2    1    1    2  502    0 -0.19607002156E+02 -0.15137369695E+02  0.15739791742E+03  0.15933511510E+03  0.00000000000E+00 0. -1.
</event>
<event>
 4    1  0.6210801E+003  0.2029314E+02  0.7546771E-02  0.1529601E+00
          2   -1    0    0  501    0  0.00000000000E+00  0.00000000000E+00  0.31469399964E+03  0.31469399964E+03  0.00000000000E+00 0. -1.
          2   -1    0    0  502    0 -0.00000000000E+00 -0.00000000000E+00 -0.15230669248E+01  0.15230669248E+01  0.00000000000E+00 0. -1.
          2    1    1    2  501    0 -0.19778808783E+02  0.45398522665E+01  0.97256548004E+02  0.99351133185E+02  0.00000000000E+00 0. -1.
          2    1    1    2  502    0  0.19778808783E+02 -0.45398522665E+01  0.21591438471E+03  0.21686593338E+03  0.00000000000E+00 0. -1.
</event>
<event>
 4    1  0.6210801E+003  0.2454613E+02  0.7546771E-02  0.1473945E+00
          2   -1    0    0  502    0  0.00000000000E+00  0.00000000000E+00  0.13067926719E+02  0.13067926719E+02  0.00000000000E+00 0. -1.
          2   -1    0    0  501    0 -0.00000000000E+00 -0.00000000000E+00 -0.34376355362E+03  0.34376355362E+03  0.00000000000E+00 0.  1.
          2    1    1    2  501    0 -0.96093526634E+00 -0.24527316314E+02  0.67262172892E+00  0.24555346916E+02  0.00000000000E+00 0. -1.
          2    1    1    2  502    0  0.96093526634E+00  0.24527316314E+02 -0.33136824863E+03  0.33227613342E+03  0.00000000000E+00 0.  1.
</event>
<event>
 4    1  0.6210801E+003  0.3855389E+02  0.7546771E-02  0.1357175E+00
          2   -1    0    0  501    0  0.00000000000E+00  0.00000000000E+00  0.28939594424E+01  0.28939594424E+01  0.00000000000E+00 0.  1.
          2   -1    0    0  502    0 -0.00000000000E+00 -0.00000000000E+00 -0.18487897728E+04  0.18487897728E+04  0.00000000000E+00 0.  1.
          2    1    1    2  501    0  0.17748358187E+02 -0.34225696828E+02 -0.17097416500E+04  0.17101762810E+04  0.00000000000E+00 0.  1.
          2    1    1    2  502    0 -0.17748358187E+02  0.34225696828E+02 -0.13615416337E+03  0.14150745120E+03  0.00000000000E+00 0.  1.
</event>
<event>
 4    1  0.6210801E+003  0.2473290E+02  0.7546771E-02  0.1471814E+00
          2   -1    0    0  502    0  0.00000000000E+00  0.00000000000E+00  0.50221288896E+02  0.50221288896E+02  0.00000000000E+00 0. -1.
          2   -1    0    0  501    0 -0.00000000000E+00 -0.00000000000E+00 -0.14101620635E+04  0.14101620635E+04  0.00000000000E+00 0. -1.
          2    1    1    2  501    0  0.22312242733E+01  0.24632050922E+02  0.47060897157E+02  0.53164314494E+02  0.00000000000E+00 0. -1.
          2    1    1    2  502    0 -0.22312242733E+01 -0.24632050922E+02 -0.14070016717E+04  0.14072190379E+04  0.00000000000E+00 0. -1.
</event>
<event>
 4    1  0.6210801E+003  0.2325820E+02  0.7546771E-02  0.1489281E+00
          2   -1    0    0  502    0  0.00000000000E+00  0.00000000000E+00  0.14945752494E+01  0.14945752494E+01  0.00000000000E+00 0.  1.
          2   -1    0    0  501    0 -0.00000000000E+00 -0.00000000000E+00 -0.82952709474E+03  0.82952709474E+03  0.00000000000E+00 0.  1.
          2    1    1    2  501    0  0.16116200612E+02  0.16769369308E+02 -0.10205603590E+03  0.10467271914E+03  0.00000000000E+00 0.  1.
          2    1    1    2  502    0 -0.16116200612E+02 -0.16769369308E+02 -0.72597648359E+03  0.72634895085E+03  0.00000000000E+00 0.  1.
</event>
<event>
 4    1  0.6210801E+003  0.3515359E+02  0.7546771E-02  0.1379487E+00
          2   -1    0    0  502    0  0.00000000000E+00  0.00000000000E+00  0.13988735469E+02  0.13988735469E+02  0.00000000000E+00 0. -1.
          2   -1    0    0  501    0 -0.00000000000E+00 -0.00000000000E+00 -0.46102316463E+03  0.46102316463E+03  0.00000000000E+00 0.  1.
          2    1    1    2  501    0 -0.29304815026E+02  0.19416558563E+02 -0.99755668335E+01  0.36541577194E+02  0.00000000000E+00 0. -1.
          2    1    1    2  502    0  0.29304815026E+02 -0.19416558563E+02 -0.43705886233E+03  0.43847032291E+03  0.00000000000E+00 0.  1.
</event>
<event>
 4    1  0.6210801E+003  0.4195238E+02  0.7546771E-02  0.1337410E+00
          2   -1    0    0  501    0  0.00000000000E+00  0.00000000000E+00  0.33926865023E+03  0.33926865023E+03  0.00000000000E+00 0.  1.
          2   -1    0    0  502    0 -0.00000000000E+00 -0.00000000000E+00 -0.91578720043E+02  0.91578720043E+02  0.00000000000E+00 0.  1.
          2    1    1    2  501    0  0.11712095945E+02 -0.40284350428E+02 -0.85388250418E+02  0.95137560355E+02  0.00000000000E+00 0.  1.
          2    1    1    2  502    0 -0.11712095945E+02  0.40284350428E+02  0.33307818061E+03  0.33570980992E+03  0.00000000000E+00 0.  1.
</event>
<event>
 4    1  0.6210801E+003  0.2070744E+02  0.7546771E-02  0.1523483E+00
          2   -1    0    0  501    0  0.00000000000E+00  0.00000000000E+00  0.39784142353E+03  0.39784142353E+03  0.00000000000E+00 0.  1.
          2   -1    0    0  502    0 -0.00000000000E+00 -0.00000000000E+00 -0.17662386793E+03  0.17662386793E+03  0.00000000000E+00 0. -1.
          2    1    1    2  501    0  0.46166226508E+01 -0.20186256018E+02 -0.17574613706E+03  0.17696186829E+03  0.00000000000E+00 0. -1.
          2    1    1    2  502    0 -0.46166226508E+01  0.20186256018E+02  0.39696369266E+03  0.39750342317E+03  0.00000000000E+00 0.  1.
</event>
<event>
 4    1  0.6210801E+003  0.3254895E+02  0.7546771E-02  0.1398665E+00
          2   -1    0    0  501    0  0.00000000000E+00  0.00000000000E+00  0.11351674804E+04  0.11351674804E+04  0.00000000000E+00 0. -1.
          2   -1    0    0  502    0 -0.00000000000E+00 -0.00000000000E+00 -0.22593170210E+01  0.22593170210E+01  0.00000000000E+00 0. -1.
          2    1    1    2  501    0 -0.32519598389E+02  0.13820312127E+01  0.13075970984E+03  0.13474990169E+03  0.00000000000E+00 0. -1.
          2    1    1    2  502    0  0.32519598389E+02 -0.13820312127E+01  0.10021484535E+04  0.10026768957E+04  0.00000000000E+00 0. -1.
</event>
<event>
 4    1  0.6210801E+003  0.2156854E+02  0.7546771E-02  0.1511300E+00
          2   -1    0    0  501    0  0.00000000000E+00  0.00000000000E+00  0.24590171298E+02  0.24590171298E+02  0.00000000000E+00 0. -1.
          2   -1    0    0  502    0 -0.00000000000E+00 -0.00000000000E+00 -0.83790172445E+03  0.83790172445E+03  0.00000000000E+00 0. -1.
          2    1    1    2  501    0  0.76386953209E+01  0.20170583250E+02 -0.83300557734E+03  0.83328476164E+03  0.00000000000E+00 0. -1.
          2    1    1    2  502    0 -0.76386953209E+01 -0.20170583250E+02  0.19694024183E+02  0.29207134117E+02  0.00000000000E+00 0. -1.
</event>
<event>
 4    1  0.6210801E+003  0.2045267E+02  0.7546771E-02  0.1527225E+00
          2   -1    0    0  502    0  0.00000000000E+00  0.00000000000E+00  0.68296949532E+03  0.68296949532E+03  0.00000000000E+00 0. -1.
          2   -1    0    0  501    0 -0.00000000000E+00 -0.00000000000E+00 -0.81641080256E+01  0.81641080256E+01  0.00000000000E+00 0. -1.
          2    1    1    2  501    0  0.12826569694E+01 -0.20412407039E+02  0.66975421181E+03  0.67006642642E+03  0.00000000000E+00 0. -1.
          2    1    1    2  502    0 -0.12826569694E+01  0.20412407039E+02  0.50511754822E+01  0.21067176929E+02  0.00000000000E+00 0. -1.
</event>
<event>
 4    1  0.6210801E+003  0.6675026E+02  0.7546771E-02  0.1238475E+00
          2   -1    0    0  502    0  0.00000000000E+00  0.00000000000E+00  0.12951346722E+02  0.12951346722E+02  0.00000000000E+00 0.  1.
          2   -1    0    0  501    0 -0.00000000000E+00 -0.00000000000E+00 -0.61775184715E+03  0.61775184715E+03  0.00000000000E+00 0.  1.
          2    1    1    2  501    0  0.33693055547E+02  0.57622698271E+02 -0.92483992476E+02  0.11405650447E+03  0.00000000000E+00 0.  1.
          2    1    1    2  502    0 -0.33693055547E+02 -0.57622698271E+02 -0.51231650796E+03  0.51664668940E+03  0.00000000000E+00 0.  1.
</event>
<event>
 4    1  0.6210801E+003  0.3107604E+02  0.7546771E-02  0.1410470E+00
          2   -1    0    0  502    0  0.00000000000E+00  0.00000000000E+00  0.70604982260E+03  0.70604982260E+03  0.00000000000E+00 0.  1.
          2   -1    0    0  501    0 -0.00000000000E+00 -0.00000000000E+00 -0.14769916722E+02  0.14769916722E+02  0.00000000000E+00 0. -1.
          2    1    1    2  501    0  0.27934097985E+02  0.13616405381E+02  0.68895646027E+03  0.68965696144E+03  0.00000000000E+00 0.  1.
          2    1    1    2  502    0 -0.27934097985E+02 -0.13616405381E+02  0.23234456156E+01  0.31162777881E+02  0.00000000000E+00 0. -1.
</event>
<event>
 4    1  0.6210801E+003  0.2909053E+02  0.7546771E-02  0.1427668E+00
          2   -1    0    0  502    0  0.00000000000E+00  0.00000000000E+00  0.55442243394E+03  0.55442243394E+03  0.00000000000E+00 0. -1.
          2   -1    0    0  501    0 -0.00000000000E+00 -0.00000000000E+00 -0.30531791276E+03  0.30531791276E+03  0.00000000000E+00 0. -1.
          2    1    1    2  501    0 -0.26223311232E+02 -0.12593515447E+02  0.55334656049E+03  0.55411070617E+03  0.00000000000E+00 0. -1.
          2    1    1    2  502    0  0.26223311232E+02  0.12593515447E+02 -0.30424203932E+03  0.30562964053E+03  0.00000000000E+00 0. -1.
</event>
<event>
 4    1  0.6210801E+003  0.2006806E+02  0.7546771E-02  0.1532998E+00
          2   -1    0    0  501    0  0.00000000000E+00  0.00000000000E+00  0.60841635062E+03  0.60841635062E+03  0.00000000000E+00 0. -1.
          2   -1    0    0  502    0 -0.00000000000E+00 -0.00000000000E+00 -0.13524148228E+03  0.13524148228E+03  0.00000000000E+00 0.  1.
          2    1    1    2  501    0  0.12028401515E+02  0.16063760103E+02 -0.13433042578E+03  0.13582116963E+03  0.00000000000E+00 0.  1.
          2    1    1    2  502    0 -0.12028401515E+02 -0.16063760103E+02  0.60750529412E+03  0.60783666327E+03  0.00000000000E+00 0. -1.
</event>
<event>
 4    1  0.6210801E+003  0.2907257E+02  0.7546771E-02  0.1427831E+00
          2   -1    0    0  502    0  0.00000000000E+00  0.00000000000E+00  0.26717900435E+03  0.26717900435E+03  0.00000000000E+00 0. -1.
          2   -1    0    0  501    0 -0.00000000000E+00 -0.00000000000E+00 -0.70463676870E+01  0.70463676870E+01  0.00000000000E+00 0. -1.
          2    1    1    2  501    0 -0.26378530704E+02  0.12222409918E+02  0.23184871292E+03  0.23366437441E+03  0.00000000000E+00 0. -1.
          2    1    1    2  502    0  0.26378530704E+02 -0.12222409918E+02  0.28283923751E+02  0.40560997634E+02  0.00000000000E+00 0. -1.
</event>
<event>
 4    1  0.6210801E+003  0.2017406E+02  0.7546771E-02  0.1531391E+00
          2   -1    0    0  501    0  0.00000000000E+00  0.00000000000E+00  0.92927748375E+03  0.92927748375E+03  0.00000000000E+00 0.  1.
          2   -1    0    0  502    0 -0.00000000000E+00 -0.00000000000E+00 -0.95024603702E+00  0.95024603702E+00  0.00000000000E+00 0. -1.
          2    1    1    2  501    0 -0.18360695373E+02  0.83592784291E+01  0.12266052982E+03  0.12430848019E+03  0.00000000000E+00 0. -1.
          2    1    1    2  502    0  0.18360695373E+02 -0.83592784291E+01  0.80566670790E+03  0.80591924960E+03  0.00000000000E+00 0.  1.
</event>
<event>
 4    1  0.6210801E+003  0.3069762E+02  0.7546771E-02  0.1413629E+00
          2   -1    0    0  501    0  0.00000000000E+00  0.00000000000E+00  0.40485018980E+03  0.40485018980E+03  0.00000000000E+00 0. -1.
          2   -1    0    0  502    0 -0.00000000000E+00 -0.00000000000E+00 -0.44742766240E+02  0.44742766240E+02  0.00000000000E+00 0.  1.
          2    1    1    2  501    0  0.24366968561E+02  0.18670691661E+02 -0.38817422952E+02  0.49488748303E+02  0.00000000000E+00 0.  1.
          2    1    1    2  502    0 -0.24366968561E+02 -0.18670691661E+02  0.39892484651E+03  0.40010420773E+03  0.00000000000E+00 0. -1.
</event>
<event>
 4    1  0.6210801E+003  0.2785652E+02  0.7546771E-02  0.1439189E+00
          2   -1    0    0  501    0  0.00000000000E+00  0.00000000000E+00  0.11007279906E+04  0.11007279906E+04  0.00000000000E+00 0.  1.
          2   -1    0    0  502    0 -0.00000000000E+00 -0.00000000000E+00 -0.11914810879E+01  0.11914810879E+01  0.00000000000E+00 0. -1.
          2    1    1    2  501    0  0.17051567347E+02 -0.22027932153E+02  0.19770523231E+03  0.19965806928E+03  0.00000000000E+00 0. -1.
          2    1    1    2  502    0 -0.17051567347E+02  0.22027932153E+02  0.90183127717E+03  0.90226140238E+03  0.00000000000E+00 0.  1.
</event>
<event>
 4    1  0.6210801E+003  0.5767217E+02  0.7546771E-02  0.1267954E+00
          2   -1    0    0  502    0  0.00000000000E+00  0.00000000000E+00  0.96904553733E+01  0.96904553733E+01  0.00000000000E+00 0.  1.
          2   -1    0    0  501    0 -0.00000000000E+00 -0.00000000000E+00 -0.12060242587E+04  0.12060242587E+04  0.00000000000E+00 0.  1.
          2    1    1    2  501    0 -0.38635141916E+02  0.42818279074E+02 -0.84032516921E+02  0.10191929706E+03  0.00000000000E+00 0.  1.
          2    1    1    2  502    0  0.38635141916E+02 -0.42818279074E+02 -0.11123012864E+04  0.11137954170E+04  0.00000000000E+00 0.  1.
</event>
<event>
 4    1  0.6210801E+003  0.2024811E+02  0.7546771E-02  0.1530276E+00
          2   -1    0    0  502    0  0.00000000000E+00  0.00000000000E+00  0.29915862874E+02  0.29915862874E+02  0.00000000000E+00 0. -1.
          2   -1    0    0  501    0 -0.00000000000E+00 -0.00000000000E+00 -0.11774421400E+03  0.11774421400E+03  0.00000000000E+00 0. -1.
          2    1    1    2  501    0  0.18805760090E+02 -0.75052961848E+01  0.25486323423E+02  0.32550557061E+02  0.00000000000E+00 0. -1.
          2    1    1    2  502    0 -0.18805760090E+02  0.75052961848E+01 -0.11331467455E+03  0.11510951982E+03  0.00000000000E+00 0. -1.
</event>
<event>
 4    1  0.6210801E+003  0.2202116E+02  0.7546771E-02  0.1505169E+00
          2   -1    0    0  501    0  0.00000000000E+00  0.00000000000E+00  0.20037512838E+04  0.20037512838E+04  0.00000000000E+00 0. -1.
          2   -1    0    0  502    0 -0.00000000000E+00 -0.00000000000E+00 -0.24514446857E+00  0.24514446857E+00  0.00000000000E+00 0.  1.
          2    1    1    2  501    0 -0.21804421710E+02  0.30820127336E+01  0.88848491952E+03  0.88875777568E+03  0.00000000000E+00 0.  1.
          2    1    1    2  502    0  0.21804421710E+02 -0.30820127336E+01  0.11150212198E+04  0.11152386526E+04  0.00000000000E+00 0. -1.
</event>
<event>
 4    1  0.6210801E+003  0.2593783E+02  0.7546771E-02  0.1458580E+00
          2   -1    0    0  502    0  0.00000000000E+00  0.00000000000E+00  0.17753987488E+02  0.17753987488E+02  0.00000000000E+00 0. -1.
          2   -1    0    0  501    0 -0.00000000000E+00 -0.00000000000E+00 -0.93697007021E+02  0.93697007021E+02  0.00000000000E+00 0. -1.
          2    1    1    2  501    0  0.25920404010E+02  0.95065497615E+00  0.50335512757E+01  0.26421728319E+02  0.00000000000E+00 0. -1.
          2    1    1    2  502    0 -0.25920404010E+02 -0.95065497615E+00 -0.80976570809E+02  0.85029266190E+02  0.00000000000E+00 0. -1.
</event>
<event>
 4    1  0.6210801E+003  0.2527923E+02  0.7546771E-02  0.1465704E+00
          2   -1    0    0  502    0  0.00000000000E+00  0.00000000000E+00  0.39772077319E+01  0.39772077319E+01  0.00000000000E+00 0.  1.
          2   -1    0    0  501    0 -0.00000000000E+00 -0.00000000000E+00 -0.17546848392E+04  0.17546848392E+04  0.00000000000E+00 0.  1.
          2    1    1    2  501    0 -0.86042295917E+01  0.23769866882E+02 -0.37249104795E+02  0.45017053952E+02  0.00000000000E+00 0.  1.
          2    1    1    2  502    0  0.86042295917E+01 -0.23769866882E+02 -0.17134585267E+04  0.17136449930E+04  0.00000000000E+00 0.  1.
</event>
<event>
 4    1  0.6210801E+003  0.2148573E+02  0.7546771E-02  0.1512442E+00
          2   -1    0    0  502    0  0.00000000000E+00  0.00000000000E+00  0.16712966265E+03  0.16712966265E+03  0.00000000000E+00 0.  1.
          2   -1    0    0  501    0 -0.00000000000E+00 -0.00000000000E+00 -0.90164915677E+03  0.90164915677E+03  0.00000000000E+00 0.  1.
          2    1    1    2  501    0 -0.17916221782E+02 -0.11859414685E+02  0.16631050015E+03  0.16769263305E+03  0.00000000000E+00 0.  1.
          2    1    1    2  502    0  0.17916221782E+02  0.11859414685E+02 -0.90082999426E+03  0.90108618637E+03  0.00000000000E+00 0.  1.
</event>
<event>
 4    1  0.6210801E+003  0.4577707E+02  0.7546771E-02  0.1317599E+00
          2   -1    0    0  501    0  0.00000000000E+00  0.00000000000E+00  0.21734540172E+02  0.21734540172E+02  0.00000000000E+00 0.  1.
          2   -1    0    0  502    0 -0.00000000000E+00 -0.00000000000E+00 -0.32784314162E+03  0.32784314162E+03  0.00000000000E+00 0.  1.
          2    1    1    2  501    0  0.45774727744E+02 -0.46326541301E+00 -0.29990923232E+03  0.30338274168E+03  0.00000000000E+00 0.  1.
          2    1    1    2  502    0 -0.45774727744E+02  0.46326541301E+00 -0.61993691269E+01  0.46194940118E+02  0.00000000000E+00 0.  1.
</event>
<event>
 4    1  0.6210801E+003  0.2003051E+02  0.7546771E-02  0.1533570E+00
          2   -1    0    0  502    0  0.00000000000E+00  0.00000000000E+00  0.42067459310E+03  0.42067459310E+03  0.00000000000E+00 0. -1.
          2   -1    0    0  501    0 -0.00000000000E+00 -0.00000000000E+00 -0.15455642034E+01  0.15455642034E+01  0.00000000000E+00 0.  1.
          2    1    1    2  501    0 -0.95593874179E+01  0.17602251278E+02  0.34019836862E+03  0.34078754547E+03  0.00000000000E+00 0. -1.
          2    1    1    2  502    0  0.95593874179E+01 -0.17602251278E+02  0.78930660283E+02  0.81432611837E+02  0.00000000000E+00 0.  1.
</event>
<event>
 4    1  0.6210801E+003  0.2125256E+02  0.7546771E-02  0.1515689E+00
          2   -1    0    0  501    0  0.00000000000E+00  0.00000000000E+00  0.30266828654E+01  0.30266828654E+01  0.00000000000E+00 0. -1.
          2   -1    0    0  502    0 -0.00000000000E+00 -0.00000000000E+00 -0.41001145910E+03  0.41001145910E+03  0.00000000000E+00 0.  1.
          2    1    1    2  501    0  0.18858614424E+02  0.97991923352E+01 -0.36819505228E+03  0.36880790126E+03  0.00000000000E+00 0.  1.
          2    1    1    2  502    0 -0.18858614424E+02 -0.97991923352E+01 -0.38789723958E+02  0.44230240709E+02  0.00000000000E+00 0. -1.
</event>
<event>
 4    1  0.6210801E+003  0.2094296E+02  0.7546771E-02  0.1520081E+00
          2   -1    0    0  501    0  0.00000000000E+00  0.00000000000E+00  0.86188562105E+01  0.86188562105E+01  0.00000000000E+00 0. -1.
          2   -1    0    0  502    0 -0.00000000000E+00 -0.00000000000E+00 -0.26077575535E+03  0.26077575535E+03  0.00000000000E+00 0. -1.
          2    1    1    2  501    0 -0.17227249088E+02 -0.11909211977E+02 -0.24692034364E+03  0.24780690778E+03  0.00000000000E+00 0. -1.
          2    1    1    2  502    0  0.17227249088E+02  0.11909211977E+02 -0.52365555027E+01  0.21587703782E+02  0.00000000000E+00 0. -1.
</event>
<event>
 4    1  0.6210801E+003  0.4002785E+02  0.7546771E-02  0.1348323E+00
          2   -1    0    0  501    0  0.00000000000E+00  0.00000000000E+00  0.33853877989E+03  0.33853877989E+03  0.00000000000E+00 0. -1.
          2   -1    0    0  502    0 -0.00000000000E+00 -0.00000000000E+00 -0.15088046951E+02  0.15088046951E+02  0.00000000000E+00 0.  1.
          2    1    1    2  501    0  0.19318133632E+01  0.39981207688E+02  0.15245010184E+02  0.42832688528E+02  0.00000000000E+00 0.  1.
          2    1    1    2  502    0 -0.19318133632E+01 -0.39981207688E+02  0.30820572276E+03  0.31079413832E+03  0.00000000000E+00 0. -1.
</event>
<event>
 4    1  0.6210801E+003  0.2839018E+02  0.7546771E-02  0.1434122E+00
          2   -1    0    0  502    0  0.00000000000E+00  0.00000000000E+00  0.80506413521E+03  0.80506413521E+03  0.00000000000E+00 0.  1.
          2   -1    0    0  501    0 -0.00000000000E+00 -0.00000000000E+00 -0.13457584031E+01  0.13457584031E+01  0.00000000000E+00 0. -1.
          2    1    1    2  501    0 -0.25299626553E+02 -0.12881424693E+02  0.60588994843E+03  0.60655472285E+03  0.00000000000E+00 0.  1.
          2    1    1    2  502    0  0.25299626553E+02  0.12881424693E+02  0.19782842838E+03  0.19985517077E+03  0.00000000000E+00 0. -1.
</event>
<event>
 4    1  0.6210801E+003  0.2020948E+02  0.7546771E-02  0.1530857E+00
          2   -1    0    0  502    0  0.00000000000E+00  0.00000000000E+00  0.35233262418E+01  0.35233262418E+01  0.00000000000E+00 0. -1.
          2   -1    0    0  501    0 -0.00000000000E+00 -0.00000000000E+00 -0.22377937866E+03  0.22377937866E+03  0.00000000000E+00 0.  1.
          2    1    1    2  501    0 -0.13401760518E+02 -0.15126662245E+02 -0.31224931446E+02  0.37194346875E+02  0.00000000000E+00 0. -1.
          2    1    1    2  502    0  0.13401760518E+02  0.15126662245E+02 -0.18903112097E+03  0.19010835803E+03  0.00000000000E+00 0.  1.
</event>
<event>
 4    1  0.6210801E+003  0.3392963E+02  0.7546771E-02  0.1388248E+00
          2   -1    0    0  501    0  0.00000000000E+00  0.00000000000E+00  0.12409756114E+03  0.12409756114E+03  0.00000000000E+00 0. -1.
          2   -1    0    0  502    0 -0.00000000000E+00 -0.00000000000E+00 -0.16002169338E+02  0.16002169338E+02  0.00000000000E+00 0.  1.
          2    1    1    2  501    0 -0.31690417073E+02  0.12121763578E+02  0.86349071432E+01  0.35011159761E+02  0.00000000000E+00 0.  1.
          2    1    1    2  502    0  0.31690417073E+02 -0.12121763578E+02  0.99460484654E+02  0.10508857071E+03  0.00000000000E+00 0. -1.
</event>
<event>
 4    1  0.6210801E+003  0.2749590E+02  0.7546771E-02  0.1442689E+00
          2   -1    0    0  502    0  0.00000000000E+00  0.00000000000E+00  0.36154463584E+03  0.36154463584E+03  0.00000000000E+00 0.  1.
          2   -1    0    0  501    0 -0.00000000000E+00 -0.00000000000E+00 -0.48643870705E+01  0.48643870705E+01  0.00000000000E+00 0.  1.
          2    1    1    2  501    0  0.12689546782E+02  0.24392616717E+02  0.31667123699E+03  0.31786270100E+03  0.00000000000E+00 0.  1.
          2    1    1    2  502    0 -0.12689546782E+02 -0.24392616717E+02  0.40009011781E+02  0.48546321916E+02  0.00000000000E+00 0.  1.
</event>
<event>
 4    1  0.6210801E+003  0.3097043E+02  0.7546771E-02  0.1411347E+00
          2   -1    0    0  502    0  0.00000000000E+00  0.00000000000E+00  0.17186214208E+02  0.17186214208E+02  0.00000000000E+00 0. -1.
          2   -1    0    0  501    0 -0.00000000000E+00 -0.00000000000E+00 -0.65856381805E+03  0.65856381805E+03  0.00000000000E+00 0.  1.
          2    1    1    2  501    0 -0.30960264495E+02 -0.79347643456E+00  0.25526337633E+01  0.31075448855E+02  0.00000000000E+00 0. -1.
          2    1    1    2  502    0  0.30960264495E+02  0.79347643456E+00 -0.64393023761E+03  0.64467458341E+03  0.00000000000E+00 0.  1.
</event>
<event>
 4    1  0.6210801E+003  0.5507696E+02  0.7546771E-02  0.1277544E+00
          2   -1    0    0  501    0  0.00000000000E+00  0.00000000000E+00  0.61300676255E+01  0.61300676255E+01  0.00000000000E+00 0. -1.
          2   -1    0    0  502    0 -0.00000000000E+00 -0.00000000000E+00 -0.12437706719E+04  0.12437706719E+04  0.00000000000E+00 0. -1.
          2    1    1    2  501    0 -0.22422174973E+02  0.50306234829E+02 -0.11037658098E+04  0.11051391017E+04  0.00000000000E+00 0. -1.
          2    1    1    2  502    0  0.22422174973E+02 -0.50306234829E+02 -0.13387479443E+03  0.14476163779E+03  0.00000000000E+00 0. -1.
</event>
<event>
 4    1  0.6210801E+003  0.3717827E+02  0.7546771E-02  0.1365865E+00
          2   -1    0    0  502    0  0.00000000000E+00  0.00000000000E+00  0.24394523681E+04  0.24394523681E+04  0.00000000000E+00 0. -1.
          2   -1    0    0  501    0 -0.00000000000E+00 -0.00000000000E+00 -0.74569362170E+00  0.74569362170E+00  0.00000000000E+00 0.  1.
          2    1    1    2  501    0  0.26501657412E+02  0.26074625770E+02  0.18172689521E+04  0.18176492149E+04  0.00000000000E+00 0. -1.
          2    1    1    2  502    0 -0.26501657412E+02 -0.26074625770E+02  0.62143772238E+03  0.62254884688E+03  0.00000000000E+00 0.  1.
</event>
<event>
 4    1  0.6210801E+003  0.3531569E+02  0.7546771E-02  0.1378357E+00
          2   -1    0    0  502    0  0.00000000000E+00  0.00000000000E+00  0.17721923529E+04  0.17721923529E+04  0.00000000000E+00 0.  1.
          2   -1    0    0  501    0 -0.00000000000E+00 -0.00000000000E+00 -0.22303910190E+01  0.22303910190E+01  0.00000000000E+00 0.  1.
          2    1    1    2  501    0  0.33843747361E+02 -0.10089547269E+02  0.16189937725E+04  0.16193789037E+04  0.00000000000E+00 0.  1.
          2    1    1    2  502    0 -0.33843747361E+02  0.10089547269E+02  0.15096818935E+03  0.15504384024E+03  0.00000000000E+00 0.  1.
</event>
<event>
 4    1  0.6210801E+003  0.2487393E+02  0.7546771E-02  0.1470219E+00
          2   -1    0    0  501    0  0.00000000000E+00  0.00000000000E+00  0.74049625738E+02  0.74049625738E+02  0.00000000000E+00 0. -1.
          2   -1    0    0  502    0 -0.00000000000E+00 -0.00000000000E+00 -0.38250422875E+02  0.38250422875E+02  0.00000000000E+00 0. -1.
          2    1    1    2  501    0  0.29310001977E+01 -0.24700642366E+02 -0.31740361055E+02  0.40325711591E+02  0.00000000000E+00 0. -1.
          2    1    1    2  502    0 -0.29310001977E+01  0.24700642366E+02  0.67539563918E+02  0.71974337021E+02  0.00000000000E+00 0. -1.
</event>
<event>
 4    1  0.6210801E+003  0.2995380E+02  0.7546771E-02  0.1419998E+00
          2   -1    0    0  501    0  0.00000000000E+00  0.00000000000E+00  0.84932113611E+01  0.84932113611E+01  0.00000000000E+00 0. -1.
          2   -1    0    0  502    0 -0.00000000000E+00 -0.00000000000E+00 -0.28201788443E+03  0.28201788443E+03  0.00000000000E+00 0.  1.
          2    1    1    2  501    0  0.27270157523E+02  0.12392284511E+02 -0.25163465898E+03  0.25341119116E+03  0.00000000000E+00 0.  1.
          2    1    1    2  502    0 -0.27270157523E+02 -0.12392284511E+02 -0.21890014093E+02  0.37099904632E+02  0.00000000000E+00 0. -1.
</event>
<event>
 4    1  0.6210801E+003  0.3264915E+02  0.7546771E-02  0.1397889E+00
          2   -1    0    0  501    0  0.00000000000E+00  0.00000000000E+00  0.20020414923E+04  0.20020414923E+04  0.00000000000E+00 0. -1.
          2   -1    0    0  502    0 -0.00000000000E+00 -0.00000000000E+00 -0.64937937624E+00  0.64937937624E+00  0.00000000000E+00 0. -1.
          2    1    1    2  501    0  0.32234582085E+02  0.51864217731E+01  0.57576859111E+03  0.57669353886E+03  0.00000000000E+00 0. -1.
          2    1    1    2  502    0 -0.32234582085E+02 -0.51864217731E+01  0.14256235218E+04  0.14259973328E+04  0.00000000000E+00 0. -1.
</event>
<event>
 4    1  0.6210801E+003  0.2506675E+02  0.7546771E-02  0.1468058E+00
          2   -1    0    0  501    0  0.00000000000E+00  0.00000000000E+00  0.94199716031E+01  0.94199716031E+01  0.00000000000E+00 0. -1.
          2   -1    0    0  502    0 -0.00000000000E+00 -0.00000000000E+00 -0.13237710141E+04  0.13237710141E+04  0.00000000000E+00 0.  1.
          2    1    1    2  501    0  0.13688088690E+02  0.20999481265E+02 -0.13067594888E+04  0.13069998866E+04  0.00000000000E+00 0.  1.
          2    1    1    2  502    0 -0.13688088690E+02 -0.20999481265E+02 -0.75915537054E+01  0.26191099119E+02  0.00000000000E+00 0. -1.
</event>
<event>
 4    1  0.6348618E+003  0.3228880E+02  0.7546771E-02  0.1400696E+00
          2   -1    0    0  502    0  0.00000000000E+00  0.00000000000E+00  0.70814068477E+03  0.70814068477E+03  0.00000000000E+00 0.  1.
          2   -1    0    0  501    0 -0.00000000000E+00 -0.00000000000E+00 -0.62852531637E+03  0.62852531637E+03  0.00000000000E+00 0.  1.
          2    1    1    2  501    0  0.32281267447E+02 -0.69729415346E+00  0.70735747359E+03  0.70809403464E+03  0.00000000000E+00 0.  1.
          2    1    1    2  502    0 -0.32281267447E+02  0.69729415346E+00 -0.62774210519E+03  0.62857196650E+03  0.00000000000E+00 0.  1.
</event>
<event>
 4    1  0.6210801E+003  0.2377744E+02  0.7546771E-02  0.1482960E+00
          2   -1    0    0  502    0  0.00000000000E+00  0.00000000000E+00  0.17673741034E+04  0.17673741034E+04  0.00000000000E+00 0. -1.
          2   -1    0    0  501    0 -0.00000000000E+00 -0.00000000000E+00 -0.17299303420E+02  0.17299303420E+02  0.00000000000E+00 0. -1.
          2    1    1    2  501    0 -0.59934045680E+01 -0.23009685929E+02  0.17590852679E+04  0.17592459595E+04  0.00000000000E+00 0. -1.
          2    1    1    2  502    0  0.59934045680E+01  0.23009685929E+02 -0.90104678661E+01  0.25427447297E+02  0.00000000000E+00 0. -1.
</event>
<event>
 4    1  0.6210801E+003  0.2031104E+02  0.7546771E-02  0.1529333E+00
          2   -1    0    0  502    0  0.00000000000E+00  0.00000000000E+00  0.42296765478E+03  0.42296765478E+03  0.00000000000E+00 0. -1.
          2   -1    0    0  501    0 -0.00000000000E+00 -0.00000000000E+00 -0.82371409532E+02  0.82371409532E+02  0.00000000000E+00 0.  1.
          2    1    1    2  501    0 -0.20089210814E+02  0.29936803665E+01  0.42146729619E+03  0.42195641988E+03  0.00000000000E+00 0. -1.
          2    1    1    2  502    0  0.20089210814E+02 -0.29936803665E+01 -0.80871050942E+02  0.83382644440E+02  0.00000000000E+00 0.  1.
</event>
<event>
 4    1  0.6210801E+003  0.2807020E+02  0.7546771E-02  0.1437144E+00
          2   -1    0    0  502    0  0.00000000000E+00  0.00000000000E+00  0.20488538219E+02  0.20488538219E+02  0.00000000000E+00 0. -1.
          2   -1    0    0  501    0 -0.00000000000E+00 -0.00000000000E+00 -0.16952587080E+03  0.16952587080E+03  0.00000000000E+00 0. -1.
          2    1    1    2  501    0 -0.17819723838E+02  0.21688552476E+02  0.90200250094E+01  0.29483838240E+02  0.00000000000E+00 0. -1.
          2    1    1    2  502    0  0.17819723838E+02 -0.21688552476E+02 -0.15805735759E+03  0.16053057078E+03  0.00000000000E+00 0. -1.
</event>
<event>
 4    1  0.6210801E+003  0.2059530E+02  0.7546771E-02  0.1525122E+00
          2   -1    0    0  501    0  0.00000000000E+00  0.00000000000E+00  0.14830116121E+02  0.14830116121E+02  0.00000000000E+00 0. -1.
          2   -1    0    0  502    0 -0.00000000000E+00 -0.00000000000E+00 -0.15275901803E+04  0.15275901803E+04  0.00000000000E+00 0. -1.
          2    1    1    2  501    0  0.67523786427E+01  0.19456920275E+02 -0.15203362255E+04  0.15204757166E+04  0.00000000000E+00 0. -1.
          2    1    1    2  502    0 -0.67523786427E+01 -0.19456920275E+02  0.75761612681E+01  0.21944579820E+02  0.00000000000E+00 0. -1.
</event>
<event>
 4    1  0.9263655E+003  0.2281047E+02  0.7546771E-02  0.1494892E+00
          2   -1    0    0  501    0  0.00000000000E+00  0.00000000000E+00  0.14668676151E+04  0.14668676151E+04  0.00000000000E+00 0. -1.
          2   -1    0    0  502    0 -0.00000000000E+00 -0.00000000000E+00 -0.12260938717E+04  0.12260938717E+04  0.00000000000E+00 0. -1.
          2    1    1    2  501    0  0.17650387080E+02 -0.14449274478E+02 -0.12258990867E+04  0.12261112872E+04  0.00000000000E+00 0. -1.
          2    1    1    2  502    0 -0.17650387080E+02  0.14449274478E+02  0.14666728301E+04  0.14668501997E+04  0.00000000000E+00 0. -1.
</event>
<event>
 4    1  0.6210801E+003  0.4009592E+02  0.7546771E-02  0.1347925E+00
          2   -1    0    0  502    0  0.00000000000E+00  0.00000000000E+00  0.33115377832E+03  0.33115377832E+03  0.00000000000E+00 0. -1.
          2   -1    0    0  501    0 -0.00000000000E+00 -0.00000000000E+00 -0.75903290854E+02  0.75903290854E+02  0.00000000000E+00 0. -1.
          2    1    1    2  501    0  0.29453896177E+02  0.27205718071E+02  0.32453736584E+03  0.32700486988E+03  0.00000000000E+00 0. -1.
          2    1    1    2  502    0 -0.29453896177E+02 -0.27205718071E+02 -0.69286878381E+02  0.80052199293E+02  0.00000000000E+00 0. -1.
</event>
<event>
 4    1  0.6210801E+003  0.2872924E+02  0.7546771E-02  0.1430970E+00
          2   -1    0    0  501    0  0.00000000000E+00  0.00000000000E+00  0.98598763619E+03  0.98598763619E+03  0.00000000000E+00 0. -1.
          2   -1    0    0  502    0 -0.00000000000E+00 -0.00000000000E+00 -0.60033256377E+02  0.60033256377E+02  0.00000000000E+00 0. -1.
          2    1    1    2  501    0  0.28691720226E+01 -0.28585613744E+02 -0.56374046550E+02  0.63272447286E+02  0.00000000000E+00 0. -1.
          2    1    1    2  502    0 -0.28691720226E+01  0.28585613744E+02  0.98232842637E+03  0.98274844528E+03  0.00000000000E+00 0. -1.
</event>
<event>
 4    1  0.6210801E+003  0.3767342E+02  0.7546771E-02  0.1362687E+00
          2   -1    0    0  502    0  0.00000000000E+00  0.00000000000E+00  0.10905555339E+04  0.10905555339E+04  0.00000000000E+00 0. -1.
          2   -1    0    0  501    0 -0.00000000000E+00 -0.00000000000E+00 -0.29893552484E+02  0.29893552484E+02  0.00000000000E+00 0. -1.
          2    1    1    2  501    0 -0.14538206681E+02  0.34755242246E+02  0.10782249754E+04  0.10788829334E+04  0.00000000000E+00 0. -1.
          2    1    1    2  502    0  0.14538206681E+02 -0.34755242246E+02 -0.17562994005E+02  0.41566153004E+02  0.00000000000E+00 0. -1.
</event>
<event>
 4    1  0.6210801E+003  0.2812421E+02  0.7546771E-02  0.1436631E+00
          2   -1    0    0  501    0  0.00000000000E+00  0.00000000000E+00  0.46346140649E+02  0.46346140649E+02  0.00000000000E+00 0.  1.
          2   -1    0    0  502    0 -0.00000000000E+00 -0.00000000000E+00 -0.22517925028E+02  0.22517925028E+02  0.00000000000E+00 0.  1.
          2    1    1    2  501    0 -0.26769090719E+02 -0.86247949751E+01 -0.50272920294E+01  0.28570001251E+02  0.00000000000E+00 0.  1.
          2    1    1    2  502    0  0.26769090719E+02  0.86247949751E+01  0.28855507650E+02  0.40294064427E+02  0.00000000000E+00 0.  1.
</event>
<event>
 4    1  0.6210801E+003  0.4477539E+02  0.7546771E-02  0.1322566E+00
          2   -1    0    0  502    0  0.00000000000E+00  0.00000000000E+00  0.49468351320E+03  0.49468351320E+03  0.00000000000E+00 0. -1.
          2   -1    0    0  501    0 -0.00000000000E+00 -0.00000000000E+00 -0.23643872908E+02  0.23643872908E+02  0.00000000000E+00 0.  1.
          2    1    1    2  501    0 -0.33507325261E+02 -0.29700084489E+02  0.47142873552E+03  0.47355030201E+03  0.00000000000E+00 0. -1.
          2    1    1    2  502    0  0.33507325261E+02  0.29700084489E+02 -0.38909522739E+00  0.44777084093E+02  0.00000000000E+00 0.  1.
</event>
<event>
 4    1  0.6210801E+003  0.2622958E+02  0.7546771E-02  0.1455504E+00
          2   -1    0    0  501    0  0.00000000000E+00  0.00000000000E+00  0.22175277960E+02  0.22175277960E+02  0.00000000000E+00 0.  1.
          2   -1    0    0  502    0 -0.00000000000E+00 -0.00000000000E+00 -0.40971691453E+02  0.40971691453E+02  0.00000000000E+00 0.  1.
          2    1    1    2  501    0 -0.23728128324E+02  0.11178847669E+02 -0.24954897729E+02  0.36204110673E+02  0.00000000000E+00 0.  1.
          2    1    1    2  502    0  0.23728128324E+02 -0.11178847669E+02  0.61584842361E+01  0.26942858740E+02  0.00000000000E+00 0.  1.
</event>
<event>
 4    1  0.6210801E+003  0.2756480E+02  0.7546771E-02  0.1442016E+00
          2   -1    0    0  502    0  0.00000000000E+00  0.00000000000E+00  0.54511809688E+03  0.54511809688E+03  0.00000000000E+00 0.  1.
          2   -1    0    0  501    0 -0.00000000000E+00 -0.00000000000E+00 -0.34049580502E+03  0.34049580502E+03  0.00000000000E+00 0. -1.
          2    1    1    2  501    0 -0.43927508716E+01  0.27212532548E+02  0.54421082616E+03  0.54490847075E+03  0.00000000000E+00 0.  1.
          2    1    1    2  502    0  0.43927508716E+01 -0.27212532548E+02 -0.33958853430E+03  0.34070543115E+03  0.00000000000E+00 0. -1.
</event>
<event>
 4    1  0.6210801E+003  0.2250940E+02  0.7546771E-02  0.1498752E+00
          2   -1    0    0  501    0  0.00000000000E+00  0.00000000000E+00  0.13278083517E+02  0.13278083517E+02  0.00000000000E+00 0.  1.
          2   -1    0    0  502    0 -0.00000000000E+00 -0.00000000000E+00 -0.23017343489E+03  0.23017343489E+03  0.00000000000E+00 0.  1.
          2    1    1    2  501    0 -0.12692098355E+02  0.18589884312E+02 -0.21962655120E+03  0.22077702587E+03  0.00000000000E+00 0.  1.
          2    1    1    2  502    0  0.12692098355E+02 -0.18589884312E+02  0.27311998270E+01  0.22674492538E+02  0.00000000000E+00 0.  1.
</event>
<event>
 4    1  0.6210801E+003  0.3309652E+02  0.7546771E-02  0.1394463E+00
          2   -1    0    0  502    0  0.00000000000E+00  0.00000000000E+00  0.46351540178E+03  0.46351540178E+03  0.00000000000E+00 0. -1.
          2   -1    0    0  501    0 -0.00000000000E+00 -0.00000000000E+00 -0.31789275939E+01  0.31789275939E+01  0.00000000000E+00 0. -1.
          2    1    1    2  501    0  0.13029152354E+02  0.30424013053E+02  0.34837298229E+03  0.34994158680E+03  0.00000000000E+00 0. -1.
          2    1    1    2  502    0 -0.13029152354E+02 -0.30424013053E+02  0.11196349190E+03  0.11675274258E+03  0.00000000000E+00 0. -1.
</event>
<event>
 4    1  0.6210801E+003  0.4020989E+02  0.7546771E-02  0.1347260E+00
          2   -1    0    0  501    0  0.00000000000E+00  0.00000000000E+00  0.16219991745E+03  0.16219991745E+03  0.00000000000E+00 0. -1.
          2   -1    0    0  502    0 -0.00000000000E+00 -0.00000000000E+00 -0.88868564834E+02  0.88868564834E+02  0.00000000000E+00 0. -1.
          2    1    1    2  501    0  0.33057666916E+02 -0.22891617200E+02 -0.81618791797E+02  0.90986057473E+02  0.00000000000E+00 0. -1.
          2    1    1    2  502    0 -0.33057666916E+02  0.22891617200E+02  0.15495014442E+03  0.16008242481E+03  0.00000000000E+00 0. -1.
</event>
<event>
 4    1  0.6210801E+003  0.2987369E+02  0.7546771E-02  0.1420697E+00
          2   -1    0    0  502    0  0.00000000000E+00  0.00000000000E+00  0.75087301133E+02  0.75087301133E+02  0.00000000000E+00 0. -1.
          2   -1    0    0  501    0 -0.00000000000E+00 -0.00000000000E+00 -0.14004630814E+02  0.14004630814E+02  0.00000000000E+00 0. -1.
          2    1    1    2  501    0 -0.19310652684E+02  0.22793333693E+02  0.47870148771E+02  0.56426842117E+02  0.00000000000E+00 0. -1.
          2    1    1    2  502    0  0.19310652684E+02 -0.22793333693E+02  0.13212521548E+02  0.32665089830E+02  0.00000000000E+00 0. -1.
</event>
<event>
 4    1  0.6210801E+003  0.2415715E+02  0.7546771E-02  0.1478457E+00
          2   -1    0    0  502    0  0.00000000000E+00  0.00000000000E+00  0.83337138864E+01  0.83337138864E+01  0.00000000000E+00 0.  1.
          2   -1    0    0  501    0 -0.00000000000E+00 -0.00000000000E+00 -0.17621593753E+03  0.17621593753E+03  0.00000000000E+00 0. -1.
          2    1    1    2  501    0  0.23081884235E+02 -0.71270429306E+01 -0.12309550676E+02  0.27112601473E+02  0.00000000000E+00 0.  1.
          2    1    1    2  502    0 -0.23081884235E+02  0.71270429306E+01 -0.15557267297E+03  0.15743704994E+03  0.00000000000E+00 0. -1.
</event>
<event>
 4    1  0.6210801E+003  0.3212444E+02  0.7546771E-02  0.1401991E+00
          2   -1    0    0  502    0  0.00000000000E+00  0.00000000000E+00  0.29115944350E+03  0.29115944350E+03  0.00000000000E+00 0.  1.
          2   -1    0    0  501    0 -0.00000000000E+00 -0.00000000000E+00 -0.11694568445E+04  0.11694568445E+04  0.00000000000E+00 0. -1.
          2    1    1    2  501    0  0.20659413280E+02  0.24600174375E+02  0.29005189753E+03  0.29182543275E+03  0.00000000000E+00 0.  1.
          2    1    1    2  502    0 -0.20659413280E+02 -0.24600174375E+02 -0.11683492985E+04  0.11687908552E+04  0.00000000000E+00 0. -1.
</event>
<event>
 4    1  0.6210801E+003  0.4103657E+02  0.7546771E-02  0.1342516E+00
          2   -1    0    0  502    0  0.00000000000E+00  0.00000000000E+00  0.14652189660E+02  0.14652189660E+02  0.00000000000E+00 0. -1.
          2   -1    0    0  501    0 -0.00000000000E+00 -0.00000000000E+00 -0.79048478460E+03  0.79048478460E+03  0.00000000000E+00 0.  1.
          2    1    1    2  501    0 -0.35317249070E+02  0.20897170489E+02 -0.15762216179E+02  0.43959609589E+02  0.00000000000E+00 0. -1.
          2    1    1    2  502    0  0.35317249070E+02 -0.20897170489E+02 -0.76007037876E+03  0.76117736467E+03  0.00000000000E+00 0.  1.
</event>
<event>
 4    1  0.6210801E+003  0.2115200E+02  0.7546771E-02  0.1517106E+00
          2   -1    0    0  501    0  0.00000000000E+00  0.00000000000E+00  0.14166804118E+04  0.14166804118E+04  0.00000000000E+00 0.  1.
          2   -1    0    0  502    0 -0.00000000000E+00 -0.00000000000E+00 -0.84859366706E+02  0.84859366706E+02  0.00000000000E+00 0. -1.
          2    1    1    2  501    0  0.19594632125E+02  0.79660144345E+01 -0.83461027359E+02  0.86099652043E+02  0.00000000000E+00 0. -1.
          2    1    1    2  502    0 -0.19594632125E+02 -0.79660144345E+01  0.14152820724E+04  0.14154401264E+04  0.00000000000E+00 0.  1.
</event>
<event>
 4    1  0.6210801E+003  0.4620547E+02  0.7546771E-02  0.1315519E+00
          2   -1    0    0  501    0  0.00000000000E+00  0.00000000000E+00  0.31396124328E+04  0.31396124328E+04  0.00000000000E+00 0. -1.
          2   -1    0    0  502    0 -0.00000000000E+00 -0.00000000000E+00 -0.18034153576E+01  0.18034153576E+01  0.00000000000E+00 0. -1.
          2    1    1    2  501    0 -0.45971032928E+02 -0.46486501166E+01  0.32920292859E+03  0.33242971288E+03  0.00000000000E+00 0. -1.
          2    1    1    2  502    0  0.45971032928E+02  0.46486501166E+01  0.28086060889E+04  0.28089861353E+04  0.00000000000E+00 0. -1.
</event>
<event>
 4    1  0.6210801E+003  0.1579214E+03  0.7546771E-02  0.1089764E+00
          2   -1    0    0  501    0  0.00000000000E+00  0.00000000000E+00  0.15526419219E+03  0.15526419219E+03  0.00000000000E+00 0. -1.
          2   -1    0    0  502    0 -0.00000000000E+00 -0.00000000000E+00 -0.16066353825E+03  0.16066353825E+03  0.00000000000E+00 0. -1.
          2    1    1    2  501    0  0.15331215148E+03  0.37875578202E+02 -0.22559704853E+00  0.15792158215E+03  0.00000000000E+00 0. -1.
          2    1    1    2  502    0 -0.15331215148E+03 -0.37875578202E+02 -0.51737490110E+01  0.15800614828E+03  0.00000000000E+00 0. -1.
</event>
<event>
 4    1  0.6210801E+003  0.2723245E+02  0.7546771E-02  0.1445287E+00
          2   -1    0    0  501    0  0.00000000000E+00  0.00000000000E+00  0.29831282511E+02  0.29831282511E+02  0.00000000000E+00 0.  1.
          2   -1    0    0  502    0 -0.00000000000E+00 -0.00000000000E+00 -0.11745607237E+04  0.11745607237E+04  0.00000000000E+00 0. -1.
          2    1    1    2  501    0 -0.18463783561E+02  0.20017373440E+02 -0.11681537863E+04  0.11684711699E+04  0.00000000000E+00 0. -1.
          2    1    1    2  502    0  0.18463783561E+02 -0.20017373440E+02  0.23424345039E+02  0.35920836339E+02  0.00000000000E+00 0.  1.
</event>
<event>
 4    1  0.6210801E+003  0.2279680E+02  0.7546771E-02  0.1495066E+00
          2   -1    0    0  501    0  0.00000000000E+00  0.00000000000E+00  0.45507917738E+03  0.45507917738E+03  0.00000000000E+00 0. -1.
          2   -1    0    0  502    0 -0.00000000000E+00 -0.00000000000E+00 -0.51400419552E+01  0.51400419552E+01  0.00000000000E+00 0.  1.
          2    1    1    2  501    0 -0.21217226518E+02  0.83380602211E+01  0.22025729521E+02  0.31699001724E+02  0.00000000000E+00 0.  1.
          2    1    1    2  502    0  0.21217226518E+02 -0.83380602211E+01  0.42791340590E+03  0.42852021761E+03  0.00000000000E+00 0. -1.
</event>
<event>
 4    1  0.6210801E+003  0.2141224E+02  0.7546771E-02  0.1513460E+00
          2   -1    0    0  501    0  0.00000000000E+00  0.00000000000E+00  0.26491806850E+03  0.26491806850E+03  0.00000000000E+00 0.  1.
          2   -1    0    0  502    0 -0.00000000000E+00 -0.00000000000E+00 -0.60483067670E+02  0.60483067670E+02  0.00000000000E+00 0.  1.
          2    1    1    2  501    0 -0.21360359749E+02 -0.14896017767E+01 -0.58138415854E+02  0.61956107690E+02  0.00000000000E+00 0.  1.
          2    1    1    2  502    0  0.21360359749E+02  0.14896017767E+01  0.26257341669E+03  0.26344502848E+03  0.00000000000E+00 0.  1.
</event>
<event>
 4    1  0.6210801E+003  0.2368527E+02  0.7546771E-02  0.1484068E+00
          2   -1    0    0  502    0  0.00000000000E+00  0.00000000000E+00  0.10358873615E+04  0.10358873615E+04  0.00000000000E+00 0. -1.
          2   -1    0    0  501    0 -0.00000000000E+00 -0.00000000000E+00 -0.22210513204E+01  0.22210513204E+01  0.00000000000E+00 0.  1.
          2    1    1    2  501    0  0.13074531493E+02 -0.19749647312E+02  0.96819277334E+03  0.96848244088E+03  0.00000000000E+00 0. -1.
          2    1    1    2  502    0 -0.13074531493E+02  0.19749647312E+02  0.65473536860E+02  0.69625971962E+02  0.00000000000E+00 0.  1.
</event>
<event>
 4    1  0.6210801E+003  0.4585201E+02  0.7546771E-02  0.1317233E+00
          2   -1    0    0  501    0  0.00000000000E+00  0.00000000000E+00  0.77722351486E+02  0.77722351486E+02  0.00000000000E+00 0.  1.
          2   -1    0    0  502    0 -0.00000000000E+00 -0.00000000000E+00 -0.96203534983E+03  0.96203534983E+03  0.00000000000E+00 0.  1.
          2    1    1    2  501    0  0.11623817521E+02 -0.44354180037E+02 -0.95467433982E+03  0.95577481738E+03  0.00000000000E+00 0.  1.
          2    1    1    2  502    0 -0.11623817521E+02  0.44354180037E+02  0.70361341476E+02  0.83982883940E+02  0.00000000000E+00 0.  1.
</event>
<event>
 4    1  0.6210801E+003  0.3705432E+02  0.7546771E-02  0.1366669E+00
          2   -1    0    0  501    0  0.00000000000E+00  0.00000000000E+00  0.28139665821E+01  0.28139665821E+01  0.00000000000E+00 0. -1.
          2   -1    0    0  502    0 -0.00000000000E+00 -0.00000000000E+00 -0.48869895258E+03  0.48869895258E+03  0.00000000000E+00 0. -1.
          2    1    1    2  501    0 -0.32694950300E+02  0.17437397839E+02 -0.23320287615E+03  0.23612836353E+03  0.00000000000E+00 0. -1.
          2    1    1    2  502    0  0.32694950300E+02 -0.17437397839E+02 -0.25268210985E+03  0.25538455563E+03  0.00000000000E+00 0. -1.
</event>
<event>
 4    1  0.6210801E+003  0.2015075E+02  0.7546771E-02  0.1531744E+00
          2   -1    0    0  501    0  0.00000000000E+00  0.00000000000E+00  0.21531846208E+01  0.21531846208E+01  0.00000000000E+00 0. -1.
          2   -1    0    0  502    0 -0.00000000000E+00 -0.00000000000E+00 -0.15153111297E+04  0.15153111297E+04  0.00000000000E+00 0.  1.
          2    1    1    2  501    0 -0.18118895999E+02 -0.88180794591E+01 -0.14665303998E+04  0.14666688333E+04  0.00000000000E+00 0.  1.
          2    1    1    2  502    0  0.18118895999E+02  0.88180794591E+01 -0.46627545288E+02  0.50795481070E+02  0.00000000000E+00 0. -1.
</event>
<event>
 4    1  0.6210801E+003  0.2146259E+02  0.7546771E-02  0.1512762E+00
          2   -1    0    0  502    0  0.00000000000E+00  0.00000000000E+00  0.70431410086E+00  0.70431410086E+00  0.00000000000E+00 0. -1.
          2   -1    0    0  501    0 -0.00000000000E+00 -0.00000000000E+00 -0.10497326317E+04  0.10497326317E+04  0.00000000000E+00 0.  1.
          2    1    1    2  501    0  0.30507532326E+01 -0.21244665999E+02 -0.20204749900E+03  0.20318423851E+03  0.00000000000E+00 0. -1.
          2    1    1    2  502    0 -0.30507532326E+01  0.21244665999E+02 -0.84698081862E+03  0.84725270730E+03  0.00000000000E+00 0.  1.
</event>
<event>
 4    1  0.6210801E+003  0.2642939E+02  0.7546771E-02  0.1453426E+00
          2   -1    0    0  502    0  0.00000000000E+00  0.00000000000E+00  0.65127503768E+03  0.65127503768E+03  0.00000000000E+00 0. -1.
          2   -1    0    0  501    0 -0.00000000000E+00 -0.00000000000E+00 -0.11375044007E+01  0.11375044007E+01  0.00000000000E+00 0. -1.
          2    1    1    2  501    0 -0.26395013399E+02 -0.13474646992E+01  0.24710640827E+03  0.24851577294E+03  0.00000000000E+00 0. -1.
          2    1    1    2  502    0  0.26395013399E+02  0.13474646992E+01  0.40303112501E+03  0.40389676914E+03  0.00000000000E+00 0. -1.
</event>
<event>
 4    1  0.6210801E+003  0.2147568E+02  0.7546771E-02  0.1512581E+00
          2   -1    0    0  501    0  0.00000000000E+00  0.00000000000E+00  0.13234283169E+02  0.13234283169E+02  0.00000000000E+00 0. -1.
          2   -1    0    0  502    0 -0.00000000000E+00 -0.00000000000E+00 -0.99381329974E+02  0.99381329974E+02  0.00000000000E+00 0. -1.
          2    1    1    2  501    0  0.18450736420E+02 -0.10989769493E+02 -0.88447210711E+02  0.91017107131E+02  0.00000000000E+00 0. -1.
          2    1    1    2  502    0 -0.18450736420E+02  0.10989769493E+02  0.23001639062E+01  0.21598506012E+02  0.00000000000E+00 0. -1.
</event>
<event>
 4    1  0.6210801E+003  0.2302777E+02  0.7546771E-02  0.1492150E+00
          2   -1    0    0  501    0  0.00000000000E+00  0.00000000000E+00  0.45218084546E+01  0.45218084546E+01  0.00000000000E+00 0.  1.
          2   -1    0    0  502    0 -0.00000000000E+00 -0.00000000000E+00 -0.12105825044E+03  0.12105825044E+03  0.00000000000E+00 0.  1.
          2    1    1    2  501    0 -0.21028173326E+02 -0.93858535213E+01 -0.69373737405E+02  0.73095784839E+02  0.00000000000E+00 0.  1.
          2    1    1    2  502    0  0.21028173326E+02  0.93858535213E+01 -0.47162704582E+02  0.52484274056E+02  0.00000000000E+00 0.  1.
</event>
<event>
 4    1  0.6210801E+003  0.3823157E+02  0.7546771E-02  0.1359172E+00
          2   -1    0    0  502    0  0.00000000000E+00  0.00000000000E+00  0.93312658873E+02  0.93312658873E+02  0.00000000000E+00 0.  1.
          2   -1    0    0  501    0 -0.00000000000E+00 -0.00000000000E+00 -0.74394367158E+02  0.74394367158E+02  0.00000000000E+00 0.  1.
          2    1    1    2  501    0  0.33292575651E+02 -0.18795143726E+02  0.83963637028E+02  0.92258036854E+02  0.00000000000E+00 0.  1.
          2    1    1    2  502    0 -0.33292575651E+02  0.18795143726E+02 -0.65045345313E+02  0.75448989178E+02  0.00000000000E+00 0.  1.
</event>
<event>
 4    1  0.6210801E+003  0.2564007E+02  0.7546771E-02  0.1461769E+00
          2   -1    0    0  502    0  0.00000000000E+00  0.00000000000E+00  0.20203215776E+02  0.20203215776E+02  0.00000000000E+00 0.  1.
          2   -1    0    0  501    0 -0.00000000000E+00 -0.00000000000E+00 -0.41555513933E+03  0.41555513933E+03  0.00000000000E+00 0.  1.
          2    1    1    2  501    0  0.85976725630E+01  0.24155602894E+02  0.11498834682E+02  0.28100468390E+02  0.00000000000E+00 0.  1.
          2    1    1    2  502    0 -0.85976725630E+01 -0.24155602894E+02 -0.40685075823E+03  0.40765788671E+03  0.00000000000E+00 0.  1.
</event>
<event>
 4    1  0.6210801E+003  0.3656251E+02  0.7546771E-02  0.1369899E+00
          2   -1    0    0  502    0  0.00000000000E+00  0.00000000000E+00  0.19149063945E+04  0.19149063945E+04  0.00000000000E+00 0.  1.
          2   -1    0    0  501    0 -0.00000000000E+00 -0.00000000000E+00 -0.27627957948E+03  0.27627957948E+03  0.00000000000E+00 0.  1.
          2    1    1    2  501    0 -0.36093505051E+02 -0.58374558033E+01  0.19135213316E+04  0.19138706078E+04  0.00000000000E+00 0.  1.
          2    1    1    2  502    0  0.36093505051E+02  0.58374558033E+01 -0.27489451664E+03  0.27731536610E+03  0.00000000000E+00 0.  1.
</event>
<event>
 4    1  0.6210801E+003  0.2702851E+02  0.7546771E-02  0.1447322E+00
          2   -1    0    0  501    0  0.00000000000E+00  0.00000000000E+00  0.73063062613E+02  0.73063062613E+02  0.00000000000E+00 0.  1.
          2   -1    0    0  502    0 -0.00000000000E+00 -0.00000000000E+00 -0.11569158039E+03  0.11569158039E+03  0.00000000000E+00 0.  1.
          2    1    1    2  501    0  0.12560182180E+02  0.23932872611E+02 -0.11152110503E+03  0.11474971649E+03  0.00000000000E+00 0.  1.
          2    1    1    2  502    0 -0.12560182180E+02 -0.23932872611E+02  0.68892587259E+02  0.74004926505E+02  0.00000000000E+00 0.  1.
</event>
<event>
 4    1  0.6210801E+003  0.2222019E+02  0.7546771E-02  0.1502529E+00
          2   -1    0    0  501    0  0.00000000000E+00  0.00000000000E+00  0.45447179620E+01  0.45447179620E+01  0.00000000000E+00 0.  1.
          2   -1    0    0  502    0 -0.00000000000E+00 -0.00000000000E+00 -0.41378494796E+03  0.41378494796E+03  0.00000000000E+00 0. -1.
          2    1    1    2  501    0  0.36772056775E+01 -0.21913813383E+02 -0.38424007206E+03  0.38488202093E+03  0.00000000000E+00 0. -1.
          2    1    1    2  502    0 -0.36772056775E+01  0.21913813383E+02 -0.25000157936E+02  0.33447644990E+02  0.00000000000E+00 0.  1.
</event>
<event>
 4    1  0.6210801E+003  0.2304798E+02  0.7546771E-02  0.1491897E+00
          2   -1    0    0  501    0  0.00000000000E+00  0.00000000000E+00  0.13953100564E+01  0.13953100564E+01  0.00000000000E+00 0.  1.
          2   -1    0    0  502    0 -0.00000000000E+00 -0.00000000000E+00 -0.38890152426E+03  0.38890152426E+03  0.00000000000E+00 0. -1.
          2    1    1    2  501    0 -0.12207694670E+02  0.19549458943E+02 -0.22207452443E+03  0.22326733651E+03  0.00000000000E+00 0.  1.
          2    1    1    2  502    0  0.12207694670E+02 -0.19549458943E+02 -0.16543168977E+03  0.16702949780E+03  0.00000000000E+00 0. -1.
</event>
<event>
 4    1  0.6210801E+003  0.2715183E+02  0.7546771E-02  0.1446089E+00
          2   -1    0    0  502    0  0.00000000000E+00  0.00000000000E+00  0.31464957638E+01  0.31464957638E+01  0.00000000000E+00 0.  1.
          2   -1    0    0  501    0 -0.00000000000E+00 -0.00000000000E+00 -0.31125215691E+03  0.31125215691E+03  0.00000000000E+00 0. -1.
          2    1    1    2  501    0 -0.14722385185E+02  0.22813885026E+02 -0.75888849336E+02  0.80599872388E+02  0.00000000000E+00 0.  1.
          2    1    1    2  502    0  0.14722385185E+02 -0.22813885026E+02 -0.23221681181E+03  0.23379878028E+03  0.00000000000E+00 0. -1.
</event>
<event>
 4    1  0.6210801E+003  0.2330493E+02  0.7546771E-02  0.1488704E+00
          2   -1    0    0  502    0  0.00000000000E+00  0.00000000000E+00  0.70046609562E+02  0.70046609562E+02  0.00000000000E+00 0. -1.
          2   -1    0    0  501    0 -0.00000000000E+00 -0.00000000000E+00 -0.17695006855E+03  0.17695006855E+03  0.00000000000E+00 0.  1.
          2    1    1    2  501    0 -0.20202759675E+02 -0.11617577671E+02  0.67310544504E+02  0.71230815038E+02  0.00000000000E+00 0. -1.
          2    1    1    2  502    0  0.20202759675E+02  0.11617577671E+02 -0.17421400349E+03  0.17576586307E+03  0.00000000000E+00 0.  1.
</event>
<event>
 4    1  0.6210801E+003  0.3891510E+02  0.7546771E-02  0.1354963E+00
          2   -1    0    0  501    0  0.00000000000E+00  0.00000000000E+00  0.45794004134E+03  0.45794004134E+03  0.00000000000E+00 0.  1.
          2   -1    0    0  502    0 -0.00000000000E+00 -0.00000000000E+00 -0.58964856204E+02  0.58964856204E+02  0.00000000000E+00 0. -1.
          2    1    1    2  501    0 -0.27394901961E+02 -0.27638815142E+02 -0.51612840826E+02  0.64639539711E+02  0.00000000000E+00 0. -1.
          2    1    1    2  502    0  0.27394901961E+02  0.27638815142E+02  0.45058802596E+03  0.45226535783E+03  0.00000000000E+00 0.  1.
</event>
<event>
 4    1  0.6210801E+003  0.2370617E+02  0.7546771E-02  0.1483816E+00
          2   -1    0    0  502    0  0.00000000000E+00  0.00000000000E+00  0.14041581860E+02  0.14041581860E+02  0.00000000000E+00 0.  1.
          2   -1    0    0  501    0 -0.00000000000E+00 -0.00000000000E+00 -0.13336863603E+03  0.13336863603E+03  0.00000000000E+00 0. -1.
          2    1    1    2  501    0  0.16303957275E+02 -0.17209397667E+02  0.19985831643E+01  0.23790265352E+02  0.00000000000E+00 0.  1.
          2    1    1    2  502    0 -0.16303957275E+02  0.17209397667E+02 -0.12132563733E+03  0.12361995254E+03  0.00000000000E+00 0. -1.
</event>
<event>
 4    1  0.6210801E+003  0.2033091E+02  0.7546771E-02  0.1529036E+00
          2   -1    0    0  501    0  0.00000000000E+00  0.00000000000E+00  0.18808564128E+04  0.18808564128E+04  0.00000000000E+00 0.  1.
          2   -1    0    0  502    0 -0.00000000000E+00 -0.00000000000E+00 -0.26979832609E+00  0.26979832609E+00  0.00000000000E+00 0.  1.
          2    1    1    2  501    0 -0.17962888505E+02 -0.95226242087E+01  0.53525177532E+03  0.53563775886E+03  0.00000000000E+00 0.  1.
          2    1    1    2  502    0  0.17962888505E+02  0.95226242087E+01  0.13453348392E+04  0.13454884523E+04  0.00000000000E+00 0.  1.
</event>
<event>
 4    1  0.6210801E+003  0.3305110E+02  0.7546771E-02  0.1394808E+00
          2   -1    0    0  501    0  0.00000000000E+00  0.00000000000E+00  0.11897775657E+02  0.11897775657E+02  0.00000000000E+00 0.  1.
          2   -1    0    0  502    0 -0.00000000000E+00 -0.00000000000E+00 -0.10948903015E+03  0.10948903015E+03  0.00000000000E+00 0.  1.
          2    1    1    2  501    0 -0.18685455976E+02  0.27262221088E+02 -0.73181815211E+02  0.80299147201E+02  0.00000000000E+00 0.  1.
          2    1    1    2  502    0  0.18685455976E+02 -0.27262221088E+02 -0.24409439286E+02  0.41087658608E+02  0.00000000000E+00 0.  1.
</event>
<event>
 4    1  0.8800124E+003  0.3114153E+02  0.7546771E-02  0.1409929E+00
          2   -1    0    0  502    0  0.00000000000E+00  0.00000000000E+00  0.14069643493E+04  0.14069643493E+04  0.00000000000E+00 0.  1.
          2   -1    0    0  501    0 -0.00000000000E+00 -0.00000000000E+00 -0.52247304577E+03  0.52247304577E+03  0.00000000000E+00 0.  1.
          2    1    1    2  501    0 -0.29604830232E+02 -0.96617112591E+01  0.14063277783E+04  0.14066725329E+04  0.00000000000E+00 0.  1.
          2    1    1    2  502    0  0.29604830232E+02  0.96617112591E+01 -0.52183647484E+03  0.52276486216E+03  0.00000000000E+00 0.  1.
</event>
<event>
 4    1  0.6210801E+003  0.2148664E+02  0.7546771E-02  0.1512429E+00
          2   -1    0    0  502    0  0.00000000000E+00  0.00000000000E+00  0.34058224652E+01  0.34058224652E+01  0.00000000000E+00 0.  1.
          2   -1    0    0  501    0 -0.00000000000E+00 -0.00000000000E+00 -0.61676107478E+03  0.61676107478E+03  0.00000000000E+00 0.  1.
          2    1    1    2  501    0  0.20645531972E+02 -0.59529624778E+01 -0.32781603613E+02  0.39195781509E+02  0.00000000000E+00 0.  1.
          2    1    1    2  502    0 -0.20645531972E+02  0.59529624778E+01 -0.58057364870E+03  0.58097111574E+03  0.00000000000E+00 0.  1.
</event>
<event>
 4    1  0.6210801E+003  0.4341828E+02  0.7546771E-02  0.1329541E+00
          2   -1    0    0  501    0  0.00000000000E+00  0.00000000000E+00  0.14127179238E+02  0.14127179238E+02  0.00000000000E+00 0. -1.
          2   -1    0    0  502    0 -0.00000000000E+00 -0.00000000000E+00 -0.39251239046E+03  0.39251239046E+03  0.00000000000E+00 0. -1.
          2    1    1    2  501    0 -0.11289763261E+02 -0.41924797648E+02 -0.35437453576E+03  0.35702445155E+03  0.00000000000E+00 0. -1.
          2    1    1    2  502    0  0.11289763261E+02  0.41924797648E+02 -0.24010675462E+02  0.49615118144E+02  0.00000000000E+00 0. -1.
</event>
<event>
 4    1  0.6210801E+003  0.3555222E+02  0.7546771E-02  0.1376722E+00
          2   -1    0    0  501    0  0.00000000000E+00  0.00000000000E+00  0.21847013179E+02  0.21847013179E+02  0.00000000000E+00 0. -1.
          2   -1    0    0  502    0 -0.00000000000E+00 -0.00000000000E+00 -0.59643396206E+03  0.59643396206E+03  0.00000000000E+00 0. -1.
          2    1    1    2  501    0  0.17282761072E+02 -0.31068734919E+02 -0.58105801754E+03  0.58214463827E+03  0.00000000000E+00 0. -1.
          2    1    1    2  502    0 -0.17282761072E+02  0.31068734919E+02  0.64710686614E+01  0.36136336966E+02  0.00000000000E+00 0. -1.
</event>
<event>
 4    1  0.6210801E+003  0.2781019E+02  0.7546771E-02  0.1439635E+00
          2   -1    0    0  502    0  0.00000000000E+00  0.00000000000E+00  0.54694721635E+01  0.54694721635E+01  0.00000000000E+00 0. -1.
          2   -1    0    0  501    0 -0.00000000000E+00 -0.00000000000E+00 -0.22200330109E+03  0.22200330109E+03  0.00000000000E+00 0. -1.
          2    1    1    2  501    0 -0.23331117173E+02  0.15134921524E+02 -0.17679751579E+03  0.17897141801E+03  0.00000000000E+00 0. -1.
          2    1    1    2  502    0  0.23331117173E+02 -0.15134921524E+02 -0.39736313143E+02  0.48501355241E+02  0.00000000000E+00 0. -1.
</event>
<event>
 4    1  0.6210801E+003  0.2222758E+02  0.7546771E-02  0.1502432E+00
          2   -1    0    0  502    0  0.00000000000E+00  0.00000000000E+00  0.16156669115E+04  0.16156669115E+04  0.00000000000E+00 0.  1.
          2   -1    0    0  501    0 -0.00000000000E+00 -0.00000000000E+00 -0.20953392193E+03  0.20953392193E+03  0.00000000000E+00 0. -1.
          2    1    1    2  501    0  0.27661183789E+01 -0.22054794452E+02  0.16150007379E+04  0.16151536920E+04  0.00000000000E+00 0.  1.
          2    1    1    2  502    0 -0.27661183789E+01  0.22054794452E+02 -0.20886774828E+03  0.21004714147E+03  0.00000000000E+00 0. -1.
</event>
<event>
 4    1  0.6210801E+003  0.2106062E+02  0.7546771E-02  0.1518401E+00
          2   -1    0    0  502    0  0.00000000000E+00  0.00000000000E+00  0.20212400973E+02  0.20212400973E+02  0.00000000000E+00 0.  1.
          2   -1    0    0  501    0 -0.00000000000E+00 -0.00000000000E+00 -0.34306991177E+03  0.34306991177E+03  0.00000000000E+00 0. -1.
          2    1    1    2  501    0 -0.19116708999E+02  0.88374777716E+01  0.14307079279E+02  0.25460598850E+02  0.00000000000E+00 0.  1.
          2    1    1    2  502    0  0.19116708999E+02 -0.88374777716E+01 -0.33716459007E+03  0.33782171389E+03  0.00000000000E+00 0. -1.
</event>
<event>
 4    1  0.6210801E+003  0.2328949E+02  0.7546771E-02  0.1488895E+00
          2   -1    0    0  502    0  0.00000000000E+00  0.00000000000E+00  0.17405314903E+01  0.17405314903E+01  0.00000000000E+00 0. -1.
          2   -1    0    0  501    0 -0.00000000000E+00 -0.00000000000E+00 -0.10528679663E+04  0.10528679663E+04  0.00000000000E+00 0.  1.
          2    1    1    2  501    0 -0.58590454152E+01 -0.22540452388E+02 -0.83124738125E+02  0.86325676918E+02  0.00000000000E+00 0. -1.
          2    1    1    2  502    0  0.58590454152E+01  0.22540452388E+02 -0.96800269668E+03  0.96828282087E+03  0.00000000000E+00 0.  1.
</event>
<event>
 4    1  0.6210801E+003  0.2240389E+02  0.7546771E-02  0.1500122E+00
          2   -1    0    0  502    0  0.00000000000E+00  0.00000000000E+00  0.17237709966E+03  0.17237709966E+03  0.00000000000E+00 0. -1.
          2   -1    0    0  501    0 -0.00000000000E+00 -0.00000000000E+00 -0.11069442805E+03  0.11069442805E+03  0.00000000000E+00 0.  1.
          2    1    1    2  501    0 -0.21662698181E+02  0.57150455976E+01  0.17050313097E+03  0.17196875271E+03  0.00000000000E+00 0. -1.
          2    1    1    2  502    0  0.21662698181E+02 -0.57150455976E+01 -0.10882045936E+03  0.11110277500E+03  0.00000000000E+00 0.  1.
</event>
<event>
 4    1  0.6210801E+003  0.3531460E+02  0.7546771E-02  0.1378365E+00
          2   -1    0    0  502    0  0.00000000000E+00  0.00000000000E+00  0.14053422674E+04  0.14053422674E+04  0.00000000000E+00 0. -1.
          2   -1    0    0  501    0 -0.00000000000E+00 -0.00000000000E+00 -0.35104564385E+01  0.35104564385E+01  0.00000000000E+00 0. -1.
          2    1    1    2  501    0  0.84323407067E+01  0.34293103357E+02  0.13098305394E+04  0.13103065150E+04  0.00000000000E+00 0. -1.
          2    1    1    2  502    0 -0.84323407067E+01 -0.34293103357E+02  0.92001271577E+02  0.98546208854E+02  0.00000000000E+00 0. -1.
</event>
<event>
 4    1  0.6210801E+003  0.2024936E+02  0.7546771E-02  0.1530257E+00
          2   -1    0    0  502    0  0.00000000000E+00  0.00000000000E+00  0.96568232056E+03  0.96568232056E+03  0.00000000000E+00 0. -1.
          2   -1    0    0  501    0 -0.00000000000E+00 -0.00000000000E+00 -0.26919760697E+02  0.26919760697E+02  0.00000000000E+00 0.  1.
          2    1    1    2  501    0 -0.20227072887E+02 -0.94988398839E+00  0.96175265792E+03  0.96196580593E+03  0.00000000000E+00 0. -1.
          2    1    1    2  502    0  0.20227072887E+02  0.94988398839E+00 -0.22990098059E+02  0.30636275327E+02  0.00000000000E+00 0.  1.
</event>
<event>
 4    1  0.6210801E+003  0.2020175E+02  0.7546771E-02  0.1530974E+00
          2   -1    0    0  502    0  0.00000000000E+00  0.00000000000E+00  0.36353560273E+02  0.36353560273E+02  0.00000000000E+00 0. -1.
          2   -1    0    0  501    0 -0.00000000000E+00 -0.00000000000E+00 -0.78332632621E+02  0.78332632621E+02  0.00000000000E+00 0. -1.
          2    1    1    2  501    0  0.30151912760E+00  0.20199496272E+02  0.32085709532E+02  0.37915739734E+02  0.00000000000E+00 0. -1.
          2    1    1    2  502    0 -0.30151912760E+00 -0.20199496272E+02 -0.74064781880E+02  0.76770453160E+02  0.00000000000E+00 0. -1.
</event>
<event>
 4    1  0.6210801E+003  0.2148918E+02  0.7546771E-02  0.1512394E+00
          2   -1    0    0  502    0  0.00000000000E+00  0.00000000000E+00  0.35456418143E+02  0.35456418143E+02  0.00000000000E+00 0. -1.
          2   -1    0    0  501    0 -0.00000000000E+00 -0.00000000000E+00 -0.16783409045E+02  0.16783409045E+02  0.00000000000E+00 0. -1.
          2    1    1    2  501    0  0.20696578975E+02 -0.57824252278E+01  0.21698561274E+02  0.30538703053E+02  0.00000000000E+00 0. -1.
          2    1    1    2  502    0 -0.20696578975E+02  0.57824252278E+01 -0.30255521765E+01  0.21701124136E+02  0.00000000000E+00 0. -1.
</event>
<event>
 4    1  0.6210801E+003  0.2776233E+02  0.7546771E-02  0.1440097E+00
          2   -1    0    0  501    0  0.00000000000E+00  0.00000000000E+00  0.99186868260E+03  0.99186868260E+03  0.00000000000E+00 0.  1.
          2   -1    0    0  502    0 -0.00000000000E+00 -0.00000000000E+00 -0.85099631922E+00  0.85099631922E+00  0.00000000000E+00 0.  1.
          2    1    1    2  501    0 -0.16742074959E+02 -0.22146106621E+02  0.34920860772E+03  0.35031043207E+03  0.00000000000E+00 0.  1.
          2    1    1    2  502    0  0.16742074959E+02  0.22146106621E+02  0.64180907856E+03  0.64240924685E+03  0.00000000000E+00 0.  1.
</event>
<event>
 4    1  0.6210801E+003  0.2227653E+02  0.7546771E-02  0.1501788E+00
          2   -1    0    0  501    0  0.00000000000E+00  0.00000000000E+00  0.69780669475E+03  0.69780669475E+03  0.00000000000E+00 0. -1.
          2   -1    0    0  502    0 -0.00000000000E+00 -0.00000000000E+00 -0.20237303287E+03  0.20237303287E+03  0.00000000000E+00 0.  1.
          2    1    1    2  501    0  0.20985763263E+02 -0.74727300781E+01 -0.20158151863E+03  0.20280866009E+03  0.00000000000E+00 0.  1.
          2    1    1    2  502    0 -0.20985763263E+02  0.74727300781E+01  0.69701518052E+03  0.69737106753E+03  0.00000000000E+00 0. -1.
</event>
<event>
 4    1  0.6210801E+003  0.2574451E+02  0.7546771E-02  0.1460644E+00
          2   -1    0    0  502    0  0.00000000000E+00  0.00000000000E+00  0.34111755850E+00  0.34111755850E+00  0.00000000000E+00 0. -1.
          2   -1    0    0  501    0 -0.00000000000E+00 -0.00000000000E+00 -0.20681483114E+04  0.20681483114E+04  0.00000000000E+00 0. -1.
          2    1    1    2  501    0 -0.11511410299E+02 -0.23027526680E+02 -0.77945192645E+03  0.77987696799E+03  0.00000000000E+00 0. -1.
          2    1    1    2  502    0  0.11511410299E+02  0.23027526680E+02 -0.12883552673E+04  0.12886124609E+04  0.00000000000E+00 0. -1.
</event>
<event>
 4    1  0.6210801E+003  0.2208080E+02  0.7546771E-02  0.1504375E+00
          2   -1    0    0  502    0  0.00000000000E+00  0.00000000000E+00  0.18300256776E+01  0.18300256776E+01  0.00000000000E+00 0.  1.
          2   -1    0    0  501    0 -0.00000000000E+00 -0.00000000000E+00 -0.74812599538E+03  0.74812599538E+03  0.00000000000E+00 0.  1.
          2    1    1    2  501    0  0.20220379791E+02  0.88711854699E+01 -0.72257874115E+02  0.75556350244E+02  0.00000000000E+00 0.  1.
          2    1    1    2  502    0 -0.20220379791E+02 -0.88711854699E+01 -0.67403809558E+03  0.67439967081E+03  0.00000000000E+00 0.  1.
</event>
<event>
 4    1  0.6210801E+003  0.2624071E+02  0.7546771E-02  0.1455388E+00
          2   -1    0    0  501    0  0.00000000000E+00  0.00000000000E+00  0.32389373209E+03  0.32389373209E+03  0.00000000000E+00 0.  1.
          2   -1    0    0  502    0 -0.00000000000E+00 -0.00000000000E+00 -0.54093810483E+01  0.54093810483E+01  0.00000000000E+00 0. -1.
          2    1    1    2  501    0 -0.53560634938E+01  0.25688277473E+02  0.30962632243E+02  0.40586446150E+02  0.00000000000E+00 0. -1.
          2    1    1    2  502    0  0.53560634938E+01 -0.25688277473E+02  0.28752171880E+03  0.28871666699E+03  0.00000000000E+00 0.  1.
</event>
<event>
 4    1  0.6210801E+003  0.2228774E+02  0.7546771E-02  0.1501641E+00
          2   -1    0    0  501    0  0.00000000000E+00  0.00000000000E+00  0.26226942094E+01  0.26226942094E+01  0.00000000000E+00 0. -1.
          2   -1    0    0  502    0 -0.00000000000E+00 -0.00000000000E+00 -0.11151003627E+04  0.11151003627E+04  0.00000000000E+00 0.  1.
          2    1    1    2  501    0  0.11151874465E+02 -0.19297120784E+02 -0.10654313540E+04  0.10656644469E+04  0.00000000000E+00 0.  1.
          2    1    1    2  502    0 -0.11151874465E+02  0.19297120784E+02 -0.47046314444E+02  0.52058610021E+02  0.00000000000E+00 0. -1.
</event>
<event>
 4    1  0.6210801E+003  0.3740287E+02  0.7546771E-02  0.1364416E+00
          2   -1    0    0  501    0  0.00000000000E+00  0.00000000000E+00  0.67723988251E+03  0.67723988251E+03  0.00000000000E+00 0.  1.
          2   -1    0    0  502    0 -0.00000000000E+00 -0.00000000000E+00 -0.17260442582E+02  0.17260442582E+02  0.00000000000E+00 0. -1.
          2    1    1    2  501    0 -0.92005436055E+01  0.36253614878E+02  0.41806546870E+01  0.37635787065E+02  0.00000000000E+00 0. -1.
          2    1    1    2  502    0  0.92005436055E+01 -0.36253614878E+02  0.65579878524E+03  0.65686453803E+03  0.00000000000E+00 0.  1.
</event>
<event>
 4    1  0.6210801E+003  0.3019499E+02  0.7546771E-02  0.1417909E+00
          2   -1    0    0  501    0  0.00000000000E+00  0.00000000000E+00  0.95525764534E+00  0.95525764534E+00  0.00000000000E+00 0. -1.
          2   -1    0    0  502    0 -0.00000000000E+00 -0.00000000000E+00 -0.21709429338E+04  0.21709429338E+04  0.00000000000E+00 0.  1.
          2    1    1    2  501    0  0.83528555170E+01  0.29016672501E+02 -0.18979021951E+04  0.18981423760E+04  0.00000000000E+00 0.  1.
          2    1    1    2  502    0 -0.83528555170E+01 -0.29016672501E+02 -0.27208548106E+03  0.27375581543E+03  0.00000000000E+00 0. -1.
</event>
<event>
 4    1  0.6210801E+003  0.2131937E+02  0.7546771E-02  0.1514754E+00
          2   -1    0    0  502    0  0.00000000000E+00  0.00000000000E+00  0.10343465409E+04  0.10343465409E+04  0.00000000000E+00 0. -1.
          2   -1    0    0  501    0 -0.00000000000E+00 -0.00000000000E+00 -0.26810716009E+02  0.26810716009E+02  0.00000000000E+00 0.  1.
          2    1    1    2  501    0 -0.19619774860E+02 -0.83414501545E+01  0.10299805344E+04  0.10302011534E+04  0.00000000000E+00 0. -1.
          2    1    1    2  502    0  0.19619774860E+02  0.83414501545E+01 -0.22444709502E+02  0.30956103451E+02  0.00000000000E+00 0.  1.
</event>
<event>
 4    1  0.6210801E+003  0.2177647E+02  0.7546771E-02  0.1508461E+00
          2   -1    0    0  502    0  0.00000000000E+00  0.00000000000E+00  0.10947829938E+04  0.10947829938E+04  0.00000000000E+00 0. -1.
          2   -1    0    0  501    0 -0.00000000000E+00 -0.00000000000E+00 -0.97431867214E+00  0.97431867214E+00  0.00000000000E+00 0. -1.
          2    1    1    2  501    0 -0.13845061078E+02 -0.16808590841E+02  0.95522073899E+03  0.95546892919E+03  0.00000000000E+00 0. -1.
          2    1    1    2  502    0  0.13845061078E+02  0.16808590841E+02  0.13858793616E+03  0.14028838331E+03  0.00000000000E+00 0. -1.
</event>
<event>
 4    1  0.6210801E+003  0.2709580E+02  0.7546771E-02  0.1446648E+00
          2   -1    0    0  502    0  0.00000000000E+00  0.00000000000E+00  0.15029363667E+03  0.15029363667E+03  0.00000000000E+00 0. -1.
          2   -1    0    0  501    0 -0.00000000000E+00 -0.00000000000E+00 -0.12172065133E+02  0.12172065133E+02  0.00000000000E+00 0. -1.
          2    1    1    2  501    0  0.20003165399E+02 -0.18277189084E+02  0.13191382940E+03  0.13466789022E+03  0.00000000000E+00 0. -1.
          2    1    1    2  502    0 -0.20003165399E+02  0.18277189084E+02  0.62077421329E+01  0.27797811589E+02  0.00000000000E+00 0. -1.
</event>
<event>
 4    1  0.6210801E+003  0.2843705E+02  0.7546771E-02  0.1433683E+00
          2   -1    0    0  501    0  0.00000000000E+00  0.00000000000E+00  0.10512195355E+04  0.10512195355E+04  0.00000000000E+00 0. -1.
          2   -1    0    0  502    0 -0.00000000000E+00 -0.00000000000E+00 -0.12818817411E+03  0.12818817411E+03  0.00000000000E+00 0.  1.
          2    1    1    2  501    0 -0.33885692238E+01 -0.28234439001E+02 -0.12641608822E+03  0.12957504894E+03  0.00000000000E+00 0.  1.
          2    1    1    2  502    0  0.33885692238E+01  0.28234439001E+02  0.10494474496E+04  0.10498326607E+04  0.00000000000E+00 0. -1.
</event>
<event>
 4    1  0.6210801E+003  0.2316437E+02  0.7546771E-02  0.1490444E+00
          2   -1    0    0  502    0  0.00000000000E+00  0.00000000000E+00  0.20489052893E+02  0.20489052893E+02  0.00000000000E+00 0. -1.
          2   -1    0    0  501    0 -0.00000000000E+00 -0.00000000000E+00 -0.36288683812E+03  0.36288683812E+03  0.00000000000E+00 0. -1.
          2    1    1    2  501    0 -0.13965118988E+02 -0.18481439045E+02  0.13442619386E+02  0.26782310458E+02  0.00000000000E+00 0. -1.
          2    1    1    2  502    0  0.13965118988E+02  0.18481439045E+02 -0.35584040462E+03  0.35659358056E+03  0.00000000000E+00 0. -1.
</event>
<event>
 4    1  0.6210801E+003  0.2256038E+02  0.7546771E-02  0.1498093E+00
          2   -1    0    0  501    0  0.00000000000E+00  0.00000000000E+00  0.54750226161E+00  0.54750226161E+00  0.00000000000E+00 0. -1.
          2   -1    0    0  502    0 -0.00000000000E+00 -0.00000000000E+00 -0.15915403124E+04  0.15915403124E+04  0.00000000000E+00 0. -1.
          2    1    1    2  501    0 -0.22481860207E+02  0.18806668828E+01 -0.13088657365E+04  0.13090601542E+04  0.00000000000E+00 0. -1.
          2    1    1    2  502    0  0.22481860207E+02 -0.18806668828E+01 -0.28212707357E+03  0.28302766046E+03  0.00000000000E+00 0. -1.
</event>
<event>
 4    1  0.6210801E+003  0.2054853E+02  0.7546771E-02  0.1525809E+00
          2   -1    0    0  501    0  0.00000000000E+00  0.00000000000E+00  0.11272067480E+02  0.11272067480E+02  0.00000000000E+00 0.  1.
          2   -1    0    0  502    0 -0.00000000000E+00 -0.00000000000E+00 -0.23080110541E+03  0.23080110541E+03  0.00000000000E+00 0. -1.
          2    1    1    2  501    0 -0.18790782460E+02  0.83155701301E+01 -0.22054436660E+03  0.22149957077E+03  0.00000000000E+00 0. -1.
          2    1    1    2  502    0  0.18790782460E+02 -0.83155701301E+01  0.10153286664E+01  0.20573602124E+02  0.00000000000E+00 0.  1.
</event>
<event>
 4    1  0.6210801E+003  0.7572371E+02  0.7546771E-02  0.1214139E+00
          2   -1    0    0  502    0  0.00000000000E+00  0.00000000000E+00  0.47968344460E+03  0.47968344460E+03  0.00000000000E+00 0.  1.
          2   -1    0    0  501    0 -0.00000000000E+00 -0.00000000000E+00 -0.43467484951E+02  0.43467484951E+02  0.00000000000E+00 0. -1.
          2    1    1    2  501    0  0.56003487157E+02 -0.50967529428E+02  0.44083031637E+03  0.44728676200E+03  0.00000000000E+00 0.  1.
          2    1    1    2  502    0 -0.56003487157E+02  0.50967529428E+02 -0.46143567251E+01  0.75864167548E+02  0.00000000000E+00 0. -1.
</event>
<event>
 4    1  0.6210801E+003  0.3065993E+02  0.7546771E-02  0.1413947E+00
          2   -1    0    0  501    0  0.00000000000E+00  0.00000000000E+00  0.26732307973E+02  0.26732307973E+02  0.00000000000E+00 0.  1.
          2   -1    0    0  502    0 -0.00000000000E+00 -0.00000000000E+00 -0.18985222652E+03  0.18985222652E+03  0.00000000000E+00 0.  1.
          2    1    1    2  501    0  0.23392375214E+02 -0.19819892316E+02 -0.17931009390E+03  0.18191245456E+03  0.00000000000E+00 0.  1.
          2    1    1    2  502    0 -0.23392375214E+02  0.19819892316E+02  0.16190175347E+02  0.34672079939E+02  0.00000000000E+00 0.  1.
</event>
<event>
 4    1  0.6210801E+003  0.2683490E+02  0.7546771E-02  0.1449274E+00
          2   -1    0    0  502    0  0.00000000000E+00  0.00000000000E+00  0.16249637384E+02  0.16249637384E+02  0.00000000000E+00 0. -1.
          2   -1    0    0  501    0 -0.00000000000E+00 -0.00000000000E+00 -0.31535344898E+03  0.31535344898E+03  0.00000000000E+00 0. -1.
          2    1    1    2  501    0 -0.23247950933E+02  0.13403150604E+02  0.41590362940E+01  0.27155280363E+02  0.00000000000E+00 0. -1.
          2    1    1    2  502    0  0.23247950933E+02 -0.13403150604E+02 -0.30326284789E+03  0.30444780600E+03  0.00000000000E+00 0. -1.
</event>
<event>
 4    1  0.6210801E+003  0.3000811E+02  0.7546771E-02  0.1419526E+00
          2   -1    0    0  501    0  0.00000000000E+00  0.00000000000E+00  0.26195437205E+02  0.26195437205E+02  0.00000000000E+00 0. -1.
          2   -1    0    0  502    0 -0.00000000000E+00 -0.00000000000E+00 -0.13279724278E+03  0.13279724278E+03  0.00000000000E+00 0. -1.
          2    1    1    2  501    0 -0.20137432709E+02  0.22247931152E+02 -0.12173896073E+03  0.12538285846E+03  0.00000000000E+00 0. -1.
          2    1    1    2  502    0  0.20137432709E+02 -0.22247931152E+02  0.15137155154E+02  0.33609821523E+02  0.00000000000E+00 0. -1.
</event>
<event>
 4    1  0.6210801E+003  0.4121685E+02  0.7546771E-02  0.1341499E+00
          2   -1    0    0  501    0  0.00000000000E+00  0.00000000000E+00  0.13106707738E+04  0.13106707738E+04  0.00000000000E+00 0.  1.
          2   -1    0    0  502    0 -0.00000000000E+00 -0.00000000000E+00 -0.36255018531E+01  0.36255018531E+01  0.00000000000E+00 0.  1.
          2    1    1    2  501    0  0.35335798527E+02 -0.21218162627E+02  0.12678234612E+03  0.13331388664E+03  0.00000000000E+00 0.  1.
          2    1    1    2  502    0 -0.35335798527E+02  0.21218162627E+02  0.11802629258E+04  0.11809823890E+04  0.00000000000E+00 0.  1.
</event>
<event>
 4    1  0.6210801E+003  0.2357044E+02  0.7546771E-02  0.1485457E+00
          2   -1    0    0  502    0  0.00000000000E+00  0.00000000000E+00  0.50086362150E+02  0.50086362150E+02  0.00000000000E+00 0.  1.
          2   -1    0    0  501    0 -0.00000000000E+00 -0.00000000000E+00 -0.12232446133E+04  0.12232446133E+04  0.00000000000E+00 0.  1.
          2    1    1    2  501    0 -0.13141951023E+02 -0.19566672888E+02  0.47193207023E+02  0.52751913271E+02  0.00000000000E+00 0.  1.
          2    1    1    2  502    0  0.13141951023E+02  0.19566672888E+02 -0.12203514582E+04  0.12205790622E+04  0.00000000000E+00 0.  1.
</event>
<event>
 4    1  0.6210801E+003  0.2135197E+02  0.7546771E-02  0.1514299E+00
          2   -1    0    0  501    0  0.00000000000E+00  0.00000000000E+00  0.78523686673E+02  0.78523686673E+02  0.00000000000E+00 0. -1.
          2   -1    0    0  502    0 -0.00000000000E+00 -0.00000000000E+00 -0.12869224187E+02  0.12869224187E+02  0.00000000000E+00 0.  1.
          2    1    1    2  501    0 -0.12468993410E+02 -0.17332936870E+02 -0.10266619916E+01  0.21376635190E+02  0.00000000000E+00 0.  1.
          2    1    1    2  502    0  0.12468993410E+02  0.17332936870E+02  0.66681124478E+02  0.70016275671E+02  0.00000000000E+00 0. -1.
</event>
<event>
 4    1  0.6210801E+003  0.6473014E+02  0.7546771E-02  0.1244556E+00
          2   -1    0    0  501    0  0.00000000000E+00  0.00000000000E+00  0.70606411810E+01  0.70606411810E+01  0.00000000000E+00 0.  1.
          2   -1    0    0  502    0 -0.00000000000E+00 -0.00000000000E+00 -0.72182831117E+03  0.72182831117E+03  0.00000000000E+00 0. -1.
          2    1    1    2  501    0  0.63471848909E+02 -0.12700998017E+02 -0.51109143848E+03  0.51517419330E+03  0.00000000000E+00 0. -1.
          2    1    1    2  502    0 -0.63471848909E+02  0.12700998017E+02 -0.20367623151E+03  0.21371475905E+03  0.00000000000E+00 0.  1.
</event>
<event>
 4    1  0.6210801E+003  0.2196619E+02  0.7546771E-02  0.1505904E+00
          2   -1    0    0  502    0  0.00000000000E+00  0.00000000000E+00  0.44894530574E+03  0.44894530574E+03  0.00000000000E+00 0.  1.
          2   -1    0    0  501    0 -0.00000000000E+00 -0.00000000000E+00 -0.12572897360E+01  0.12572897360E+01  0.00000000000E+00 0. -1.
          2    1    1    2  501    0  0.10554431983E+02 -0.19264412590E+02  0.30960966640E+03  0.31038791722E+03  0.00000000000E+00 0.  1.
          2    1    1    2  502    0 -0.10554431983E+02  0.19264412590E+02  0.13807834961E+03  0.13981467826E+03  0.00000000000E+00 0. -1.
</event>
<event>
 4    1  0.6210801E+003  0.2157573E+02  0.7546771E-02  0.1511201E+00
          2   -1    0    0  501    0  0.00000000000E+00  0.00000000000E+00  0.14868731802E+03  0.14868731802E+03  0.00000000000E+00 0.  1.
          2   -1    0    0  502    0 -0.00000000000E+00 -0.00000000000E+00 -0.67378591288E+02  0.67378591288E+02  0.00000000000E+00 0. -1.
          2    1    1    2  501    0  0.49595048335E+01 -0.20997985092E+02 -0.64838808509E+02  0.68334348281E+02  0.00000000000E+00 0. -1.
          2    1    1    2  502    0 -0.49595048335E+01  0.20997985092E+02  0.14614753524E+03  0.14773156102E+03  0.00000000000E+00 0.  1.
</event>
<event>
 4    1  0.6210801E+003  0.2606382E+02  0.7546771E-02  0.1457246E+00
          2   -1    0    0  502    0  0.00000000000E+00  0.00000000000E+00  0.13346613592E+02  0.13346613592E+02  0.00000000000E+00 0.  1.
          2   -1    0    0  501    0 -0.00000000000E+00 -0.00000000000E+00 -0.75711956458E+03  0.75711956458E+03  0.00000000000E+00 0.  1.
          2    1    1    2  501    0  0.25952528976E+02 -0.24059756007E+01  0.17241397820E+00  0.26064385767E+02  0.00000000000E+00 0.  1.
          2    1    1    2  502    0 -0.25952528976E+02  0.24059756007E+01 -0.74394536497E+03  0.74440179240E+03  0.00000000000E+00 0.  1.
</event>
<event>
 4    1  0.6210801E+003  0.2885746E+02  0.7546771E-02  0.1429792E+00
          2   -1    0    0  501    0  0.00000000000E+00  0.00000000000E+00  0.65738027465E+03  0.65738027465E+03  0.00000000000E+00 0.  1.
          2   -1    0    0  502    0 -0.00000000000E+00 -0.00000000000E+00 -0.32191076788E+01  0.32191076788E+01  0.00000000000E+00 0.  1.
          2    1    1    2  501    0 -0.28361465375E+02 -0.53273203126E+01  0.69853140861E+02  0.75579192561E+02  0.00000000000E+00 0.  1.
          2    1    1    2  502    0  0.28361465375E+02  0.53273203126E+01  0.58430802611E+03  0.58502018977E+03  0.00000000000E+00 0.  1.
</event>
<event>
 4    1  0.6210801E+003  0.2467497E+02  0.7546771E-02  0.1472472E+00
          2   -1    0    0  502    0  0.00000000000E+00  0.00000000000E+00  0.13531665500E+02  0.13531665500E+02  0.00000000000E+00 0. -1.
          2   -1    0    0  501    0 -0.00000000000E+00 -0.00000000000E+00 -0.28958263637E+03  0.28958263637E+03  0.00000000000E+00 0. -1.
          2    1    1    2  501    0  0.15589679124E+02  0.19126315245E+02  0.12605694381E+01  0.24707146038E+02  0.00000000000E+00 0. -1.
          2    1    1    2  502    0 -0.15589679124E+02 -0.19126315245E+02 -0.27731154031E+03  0.27840715584E+03  0.00000000000E+00 0. -1.
</event>
<event>
 4    1  0.6210801E+003  0.2397861E+02  0.7546771E-02  0.1480562E+00
          2   -1    0    0  501    0  0.00000000000E+00  0.00000000000E+00  0.13160584518E+04  0.13160584518E+04  0.00000000000E+00 0.  1.
          2   -1    0    0  502    0 -0.00000000000E+00 -0.00000000000E+00 -0.25296309131E+03  0.25296309131E+03  0.00000000000E+00 0. -1.
          2    1    1    2  501    0 -0.75299772420E+01 -0.22765610835E+02 -0.25228533727E+03  0.25342230564E+03  0.00000000000E+00 0. -1.
          2    1    1    2  502    0  0.75299772420E+01  0.22765610835E+02  0.13153806978E+04  0.13155992375E+04  0.00000000000E+00 0.  1.
</event>
<event>
 4    1  0.6210801E+003  0.2555121E+02  0.7546771E-02  0.1462730E+00
          2   -1    0    0  502    0  0.00000000000E+00  0.00000000000E+00  0.61348987641E+02  0.61348987641E+02  0.00000000000E+00 0. -1.
          2   -1    0    0  501    0 -0.00000000000E+00 -0.00000000000E+00 -0.35939926456E+02  0.35939926456E+02  0.00000000000E+00 0. -1.
          2    1    1    2  501    0  0.23389176613E+02 -0.10286446391E+02  0.53516619228E+02  0.59303398685E+02  0.00000000000E+00 0. -1.
          2    1    1    2  502    0 -0.23389176613E+02  0.10286446391E+02 -0.28107558043E+02  0.37985515412E+02  0.00000000000E+00 0. -1.
</event>
<event>
 4    1  0.6210801E+003  0.3839157E+02  0.7546771E-02  0.1358178E+00
          2   -1    0    0  501    0  0.00000000000E+00  0.00000000000E+00  0.47443922116E+03  0.47443922116E+03  0.00000000000E+00 0.  1.
          2   -1    0    0  502    0 -0.00000000000E+00 -0.00000000000E+00 -0.16117392575E+03  0.16117392575E+03  0.00000000000E+00 0.  1.
          2    1    1    2  501    0  0.10197874582E+02 -0.37012374644E+02 -0.15809614785E+03  0.16269082484E+03  0.00000000000E+00 0.  1.
          2    1    1    2  502    0 -0.10197874582E+02  0.37012374644E+02  0.47136144326E+03  0.47292232207E+03  0.00000000000E+00 0.  1.
</event>
<event>
 4    1  0.6210801E+003  0.2466983E+02  0.7546771E-02  0.1472531E+00
          2   -1    0    0  502    0  0.00000000000E+00  0.00000000000E+00  0.13463160551E+03  0.13463160551E+03  0.00000000000E+00 0. -1.
          2   -1    0    0  501    0 -0.00000000000E+00 -0.00000000000E+00 -0.34961626696E+03  0.34961626696E+03  0.00000000000E+00 0. -1.
          2    1    1    2  501    0  0.55093673590E+01  0.24046777840E+02  0.13306119865E+03  0.13532879678E+03  0.00000000000E+00 0. -1.
          2    1    1    2  502    0 -0.55093673590E+01 -0.24046777840E+02 -0.34804586010E+03  0.34891907570E+03  0.00000000000E+00 0. -1.
</event>
<event>
 4    1  0.6210801E+003  0.8395349E+02  0.7546771E-02  0.1194955E+00
          2   -1    0    0  502    0  0.00000000000E+00  0.00000000000E+00  0.20189791961E+04  0.20189791961E+04  0.00000000000E+00 0. -1.
          2   -1    0    0  501    0 -0.00000000000E+00 -0.00000000000E+00 -0.27807192838E+03  0.27807192838E+03  0.00000000000E+00 0.  1.
          2    1    1    2  501    0  0.82707448159E+02  0.14410647168E+02  0.20117470246E+04  0.20134980208E+04  0.00000000000E+00 0. -1.
          2    1    1    2  502    0 -0.82707448159E+02 -0.14410647168E+02 -0.27083975686E+03  0.28355310372E+03  0.00000000000E+00 0.  1.
</event>
<event>
 4    1  0.6210801E+003  0.1364682E+03  0.7546771E-02  0.1112356E+00
          2   -1    0    0  501    0  0.00000000000E+00  0.00000000000E+00  0.64848422845E+03  0.64848422845E+03  0.00000000000E+00 0.  1.
          2   -1    0    0  502    0 -0.00000000000E+00 -0.00000000000E+00 -0.48472789572E+02  0.48472789572E+02  0.00000000000E+00 0.  1.
          2    1    1    2  501    0  0.13399959378E+03  0.25839488511E+02  0.77543424634E+02  0.15696035488E+03  0.00000000000E+00 0.  1.
          2    1    1    2  502    0 -0.13399959378E+03 -0.25839488511E+02  0.52246801425E+03  0.53999666315E+03  0.00000000000E+00 0.  1.
</event>
<event>
 4    1  0.6210801E+003  0.2171863E+02  0.7546771E-02  0.1509247E+00
          2   -1    0    0  501    0  0.00000000000E+00  0.00000000000E+00  0.73415520482E+03  0.73415520482E+03  0.00000000000E+00 0.  1.
          2   -1    0    0  502    0 -0.00000000000E+00 -0.00000000000E+00 -0.16307136796E+03  0.16307136796E+03  0.00000000000E+00 0.  1.
          2    1    1    2  501    0 -0.16978043422E+02 -0.13544191984E+02 -0.16218672098E+03  0.16363444490E+03  0.00000000000E+00 0.  1.
          2    1    1    2  502    0  0.16978043422E+02  0.13544191984E+02  0.73327055784E+03  0.73359212788E+03  0.00000000000E+00 0.  1.
</event>
<event>
 4    1  0.6210801E+003  0.3901509E+02  0.7546771E-02  0.1354356E+00
          2   -1    0    0  502    0  0.00000000000E+00  0.00000000000E+00  0.38048324586E+03  0.38048324586E+03  0.00000000000E+00 0. -1.
          2   -1    0    0  501    0 -0.00000000000E+00 -0.00000000000E+00 -0.26285307401E+02  0.26285307401E+02  0.00000000000E+00 0.  1.
          2    1    1    2  501    0  0.39000590409E+02 -0.10635067534E+01  0.36436711387E+03  0.36644995671E+03  0.00000000000E+00 0. -1.
          2    1    1    2  502    0 -0.39000590409E+02  0.10635067534E+01 -0.10169175419E+02  0.40318596548E+02  0.00000000000E+00 0.  1.
</event>
<event>
 4    1  0.6210801E+003  0.5620251E+02  0.7546771E-02  0.1273311E+00
          2   -1    0    0  502    0  0.00000000000E+00  0.00000000000E+00  0.17531879552E+02  0.17531879552E+02  0.00000000000E+00 0.  1.
          2   -1    0    0  501    0 -0.00000000000E+00 -0.00000000000E+00 -0.33500521488E+03  0.33500521488E+03  0.00000000000E+00 0. -1.
          2    1    1    2  501    0  0.44809117033E+02  0.33924406142E+02 -0.38901682361E+02  0.68352492214E+02  0.00000000000E+00 0.  1.
          2    1    1    2  502    0 -0.44809117033E+02 -0.33924406142E+02 -0.27857165296E+03  0.28418460222E+03  0.00000000000E+00 0. -1.
</event>
<event>
 4    1  0.6210801E+003  0.6000166E+02  0.7546771E-02  0.1259827E+00
          2   -1    0    0  501    0  0.00000000000E+00  0.00000000000E+00  0.15304939322E+04  0.15304939322E+04  0.00000000000E+00 0. -1.
          2   -1    0    0  502    0 -0.00000000000E+00 -0.00000000000E+00 -0.59962341285E+01  0.59962341285E+01  0.00000000000E+00 0.  1.
          2    1    1    2  501    0 -0.17581021201E+02 -0.57368168830E+02  0.16336162609E+03  0.17403223833E+03  0.00000000000E+00 0.  1.
          2    1    1    2  502    0  0.17581021201E+02  0.57368168830E+02  0.13611360720E+04  0.13624579280E+04  0.00000000000E+00 0. -1.
</event>
<event>
 4    1  0.6210801E+003  0.3163512E+02  0.7546771E-02  0.1405900E+00
          2   -1    0    0  502    0  0.00000000000E+00  0.00000000000E+00  0.16147624766E+03  0.16147624766E+03  0.00000000000E+00 0. -1.
          2   -1    0    0  501    0 -0.00000000000E+00 -0.00000000000E+00 -0.95936450284E+01  0.95936450284E+01  0.00000000000E+00 0.  1.
          2    1    1    2  501    0  0.74786269182E+01  0.30738426732E+02  0.12683128699E+03  0.13071708419E+03  0.00000000000E+00 0. -1.
          2    1    1    2  502    0 -0.74786269182E+01 -0.30738426732E+02  0.25051315639E+02  0.40352808500E+02  0.00000000000E+00 0.  1.
</event>
<event>
 4    1  0.6210801E+003  0.2427468E+02  0.7546771E-02  0.1477084E+00
          2   -1    0    0  501    0  0.00000000000E+00  0.00000000000E+00  0.26584148464E+02  0.26584148464E+02  0.00000000000E+00 0. -1.
          2   -1    0    0  502    0 -0.00000000000E+00 -0.00000000000E+00 -0.12599189214E+04  0.12599189214E+04  0.00000000000E+00 0.  1.
          2    1    1    2  501    0  0.59441180578E+00 -0.24267405135E+02 -0.12542354259E+04  0.12544703120E+04  0.00000000000E+00 0.  1.
          2    1    1    2  502    0 -0.59441180578E+00  0.24267405135E+02  0.20900652968E+02  0.32032757793E+02  0.00000000000E+00 0. -1.
</event>
<event>
 4    1  0.6210801E+003  0.3424393E+02  0.7546771E-02  0.1385958E+00
          2   -1    0    0  501    0  0.00000000000E+00  0.00000000000E+00  0.28934084692E+03  0.28934084692E+03  0.00000000000E+00 0.  1.
          2   -1    0    0  502    0 -0.00000000000E+00 -0.00000000000E+00 -0.17655693668E+02  0.17655693668E+02  0.00000000000E+00 0. -1.
          2    1    1    2  501    0  0.31240176616E+02  0.14024921597E+02  0.11088296600E+01  0.34261882085E+02  0.00000000000E+00 0. -1.
          2    1    1    2  502    0 -0.31240176616E+02 -0.14024921597E+02  0.27057632360E+03  0.27273465851E+03  0.00000000000E+00 0.  1.
</event>
<event>
 4    1  0.6210801E+003  0.3409268E+02  0.7546771E-02  0.1387057E+00
          2   -1    0    0  502    0  0.00000000000E+00  0.00000000000E+00  0.87300957133E+03  0.87300957133E+03  0.00000000000E+00 0.  1.
          2   -1    0    0  501    0 -0.00000000000E+00 -0.00000000000E+00 -0.18521476543E+02  0.18521476543E+02  0.00000000000E+00 0. -1.
          2    1    1    2  501    0  0.10550079387E+02 -0.32419234479E+02  0.85668927565E+03  0.85736738097E+03  0.00000000000E+00 0.  1.
          2    1    1    2  502    0 -0.10550079387E+02  0.32419234479E+02 -0.22011808582E+01  0.34163666906E+02  0.00000000000E+00 0. -1.
</event>
<event>
 4    1  0.6210801E+003  0.2913475E+02  0.7546771E-02  0.1427267E+00
          2   -1    0    0  502    0  0.00000000000E+00  0.00000000000E+00  0.69493811198E+02  0.69493811198E+02  0.00000000000E+00 0.  1.
          2   -1    0    0  501    0 -0.00000000000E+00 -0.00000000000E+00 -0.10159139807E+04  0.10159139807E+04  0.00000000000E+00 0.  1.
          2    1    1    2  501    0  0.83438316047E+01  0.27914408216E+02  0.66221430502E+02  0.72347160066E+02  0.00000000000E+00 0.  1.
          2    1    1    2  502    0 -0.83438316047E+01 -0.27914408216E+02 -0.10126416000E+04  0.10130606318E+04  0.00000000000E+00 0.  1.
</event>
<event>
 4    1  0.6210801E+003  0.7561511E+02  0.7546771E-02  0.1214410E+00
          2   -1    0    0  502    0  0.00000000000E+00  0.00000000000E+00  0.83034703828E+03  0.83034703828E+03  0.00000000000E+00 0.  1.
          2   -1    0    0  501    0 -0.00000000000E+00 -0.00000000000E+00 -0.52982928287E+02  0.52982928287E+02  0.00000000000E+00 0.  1.
          2    1    1    2  501    0 -0.30792084668E+02 -0.69061516872E+02  0.80064835125E+03  0.80421105934E+03  0.00000000000E+00 0.  1.
          2    1    1    2  502    0  0.30792084668E+02  0.69061516872E+02 -0.23284241260E+02  0.79118907233E+02  0.00000000000E+00 0.  1.
</event>
<event>
 4    1  0.6210801E+003  0.2301098E+02  0.7546771E-02  0.1492360E+00
          2   -1    0    0  501    0  0.00000000000E+00  0.00000000000E+00  0.73273686793E+03  0.73273686793E+03  0.00000000000E+00 0.  1.
          2   -1    0    0  502    0 -0.00000000000E+00 -0.00000000000E+00 -0.90506303704E+01  0.90506303704E+01  0.00000000000E+00 0.  1.
          2    1    1    2  501    0 -0.18437796638E+02  0.13767820694E+02  0.60642109417E+01  0.23796636020E+02  0.00000000000E+00 0.  1.
          2    1    1    2  502    0  0.18437796638E+02 -0.13767820694E+02  0.71762202662E+03  0.71799086228E+03  0.00000000000E+00 0.  1.
</event>
<event>
 4    1  0.6210801E+003  0.2466955E+02  0.7546771E-02  0.1472534E+00
          2   -1    0    0  501    0  0.00000000000E+00  0.00000000000E+00  0.25063359371E+02  0.25063359371E+02  0.00000000000E+00 0.  1.
          2   -1    0    0  502    0 -0.00000000000E+00 -0.00000000000E+00 -0.63761656263E+03  0.63761656263E+03  0.00000000000E+00 0. -1.
          2    1    1    2  501    0 -0.21541257131E+00  0.24668612162E+02 -0.63124622330E+03  0.63172809124E+03  0.00000000000E+00 0. -1.
          2    1    1    2  502    0  0.21541257131E+00 -0.24668612162E+02  0.18693020048E+02  0.30951830755E+02  0.00000000000E+00 0.  1.
</event>
<event>
 4    1  0.6210801E+003  0.3422618E+02  0.7546771E-02  0.1386086E+00
          2   -1    0    0  501    0  0.00000000000E+00  0.00000000000E+00  0.46300396763E+03  0.46300396763E+03  0.00000000000E+00 0. -1.
          2   -1    0    0  502    0 -0.00000000000E+00 -0.00000000000E+00 -0.73684097584E+01  0.73684097584E+01  0.00000000000E+00 0.  1.
          2    1    1    2  501    0  0.33429289662E+02  0.73426139243E+01  0.37239582026E+02  0.50578828140E+02  0.00000000000E+00 0.  1.
          2    1    1    2  502    0 -0.33429289662E+02 -0.73426139243E+01  0.41839597585E+03  0.41979354925E+03  0.00000000000E+00 0. -1.
</event>
<event>
 4    1  0.6210801E+003  0.3160159E+02  0.7546771E-02  0.1406171E+00
          2   -1    0    0  502    0  0.00000000000E+00  0.00000000000E+00  0.11019926188E+03  0.11019926188E+03  0.00000000000E+00 0. -1.
          2   -1    0    0  501    0 -0.00000000000E+00 -0.00000000000E+00 -0.50927847787E+03  0.50927847787E+03  0.00000000000E+00 0. -1.
          2    1    1    2  501    0  0.13849620902E+02 -0.28405078016E+02  0.10743108023E+03  0.11198257658E+03  0.00000000000E+00 0. -1.
          2    1    1    2  502    0 -0.13849620902E+02  0.28405078016E+02 -0.50651029623E+03  0.50749516317E+03  0.00000000000E+00 0. -1.
</event>
<event>
 4    1  0.6210801E+003  0.3489835E+02  0.7546771E-02  0.1381279E+00
          2   -1    0    0  502    0  0.00000000000E+00  0.00000000000E+00  0.54591836707E+02  0.54591836707E+02  0.00000000000E+00 0.  1.
          2   -1    0    0  501    0 -0.00000000000E+00 -0.00000000000E+00 -0.18488836902E+03  0.18488836902E+03  0.00000000000E+00 0.  1.
          2    1    1    2  501    0 -0.32787496821E+02  0.11953023205E+02  0.47135614854E+02  0.58648622313E+02  0.00000000000E+00 0.  1.
          2    1    1    2  502    0  0.32787496821E+02 -0.11953023205E+02 -0.17743214716E+03  0.18083158341E+03  0.00000000000E+00 0.  1.
</event>
<event>
 4    1  0.6210801E+003  0.2499931E+02  0.7546771E-02  0.1468811E+00
          2   -1    0    0  502    0  0.00000000000E+00  0.00000000000E+00  0.20672618763E+03  0.20672618763E+03  0.00000000000E+00 0. -1.
          2   -1    0    0  501    0 -0.00000000000E+00 -0.00000000000E+00 -0.41780551343E+02  0.41780551343E+02  0.00000000000E+00 0. -1.
          2    1    1    2  501    0  0.15396861568E+02 -0.19695233178E+02  0.20214642535E+03  0.20368638353E+03  0.00000000000E+00 0. -1.
          2    1    1    2  502    0 -0.15396861568E+02  0.19695233178E+02 -0.37200789054E+02  0.44820355446E+02  0.00000000000E+00 0. -1.
</event>
<event>
 4    1  0.6210801E+003  0.2018436E+02  0.7546771E-02  0.1531236E+00
          2   -1    0    0  501    0  0.00000000000E+00  0.00000000000E+00  0.21092461673E+03  0.21092461673E+03  0.00000000000E+00 0.  1.
          2   -1    0    0  502    0 -0.00000000000E+00 -0.00000000000E+00 -0.35182668131E+02  0.35182668131E+02  0.00000000000E+00 0.  1.
          2    1    1    2  501    0  0.17662171031E+02 -0.97701548940E+01 -0.31757155864E+02  0.37628781016E+02  0.00000000000E+00 0.  1.
          2    1    1    2  502    0 -0.17662171031E+02  0.97701548940E+01  0.20749910446E+03  0.20847850385E+03  0.00000000000E+00 0.  1.
</event>
<event>
 4    1  0.6210801E+003  0.3021011E+02  0.7546771E-02  0.1417779E+00
          2   -1    0    0  501    0  0.00000000000E+00  0.00000000000E+00  0.55507546725E+01  0.55507546725E+01  0.00000000000E+00 0. -1.
          2   -1    0    0  502    0 -0.00000000000E+00 -0.00000000000E+00 -0.46604261650E+03  0.46604261650E+03  0.00000000000E+00 0.  1.
          2    1    1    2  501    0  0.29945942018E+02  0.39864039010E+01 -0.41994158427E+03  0.42102682225E+03  0.00000000000E+00 0.  1.
          2    1    1    2  502    0 -0.29945942018E+02 -0.39864039010E+01 -0.40550277559E+02  0.50566548919E+02  0.00000000000E+00 0. -1.
</event>
<event>
 4    1  0.6210801E+003  0.2135203E+02  0.7546771E-02  0.1514298E+00
          2   -1    0    0  501    0  0.00000000000E+00  0.00000000000E+00  0.19732322505E+02  0.19732322505E+02  0.00000000000E+00 0. -1.
          2   -1    0    0  502    0 -0.00000000000E+00 -0.00000000000E+00 -0.26340022366E+03  0.26340022366E+03  0.00000000000E+00 0.  1.
          2    1    1    2  501    0 -0.10767494820E+02  0.18438280213E+02 -0.25704886008E+03  0.25793414972E+03  0.00000000000E+00 0.  1.
          2    1    1    2  502    0  0.10767494820E+02 -0.18438280213E+02  0.13380958924E+02  0.25198396449E+02  0.00000000000E+00 0. -1.
</event>
<event>
 4    1  0.6210801E+003  0.3574920E+02  0.7546771E-02  0.1375371E+00
          2   -1    0    0  502    0  0.00000000000E+00  0.00000000000E+00  0.11603087619E+02  0.11603087619E+02  0.00000000000E+00 0. -1.
          2   -1    0    0  501    0 -0.00000000000E+00 -0.00000000000E+00 -0.74863636732E+03  0.74863636732E+03  0.00000000000E+00 0. -1.
          2    1    1    2  501    0 -0.30498351367E+01 -0.35618870488E+02 -0.17471510189E+02  0.39790188458E+02  0.00000000000E+00 0. -1.
          2    1    1    2  502    0  0.30498351367E+01  0.35618870488E+02 -0.71956176951E+03  0.72044926648E+03  0.00000000000E+00 0. -1.
</event>
<event>
 4    1  0.6210801E+003  0.2552198E+02  0.7546771E-02  0.1463048E+00
          2   -1    0    0  502    0  0.00000000000E+00  0.00000000000E+00  0.69012004659E+03  0.69012004659E+03  0.00000000000E+00 0. -1.
          2   -1    0    0  501    0 -0.00000000000E+00 -0.00000000000E+00 -0.94397457076E+00  0.94397457076E+00  0.00000000000E+00 0. -1.
          2    1    1    2  501    0 -0.24130592743E+02 -0.83118078297E+01  0.34066164581E+03  0.34161634707E+03  0.00000000000E+00 0. -1.
          2    1    1    2  502    0  0.24130592743E+02  0.83118078297E+01  0.34851442620E+03  0.34944767409E+03  0.00000000000E+00 0. -1.
</event>
<event>
 4    1  0.6210801E+003  0.2028265E+02  0.7546771E-02  0.1529758E+00
          2   -1    0    0  502    0  0.00000000000E+00  0.00000000000E+00  0.89518332549E+01  0.89518332549E+01  0.00000000000E+00 0.  1.
          2   -1    0    0  501    0 -0.00000000000E+00 -0.00000000000E+00 -0.70832168014E+03  0.70832168014E+03  0.00000000000E+00 0.  1.
          2    1    1    2  501    0 -0.14077658463E+02 -0.14601553772E+02 -0.28773198124E+01  0.20485722092E+02  0.00000000000E+00 0.  1.
          2    1    1    2  502    0  0.14077658463E+02  0.14601553772E+02 -0.69649252707E+03  0.69678779130E+03  0.00000000000E+00 0.  1.
</event>
<event>
 4    1  0.6210801E+003  0.3760069E+02  0.7546771E-02  0.1363150E+00
          2   -1    0    0  502    0  0.00000000000E+00  0.00000000000E+00  0.54244689130E+01  0.54244689130E+01  0.00000000000E+00 0.  1.
          2   -1    0    0  501    0 -0.00000000000E+00 -0.00000000000E+00 -0.15739424473E+04  0.15739424473E+04  0.00000000000E+00 0.  1.
          2    1    1    2  501    0 -0.31953421744E+02 -0.19818940439E+02 -0.62916250096E+02  0.73295743993E+02  0.00000000000E+00 0.  1.
          2    1    1    2  502    0  0.31953421744E+02  0.19818940439E+02 -0.15056017283E+04  0.15060711723E+04  0.00000000000E+00 0.  1.
</event>
<event>
 4    1  0.6210801E+003  0.2043011E+02  0.7546771E-02  0.1527559E+00
          2   -1    0    0  502    0  0.00000000000E+00  0.00000000000E+00  0.94319798958E+00  0.94319798958E+00  0.00000000000E+00 0. -1.
          2   -1    0    0  501    0 -0.00000000000E+00 -0.00000000000E+00 -0.47481445369E+03  0.47481445369E+03  0.00000000000E+00 0.  1.
          2    1    1    2  501    0 -0.70038159606E+01 -0.19192081464E+02 -0.17490318228E+03  0.17609234112E+03  0.00000000000E+00 0. -1.
          2    1    1    2  502    0  0.70038159606E+01  0.19192081464E+02 -0.29896807342E+03  0.29966531056E+03  0.00000000000E+00 0.  1.
</event>
<event>
 4    1  0.6210801E+003  0.2102235E+02  0.7546771E-02  0.1518946E+00
          2   -1    0    0  501    0  0.00000000000E+00  0.00000000000E+00  0.75887858563E+03  0.75887858563E+03  0.00000000000E+00 0.  1.
          2   -1    0    0  502    0 -0.00000000000E+00 -0.00000000000E+00 -0.11217796137E+02  0.11217796137E+02  0.00000000000E+00 0. -1.
          2    1    1    2  501    0  0.20541114814E+02 -0.44723171183E+01 -0.10899506356E+01  0.21050582191E+02  0.00000000000E+00 0. -1.
          2    1    1    2  502    0 -0.20541114814E+02  0.44723171183E+01  0.74875074013E+03  0.74904579958E+03  0.00000000000E+00 0.  1.
</event>
<event>
 4    1  0.6210801E+003  0.4447257E+02  0.7546771E-02  0.1324098E+00
          2   -1    0    0  502    0  0.00000000000E+00  0.00000000000E+00  0.34701352817E+02  0.34701352817E+02  0.00000000000E+00 0. -1.
          2   -1    0    0  501    0 -0.00000000000E+00 -0.00000000000E+00 -0.81931334369E+02  0.81931334369E+02  0.00000000000E+00 0. -1.
          2    1    1    2  501    0  0.24349152465E+02  0.37214629661E+02  0.85571530702E+01  0.45288351209E+02  0.00000000000E+00 0. -1.
          2    1    1    2  502    0 -0.24349152465E+02 -0.37214629661E+02 -0.55787134622E+02  0.71344335977E+02  0.00000000000E+00 0. -1.
</event>
<event>
 4    1  0.6210801E+003  0.3083052E+02  0.7546771E-02  0.1412514E+00
          2   -1    0    0  501    0  0.00000000000E+00  0.00000000000E+00  0.13253373701E+04  0.13253373701E+04  0.00000000000E+00 0. -1.
          2   -1    0    0  502    0 -0.00000000000E+00 -0.00000000000E+00 -0.22411695795E+02  0.22411695795E+02  0.00000000000E+00 0.  1.
          2    1    1    2  501    0 -0.57682855071E+01  0.30286100381E+02 -0.11541772214E+02  0.32920107834E+02  0.00000000000E+00 0.  1.
          2    1    1    2  502    0  0.57682855071E+01 -0.30286100381E+02  0.13144674465E+04  0.13148289580E+04  0.00000000000E+00 0. -1.
</event>
<event>
 4    1  0.6210801E+003  0.2957702E+02  0.7546771E-02  0.1423308E+00
          2   -1    0    0  501    0  0.00000000000E+00  0.00000000000E+00  0.21571890973E+04  0.21571890973E+04  0.00000000000E+00 0.  1.
          2   -1    0    0  502    0 -0.00000000000E+00 -0.00000000000E+00 -0.91657159978E+02  0.91657159978E+02  0.00000000000E+00 0.  1.
          2    1    1    2  501    0  0.29191249703E+02  0.47614316268E+01 -0.89166954111E+02  0.93944377138E+02  0.00000000000E+00 0.  1.
          2    1    1    2  502    0 -0.29191249703E+02 -0.47614316268E+01  0.21546988915E+04  0.21549018802E+04  0.00000000000E+00 0.  1.
</event>
<event>
 4    1  0.6210801E+003  0.3299580E+02  0.7546771E-02  0.1395229E+00
          2   -1    0    0  502    0  0.00000000000E+00  0.00000000000E+00  0.13934773005E+04  0.13934773005E+04  0.00000000000E+00 0. -1.
          2   -1    0    0  501    0 -0.00000000000E+00 -0.00000000000E+00 -0.79445891810E+00  0.79445891810E+00  0.00000000000E+00 0. -1.
          2    1    1    2  501    0  0.17544091920E+02  0.27945080582E+02  0.60661814417E+03  0.60751485210E+03  0.00000000000E+00 0. -1.
          2    1    1    2  502    0 -0.17544091920E+02 -0.27945080582E+02  0.78606469740E+03  0.78675690730E+03  0.00000000000E+00 0. -1.
</event>
<event>
 4    1  0.6210801E+003  0.2069213E+02  0.7546771E-02  0.1523706E+00
          2   -1    0    0  502    0  0.00000000000E+00  0.00000000000E+00  0.19624647109E+01  0.19624647109E+01  0.00000000000E+00 0. -1.
          2   -1    0    0  501    0 -0.00000000000E+00 -0.00000000000E+00 -0.65513447692E+03  0.65513447692E+03  0.00000000000E+00 0.  1.
          2    1    1    2  501    0  0.13758503070E+02  0.15455346981E+02 -0.58265454330E+02  0.61830634198E+02  0.00000000000E+00 0. -1.
          2    1    1    2  502    0 -0.13758503070E+02 -0.15455346981E+02 -0.59490655787E+03  0.59526630743E+03  0.00000000000E+00 0.  1.
</event>
<event>
 4    1  0.6210801E+003  0.3841427E+02  0.7546771E-02  0.1358037E+00
          2   -1    0    0  502    0  0.00000000000E+00  0.00000000000E+00  0.22711028626E+01  0.22711028626E+01  0.00000000000E+00 0.  1.
          2   -1    0    0  501    0 -0.00000000000E+00 -0.00000000000E+00 -0.10001511002E+04  0.10001511002E+04  0.00000000000E+00 0.  1.
          2    1    1    2  501    0  0.35531816279E+02 -0.14599534348E+02 -0.20227342510E+03  0.20588879249E+03  0.00000000000E+00 0.  1.
          2    1    1    2  502    0 -0.35531816279E+02  0.14599534348E+02 -0.79560657227E+03  0.79653341061E+03  0.00000000000E+00 0.  1.
</event>
<event>
 4    1  0.6210801E+003  0.2281556E+02  0.7546771E-02  0.1494827E+00
          2   -1    0    0  501    0  0.00000000000E+00  0.00000000000E+00  0.16074521866E+03  0.16074521866E+03  0.00000000000E+00 0.  1.
          2   -1    0    0  502    0 -0.00000000000E+00 -0.00000000000E+00 -0.10838579202E+03  0.10838579202E+03  0.00000000000E+00 0. -1.
          2    1    1    2  501    0 -0.20413765331E+02  0.10189601069E+02 -0.10636027204E+03  0.10877985684E+03  0.00000000000E+00 0. -1.
          2    1    1    2  502    0  0.20413765331E+02 -0.10189601069E+02  0.15871969869E+03  0.16035115384E+03  0.00000000000E+00 0.  1.
</event>
<event>
 4    1  0.6210801E+003  0.3381889E+02  0.7546771E-02  0.1389062E+00
          2   -1    0    0  502    0  0.00000000000E+00  0.00000000000E+00  0.42665822474E+03  0.42665822474E+03  0.00000000000E+00 0. -1.
          2   -1    0    0  501    0 -0.00000000000E+00 -0.00000000000E+00 -0.45371238158E+01  0.45371238158E+01  0.00000000000E+00 0. -1.
          2    1    1    2  501    0  0.24601918913E+02  0.23204807662E+02  0.34897165212E+03  0.35060651947E+03  0.00000000000E+00 0. -1.
          2    1    1    2  502    0 -0.24601918913E+02 -0.23204807662E+02  0.73149448808E+02  0.80588829088E+02  0.00000000000E+00 0. -1.
</event>
<event>
 4    1  0.6210801E+003  0.2427753E+02  0.7546771E-02  0.1477050E+00
          2   -1    0    0  501    0  0.00000000000E+00  0.00000000000E+00  0.38744779619E+01  0.38744779619E+01  0.00000000000E+00 0. -1.
          2   -1    0    0  502    0 -0.00000000000E+00 -0.00000000000E+00 -0.16557771324E+04  0.16557771324E+04  0.00000000000E+00 0.  1.
          2    1    1    2  501    0 -0.21915415821E+02  0.10445716228E+02 -0.16167390646E+04  0.16169213344E+04  0.00000000000E+00 0.  1.
          2    1    1    2  502    0  0.21915415821E+02 -0.10445716228E+02 -0.35163589802E+02  0.42730275987E+02  0.00000000000E+00 0. -1.
</event>
<event>
 4    1  0.6210801E+003  0.2590330E+02  0.7546771E-02  0.1458947E+00
          2   -1    0    0  502    0  0.00000000000E+00  0.00000000000E+00  0.10948297917E+02  0.10948297917E+02  0.00000000000E+00 0. -1.
          2   -1    0    0  501    0 -0.00000000000E+00 -0.00000000000E+00 -0.86091739861E+03  0.86091739861E+03  0.00000000000E+00 0.  1.
          2    1    1    2  501    0 -0.19009291205E+02  0.17596245713E+02 -0.48545618885E+01  0.26354274538E+02  0.00000000000E+00 0. -1.
          2    1    1    2  502    0  0.19009291205E+02 -0.17596245713E+02 -0.84511453881E+03  0.84551142199E+03  0.00000000000E+00 0.  1.
</event>
<event>
 4    1  0.6210801E+003  0.4165377E+02  0.7546771E-02  0.1339058E+00
          2   -1    0    0  501    0  0.00000000000E+00  0.00000000000E+00  0.25826128742E+03  0.25826128742E+03  0.00000000000E+00 0. -1.
          2   -1    0    0  502    0 -0.00000000000E+00 -0.00000000000E+00 -0.17920294065E+03  0.17920294065E+03  0.00000000000E+00 0.  1.
          2    1    1    2  501    0 -0.24881429389E+02 -0.33405858637E+02 -0.17506374842E+03  0.17995097369E+03  0.00000000000E+00 0.  1.
          2    1    1    2  502    0  0.24881429389E+02  0.33405858637E+02  0.25412209519E+03  0.25751325439E+03  0.00000000000E+00 0. -1.
</event>
<event>
 4    1  0.6210801E+003  0.2061893E+02  0.7546771E-02  0.1524776E+00
          2   -1    0    0  501    0  0.00000000000E+00  0.00000000000E+00  0.38709493227E+00  0.38709493227E+00  0.00000000000E+00 0. -1.
          2   -1    0    0  502    0 -0.00000000000E+00 -0.00000000000E+00 -0.11135577312E+04  0.11135577312E+04  0.00000000000E+00 0.  1.
          2    1    1    2  501    0  0.19976946058E+02 -0.51050907626E+01 -0.62181484055E+03  0.62215660106E+03  0.00000000000E+00 0.  1.
          2    1    1    2  502    0 -0.19976946058E+02  0.51050907626E+01 -0.49135579576E+03  0.49178822511E+03  0.00000000000E+00 0. -1.
</event>
<event>
 4    1  0.6210801E+003  0.6455104E+02  0.7546771E-02  0.1245107E+00
          2   -1    0    0  501    0  0.00000000000E+00  0.00000000000E+00  0.40472223592E+03  0.40472223592E+03  0.00000000000E+00 0. -1.
          2   -1    0    0  502    0 -0.00000000000E+00 -0.00000000000E+00 -0.10295549112E+02  0.10295549112E+02  0.00000000000E+00 0. -1.
          2    1    1    2  501    0  0.14605801118E+02  0.62876927004E+02  0.19715946300E+03  0.20745768539E+03  0.00000000000E+00 0. -1.
          2    1    1    2  502    0 -0.14605801118E+02 -0.62876927004E+02  0.19726722381E+03  0.20756009964E+03  0.00000000000E+00 0. -1.
</event>
<event>
 4    1  0.6210801E+003  0.4497492E+02  0.7546771E-02  0.1321565E+00
          2   -1    0    0  502    0  0.00000000000E+00  0.00000000000E+00  0.19959828572E+03  0.19959828572E+03  0.00000000000E+00 0.  1.
          2   -1    0    0  501    0 -0.00000000000E+00 -0.00000000000E+00 -0.12004465087E+02  0.12004465087E+02  0.00000000000E+00 0.  1.
          2    1    1    2  501    0  0.16194499772E+02  0.41958088137E+02  0.13555942037E+03  0.14282541592E+03  0.00000000000E+00 0.  1.
          2    1    1    2  502    0 -0.16194499772E+02 -0.41958088137E+02  0.52034400268E+02  0.68777334888E+02  0.00000000000E+00 0.  1.
</event>
<event>
 4    1  0.6210801E+003  0.2145951E+02  0.7546771E-02  0.1512804E+00
          2   -1    0    0  501    0  0.00000000000E+00  0.00000000000E+00  0.12002412359E+03  0.12002412359E+03  0.00000000000E+00 0.  1.
          2   -1    0    0  502    0 -0.00000000000E+00 -0.00000000000E+00 -0.48530836750E+01  0.48530836750E+01  0.00000000000E+00 0.  1.
          2    1    1    2  501    0  0.93964715660E+01  0.19292925178E+02  0.29013031900E+02  0.36086931981E+02  0.00000000000E+00 0.  1.
          2    1    1    2  502    0 -0.93964715660E+01 -0.19292925178E+02  0.86158008013E+02  0.88790275281E+02  0.00000000000E+00 0.  1.
</event>
<event>
 4    1  0.6210801E+003  0.2240903E+02  0.7546771E-02  0.1500055E+00
          2   -1    0    0  501    0  0.00000000000E+00  0.00000000000E+00  0.17811703889E+03  0.17811703889E+03  0.00000000000E+00 0. -1.
          2   -1    0    0  502    0 -0.00000000000E+00 -0.00000000000E+00 -0.83868901416E+01  0.83868901416E+01  0.00000000000E+00 0. -1.
          2    1    1    2  501    0  0.13201741500E+02 -0.18107415791E+02  0.88864660581E+01  0.24106716165E+02  0.00000000000E+00 0. -1.
          2    1    1    2  502    0 -0.13201741500E+02  0.18107415791E+02  0.16084368269E+03  0.16239721286E+03  0.00000000000E+00 0. -1.
</event>
<event>
 4    1  0.6210801E+003  0.2015179E+02  0.7546771E-02  0.1531728E+00
          2   -1    0    0  502    0  0.00000000000E+00  0.00000000000E+00  0.45543446696E+02  0.45543446696E+02  0.00000000000E+00 0.  1.
          2   -1    0    0  501    0 -0.00000000000E+00 -0.00000000000E+00 -0.92664048783E+01  0.92664048783E+01  0.00000000000E+00 0.  1.
          2    1    1    2  501    0 -0.67654440584E-01 -0.20151673889E+02  0.12814241571E+02  0.23880940616E+02  0.00000000000E+00 0.  1.
          2    1    1    2  502    0  0.67654440584E-01  0.20151673889E+02  0.23462800246E+02  0.30928910958E+02  0.00000000000E+00 0.  1.
</event>
<event>
 4    1  0.6210801E+003  0.6114819E+02  0.7546771E-02  0.1255981E+00
          2   -1    0    0  502    0  0.00000000000E+00  0.00000000000E+00  0.14970163466E+03  0.14970163466E+03  0.00000000000E+00 0.  1.
          2   -1    0    0  501    0 -0.00000000000E+00 -0.00000000000E+00 -0.47778856182E+02  0.47778856182E+02  0.00000000000E+00 0.  1.
          2    1    1    2  501    0  0.59881520382E+02 -0.12381647910E+02  0.11917345110E+03  0.13394556034E+03  0.00000000000E+00 0.  1.
          2    1    1    2  502    0 -0.59881520382E+02  0.12381647910E+02 -0.17250672618E+02  0.63534930503E+02  0.00000000000E+00 0.  1.
</event>
<event>
 4    1  0.6210801E+003  0.3012281E+02  0.7546771E-02  0.1418532E+00
          2   -1    0    0  502    0  0.00000000000E+00  0.00000000000E+00  0.22054495872E+03  0.22054495872E+03  0.00000000000E+00 0. -1.
          2   -1    0    0  501    0 -0.00000000000E+00 -0.00000000000E+00 -0.69678557072E+03  0.69678557072E+03  0.00000000000E+00 0. -1.
          2    1    1    2  501    0 -0.29433292916E+02 -0.64081964727E+01  0.21918882327E+03  0.22124900895E+03  0.00000000000E+00 0. -1.
          2    1    1    2  502    0  0.29433292916E+02  0.64081964727E+01 -0.69542943527E+03  0.69608152048E+03  0.00000000000E+00 0. -1.
</event>
<event>
 4    1  0.6210801E+003  0.2854514E+02  0.7546771E-02  0.1432675E+00
          2   -1    0    0  502    0  0.00000000000E+00  0.00000000000E+00  0.34181481982E+02  0.34181481982E+02  0.00000000000E+00 0.  1.
          2   -1    0    0  501    0 -0.00000000000E+00 -0.00000000000E+00 -0.12491682131E+03  0.12491682131E+03  0.00000000000E+00 0.  1.
          2    1    1    2  501    0  0.42460213856E+01  0.28227584664E+02  0.26189759710E+02  0.38739240406E+02  0.00000000000E+00 0.  1.
          2    1    1    2  502    0 -0.42460213856E+01 -0.28227584664E+02 -0.11692509903E+03  0.12035906288E+03  0.00000000000E+00 0.  1.
</event>
<event>
 4    1  0.6210801E+003  0.2167390E+02  0.7546771E-02  0.1509857E+00
          2   -1    0    0  502    0  0.00000000000E+00  0.00000000000E+00  0.75792835985E+03  0.75792835985E+03  0.00000000000E+00 0. -1.
          2   -1    0    0  501    0 -0.00000000000E+00 -0.00000000000E+00 -0.26750002704E+02  0.26750002704E+02  0.00000000000E+00 0.  1.
          2    1    1    2  501    0 -0.75858689921E+01  0.20303021420E+02  0.75335651235E+03  0.75366822461E+03  0.00000000000E+00 0. -1.
          2    1    1    2  502    0  0.75858689921E+01 -0.20303021420E+02 -0.22178155202E+02  0.31010137944E+02  0.00000000000E+00 0.  1.
</event>
<event>
 4    1  0.6210801E+003  0.2173898E+02  0.7546771E-02  0.1508970E+00
          2   -1    0    0  501    0  0.00000000000E+00  0.00000000000E+00  0.20210023591E+03  0.20210023591E+03  0.00000000000E+00 0. -1.
          2   -1    0    0  502    0 -0.00000000000E+00 -0.00000000000E+00 -0.12027985475E+03  0.12027985475E+03  0.00000000000E+00 0. -1.
          2    1    1    2  501    0  0.59959278972E+01 -0.20895748541E+02 -0.11870531598E+03  0.12067947423E+03  0.00000000000E+00 0. -1.
          2    1    1    2  502    0 -0.59959278972E+01  0.20895748541E+02  0.20052569713E+03  0.20170061643E+03  0.00000000000E+00 0. -1.
</event>
<event>
 4    1  0.6210801E+003  0.2008016E+02  0.7546771E-02  0.1532814E+00
          2   -1    0    0  501    0  0.00000000000E+00  0.00000000000E+00  0.31785488598E+03  0.31785488598E+03  0.00000000000E+00 0. -1.
          2   -1    0    0  502    0 -0.00000000000E+00 -0.00000000000E+00 -0.19920322349E+03  0.19920322349E+03  0.00000000000E+00 0.  1.
          2    1    1    2  501    0 -0.17307035948E+02  0.10182311337E+02 -0.19837874059E+03  0.19939242131E+03  0.00000000000E+00 0.  1.
          2    1    1    2  502    0  0.17307035948E+02 -0.10182311337E+02  0.31703040308E+03  0.31766568816E+03  0.00000000000E+00 0. -1.
</event>
<event>
 4    1  0.6210801E+003  0.5814787E+02  0.7546771E-02  0.1266259E+00
          2   -1    0    0  501    0  0.00000000000E+00  0.00000000000E+00  0.80695450193E+02  0.80695450193E+02  0.00000000000E+00 0. -1.
          2   -1    0    0  502    0 -0.00000000000E+00 -0.00000000000E+00 -0.10326772062E+04  0.10326772062E+04  0.00000000000E+00 0. -1.
          2    1    1    2  501    0 -0.29585079511E+02 -0.50058945797E+02 -0.10212666063E+04  0.10229206499E+04  0.00000000000E+00 0. -1.
          2    1    1    2  502    0  0.29585079511E+02  0.50058945797E+02  0.69284850300E+02  0.90452006418E+02  0.00000000000E+00 0. -1.
</event>
<event>
 4    1  0.6210801E+003  0.2146482E+02  0.7546771E-02  0.1512731E+00
          2   -1    0    0  502    0  0.00000000000E+00  0.00000000000E+00  0.97909045046E+03  0.97909045046E+03  0.00000000000E+00 0.  1.
          2   -1    0    0  501    0 -0.00000000000E+00 -0.00000000000E+00 -0.48189491285E+00  0.48189491285E+00  0.00000000000E+00 0. -1.
          2    1    1    2  501    0  0.15739901558E+02  0.14594308727E+02  0.41424647300E+03  0.41480221641E+03  0.00000000000E+00 0. -1.
          2    1    1    2  502    0 -0.15739901558E+02 -0.14594308727E+02  0.56436208255E+03  0.56477012896E+03  0.00000000000E+00 0.  1.
</event>
<event>
 4    1  0.6210801E+003  0.2924425E+02  0.7546771E-02  0.1426280E+00
          2   -1    0    0  502    0  0.00000000000E+00  0.00000000000E+00  0.18496610489E+02  0.18496610489E+02  0.00000000000E+00 0. -1.
          2   -1    0    0  501    0 -0.00000000000E+00 -0.00000000000E+00 -0.11520787496E+03  0.11520787496E+03  0.00000000000E+00 0.  1.
          2    1    1    2  501    0  0.24411387927E+02 -0.16103113784E+02  0.33702665979E+01  0.29437812945E+02  0.00000000000E+00 0. -1.
          2    1    1    2  502    0 -0.24411387927E+02  0.16103113784E+02 -0.10008153107E+03  0.10426667251E+03  0.00000000000E+00 0.  1.
</event>
<event>
 4    1  0.6210801E+003  0.2558361E+02  0.7546771E-02  0.1462379E+00
          2   -1    0    0  501    0  0.00000000000E+00  0.00000000000E+00  0.55752851095E+02  0.55752851095E+02  0.00000000000E+00 0. -1.
          2   -1    0    0  502    0 -0.00000000000E+00 -0.00000000000E+00 -0.89143508576E+03  0.89143508576E+03  0.00000000000E+00 0.  1.
          2    1    1    2  501    0 -0.19755654935E+02  0.16255307849E+02 -0.88830627087E+03  0.88867460401E+03  0.00000000000E+00 0.  1.
          2    1    1    2  502    0  0.19755654935E+02 -0.16255307849E+02  0.52624036203E+02  0.58513332852E+02  0.00000000000E+00 0. -1.
</event>
<event>
 4    1  0.6210801E+003  0.2372780E+02  0.7546771E-02  0.1483556E+00
          2   -1    0    0  502    0  0.00000000000E+00  0.00000000000E+00  0.55489028041E+02  0.55489028041E+02  0.00000000000E+00 0. -1.
          2   -1    0    0  501    0 -0.00000000000E+00 -0.00000000000E+00 -0.30720341017E+02  0.30720341017E+02  0.00000000000E+00 0. -1.
          2    1    1    2  501    0 -0.14194267349E+01 -0.23685304068E+02  0.47659686164E+02  0.53239591342E+02  0.00000000000E+00 0. -1.
          2    1    1    2  502    0  0.14194267349E+01  0.23685304068E+02 -0.22890999139E+02  0.32969777716E+02  0.00000000000E+00 0. -1.
</event>
<event>
 4    1  0.6210801E+003  0.2623203E+02  0.7546771E-02  0.1455479E+00
          2   -1    0    0  501    0  0.00000000000E+00  0.00000000000E+00  0.95388545938E+02  0.95388545938E+02  0.00000000000E+00 0. -1.
          2   -1    0    0  502    0 -0.00000000000E+00 -0.00000000000E+00 -0.11545533642E+03  0.11545533642E+03  0.00000000000E+00 0. -1.
          2    1    1    2  501    0  0.24801536686E+02 -0.85441991307E+01 -0.11210874063E+03  0.11513682854E+03  0.00000000000E+00 0. -1.
          2    1    1    2  502    0 -0.24801536686E+02  0.85441991307E+01  0.92041950155E+02  0.95707053810E+02  0.00000000000E+00 0. -1.
</event>
<event>
 4    1  0.6210801E+003  0.2267706E+02  0.7546771E-02  0.1496594E+00
          2   -1    0    0  501    0  0.00000000000E+00  0.00000000000E+00  0.38494558435E+03  0.38494558435E+03  0.00000000000E+00 0.  1.
          2   -1    0    0  502    0 -0.00000000000E+00 -0.00000000000E+00 -0.25230118241E+02  0.25230118241E+02  0.00000000000E+00 0. -1.
          2    1    1    2  501    0 -0.54816212103E+01  0.22004564327E+02 -0.19726716230E+02  0.30056486081E+02  0.00000000000E+00 0. -1.
          2    1    1    2  502    0  0.54816212103E+01 -0.22004564327E+02  0.37944218233E+03  0.38011921651E+03  0.00000000000E+00 0.  1.
</event>
<event>
 4    1  0.6210801E+003  0.2308444E+02  0.7546771E-02  0.1491441E+00
          2   -1    0    0  501    0  0.00000000000E+00  0.00000000000E+00  0.21723557509E+02  0.21723557509E+02  0.00000000000E+00 0.  1.
          2   -1    0    0  502    0 -0.00000000000E+00 -0.00000000000E+00 -0.12076091175E+03  0.12076091175E+03  0.00000000000E+00 0. -1.
          2    1    1    2  501    0  0.19330559921E+02 -0.12618273969E+02 -0.11311475633E+03  0.11544626232E+03  0.00000000000E+00 0. -1.
          2    1    1    2  502    0 -0.19330559921E+02  0.12618273969E+02  0.14077402088E+02  0.27038206937E+02  0.00000000000E+00 0.  1.
</event>
<event>
 4    1  0.6210801E+003  0.2828639E+02  0.7546771E-02  0.1435097E+00
          2   -1    0    0  501    0  0.00000000000E+00  0.00000000000E+00  0.30432479812E+01  0.30432479812E+01  0.00000000000E+00 0.  1.
          2   -1    0    0  502    0 -0.00000000000E+00 -0.00000000000E+00 -0.54892642361E+03  0.54892642361E+03  0.00000000000E+00 0.  1.
          2    1    1    2  501    0  0.15922911569E+02 -0.23379061233E+02 -0.47215511506E+03  0.47300166205E+03  0.00000000000E+00 0.  1.
          2    1    1    2  502    0 -0.15922911569E+02  0.23379061233E+02 -0.73728060570E+02  0.78968009551E+02  0.00000000000E+00 0.  1.
</event>
<event>
 4    1  0.6210801E+003  0.2358851E+02  0.7546771E-02  0.1485237E+00
          2   -1    0    0  502    0  0.00000000000E+00  0.00000000000E+00  0.11858309170E+04  0.11858309170E+04  0.00000000000E+00 0.  1.
          2   -1    0    0  501    0 -0.00000000000E+00 -0.00000000000E+00 -0.18831778212E+01  0.18831778212E+01  0.00000000000E+00 0. -1.
          2    1    1    2  501    0 -0.18856723454E+02  0.14171870185E+02  0.11065553753E+04  0.11068067657E+04  0.00000000000E+00 0.  1.
          2    1    1    2  502    0  0.18856723454E+02 -0.14171870185E+02  0.77392363888E+02  0.80907329162E+02  0.00000000000E+00 0. -1.
</event>
<event>
 4    1  0.6210801E+003  0.2602881E+02  0.7546771E-02  0.1457616E+00
          2   -1    0    0  502    0  0.00000000000E+00  0.00000000000E+00  0.13148519705E+04  0.13148519705E+04  0.00000000000E+00 0. -1.
          2   -1    0    0  501    0 -0.00000000000E+00 -0.00000000000E+00 -0.34048841431E+01  0.34048841431E+01  0.00000000000E+00 0.  1.
          2    1    1    2  501    0 -0.15550846319E+02 -0.20872717676E+02  0.12629337508E+04  0.12632019467E+04  0.00000000000E+00 0. -1.
          2    1    1    2  502    0  0.15550846319E+02  0.20872717676E+02  0.48513335517E+02  0.55054907932E+02  0.00000000000E+00 0.  1.
</event>
<event>
 4    1  0.6210801E+003  0.2394919E+02  0.7546771E-02  0.1480911E+00
          2   -1    0    0  501    0  0.00000000000E+00  0.00000000000E+00  0.16661288992E+04  0.16661288992E+04  0.00000000000E+00 0. -1.
          2   -1    0    0  502    0 -0.00000000000E+00 -0.00000000000E+00 -0.50516094058E+02  0.50516094058E+02  0.00000000000E+00 0. -1.
          2    1    1    2  501    0  0.37159201647E+01 -0.23659157718E+02 -0.47586512004E+02  0.53273257187E+02  0.00000000000E+00 0. -1.
          2    1    1    2  502    0 -0.37159201647E+01  0.23659157718E+02  0.16631993172E+04  0.16633717361E+04  0.00000000000E+00 0. -1.
</event>
<event>
 4    1  0.6210801E+003  0.2265403E+02  0.7546771E-02  0.1496889E+00
          2   -1    0    0  502    0  0.00000000000E+00  0.00000000000E+00  0.15027122219E+03  0.15027122219E+03  0.00000000000E+00 0.  1.
          2   -1    0    0  501    0 -0.00000000000E+00 -0.00000000000E+00 -0.25431848861E+02  0.25431848861E+02  0.00000000000E+00 0. -1.
          2    1    1    2  501    0  0.22042334257E+02 -0.52288054864E+01  0.14415996041E+03  0.14592908926E+03  0.00000000000E+00 0.  1.
          2    1    1    2  502    0 -0.22042334257E+02  0.52288054864E+01 -0.19320587084E+02  0.29773981789E+02  0.00000000000E+00 0. -1.
</event>
<event>
 4    1  0.6210801E+003  0.2330843E+02  0.7546771E-02  0.1488661E+00
          2   -1    0    0  501    0  0.00000000000E+00  0.00000000000E+00  0.42354106711E+01  0.42354106711E+01  0.00000000000E+00 0.  1.
          2   -1    0    0  502    0 -0.00000000000E+00 -0.00000000000E+00 -0.14794767969E+04  0.14794767969E+04  0.00000000000E+00 0.  1.
          2    1    1    2  501    0  0.22511679778E+02  0.60421172280E+01 -0.14465880649E+04  0.14467758335E+04  0.00000000000E+00 0.  1.
          2    1    1    2  502    0 -0.22511679778E+02 -0.60421172280E+01 -0.28653321398E+02  0.36936374134E+02  0.00000000000E+00 0.  1.
</event>
<event>
 4    1  0.6210801E+003  0.3103079E+02  0.7546771E-02  0.1410845E+00
          2   -1    0    0  501    0  0.00000000000E+00  0.00000000000E+00  0.57174947176E+02  0.57174947176E+02  0.00000000000E+00 0. -1.
          2   -1    0    0  502    0 -0.00000000000E+00 -0.00000000000E+00 -0.48777961555E+02  0.48777961555E+02  0.00000000000E+00 0. -1.
          2    1    1    2  501    0 -0.29478560629E+02 -0.96914677371E+01 -0.38667676561E+02  0.49579222405E+02  0.00000000000E+00 0. -1.
          2    1    1    2  502    0  0.29478560629E+02  0.96914677371E+01  0.47064662182E+02  0.56373686326E+02  0.00000000000E+00 0. -1.
</event>
<event>
 4    1  0.6210801E+003  0.2615985E+02  0.7546771E-02  0.1456235E+00
          2   -1    0    0  501    0  0.00000000000E+00  0.00000000000E+00  0.26381707321E+03  0.26381707321E+03  0.00000000000E+00 0.  1.
          2   -1    0    0  502    0 -0.00000000000E+00 -0.00000000000E+00 -0.32440036440E+02  0.32440036440E+02  0.00000000000E+00 0.  1.
          2    1    1    2  501    0 -0.20171983406E+02  0.16656200139E+02 -0.26394295657E+02  0.37161764770E+02  0.00000000000E+00 0.  1.
          2    1    1    2  502    0  0.20171983406E+02 -0.16656200139E+02  0.25777133243E+03  0.25909534488E+03  0.00000000000E+00 0.  1.
</event>
<event>
 4    1  0.6210801E+003  0.2035635E+02  0.7546771E-02  0.1528656E+00
          2   -1    0    0  501    0  0.00000000000E+00  0.00000000000E+00  0.14953140947E+04  0.14953140947E+04  0.00000000000E+00 0. -1.
          2   -1    0    0  502    0 -0.00000000000E+00 -0.00000000000E+00 -0.12401130768E+01  0.12401130768E+01  0.00000000000E+00 0. -1.
          2    1    1    2  501    0 -0.13183013558E+02  0.15510936925E+02  0.87645314517E+02  0.89978231631E+02  0.00000000000E+00 0. -1.
          2    1    1    2  502    0  0.13183013558E+02 -0.15510936925E+02  0.14064286671E+04  0.14065759762E+04  0.00000000000E+00 0. -1.
</event>
<event>
 4    1  0.6210801E+003  0.2160926E+02  0.7546771E-02  0.1510741E+00
          2   -1    0    0  501    0  0.00000000000E+00  0.00000000000E+00  0.88694168849E+00  0.88694168849E+00  0.00000000000E+00 0.  1.
          2   -1    0    0  502    0 -0.00000000000E+00 -0.00000000000E+00 -0.57579472173E+03  0.57579472173E+03  0.00000000000E+00 0. -1.
          2    1    1    2  501    0 -0.19398980309E+02  0.95204769505E+01 -0.37183522853E+03  0.37246261168E+03  0.00000000000E+00 0. -1.
          2    1    1    2  502    0  0.19398980309E+02 -0.95204769505E+01 -0.20307255150E+03  0.20421905174E+03  0.00000000000E+00 0.  1.
</event>
<event>
 4    1  0.6210801E+003  0.2024351E+02  0.7546771E-02  0.1530345E+00
          2   -1    0    0  501    0  0.00000000000E+00  0.00000000000E+00  0.44371849489E+00  0.44371849489E+00  0.00000000000E+00 0.  1.
          2   -1    0    0  502    0 -0.00000000000E+00 -0.00000000000E+00 -0.99079744473E+03  0.99079744473E+03  0.00000000000E+00 0.  1.
          2    1    1    2  501    0  0.41861983676E+01  0.19805944883E+02 -0.36606404439E+03  0.36662335483E+03  0.00000000000E+00 0.  1.
          2    1    1    2  502    0 -0.41861983676E+01 -0.19805944883E+02 -0.62428968184E+03  0.62461780839E+03  0.00000000000E+00 0.  1.
</event>
<event>
 4    1  0.6210801E+003  0.2903766E+02  0.7546771E-02  0.1428147E+00
          2   -1    0    0  501    0  0.00000000000E+00  0.00000000000E+00  0.10542568481E+03  0.10542568481E+03  0.00000000000E+00 0.  1.
          2   -1    0    0  502    0 -0.00000000000E+00 -0.00000000000E+00 -0.12162308318E+04  0.12162308318E+04  0.00000000000E+00 0.  1.
          2    1    1    2  501    0  0.25187395057E+01 -0.28928215546E+02 -0.12140544497E+04  0.12144016603E+04  0.00000000000E+00 0.  1.
          2    1    1    2  502    0 -0.25187395057E+01  0.28928215546E+02  0.10324930268E+03  0.10725485634E+03  0.00000000000E+00 0.  1.
</event>
<event>
 4    1  0.6210801E+003  0.5769343E+02  0.7546771E-02  0.1267877E+00
          2   -1    0    0  501    0  0.00000000000E+00  0.00000000000E+00  0.39601091694E+01  0.39601091694E+01  0.00000000000E+00 0. -1.
          2   -1    0    0  502    0 -0.00000000000E+00 -0.00000000000E+00 -0.13277456904E+04  0.13277456904E+04  0.00000000000E+00 0.  1.
          2    1    1    2  501    0  0.23098813813E+02 -0.52867542566E+02 -0.10652483432E+04  0.10668095261E+04  0.00000000000E+00 0.  1.
          2    1    1    2  502    0 -0.23098813813E+02  0.52867542566E+02 -0.25853723798E+03  0.26489627344E+03  0.00000000000E+00 0. -1.
</event>
<event>
 4    1  0.6210801E+003  0.2689823E+02  0.7546771E-02  0.1448633E+00
          2   -1    0    0  502    0  0.00000000000E+00  0.00000000000E+00  0.34686034173E+01  0.34686034173E+01  0.00000000000E+00 0. -1.
          2   -1    0    0  501    0 -0.00000000000E+00 -0.00000000000E+00 -0.32868392199E+03  0.32868392199E+03  0.00000000000E+00 0. -1.
          2    1    1    2  501    0  0.98154711061E+01 -0.25043393724E+02 -0.62220228538E+02  0.67785484298E+02  0.00000000000E+00 0. -1.
          2    1    1    2  502    0 -0.98154711061E+01  0.25043393724E+02 -0.26299509004E+03  0.26436704111E+03  0.00000000000E+00 0. -1.
</event>
<event>
 4    1  0.6210801E+003  0.2597825E+02  0.7546771E-02  0.1458151E+00
          2   -1    0    0  501    0  0.00000000000E+00  0.00000000000E+00  0.16288562762E+02  0.16288562762E+02  0.00000000000E+00 0.  1.
          2   -1    0    0  502    0 -0.00000000000E+00 -0.00000000000E+00 -0.30874620172E+03  0.30874620172E+03  0.00000000000E+00 0. -1.
          2    1    1    2  501    0  0.25399108817E+02 -0.54547737351E+01 -0.29744906724E+03  0.29858134048E+03  0.00000000000E+00 0. -1.
          2    1    1    2  502    0 -0.25399108817E+02  0.54547737351E+01  0.49914282753E+01  0.26453424002E+02  0.00000000000E+00 0.  1.
</event>
<event>
 4    1  0.6210801E+003  0.2240461E+02  0.7546771E-02  0.1500113E+00
          2   -1    0    0  501    0  0.00000000000E+00  0.00000000000E+00  0.15731195823E+03  0.15731195823E+03  0.00000000000E+00 0. -1.
          2   -1    0    0  502    0 -0.00000000000E+00 -0.00000000000E+00 -0.15081355496E+02  0.15081355496E+02  0.00000000000E+00 0. -1.
          2    1    1    2  501    0 -0.20846314862E+02 -0.82096233598E+01 -0.54213532803E+01  0.23051200195E+02  0.00000000000E+00 0. -1.
          2    1    1    2  502    0  0.20846314862E+02  0.82096233598E+01  0.14765195602E+03  0.14934211353E+03  0.00000000000E+00 0. -1.
</event>
<event>
 4    1  0.6210801E+003  0.4035460E+02  0.7546771E-02  0.1346420E+00
          2   -1    0    0  502    0  0.00000000000E+00  0.00000000000E+00  0.26220877107E+04  0.26220877107E+04  0.00000000000E+00 0.  1.
          2   -1    0    0  501    0 -0.00000000000E+00 -0.00000000000E+00 -0.69263828763E+00  0.69263828763E+00  0.00000000000E+00 0. -1.
          2    1    1    2  501    0 -0.28608369272E+02 -0.28461466428E+02  0.17322446386E+04  0.17327146280E+04  0.00000000000E+00 0. -1.
          2    1    1    2  502    0  0.28608369272E+02  0.28461466428E+02  0.88915043380E+03  0.89006572105E+03  0.00000000000E+00 0.  1.
</event>
<event>
 4    1  0.6210801E+003  0.3171001E+02  0.7546771E-02  0.1405296E+00
          2   -1    0    0  502    0  0.00000000000E+00  0.00000000000E+00  0.11607246828E+02  0.11607246828E+02  0.00000000000E+00 0. -1.
          2   -1    0    0  501    0 -0.00000000000E+00 -0.00000000000E+00 -0.87296880117E+02  0.87296880117E+02  0.00000000000E+00 0. -1.
          2    1    1    2  501    0 -0.74505879804E+01 -0.30822284201E+02 -0.33519414487E+02  0.46141907332E+02  0.00000000000E+00 0. -1.
          2    1    1    2  502    0  0.74505879804E+01  0.30822284201E+02 -0.42170218802E+02  0.52762219612E+02  0.00000000000E+00 0. -1.
</event>
<event>
 4    1  0.6210801E+003  0.2412924E+02  0.7546771E-02  0.1478785E+00
          2   -1    0    0  501    0  0.00000000000E+00  0.00000000000E+00  0.30377149069E+02  0.30377149069E+02  0.00000000000E+00 0. -1.
          2   -1    0    0  502    0 -0.00000000000E+00 -0.00000000000E+00 -0.83350829651E+02  0.83350829651E+02  0.00000000000E+00 0. -1.
          2    1    1    2  501    0 -0.23344237667E+02 -0.61046495382E+01 -0.76386461673E+02  0.80106876766E+02  0.00000000000E+00 0. -1.
          2    1    1    2  502    0  0.23344237667E+02  0.61046495382E+01  0.23412781090E+02  0.33621101954E+02  0.00000000000E+00 0. -1.
</event>
<event>
 4    1  0.6210801E+003  0.2074243E+02  0.7546771E-02  0.1522974E+00
          2   -1    0    0  501    0  0.00000000000E+00  0.00000000000E+00  0.50314837653E+02  0.50314837653E+02  0.00000000000E+00 0. -1.
          2   -1    0    0  502    0 -0.00000000000E+00 -0.00000000000E+00 -0.16844628618E+02  0.16844628618E+02  0.00000000000E+00 0. -1.
          2    1    1    2  501    0  0.12328615028E+02  0.16680935922E+02 -0.68270819480E+01  0.21837065272E+02  0.00000000000E+00 0. -1.
          2    1    1    2  502    0 -0.12328615028E+02 -0.16680935922E+02  0.40297290983E+02  0.45322400999E+02  0.00000000000E+00 0. -1.
</event>
<event>
 4    1  0.6210801E+003  0.2271016E+02  0.7546771E-02  0.1496170E+00
          2   -1    0    0  502    0  0.00000000000E+00  0.00000000000E+00  0.19917172225E+03  0.19917172225E+03  0.00000000000E+00 0.  1.
          2   -1    0    0  501    0 -0.00000000000E+00 -0.00000000000E+00 -0.17288925303E+03  0.17288925303E+03  0.00000000000E+00 0. -1.
          2    1    1    2  501    0  0.16872332229E+02 -0.15201170789E+02  0.19777331366E+03  0.19907293836E+03  0.00000000000E+00 0.  1.
          2    1    1    2  502    0 -0.16872332229E+02  0.15201170789E+02 -0.17149084444E+03  0.17298803692E+03  0.00000000000E+00 0. -1.
</event>
<event>
 4    1  0.6210801E+003  0.2046294E+02  0.7546771E-02  0.1527073E+00
          2   -1    0    0  501    0  0.00000000000E+00  0.00000000000E+00  0.11451457972E+03  0.11451457972E+03  0.00000000000E+00 0. -1.
          2   -1    0    0  502    0 -0.00000000000E+00 -0.00000000000E+00 -0.75487496429E+01  0.75487496429E+01  0.00000000000E+00 0. -1.
          2    1    1    2  501    0  0.47241349565E+01 -0.19910161946E+02  0.96587702349E+01  0.22627943836E+02  0.00000000000E+00 0. -1.
          2    1    1    2  502    0 -0.47241349565E+01  0.19910161946E+02  0.97307059846E+02  0.99435385531E+02  0.00000000000E+00 0. -1.
</event>
<event>
 4    1  0.6210801E+003  0.2117627E+02  0.7546771E-02  0.1516763E+00
          2   -1    0    0  501    0  0.00000000000E+00  0.00000000000E+00  0.82649617773E+02  0.82649617773E+02  0.00000000000E+00 0.  1.
          2   -1    0    0  502    0 -0.00000000000E+00 -0.00000000000E+00 -0.82593083942E+03  0.82593083942E+03  0.00000000000E+00 0.  1.
          2    1    1    2  501    0  0.20877876270E+02  0.35423947911E+01 -0.82443621292E+03  0.82470813228E+03  0.00000000000E+00 0.  1.
          2    1    1    2  502    0 -0.20877876270E+02 -0.35423947911E+01  0.81154991270E+02  0.83872324913E+02  0.00000000000E+00 0.  1.
</event>
<event>
 4    1  0.6210801E+003  0.3261919E+02  0.7546771E-02  0.1398121E+00
          2   -1    0    0  501    0  0.00000000000E+00  0.00000000000E+00  0.17275816309E+01  0.17275816309E+01  0.00000000000E+00 0.  1.
          2   -1    0    0  502    0 -0.00000000000E+00 -0.00000000000E+00 -0.10238576333E+04  0.10238576333E+04  0.00000000000E+00 0.  1.
          2    1    1    2  501    0 -0.20740341544E+01  0.32553188177E+02 -0.83475653178E+03  0.83539360725E+03  0.00000000000E+00 0.  1.
          2    1    1    2  502    0  0.20740341544E+01 -0.32553188177E+02 -0.18737351991E+03  0.19019160770E+03  0.00000000000E+00 0.  1.
</event>
<event>
 4    1  0.6210801E+003  0.2297474E+02  0.7546771E-02  0.1492816E+00
          2   -1    0    0  502    0  0.00000000000E+00  0.00000000000E+00  0.12898329242E+04  0.12898329242E+04  0.00000000000E+00 0. -1.
          2   -1    0    0  501    0 -0.00000000000E+00 -0.00000000000E+00 -0.56585887436E+00  0.56585887436E+00  0.00000000000E+00 0.  1.
          2    1    1    2  501    0  0.16835889742E+02  0.15633025355E+02  0.98408323646E+03  0.98435138794E+03  0.00000000000E+00 0. -1.
          2    1    1    2  502    0 -0.16835889742E+02 -0.15633025355E+02  0.30518382889E+03  0.30604739515E+03  0.00000000000E+00 0.  1.
</event>
<event>
 4    1  0.6210801E+003  0.2207442E+02  0.7546771E-02  0.1504460E+00
          2   -1    0    0  502    0  0.00000000000E+00  0.00000000000E+00  0.18639990552E+02  0.18639990552E+02  0.00000000000E+00 0. -1.
          2   -1    0    0  501    0 -0.00000000000E+00 -0.00000000000E+00 -0.13020998543E+04  0.13020998543E+04  0.00000000000E+00 0.  1.
          2    1    1    2  501    0  0.24857394791E+01 -0.21934019204E+02  0.11977411675E+02  0.25114507553E+02  0.00000000000E+00 0. -1.
          2    1    1    2  502    0 -0.24857394791E+01  0.21934019204E+02 -0.12954372754E+04  0.12956253373E+04  0.00000000000E+00 0.  1.
</event>
<event>
 4    1  0.6210801E+003  0.2111388E+02  0.7546771E-02  0.1517645E+00
          2   -1    0    0  501    0  0.00000000000E+00  0.00000000000E+00  0.30317297445E+03  0.30317297445E+03  0.00000000000E+00 0.  1.
          2   -1    0    0  502    0 -0.00000000000E+00 -0.00000000000E+00 -0.43322056339E+02  0.43322056339E+02  0.00000000000E+00 0. -1.
          2    1    1    2  501    0  0.20345563628E+02 -0.56439401075E+01 -0.40356496662E+02  0.45546051883E+02  0.00000000000E+00 0. -1.
          2    1    1    2  502    0 -0.20345563628E+02  0.56439401075E+01  0.30020741478E+03  0.30094897891E+03  0.00000000000E+00 0.  1.
</event>
<event>
 4    1  0.6210801E+003  0.2794651E+02  0.7546771E-02  0.1438325E+00
          2   -1    0    0  502    0  0.00000000000E+00  0.00000000000E+00  0.88710681342E+03  0.88710681342E+03  0.00000000000E+00 0.  1.
          2   -1    0    0  501    0 -0.00000000000E+00 -0.00000000000E+00 -0.10684087587E+01  0.10684087587E+01  0.00000000000E+00 0. -1.
          2    1    1    2  501    0  0.13575789233E+02  0.24427558761E+02  0.62930960730E+03  0.62992982904E+03  0.00000000000E+00 0.  1.
          2    1    1    2  502    0 -0.13575789233E+02 -0.24427558761E+02  0.25672879736E+03  0.25824539313E+03  0.00000000000E+00 0. -1.
</event>
<event>
 4    1  0.6210801E+003  0.2785093E+02  0.7546771E-02  0.1439243E+00
          2   -1    0    0  502    0  0.00000000000E+00  0.00000000000E+00  0.36489937385E+03  0.36489937385E+03  0.00000000000E+00 0. -1.
          2   -1    0    0  501    0 -0.00000000000E+00 -0.00000000000E+00 -0.33291373453E+01  0.33291373453E+01  0.00000000000E+00 0.  1.
          2    1    1    2  501    0  0.25161246175E+02 -0.11940942121E+02  0.29148048434E+03  0.29280803807E+03  0.00000000000E+00 0. -1.
          2    1    1    2  502    0 -0.25161246175E+02  0.11940942121E+02  0.70089752165E+02  0.75420473125E+02  0.00000000000E+00 0.  1.
</event>
<event>
 4    1  0.6210801E+003  0.2164252E+02  0.7546771E-02  0.1510286E+00
          2   -1    0    0  501    0  0.00000000000E+00  0.00000000000E+00  0.11672894289E+03  0.11672894289E+03  0.00000000000E+00 0. -1.
          2   -1    0    0  502    0 -0.00000000000E+00 -0.00000000000E+00 -0.23876780730E+02  0.23876780730E+02  0.00000000000E+00 0. -1.
          2    1    1    2  501    0 -0.20554940174E+02  0.67744405157E+01 -0.17697728933E+02  0.27957257005E+02  0.00000000000E+00 0. -1.
          2    1    1    2  502    0  0.20554940174E+02 -0.67744405157E+01  0.11054989109E+03  0.11264846661E+03  0.00000000000E+00 0. -1.
</event>
<event>
 4    1  0.6210801E+003  0.5268451E+02  0.7546771E-02  0.1286935E+00
          2   -1    0    0  501    0  0.00000000000E+00  0.00000000000E+00  0.64984128428E+03  0.64984128428E+03  0.00000000000E+00 0. -1.
          2   -1    0    0  502    0 -0.00000000000E+00 -0.00000000000E+00 -0.14249962658E+04  0.14249962658E+04  0.00000000000E+00 0. -1.
          2    1    1    2  501    0 -0.26557648672E+02 -0.45501087682E+02 -0.14234403188E+04  0.14244149673E+04  0.00000000000E+00 0. -1.
          2    1    1    2  502    0  0.26557648672E+02  0.45501087682E+02  0.64828533730E+03  0.65042258282E+03  0.00000000000E+00 0. -1.
</event>
<event>
 4    1  0.6210801E+003  0.3306984E+02  0.7546771E-02  0.1394665E+00
          2   -1    0    0  502    0  0.00000000000E+00  0.00000000000E+00  0.20439379466E+03  0.20439379466E+03  0.00000000000E+00 0.  1.
          2   -1    0    0  501    0 -0.00000000000E+00 -0.00000000000E+00 -0.17483278845E+03  0.17483278845E+03  0.00000000000E+00 0.  1.
          2    1    1    2  501    0  0.13379887035E+01 -0.33042762450E+02  0.20146981771E+03  0.20416586839E+03  0.00000000000E+00 0.  1.
          2    1    1    2  502    0 -0.13379887035E+01  0.33042762450E+02 -0.17190881151E+03  0.17506071472E+03  0.00000000000E+00 0.  1.
</event>
<event>
 4    1  0.6210801E+003  0.2773031E+02  0.7546771E-02  0.1440407E+00
          2   -1    0    0  502    0  0.00000000000E+00  0.00000000000E+00  0.18017154207E+02  0.18017154207E+02  0.00000000000E+00 0. -1.
          2   -1    0    0  501    0 -0.00000000000E+00 -0.00000000000E+00 -0.57848678071E+02  0.57848678071E+02  0.00000000000E+00 0. -1.
          2    1    1    2  501    0 -0.27672408014E+02 -0.17911335242E+01 -0.49148674705E+00  0.27734669348E+02  0.00000000000E+00 0. -1.
          2    1    1    2  502    0  0.27672408014E+02  0.17911335242E+01 -0.39340037117E+02  0.48131162930E+02  0.00000000000E+00 0. -1.
</event>
<event>
 4    1  0.6210801E+003  0.2422484E+02  0.7546771E-02  0.1477665E+00
          2   -1    0    0  502    0  0.00000000000E+00  0.00000000000E+00  0.20408857136E+03  0.20408857136E+03  0.00000000000E+00 0.  1.
          2   -1    0    0  501    0 -0.00000000000E+00 -0.00000000000E+00 -0.86023502432E+01  0.86023502432E+01  0.00000000000E+00 0. -1.
          2    1    1    2  501    0  0.90737006948E+01  0.22461323299E+02  0.18451335815E+03  0.18609680928E+03  0.00000000000E+00 0.  1.
          2    1    1    2  502    0 -0.90737006948E+01 -0.22461323299E+02  0.10972862970E+02  0.26594112326E+02  0.00000000000E+00 0. -1.
</event>
<event>
 4    1  0.6210801E+003  0.2018964E+02  0.7546771E-02  0.1531156E+00
          2   -1    0    0  501    0  0.00000000000E+00  0.00000000000E+00  0.12944587871E+03  0.12944587871E+03  0.00000000000E+00 0.  1.
          2   -1    0    0  502    0 -0.00000000000E+00 -0.00000000000E+00 -0.21573350595E+02  0.21573350595E+02  0.00000000000E+00 0.  1.
          2    1    1    2  501    0  0.82147021598E+01 -0.18442894770E+02 -0.15845164326E+02  0.25664974802E+02  0.00000000000E+00 0.  1.
          2    1    1    2  502    0 -0.82147021598E+01  0.18442894770E+02  0.12371769244E+03  0.12535425450E+03  0.00000000000E+00 0.  1.
</event>
<event>
 4    1  0.6210801E+003  0.2035866E+02  0.7546771E-02  0.1528622E+00
          2   -1    0    0  502    0  0.00000000000E+00  0.00000000000E+00  0.38237503606E+01  0.38237503606E+01  0.00000000000E+00 0.  1.
          2   -1    0    0  501    0 -0.00000000000E+00 -0.00000000000E+00 -0.32675444570E+03  0.32675444570E+03  0.00000000000E+00 0.  1.
          2    1    1    2  501    0  0.12431154965E+02 -0.16122695397E+02 -0.26345365658E+02  0.33294942743E+02  0.00000000000E+00 0.  1.
          2    1    1    2  502    0 -0.12431154965E+02  0.16122695397E+02 -0.29658532968E+03  0.29728325332E+03  0.00000000000E+00 0.  1.
</event>
<event>
 4    1  0.6210801E+003  0.2475426E+02  0.7546771E-02  0.1471571E+00
          2   -1    0    0  502    0  0.00000000000E+00  0.00000000000E+00  0.73080523091E+03  0.73080523091E+03  0.00000000000E+00 0. -1.
          2   -1    0    0  501    0 -0.00000000000E+00 -0.00000000000E+00 -0.43711943841E+01  0.43711943841E+01  0.00000000000E+00 0. -1.
          2    1    1    2  501    0  0.16714891462E+02 -0.18258856713E+02  0.69367414135E+03  0.69411568763E+03  0.00000000000E+00 0. -1.
          2    1    1    2  502    0 -0.16714891462E+02  0.18258856713E+02  0.32759895176E+02  0.41060737658E+02  0.00000000000E+00 0. -1.
</event>
<event>
 4    1  0.6210801E+003  0.3470842E+02  0.7546771E-02  0.1382625E+00
          2   -1    0    0  502    0  0.00000000000E+00  0.00000000000E+00  0.59917211339E+01  0.59917211339E+01  0.00000000000E+00 0.  1.
          2   -1    0    0  501    0 -0.00000000000E+00 -0.00000000000E+00 -0.18221782547E+04  0.18221782547E+04  0.00000000000E+00 0. -1.
          2    1    1    2  501    0  0.13297684316E+02 -0.32060042816E+02 -0.45911255198E+02  0.57554479473E+02  0.00000000000E+00 0.  1.
          2    1    1    2  502    0 -0.13297684316E+02  0.32060042816E+02 -0.17702752784E+04  0.17706154964E+04  0.00000000000E+00 0. -1.
</event>
<event>
 4    1  0.6210801E+003  0.2021149E+02  0.7546771E-02  0.1530827E+00
          2   -1    0    0  502    0  0.00000000000E+00  0.00000000000E+00  0.55236353053E+03  0.55236353053E+03  0.00000000000E+00 0.  1.
          2   -1    0    0  501    0 -0.00000000000E+00 -0.00000000000E+00 -0.73053606745E+01  0.73053606745E+01  0.00000000000E+00 0.  1.
          2    1    1    2  501    0 -0.19987292807E+02 -0.30020733188E+01  0.53782116623E+03  0.53820080933E+03  0.00000000000E+00 0.  1.
          2    1    1    2  502    0  0.19987292807E+02  0.30020733188E+01  0.72370036267E+01  0.21468081876E+02  0.00000000000E+00 0.  1.
</event>
<event>
 4    1  0.6210801E+003  0.2347886E+02  0.7546771E-02  0.1486571E+00
          2   -1    0    0  502    0  0.00000000000E+00  0.00000000000E+00  0.14541425348E+02  0.14541425348E+02  0.00000000000E+00 0.  1.
          2   -1    0    0  501    0 -0.00000000000E+00 -0.00000000000E+00 -0.75275840625E+02  0.75275840625E+02  0.00000000000E+00 0. -1.
          2    1    1    2  501    0  0.11058636127E+02 -0.20711429529E+02  0.12732589540E+01  0.23513356513E+02  0.00000000000E+00 0.  1.
          2    1    1    2  502    0 -0.11058636127E+02  0.20711429529E+02 -0.62007674231E+02  0.66303909460E+02  0.00000000000E+00 0. -1.
</event>
<event>
 4    1  0.6210801E+003  0.2494398E+02  0.7546771E-02  0.1469431E+00
          2   -1    0    0  502    0  0.00000000000E+00  0.00000000000E+00  0.13394526373E+02  0.13394526373E+02  0.00000000000E+00 0. -1.
          2   -1    0    0  501    0 -0.00000000000E+00 -0.00000000000E+00 -0.16921229263E+04  0.16921229263E+04  0.00000000000E+00 0.  1.
          2    1    1    2  501    0  0.16983492302E+02 -0.18269187832E+02  0.16081533176E+01  0.24995767480E+02  0.00000000000E+00 0. -1.
          2    1    1    2  502    0 -0.16983492302E+02  0.18269187832E+02 -0.16803365532E+04  0.16805216852E+04  0.00000000000E+00 0.  1.
</event>
<event>
 4    1  0.6210801E+003  0.2066942E+02  0.7546771E-02  0.1524037E+00
          2   -1    0    0  501    0  0.00000000000E+00  0.00000000000E+00  0.11364361723E+04  0.11364361723E+04  0.00000000000E+00 0.  1.
          2   -1    0    0  502    0 -0.00000000000E+00 -0.00000000000E+00 -0.13780304655E+01  0.13780304655E+01  0.00000000000E+00 0. -1.
          2    1    1    2  501    0  0.19155838499E+02 -0.77639526982E+01  0.82389512281E+02  0.84942667983E+02  0.00000000000E+00 0. -1.
          2    1    1    2  502    0 -0.19155838499E+02  0.77639526982E+01  0.10526686295E+04  0.10528715348E+04  0.00000000000E+00 0.  1.
</event>
<event>
 4    1  0.6210801E+003  0.2152702E+02  0.7546771E-02  0.1511872E+00
          2   -1    0    0  502    0  0.00000000000E+00  0.00000000000E+00  0.21889998297E+01  0.21889998297E+01  0.00000000000E+00 0. -1.
          2   -1    0    0  501    0 -0.00000000000E+00 -0.00000000000E+00 -0.35373923035E+03  0.35373923035E+03  0.00000000000E+00 0.  1.
          2    1    1    2  501    0  0.15191407902E+02 -0.15252340843E+02 -0.63005025567E+02  0.66581123616E+02  0.00000000000E+00 0. -1.
          2    1    1    2  502    0 -0.15191407902E+02  0.15252340843E+02 -0.28854520495E+03  0.28934710656E+03  0.00000000000E+00 0.  1.
</event>
<event>
 4    1  0.6210801E+003  0.3120260E+02  0.7546771E-02  0.1409426E+00
          2   -1    0    0  501    0  0.00000000000E+00  0.00000000000E+00  0.81815227374E+03  0.81815227374E+03  0.00000000000E+00 0.  1.
          2   -1    0    0  502    0 -0.00000000000E+00 -0.00000000000E+00 -0.12876359092E+01  0.12876359092E+01  0.00000000000E+00 0. -1.
          2    1    1    2  501    0  0.12391438505E+02  0.28636596195E+02  0.29561074739E+03  0.29725295013E+03  0.00000000000E+00 0. -1.
          2    1    1    2  502    0 -0.12391438505E+02 -0.28636596195E+02  0.52125389044E+03  0.52218695952E+03  0.00000000000E+00 0.  1.
</event>
<event>
 4    1  0.6210801E+003  0.2074883E+02  0.7546771E-02  0.1522881E+00
          2   -1    0    0  502    0  0.00000000000E+00  0.00000000000E+00  0.27803356916E+01  0.27803356916E+01  0.00000000000E+00 0.  1.
          2   -1    0    0  501    0 -0.00000000000E+00 -0.00000000000E+00 -0.14777027958E+04  0.14777027958E+04  0.00000000000E+00 0.  1.
          2    1    1    2  501    0 -0.13759594771E+02  0.15530208935E+02 -0.37076081600E+02  0.42487052906E+02  0.00000000000E+00 0.  1.
          2    1    1    2  502    0  0.13759594771E+02 -0.15530208935E+02 -0.14378463785E+04  0.14379960785E+04  0.00000000000E+00 0.  1.
</event>
<event>
 4    1  0.6210801E+003  0.2607225E+02  0.7546771E-02  0.1457157E+00
          2   -1    0    0  501    0  0.00000000000E+00  0.00000000000E+00  0.69665207342E+02  0.69665207342E+02  0.00000000000E+00 0.  1.
          2   -1    0    0  502    0 -0.00000000000E+00 -0.00000000000E+00 -0.29728055008E+02  0.29728055008E+02  0.00000000000E+00 0. -1.
          2    1    1    2  501    0 -0.58173749205E+01  0.25414964636E+02 -0.20763649587E+02  0.33330037842E+02  0.00000000000E+00 0. -1.
          2    1    1    2  502    0  0.58173749205E+01 -0.25414964636E+02  0.60700801921E+02  0.66063224507E+02  0.00000000000E+00 0.  1.
</event>
<event>
 4    1  0.6210801E+003  0.2008577E+02  0.7546771E-02  0.1532729E+00
          2   -1    0    0  502    0  0.00000000000E+00  0.00000000000E+00  0.66002979360E+03  0.66002979360E+03  0.00000000000E+00 0. -1.
          2   -1    0    0  501    0 -0.00000000000E+00 -0.00000000000E+00 -0.25192543710E+01  0.25192543710E+01  0.00000000000E+00 0. -1.
          2    1    1    2  501    0 -0.21021405824E+01  0.19975467355E+02  0.61705388677E+03  0.61738070707E+03  0.00000000000E+00 0. -1.
          2    1    1    2  502    0  0.21021405824E+01 -0.19975467355E+02  0.40456652458E+02  0.45168340895E+02  0.00000000000E+00 0. -1.
</event>
<event>
 4    1  0.6210801E+003  0.3201574E+02  0.7546771E-02  0.1402852E+00
          2   -1    0    0  501    0  0.00000000000E+00  0.00000000000E+00  0.11316318234E+02  0.11316318234E+02  0.00000000000E+00 0.  1.
          2   -1    0    0  502    0 -0.00000000000E+00 -0.00000000000E+00 -0.19734359755E+03  0.19734359755E+03  0.00000000000E+00 0.  1.
          2    1    1    2  501    0  0.30838999977E+02  0.86002308226E+01 -0.16975216755E+03  0.17274491679E+03  0.00000000000E+00 0.  1.
          2    1    1    2  502    0 -0.30838999977E+02 -0.86002308226E+01 -0.16275111772E+02  0.35914998998E+02  0.00000000000E+00 0.  1.
</event>
<event>
 4    1  0.6210801E+003  0.2097463E+02  0.7546771E-02  0.1519627E+00
          2   -1    0    0  501    0  0.00000000000E+00  0.00000000000E+00  0.82430665148E+01  0.82430665148E+01  0.00000000000E+00 0. -1.
          2   -1    0    0  502    0 -0.00000000000E+00 -0.00000000000E+00 -0.20251239392E+03  0.20251239392E+03  0.00000000000E+00 0.  1.
          2    1    1    2  501    0  0.10865825800E+02  0.17940705160E+02 -0.18756687063E+03  0.18873596910E+03  0.00000000000E+00 0.  1.
          2    1    1    2  502    0 -0.10865825800E+02 -0.17940705160E+02 -0.67024567705E+01  0.22019491336E+02  0.00000000000E+00 0. -1.
</event>
<event>
 4    1  0.6210801E+003  0.2064854E+02  0.7546771E-02  0.1524342E+00
          2   -1    0    0  502    0  0.00000000000E+00  0.00000000000E+00  0.16665147287E+03  0.16665147287E+03  0.00000000000E+00 0.  1.
          2   -1    0    0  501    0 -0.00000000000E+00 -0.00000000000E+00 -0.53307150304E+01  0.53307150304E+01  0.00000000000E+00 0.  1.
          2    1    1    2  501    0 -0.81456617068E+01 -0.18973940719E+02  0.14267320334E+03  0.14415965171E+03  0.00000000000E+00 0.  1.
          2    1    1    2  502    0  0.81456617068E+01  0.18973940719E+02  0.18647554502E+02  0.27822536188E+02  0.00000000000E+00 0.  1.
</event>
<event>
 4    1  0.6210801E+003  0.2208661E+02  0.7546771E-02  0.1504298E+00
          2   -1    0    0  501    0  0.00000000000E+00  0.00000000000E+00  0.40674407586E+00  0.40674407586E+00  0.00000000000E+00 0. -1.
          2   -1    0    0  502    0 -0.00000000000E+00 -0.00000000000E+00 -0.14411443575E+04  0.14411443575E+04  0.00000000000E+00 0. -1.
          2    1    1    2  501    0 -0.20066126462E+02  0.92286975518E+01 -0.10156201918E+04  0.10158603212E+04  0.00000000000E+00 0. -1.
          2    1    1    2  502    0  0.20066126462E+02 -0.92286975518E+01 -0.42511742166E+03  0.42569078037E+03  0.00000000000E+00 0. -1.
</event>
<event>
 4    1  0.6210801E+003  0.2486189E+02  0.7546771E-02  0.1470354E+00
          2   -1    0    0  501    0  0.00000000000E+00  0.00000000000E+00  0.69463570244E+03  0.69463570244E+03  0.00000000000E+00 0. -1.
          2   -1    0    0  502    0 -0.00000000000E+00 -0.00000000000E+00 -0.54505775016E+01  0.54505775016E+01  0.00000000000E+00 0.  1.
          2    1    1    2  501    0 -0.22010621335E+02  0.11560534234E+02  0.24395064555E+02  0.34831488311E+02  0.00000000000E+00 0.  1.
          2    1    1    2  502    0  0.22010621335E+02 -0.11560534234E+02  0.66479006039E+03  0.66525479163E+03  0.00000000000E+00 0. -1.
</event>
<event>
 4    1  0.6210801E+003  0.2163210E+02  0.7546771E-02  0.1510428E+00
          2   -1    0    0  502    0  0.00000000000E+00  0.00000000000E+00  0.17569271854E+02  0.17569271854E+02  0.00000000000E+00 0.  1.
          2   -1    0    0  501    0 -0.00000000000E+00 -0.00000000000E+00 -0.95397946393E+02  0.95397946393E+02  0.00000000000E+00 0.  1.
          2    1    1    2  501    0 -0.10240206541E+02 -0.19054815579E+02  0.90404438853E+01  0.23445201053E+02  0.00000000000E+00 0.  1.
          2    1    1    2  502    0  0.10240206541E+02  0.19054815579E+02 -0.86869118425E+02  0.89522017195E+02  0.00000000000E+00 0.  1.
</event>
<event>
 4    1  0.6210801E+003  0.2309773E+02  0.7546771E-02  0.1491275E+00
          2   -1    0    0  502    0  0.00000000000E+00  0.00000000000E+00  0.73899820413E+02  0.73899820413E+02  0.00000000000E+00 0. -1.
          2   -1    0    0  501    0 -0.00000000000E+00 -0.00000000000E+00 -0.17159588633E+03  0.17159588633E+03  0.00000000000E+00 0.  1.
          2    1    1    2  501    0  0.18424127723E+02  0.13930429303E+02  0.71289979186E+02  0.74938417886E+02  0.00000000000E+00 0. -1.
          2    1    1    2  502    0 -0.18424127723E+02 -0.13930429303E+02 -0.16898604510E+03  0.17055728885E+03  0.00000000000E+00 0.  1.
</event>
<event>
 4    1  0.6210801E+003  0.2328209E+02  0.7546771E-02  0.1488986E+00
          2   -1    0    0  502    0  0.00000000000E+00  0.00000000000E+00  0.23216937635E+03  0.23216937635E+03  0.00000000000E+00 0. -1.
          2   -1    0    0  501    0 -0.00000000000E+00 -0.00000000000E+00 -0.14966143690E+03  0.14966143690E+03  0.00000000000E+00 0. -1.
          2    1    1    2  501    0  0.22282368903E+02 -0.67492076843E+01  0.23067436714E+03  0.23184632717E+03  0.00000000000E+00 0. -1.
          2    1    1    2  502    0 -0.22282368903E+02  0.67492076843E+01 -0.14816642769E+03  0.14998448608E+03  0.00000000000E+00 0. -1.
</event>
<event>
 4    1  0.6210801E+003  0.2837554E+02  0.7546771E-02  0.1434259E+00
          2   -1    0    0  501    0  0.00000000000E+00  0.00000000000E+00  0.17686058792E+02  0.17686058792E+02  0.00000000000E+00 0. -1.
          2   -1    0    0  502    0 -0.00000000000E+00 -0.00000000000E+00 -0.17116002659E+03  0.17116002659E+03  0.00000000000E+00 0. -1.
          2    1    1    2  501    0 -0.46973752027E-01 -0.28375505152E+02 -0.15763369216E+03  0.16016726383E+03  0.00000000000E+00 0. -1.
          2    1    1    2  502    0  0.46973752027E-01  0.28375505152E+02  0.41597243549E+01  0.28678821557E+02  0.00000000000E+00 0. -1.
</event>
<event>
 4    1  0.6210801E+003  0.2019528E+02  0.7546771E-02  0.1531071E+00
          2   -1    0    0  501    0  0.00000000000E+00  0.00000000000E+00  0.66573421155E+02  0.66573421155E+02  0.00000000000E+00 0.  1.
          2   -1    0    0  502    0 -0.00000000000E+00 -0.00000000000E+00 -0.49094048555E+03  0.49094048555E+03  0.00000000000E+00 0. -1.
          2    1    1    2  501    0  0.85791660901E+01 -0.18282431368E+02 -0.48919576029E+03  0.48961243987E+03  0.00000000000E+00 0. -1.
          2    1    1    2  502    0 -0.85791660901E+01  0.18282431368E+02  0.64828695894E+02  0.67901466838E+02  0.00000000000E+00 0.  1.
</event>
<event>
 4    1  0.6210801E+003  0.5056271E+02  0.7546771E-02  0.1295751E+00
          2   -1    0    0  502    0  0.00000000000E+00  0.00000000000E+00  0.28310826478E+04  0.28310826478E+04  0.00000000000E+00 0. -1.
          2   -1    0    0  501    0 -0.00000000000E+00 -0.00000000000E+00 -0.17451174077E+01  0.17451174077E+01  0.00000000000E+00 0.  1.
          2    1    1    2  501    0 -0.18229603443E+02 -0.47162158149E+02  0.23985739392E+04  0.23991068191E+04  0.00000000000E+00 0. -1.
          2    1    1    2  502    0  0.18229603443E+02  0.47162158149E+02  0.43076359121E+03  0.43372094613E+03  0.00000000000E+00 0.  1.
</event>
<event>
 4    1  0.6210801E+003  0.3127631E+02  0.7546771E-02  0.1408820E+00
          2   -1    0    0  502    0  0.00000000000E+00  0.00000000000E+00  0.29203265439E+02  0.29203265439E+02  0.00000000000E+00 0.  1.
          2   -1    0    0  501    0 -0.00000000000E+00 -0.00000000000E+00 -0.15515774825E+04  0.15515774825E+04  0.00000000000E+00 0.  1.
          2    1    1    2  501    0 -0.25677616644E+02  0.17856860244E+02  0.20624971988E+02  0.37464608950E+02  0.00000000000E+00 0.  1.
          2    1    1    2  502    0  0.25677616644E+02 -0.17856860244E+02 -0.15429991891E+04  0.15433161390E+04  0.00000000000E+00 0.  1.
</event>
<event>
 4    1  0.6210801E+003  0.3411044E+02  0.7546771E-02  0.1386927E+00
          2   -1    0    0  501    0  0.00000000000E+00  0.00000000000E+00  0.24155786328E+04  0.24155786328E+04  0.00000000000E+00 0. -1.
          2   -1    0    0  502    0 -0.00000000000E+00 -0.00000000000E+00 -0.33512969071E+03  0.33512969071E+03  0.00000000000E+00 0. -1.
          2    1    1    2  501    0  0.32745196120E+02 -0.95537414917E+01 -0.33414095290E+03  0.33587750483E+03  0.00000000000E+00 0. -1.
          2    1    1    2  502    0 -0.32745196120E+02  0.95537414917E+01  0.24145898950E+04  0.24148308187E+04  0.00000000000E+00 0. -1.
</event>
<event>
 4    1  0.6210801E+003  0.2871348E+02  0.7546771E-02  0.1431116E+00
          2   -1    0    0  501    0  0.00000000000E+00  0.00000000000E+00  0.32770143993E+00  0.32770143993E+00  0.00000000000E+00 0. -1.
          2   -1    0    0  502    0 -0.00000000000E+00 -0.00000000000E+00 -0.28447053117E+04  0.28447053117E+04  0.00000000000E+00 0. -1.
          2    1    1    2  501    0 -0.16751805094E+02 -0.23320403961E+02 -0.19058127090E+04  0.19060289993E+04  0.00000000000E+00 0. -1.
          2    1    1    2  502    0  0.16751805094E+02  0.23320403961E+02 -0.93856490121E+03  0.93900401384E+03  0.00000000000E+00 0. -1.
</event>
<event>
 4    1  0.6210801E+003  0.3088434E+02  0.7546771E-02  0.1412064E+00
          2   -1    0    0  501    0  0.00000000000E+00  0.00000000000E+00  0.16193561964E+04  0.16193561964E+04  0.00000000000E+00 0. -1.
          2   -1    0    0  502    0 -0.00000000000E+00 -0.00000000000E+00 -0.94046022799E+00  0.94046022799E+00  0.00000000000E+00 0.  1.
          2    1    1    2  501    0 -0.41570454355E+01  0.30603287255E+02  0.31396684351E+03  0.31548220400E+03  0.00000000000E+00 0.  1.
          2    1    1    2  502    0  0.41570454355E+01 -0.30603287255E+02  0.13044488926E+04  0.13048144526E+04  0.00000000000E+00 0. -1.
</event>
<event>
 4    1  0.6210801E+003  0.5544261E+02  0.7546771E-02  0.1276156E+00
          2   -1    0    0  501    0  0.00000000000E+00  0.00000000000E+00  0.20870881510E+03  0.20870881510E+03  0.00000000000E+00 0. -1.
          2   -1    0    0  502    0 -0.00000000000E+00 -0.00000000000E+00 -0.22336729244E+03  0.22336729244E+03  0.00000000000E+00 0.  1.
          2    1    1    2  501    0  0.53222739304E+02  0.15531339459E+02 -0.21612343453E+03  0.22312153961E+03  0.00000000000E+00 0.  1.
          2    1    1    2  502    0 -0.53222739304E+02 -0.15531339459E+02  0.20146495719E+03  0.20895456793E+03  0.00000000000E+00 0. -1.
</event>
<event>
 4    1  0.6210801E+003  0.3316764E+02  0.7546771E-02  0.1393924E+00
          2   -1    0    0  501    0  0.00000000000E+00  0.00000000000E+00  0.11144545120E+04  0.11144545120E+04  0.00000000000E+00 0.  1.
          2   -1    0    0  502    0 -0.00000000000E+00 -0.00000000000E+00 -0.27529595988E+01  0.27529595988E+01  0.00000000000E+00 0. -1.
          2    1    1    2  501    0 -0.82271886942E+01 -0.32131073064E+02  0.10846681695E+03  0.11342461316E+03  0.00000000000E+00 0. -1.
          2    1    1    2  502    0  0.82271886942E+01  0.32131073064E+02  0.10032347354E+04  0.10037828584E+04  0.00000000000E+00 0.  1.
</event>
<event>
 4    1  0.6210801E+003  0.3938428E+02  0.7546771E-02  0.1352132E+00
          2   -1    0    0  502    0  0.00000000000E+00  0.00000000000E+00  0.10391190010E+01  0.10391190010E+01  0.00000000000E+00 0. -1.
          2   -1    0    0  501    0 -0.00000000000E+00 -0.00000000000E+00 -0.17518232384E+04  0.17518232384E+04  0.00000000000E+00 0. -1.
          2    1    1    2  501    0  0.17135635980E+02 -0.35461124412E+02 -0.53833538790E+03  0.53977412982E+03  0.00000000000E+00 0. -1.
          2    1    1    2  502    0 -0.17135635980E+02  0.35461124412E+02 -0.12124487315E+04  0.12130882276E+04  0.00000000000E+00 0. -1.
</event>
<event>
 4    1  0.6210801E+003  0.2289785E+02  0.7546771E-02  0.1493785E+00
          2   -1    0    0  501    0  0.00000000000E+00  0.00000000000E+00  0.33382150299E+03  0.33382150299E+03  0.00000000000E+00 0.  1.
          2   -1    0    0  502    0 -0.00000000000E+00 -0.00000000000E+00 -0.49011607158E+01  0.49011607158E+01  0.00000000000E+00 0.  1.
          2    1    1    2  501    0 -0.14933064640E+01  0.22849100911E+02  0.24848651509E+02  0.33790040817E+02  0.00000000000E+00 0.  1.
          2    1    1    2  502    0  0.14933064640E+01 -0.22849100911E+02  0.30407169077E+03  0.30493262289E+03  0.00000000000E+00 0.  1.
</event>
<event>
 4    1  0.6210801E+003  0.2097227E+02  0.7546771E-02  0.1519661E+00
          2   -1    0    0  501    0  0.00000000000E+00  0.00000000000E+00  0.30818211460E+01  0.30818211460E+01  0.00000000000E+00 0.  1.
          2   -1    0    0  502    0 -0.00000000000E+00 -0.00000000000E+00 -0.19327160101E+03  0.19327160101E+03  0.00000000000E+00 0. -1.
          2    1    1    2  501    0  0.20771493331E+02  0.28950429262E+01 -0.44884483881E+02  0.49542437385E+02  0.00000000000E+00 0.  1.
          2    1    1    2  502    0 -0.20771493331E+02 -0.28950429262E+01 -0.14530529598E+03  0.14681098477E+03  0.00000000000E+00 0. -1.
</event>
<event>
 4    1  0.6210801E+003  0.2200958E+02  0.7546771E-02  0.1505324E+00
          2   -1    0    0  501    0  0.00000000000E+00  0.00000000000E+00  0.75342823934E+02  0.75342823934E+02  0.00000000000E+00 0.  1.
          2   -1    0    0  502    0 -0.00000000000E+00 -0.00000000000E+00 -0.14852587813E+02  0.14852587813E+02  0.00000000000E+00 0.  1.
          2    1    1    2  501    0 -0.21671117198E+02  0.38450627423E+01 -0.37164152955E+01  0.22321146268E+02  0.00000000000E+00 0.  1.
          2    1    1    2  502    0  0.21671117198E+02 -0.38450627423E+01  0.64206651416E+02  0.67874265478E+02  0.00000000000E+00 0.  1.
</event>
<event>
 4    1  0.6210801E+003  0.2941456E+02  0.7546771E-02  0.1424753E+00
          2   -1    0    0  502    0  0.00000000000E+00  0.00000000000E+00  0.68368373468E+03  0.68368373468E+03  0.00000000000E+00 0. -1.
          2   -1    0    0  501    0 -0.00000000000E+00 -0.00000000000E+00 -0.33501170660E+01  0.33501170660E+01  0.00000000000E+00 0. -1.
          2    1    1    2  501    0  0.26210076176E+02 -0.13350955215E+02  0.61114173694E+03  0.61184919606E+03  0.00000000000E+00 0. -1.
          2    1    1    2  502    0 -0.26210076176E+02  0.13350955215E+02  0.69191880673E+02  0.75184655678E+02  0.00000000000E+00 0. -1.
</event>
<event>
 4    1  0.6210801E+003  0.2095975E+02  0.7546771E-02  0.1519840E+00
          2   -1    0    0  502    0  0.00000000000E+00  0.00000000000E+00  0.22561875504E+01  0.22561875504E+01  0.00000000000E+00 0. -1.
          2   -1    0    0  501    0 -0.00000000000E+00 -0.00000000000E+00 -0.55285130749E+03  0.55285130749E+03  0.00000000000E+00 0.  1.
          2    1    1    2  501    0 -0.20513195505E+02  0.43034736154E+01 -0.51905481787E+02  0.55977585822E+02  0.00000000000E+00 0. -1.
          2    1    1    2  502    0  0.20513195505E+02 -0.43034736154E+01 -0.49868963815E+03  0.49912990922E+03  0.00000000000E+00 0.  1.
</event>
<event>
 4    1  0.6210801E+003  0.3931801E+02  0.7546771E-02  0.1352529E+00
          2   -1    0    0  502    0  0.00000000000E+00  0.00000000000E+00  0.11169120726E+01  0.11169120726E+01  0.00000000000E+00 0.  1.
          2   -1    0    0  501    0 -0.00000000000E+00 -0.00000000000E+00 -0.17250931353E+04  0.17250931353E+04  0.00000000000E+00 0. -1.
          2    1    1    2  501    0 -0.36672999083E+02  0.14177336875E+02 -0.12457282053E+04  0.12463485336E+04  0.00000000000E+00 0. -1.
          2    1    1    2  502    0  0.36672999083E+02 -0.14177336875E+02 -0.47824801791E+03  0.47986151375E+03  0.00000000000E+00 0.  1.
</event>
<event>
 4    1  0.8700796E+003  0.3599012E+02  0.7546771E-02  0.1373733E+00
          2   -1    0    0  502    0  0.00000000000E+00  0.00000000000E+00  0.10157456944E+04  0.10157456944E+04  0.00000000000E+00 0.  1.
          2   -1    0    0  501    0 -0.00000000000E+00 -0.00000000000E+00 -0.25125724778E+04  0.25125724778E+04  0.00000000000E+00 0.  1.
          2    1    1    2  501    0  0.24078463481E+02 -0.26749134491E+02  0.10152979544E+04  0.10159356401E+04  0.00000000000E+00 0.  1.
          2    1    1    2  502    0 -0.24078463481E+02  0.26749134491E+02 -0.25121247378E+04  0.25123825320E+04  0.00000000000E+00 0.  1.
</event>
<event>
 4    1  0.6210801E+003  0.2330918E+02  0.7546771E-02  0.1488652E+00
          2   -1    0    0  502    0  0.00000000000E+00  0.00000000000E+00  0.13558985504E+04  0.13558985504E+04  0.00000000000E+00 0.  1.
          2   -1    0    0  501    0 -0.00000000000E+00 -0.00000000000E+00 -0.83513509367E+01  0.83513509367E+01  0.00000000000E+00 0. -1.
          2    1    1    2  501    0  0.54314491584E+01 -0.22667538327E+02  0.13393328484E+04  0.13395356646E+04  0.00000000000E+00 0.  1.
          2    1    1    2  502    0 -0.54314491584E+01  0.22667538327E+02  0.82143510540E+01  0.24714236727E+02  0.00000000000E+00 0. -1.
</event>
<event>
 4    1  0.6210801E+003  0.2935647E+02  0.7546771E-02  0.1425272E+00
          2   -1    0    0  502    0  0.00000000000E+00  0.00000000000E+00  0.51684366988E+02  0.51684366988E+02  0.00000000000E+00 0. -1.
          2   -1    0    0  501    0 -0.00000000000E+00 -0.00000000000E+00 -0.48591558438E+03  0.48591558438E+03  0.00000000000E+00 0.  1.
          2    1    1    2  501    0  0.19563892144E+02  0.21887354400E+02  0.47032134710E+02  0.55442076565E+02  0.00000000000E+00 0. -1.
          2    1    1    2  502    0 -0.19563892144E+02 -0.21887354400E+02 -0.48126335210E+03  0.48215787481E+03  0.00000000000E+00 0.  1.
</event>
<event>
 4    1  0.6210801E+003  0.7739868E+02  0.7546771E-02  0.1210019E+00
          2   -1    0    0  501    0  0.00000000000E+00  0.00000000000E+00  0.55181715631E+03  0.55181715631E+03  0.00000000000E+00 0.  1.
          2   -1    0    0  502    0 -0.00000000000E+00 -0.00000000000E+00 -0.10680080016E+04  0.10680080016E+04  0.00000000000E+00 0. -1.
          2    1    1    2  501    0 -0.64812141853E+02 -0.42307696307E+02 -0.10638812023E+04  0.10666929115E+04  0.00000000000E+00 0. -1.
          2    1    1    2  502    0  0.64812141853E+02  0.42307696307E+02  0.54769035698E+03  0.55313224641E+03  0.00000000000E+00 0.  1.
</event>
<event>
 4    1  0.6210801E+003  0.2052952E+02  0.7546771E-02  0.1526089E+00
          2   -1    0    0  502    0  0.00000000000E+00  0.00000000000E+00  0.12661184046E+02  0.12661184046E+02  0.00000000000E+00 0.  1.
          2   -1    0    0  501    0 -0.00000000000E+00 -0.00000000000E+00 -0.67783230476E+02  0.67783230476E+02  0.00000000000E+00 0.  1.
          2    1    1    2  501    0 -0.19921875294E+02  0.49578180027E+01  0.11326726723E+01  0.20560739820E+02  0.00000000000E+00 0.  1.
          2    1    1    2  502    0  0.19921875294E+02 -0.49578180027E+01 -0.56254719102E+02  0.59883674702E+02  0.00000000000E+00 0.  1.
</event>
<event>
 4    1  0.6210801E+003  0.2282739E+02  0.7546771E-02  0.1494677E+00
          2   -1    0    0  501    0  0.00000000000E+00  0.00000000000E+00  0.11966331945E+04  0.11966331945E+04  0.00000000000E+00 0.  1.
          2   -1    0    0  502    0 -0.00000000000E+00 -0.00000000000E+00 -0.71417298453E+02  0.71417298453E+02  0.00000000000E+00 0. -1.
          2    1    1    2  501    0 -0.15599872182E+02 -0.16665340593E+02 -0.69481375677E+02  0.73135156766E+02  0.00000000000E+00 0. -1.
          2    1    1    2  502    0  0.15599872182E+02  0.16665340593E+02  0.11946972717E+04  0.11949153362E+04  0.00000000000E+00 0.  1.
</event>
<event>
 4    1  0.6210801E+003  0.3051483E+02  0.7546771E-02  0.1415174E+00
          2   -1    0    0  501    0  0.00000000000E+00  0.00000000000E+00  0.19883337815E+03  0.19883337815E+03  0.00000000000E+00 0.  1.
          2   -1    0    0  502    0 -0.00000000000E+00 -0.00000000000E+00 -0.14697235308E+02  0.14697235308E+02  0.00000000000E+00 0.  1.
          2    1    1    2  501    0  0.26198961845E+02 -0.15645106489E+02  0.39389918776E+01  0.30768012868E+02  0.00000000000E+00 0.  1.
          2    1    1    2  502    0 -0.26198961845E+02  0.15645106489E+02  0.18019715097E+03  0.18276260059E+03  0.00000000000E+00 0.  1.
</event>
<event>
 4    1  0.6210801E+003  0.5400703E+02  0.7546771E-02  0.1281675E+00
          2   -1    0    0  502    0  0.00000000000E+00  0.00000000000E+00  0.91785186367E+03  0.91785186367E+03  0.00000000000E+00 0.  1.
          2   -1    0    0  501    0 -0.00000000000E+00 -0.00000000000E+00 -0.35371595278E+03  0.35371595278E+03  0.00000000000E+00 0. -1.
          2    1    1    2  501    0  0.36267837973E+02 -0.40017540334E+02  0.91498945481E+03  0.91658194506E+03  0.00000000000E+00 0.  1.
          2    1    1    2  502    0 -0.36267837973E+02  0.40017540334E+02 -0.35085354392E+03  0.35498587139E+03  0.00000000000E+00 0. -1.
</event>
<event>
 4    1  0.6210801E+003  0.2345099E+02  0.7546771E-02  0.1486911E+00
          2   -1    0    0  502    0  0.00000000000E+00  0.00000000000E+00  0.13500982665E+04  0.13500982665E+04  0.00000000000E+00 0.  1.
          2   -1    0    0  501    0 -0.00000000000E+00 -0.00000000000E+00 -0.46611067059E+01  0.46611067059E+01  0.00000000000E+00 0. -1.
          2    1    1    2  501    0 -0.20055219041E+02 -0.12154723480E+02  0.13198231646E+04  0.13200314902E+04  0.00000000000E+00 0.  1.
          2    1    1    2  502    0  0.20055219041E+02  0.12154723480E+02  0.25613995214E+02  0.34727883099E+02  0.00000000000E+00 0. -1.
</event>
<event>
 4    1  0.6210801E+003  0.2583246E+02  0.7546771E-02  0.1459702E+00
          2   -1    0    0  502    0  0.00000000000E+00  0.00000000000E+00  0.72262268978E+03  0.72262268978E+03  0.00000000000E+00 0.  1.
          2   -1    0    0  501    0 -0.00000000000E+00 -0.00000000000E+00 -0.73016753262E+02  0.73016753262E+02  0.00000000000E+00 0.  1.
          2    1    1    2  501    0  0.17500495062E+02  0.19001279953E+02  0.72009901471E+03  0.72056221588E+03  0.00000000000E+00 0.  1.
          2    1    1    2  502    0 -0.17500495062E+02 -0.19001279953E+02 -0.70493078185E+02  0.75077227168E+02  0.00000000000E+00 0.  1.
</event>
<event>
 4    1  0.6210801E+003  0.5384042E+02  0.7546771E-02  0.1282329E+00
          2   -1    0    0  502    0  0.00000000000E+00  0.00000000000E+00  0.16305259799E+01  0.16305259799E+01  0.00000000000E+00 0. -1.
          2   -1    0    0  501    0 -0.00000000000E+00 -0.00000000000E+00 -0.39422050787E+04  0.39422050787E+04  0.00000000000E+00 0.  1.
          2    1    1    2  501    0 -0.52246239163E+02 -0.13004650304E+02 -0.50916712933E+03  0.51200581640E+03  0.00000000000E+00 0. -1.
          2    1    1    2  502    0  0.52246239163E+02  0.13004650304E+02 -0.34314074234E+04  0.34318297883E+04  0.00000000000E+00 0.  1.
</event>
<event>
 4    1  0.6210801E+003  0.2611512E+02  0.7546771E-02  0.1456705E+00
          2   -1    0    0  501    0  0.00000000000E+00  0.00000000000E+00  0.26460092293E+03  0.26460092293E+03  0.00000000000E+00 0.  1.
          2   -1    0    0  502    0 -0.00000000000E+00 -0.00000000000E+00 -0.26208586281E+01  0.26208586281E+01  0.00000000000E+00 0. -1.
          2    1    1    2  501    0  0.24804083763E+02  0.81704760988E+01  0.11379749465E+03  0.11675559533E+03  0.00000000000E+00 0.  1.
          2    1    1    2  502    0 -0.24804083763E+02 -0.81704760988E+01  0.14818256965E+03  0.15046618623E+03  0.00000000000E+00 0. -1.
</event>
<event>
 4    1  0.6210801E+003  0.2882156E+02  0.7546771E-02  0.1430121E+00
          2   -1    0    0  501    0  0.00000000000E+00  0.00000000000E+00  0.17100107917E+03  0.17100107917E+03  0.00000000000E+00 0.  1.
          2   -1    0    0  502    0 -0.00000000000E+00 -0.00000000000E+00 -0.88013816276E+01  0.88013816276E+01  0.00000000000E+00 0.  1.
          2    1    1    2  501    0 -0.27331257562E+02  0.91479211895E+01  0.20921833312E+02  0.35614676906E+02  0.00000000000E+00 0.  1.
          2    1    1    2  502    0  0.27331257562E+02 -0.91479211895E+01  0.14127786423E+03  0.14418778389E+03  0.00000000000E+00 0.  1.
</event>
<event>
 4    1  0.6210801E+003  0.2365602E+02  0.7546771E-02  0.1484421E+00
          2   -1    0    0  501    0  0.00000000000E+00  0.00000000000E+00  0.12282366612E+03  0.12282366612E+03  0.00000000000E+00 0. -1.
          2   -1    0    0  502    0 -0.00000000000E+00 -0.00000000000E+00 -0.61368793785E+02  0.61368793785E+02  0.00000000000E+00 0.  1.
          2    1    1    2  501    0 -0.23573662600E+02 -0.19722643050E+01 -0.57884132171E+02  0.62531433312E+02  0.00000000000E+00 0.  1.
          2    1    1    2  502    0  0.23573662600E+02  0.19722643050E+01  0.11933900451E+03  0.12166102659E+03  0.00000000000E+00 0. -1.
</event>
<event>
 4    1  0.6210801E+003  0.4168187E+02  0.7546771E-02  0.1338902E+00
          2   -1    0    0  502    0  0.00000000000E+00  0.00000000000E+00  0.25232819827E+02  0.25232819827E+02  0.00000000000E+00 0. -1.
          2   -1    0    0  501    0 -0.00000000000E+00 -0.00000000000E+00 -0.13257557648E+04  0.13257557648E+04  0.00000000000E+00 0.  1.
          2    1    1    2  501    0  0.38303412362E+02 -0.16438569857E+02  0.74578600975E+01  0.42343803027E+02  0.00000000000E+00 0. -1.
          2    1    1    2  502    0 -0.38303412362E+02  0.16438569857E+02 -0.13079808051E+04  0.13086447816E+04  0.00000000000E+00 0.  1.
</event>
<event>
 4    1  0.6210801E+003  0.2015790E+02  0.7546771E-02  0.1531635E+00
          2   -1    0    0  501    0  0.00000000000E+00  0.00000000000E+00  0.10305309182E+02  0.10305309182E+02  0.00000000000E+00 0. -1.
          2   -1    0    0  502    0 -0.00000000000E+00 -0.00000000000E+00 -0.93305227035E+02  0.93305227035E+02  0.00000000000E+00 0.  1.
          2    1    1    2  501    0  0.16253875424E+02  0.11922774048E+02 -0.80865339328E+02  0.83339931077E+02  0.00000000000E+00 0.  1.
          2    1    1    2  502    0 -0.16253875424E+02 -0.11922774048E+02 -0.21345785261E+01  0.20270605141E+02  0.00000000000E+00 0. -1.
</event>
<event>
 4    1  0.6210801E+003  0.4404566E+02  0.7546771E-02  0.1326281E+00
          2   -1    0    0  502    0  0.00000000000E+00  0.00000000000E+00  0.20888224135E+03  0.20888224135E+03  0.00000000000E+00 0. -1.
          2   -1    0    0  501    0 -0.00000000000E+00 -0.00000000000E+00 -0.32685184393E+03  0.32685184393E+03  0.00000000000E+00 0.  1.
          2    1    1    2  501    0  0.33019836634E+02  0.29149793230E+02  0.20504904015E+03  0.20972631910E+03  0.00000000000E+00 0. -1.
          2    1    1    2  502    0 -0.33019836634E+02 -0.29149793230E+02 -0.32301864273E+03  0.32600776618E+03  0.00000000000E+00 0.  1.
</event>
<event>
 4    1  0.6210801E+003  0.2847178E+02  0.7546771E-02  0.1433359E+00
          2   -1    0    0  502    0  0.00000000000E+00  0.00000000000E+00  0.20003041032E+03  0.20003041032E+03  0.00000000000E+00 0.  1.
          2   -1    0    0  501    0 -0.00000000000E+00 -0.00000000000E+00 -0.36326200814E+03  0.36326200814E+03  0.00000000000E+00 0. -1.
          2    1    1    2  501    0 -0.28811151828E+01  0.28325636667E+02  0.19845496387E+03  0.20048694521E+03  0.00000000000E+00 0.  1.
          2    1    1    2  502    0  0.28811151828E+01 -0.28325636667E+02 -0.36168656168E+03  0.36280547325E+03  0.00000000000E+00 0. -1.
</event>
<event>
 4    1  0.6210801E+003  0.2677815E+02  0.7546771E-02  0.1449849E+00
          2   -1    0    0  502    0  0.00000000000E+00  0.00000000000E+00  0.30386863891E+03  0.30386863891E+03  0.00000000000E+00 0. -1.
          2   -1    0    0  501    0 -0.00000000000E+00 -0.00000000000E+00 -0.38868754411E+01  0.38868754411E+01  0.00000000000E+00 0.  1.
          2    1    1    2  501    0 -0.94736497648E+01  0.25046340334E+02  0.24644167127E+03  0.24789224785E+03  0.00000000000E+00 0. -1.
          2    1    1    2  502    0  0.94736497648E+01 -0.25046340334E+02  0.53540092203E+02  0.59863266509E+02  0.00000000000E+00 0.  1.
</event>
<event>
 4    1  0.6210801E+003  0.2436021E+02  0.7546771E-02  0.1476090E+00
          2   -1    0    0  501    0  0.00000000000E+00  0.00000000000E+00  0.14900582240E+02  0.14900582240E+02  0.00000000000E+00 0. -1.
          2   -1    0    0  502    0 -0.00000000000E+00 -0.00000000000E+00 -0.42007296773E+02  0.42007296773E+02  0.00000000000E+00 0.  1.
          2    1    1    2  501    0  0.21518294401E+02  0.11418536686E+02 -0.20038332423E+02  0.31542903168E+02  0.00000000000E+00 0.  1.
          2    1    1    2  502    0 -0.21518294401E+02 -0.11418536686E+02 -0.70683821102E+01  0.25364975845E+02  0.00000000000E+00 0. -1.
</event>
<event>
 4    1  0.6210801E+003  0.3068648E+02  0.7546771E-02  0.1413723E+00
          2   -1    0    0  501    0  0.00000000000E+00  0.00000000000E+00  0.10057750926E+04  0.10057750926E+04  0.00000000000E+00 0.  1.
          2   -1    0    0  502    0 -0.00000000000E+00 -0.00000000000E+00 -0.39013132313E+01  0.39013132313E+01  0.00000000000E+00 0.  1.
          2    1    1    2  501    0  0.30387147438E+02 -0.42756348507E+01  0.60824521173E+02  0.68126956183E+02  0.00000000000E+00 0.  1.
          2    1    1    2  502    0 -0.30387147438E+02  0.42756348507E+01  0.94104925822E+03  0.94154944967E+03  0.00000000000E+00 0.  1.
</event>
<event>
 4    1  0.6210801E+003  0.3369046E+02  0.7546771E-02  0.1390011E+00
          2   -1    0    0  502    0  0.00000000000E+00  0.00000000000E+00  0.15565577060E+04  0.15565577060E+04  0.00000000000E+00 0.  1.
          2   -1    0    0  501    0 -0.00000000000E+00 -0.00000000000E+00 -0.24160066065E+03  0.24160066065E+03  0.00000000000E+00 0. -1.
          2    1    1    2  501    0  0.31768929941E+02  0.11215273452E+02  0.15551998722E+04  0.15555647495E+04  0.00000000000E+00 0.  1.
          2    1    1    2  502    0 -0.31768929941E+02 -0.11215273452E+02 -0.24024282683E+03  0.24259361721E+03  0.00000000000E+00 0. -1.
</event>
<event>
 4    1  0.6210801E+003  0.5383782E+02  0.7546771E-02  0.1282339E+00
          2   -1    0    0  501    0  0.00000000000E+00  0.00000000000E+00  0.78888892313E+03  0.78888892313E+03  0.00000000000E+00 0. -1.
          2   -1    0    0  502    0 -0.00000000000E+00 -0.00000000000E+00 -0.47307537363E+03  0.47307537363E+03  0.00000000000E+00 0.  1.
          2    1    1    2  501    0  0.31003415624E+02  0.44014763164E+02 -0.47062031672E+03  0.47368976521E+03  0.00000000000E+00 0.  1.
          2    1    1    2  502    0 -0.31003415624E+02 -0.44014763164E+02  0.78643386622E+03  0.78827453155E+03  0.00000000000E+00 0. -1.
</event>
<event>
 4    1  0.6210801E+003  0.2325860E+02  0.7546771E-02  0.1489276E+00
          2   -1    0    0  501    0  0.00000000000E+00  0.00000000000E+00  0.32511296525E+02  0.32511296525E+02  0.00000000000E+00 0. -1.
          2   -1    0    0  502    0 -0.00000000000E+00 -0.00000000000E+00 -0.46420471170E+03  0.46420471170E+03  0.00000000000E+00 0.  1.
          2    1    1    2  501    0  0.62601033531E+00  0.23250178583E+02 -0.45971294903E+03  0.46030094307E+03  0.00000000000E+00 0.  1.
          2    1    1    2  502    0 -0.62601033531E+00 -0.23250178583E+02  0.28019533849E+02  0.36415065154E+02  0.00000000000E+00 0. -1.
</event>
<event>
 4    1  0.6210801E+003  0.2168750E+02  0.7546771E-02  0.1509671E+00
          2   -1    0    0  502    0  0.00000000000E+00  0.00000000000E+00  0.86210377882E+01  0.86210377882E+01  0.00000000000E+00 0. -1.
          2   -1    0    0  501    0 -0.00000000000E+00 -0.00000000000E+00 -0.15743495473E+03  0.15743495473E+03  0.00000000000E+00 0. -1.
          2    1    1    2  501    0  0.46235084661E+01 -0.21188929669E+02 -0.72899203754E+01  0.22879914994E+02  0.00000000000E+00 0. -1.
          2    1    1    2  502    0 -0.46235084661E+01  0.21188929669E+02 -0.14152399656E+03  0.14317607752E+03  0.00000000000E+00 0. -1.
</event>
<event>
 4    1  0.6210801E+003  0.2437698E+02  0.7546771E-02  0.1475895E+00
          2   -1    0    0  501    0  0.00000000000E+00  0.00000000000E+00  0.96772657719E+03  0.96772657719E+03  0.00000000000E+00 0.  1.
          2   -1    0    0  502    0 -0.00000000000E+00 -0.00000000000E+00 -0.67119095305E+00  0.67119095305E+00  0.00000000000E+00 0. -1.
          2    1    1    2  501    0 -0.66053376042E+01  0.23465012619E+02  0.34225584156E+03  0.34312286194E+03  0.00000000000E+00 0. -1.
          2    1    1    2  502    0  0.66053376042E+01 -0.23465012619E+02  0.62479954467E+03  0.62527490620E+03  0.00000000000E+00 0.  1.
</event>
<event>
 4    1  0.6210801E+003  0.3328661E+02  0.7546771E-02  0.1393026E+00
          2   -1    0    0  502    0  0.00000000000E+00  0.00000000000E+00  0.17814232816E+03  0.17814232816E+03  0.00000000000E+00 0.  1.
          2   -1    0    0  501    0 -0.00000000000E+00 -0.00000000000E+00 -0.14585196883E+03  0.14585196883E+03  0.00000000000E+00 0.  1.
          2    1    1    2  501    0  0.32066484533E+02  0.89296697873E+01  0.17465057946E+03  0.17779432876E+03  0.00000000000E+00 0.  1.
          2    1    1    2  502    0 -0.32066484533E+02 -0.89296697873E+01 -0.14236022014E+03  0.14619996823E+03  0.00000000000E+00 0.  1.
</event>
<event>
 4    1  0.6210801E+003  0.2020524E+02  0.7546771E-02  0.1530921E+00
          2   -1    0    0  502    0  0.00000000000E+00  0.00000000000E+00  0.13552411283E+02  0.13552411283E+02  0.00000000000E+00 0. -1.
          2   -1    0    0  501    0 -0.00000000000E+00 -0.00000000000E+00 -0.81522424174E+03  0.81522424174E+03  0.00000000000E+00 0. -1.
          2    1    1    2  501    0  0.38780603983E+01 -0.19829581876E+02  0.58241718217E+01  0.21027901636E+02  0.00000000000E+00 0. -1.
          2    1    1    2  502    0 -0.38780603983E+01  0.19829581876E+02 -0.80749600228E+03  0.80774875139E+03  0.00000000000E+00 0. -1.
</event>
<event>
 4    1  0.6210801E+003  0.3833416E+02  0.7546771E-02  0.1358534E+00
          2   -1    0    0  502    0  0.00000000000E+00  0.00000000000E+00  0.28882472102E+01  0.28882472102E+01  0.00000000000E+00 0. -1.
          2   -1    0    0  501    0 -0.00000000000E+00 -0.00000000000E+00 -0.76374115994E+03  0.76374115994E+03  0.00000000000E+00 0. -1.
          2    1    1    2  501    0 -0.76321447341E+01 -0.37566719768E+02 -0.15895802518E+03  0.16351502021E+03  0.00000000000E+00 0. -1.
          2    1    1    2  502    0  0.76321447341E+01  0.37566719768E+02 -0.60189488756E+03  0.60311438694E+03  0.00000000000E+00 0. -1.
</event>
<event>
 4    1  0.6210801E+003  0.3919881E+02  0.7546771E-02  0.1353246E+00
          2   -1    0    0  502    0  0.00000000000E+00  0.00000000000E+00  0.24816623880E+03  0.24816623880E+03  0.00000000000E+00 0.  1.
          2   -1    0    0  501    0 -0.00000000000E+00 -0.00000000000E+00 -0.79466114321E+01  0.79466114321E+01  0.00000000000E+00 0.  1.
          2    1    1    2  501    0  0.25639993600E+02  0.29650246806E+02  0.18028953864E+03  0.18450166436E+03  0.00000000000E+00 0.  1.
          2    1    1    2  502    0 -0.25639993600E+02 -0.29650246806E+02  0.59930088728E+02  0.71611185875E+02  0.00000000000E+00 0.  1.
</event>
<event>
 4    1  0.6210801E+003  0.2465720E+02  0.7546771E-02  0.1472675E+00
          2   -1    0    0  502    0  0.00000000000E+00  0.00000000000E+00  0.50977469179E+03  0.50977469179E+03  0.00000000000E+00 0.  1.
          2   -1    0    0  501    0 -0.00000000000E+00 -0.00000000000E+00 -0.34745305108E+01  0.34745305108E+01  0.00000000000E+00 0. -1.
          2    1    1    2  501    0 -0.12373962619E+02  0.21327511969E+02  0.46111861692E+03  0.46177738856E+03  0.00000000000E+00 0.  1.
          2    1    1    2  502    0  0.12373962619E+02 -0.21327511969E+02  0.45181544360E+02  0.51471833739E+02  0.00000000000E+00 0. -1.
</event>
<event>
 4    1  0.6210801E+003  0.2253774E+02  0.7546771E-02  0.1498386E+00
          2   -1    0    0  502    0  0.00000000000E+00  0.00000000000E+00  0.35322632010E+03  0.35322632010E+03  0.00000000000E+00 0.  1.
          2   -1    0    0  501    0 -0.00000000000E+00 -0.00000000000E+00 -0.15294417874E+01  0.15294417874E+01  0.00000000000E+00 0.  1.
          2    1    1    2  501    0 -0.21773096342E+02 -0.58208403021E+01  0.13248387147E+03  0.13438722448E+03  0.00000000000E+00 0.  1.
          2    1    1    2  502    0  0.21773096342E+02  0.58208403021E+01  0.21921300685E+03  0.22036853741E+03  0.00000000000E+00 0.  1.
</event>
<event>
 4    1  0.6210801E+003  0.2199910E+02  0.7546771E-02  0.1505464E+00
          2   -1    0    0  501    0  0.00000000000E+00  0.00000000000E+00  0.56580740104E+03  0.56580740104E+03  0.00000000000E+00 0. -1.
          2   -1    0    0  502    0 -0.00000000000E+00 -0.00000000000E+00 -0.40371965678E+03  0.40371965678E+03  0.00000000000E+00 0.  1.
          2    1    1    2  501    0 -0.11215068180E+02  0.18925714246E+02 -0.40320585988E+03  0.40380555452E+03  0.00000000000E+00 0.  1.
          2    1    1    2  502    0  0.11215068180E+02 -0.18925714246E+02  0.56529360415E+03  0.56572150331E+03  0.00000000000E+00 0. -1.
</event>
<event>
 4    1  0.6210801E+003  0.2032321E+02  0.7546771E-02  0.1529151E+00
          2   -1    0    0  502    0  0.00000000000E+00  0.00000000000E+00  0.63563245110E+00  0.63563245110E+00  0.00000000000E+00 0. -1.
          2   -1    0    0  501    0 -0.00000000000E+00 -0.00000000000E+00 -0.86319229614E+03  0.86319229614E+03  0.00000000000E+00 0. -1.
          2    1    1    2  501    0  0.25889114721E+01  0.20157640490E+02 -0.21652767972E+03  0.21747935308E+03  0.00000000000E+00 0. -1.
          2    1    1    2  502    0 -0.25889114721E+01 -0.20157640490E+02 -0.64602898397E+03  0.64634857551E+03  0.00000000000E+00 0. -1.
</event>
<event>
 4    1  0.6210801E+003  0.2280546E+02  0.7546771E-02  0.1494956E+00
          2   -1    0    0  501    0  0.00000000000E+00  0.00000000000E+00  0.11797326218E+03  0.11797326218E+03  0.00000000000E+00 0.  1.
          2   -1    0    0  502    0 -0.00000000000E+00 -0.00000000000E+00 -0.38462809156E+02  0.38462809156E+02  0.00000000000E+00 0. -1.
          2    1    1    2  501    0  0.25391598241E+01  0.22663659725E+02 -0.33843829391E+02  0.40810459352E+02  0.00000000000E+00 0. -1.
          2    1    1    2  502    0 -0.25391598241E+01 -0.22663659725E+02  0.11335428241E+03  0.11562561198E+03  0.00000000000E+00 0.  1.
</event>
<event>
 4    1  0.6210801E+003  0.2922243E+02  0.7546771E-02  0.1426476E+00
          2   -1    0    0  501    0  0.00000000000E+00  0.00000000000E+00  0.66328999376E+03  0.66328999376E+03  0.00000000000E+00 0. -1.
          2   -1    0    0  502    0 -0.00000000000E+00 -0.00000000000E+00 -0.27769222127E+03  0.27769222127E+03  0.00000000000E+00 0. -1.
          2    1    1    2  501    0  0.50460783312E+01 -0.28783454784E+02 -0.27660030071E+03  0.27813967090E+03  0.00000000000E+00 0. -1.
          2    1    1    2  502    0 -0.50460783312E+01  0.28783454784E+02  0.66219807319E+03  0.66284254413E+03  0.00000000000E+00 0. -1.
</event>
<event>
 4    1  0.6210801E+003  0.4056819E+02  0.7546771E-02  0.1345188E+00
          2   -1    0    0  501    0  0.00000000000E+00  0.00000000000E+00  0.52466279043E+02  0.52466279043E+02  0.00000000000E+00 0.  1.
          2   -1    0    0  502    0 -0.00000000000E+00 -0.00000000000E+00 -0.13219653398E+03  0.13219653398E+03  0.00000000000E+00 0.  1.
          2    1    1    2  501    0  0.80186938672E+01  0.39767808190E+02 -0.12050140960E+03  0.12714703196E+03  0.00000000000E+00 0.  1.
          2    1    1    2  502    0 -0.80186938672E+01 -0.39767808190E+02  0.40771154662E+02  0.57515781069E+02  0.00000000000E+00 0.  1.
</event>
<event>
 4    1  0.6210801E+003  0.2036483E+02  0.7546771E-02  0.1528530E+00
          2   -1    0    0  502    0  0.00000000000E+00  0.00000000000E+00  0.42892523610E+01  0.42892523610E+01  0.00000000000E+00 0. -1.
          2   -1    0    0  501    0 -0.00000000000E+00 -0.00000000000E+00 -0.36585141787E+03  0.36585141787E+03  0.00000000000E+00 0.  1.
          2    1    1    2  501    0 -0.17710998110E+02 -0.10052215380E+02 -0.22039358763E+02  0.30007662734E+02  0.00000000000E+00 0. -1.
          2    1    1    2  502    0  0.17710998110E+02  0.10052215380E+02 -0.33952280675E+03  0.34013300750E+03  0.00000000000E+00 0.  1.
</event>
<event>
 4    1  0.6210801E+003  0.2369610E+02  0.7546771E-02  0.1483937E+00
          2   -1    0    0  502    0  0.00000000000E+00  0.00000000000E+00  0.13509778836E+04  0.13509778836E+04  0.00000000000E+00 0. -1.
          2   -1    0    0  501    0 -0.00000000000E+00 -0.00000000000E+00 -0.55673667394E+00  0.55673667394E+00  0.00000000000E+00 0. -1.
          2    1    1    2  501    0  0.23351074105E+02 -0.40289430603E+01  0.10154214538E+04  0.10156979048E+04  0.00000000000E+00 0. -1.
          2    1    1    2  502    0 -0.23351074105E+02  0.40289430603E+01  0.33499969322E+03  0.33583671553E+03  0.00000000000E+00 0. -1.
</event>
<event>
 4    1  0.6210801E+003  0.2453837E+02  0.7546771E-02  0.1474034E+00
          2   -1    0    0  501    0  0.00000000000E+00  0.00000000000E+00  0.16739793184E+02  0.16739793184E+02  0.00000000000E+00 0.  1.
          2   -1    0    0  502    0 -0.00000000000E+00 -0.00000000000E+00 -0.11932105682E+04  0.11932105682E+04  0.00000000000E+00 0.  1.
          2    1    1    2  501    0  0.32704147752E+01  0.24319460536E+02 -0.11840221113E+04  0.11842763579E+04  0.00000000000E+00 0.  1.
          2    1    1    2  502    0 -0.32704147752E+01 -0.24319460536E+02  0.75513363282E+01  0.25674003464E+02  0.00000000000E+00 0.  1.
</event>
<event>
 4    1  0.6210801E+003  0.5039665E+02  0.7546771E-02  0.1296462E+00
          2   -1    0    0  501    0  0.00000000000E+00  0.00000000000E+00  0.16795718612E+03  0.16795718612E+03  0.00000000000E+00 0.  1.
          2   -1    0    0  502    0 -0.00000000000E+00 -0.00000000000E+00 -0.15069098748E+04  0.15069098748E+04  0.00000000000E+00 0. -1.
          2    1    1    2  501    0 -0.40048913258E+01  0.50237264468E+02 -0.15026974574E+04  0.15035423075E+04  0.00000000000E+00 0. -1.
          2    1    1    2  502    0  0.40048913258E+01 -0.50237264468E+02  0.16374476866E+03  0.17132475350E+03  0.00000000000E+00 0.  1.
</event>
<event>
 4    1  0.6210801E+003  0.2137710E+02  0.7546771E-02  0.1513948E+00
          2   -1    0    0  501    0  0.00000000000E+00  0.00000000000E+00  0.61426026928E+01  0.61426026928E+01  0.00000000000E+00 0. -1.
          2   -1    0    0  502    0 -0.00000000000E+00 -0.00000000000E+00 -0.33756839451E+03  0.33756839451E+03  0.00000000000E+00 0. -1.
          2    1    1    2  501    0 -0.29466878251E+01 -0.21173036100E+02 -0.31745403250E+03  0.31817297681E+03  0.00000000000E+00 0. -1.
          2    1    1    2  502    0  0.29466878251E+01  0.21173036100E+02 -0.13971759320E+02  0.25538020387E+02  0.00000000000E+00 0. -1.
</event>
<event>
 4    1  0.6210801E+003  0.3381396E+02  0.7546771E-02  0.1389099E+00
          2   -1    0    0  502    0  0.00000000000E+00  0.00000000000E+00  0.29873212390E+01  0.29873212390E+01  0.00000000000E+00 0. -1.
          2   -1    0    0  501    0 -0.00000000000E+00 -0.00000000000E+00 -0.48021378918E+03  0.48021378918E+03  0.00000000000E+00 0.  1.
          2    1    1    2  501    0  0.25831847377E+02 -0.21819699085E+02 -0.12976725211E+03  0.13410042255E+03  0.00000000000E+00 0.  1.
          2    1    1    2  502    0 -0.25831847377E+02  0.21819699085E+02 -0.34745921583E+03  0.34910068787E+03  0.00000000000E+00 0. -1.
</event>
<event>
 4    1  0.6210801E+003  0.2570232E+02  0.7546771E-02  0.1461098E+00
          2   -1    0    0  501    0  0.00000000000E+00  0.00000000000E+00  0.50330648962E+01  0.50330648962E+01  0.00000000000E+00 0.  1.
          2   -1    0    0  502    0 -0.00000000000E+00 -0.00000000000E+00 -0.14126889226E+03  0.14126889226E+03  0.00000000000E+00 0. -1.
          2    1    1    2  501    0 -0.84270474280E+00  0.25688497628E+02 -0.87594983545E+02  0.91287952130E+02  0.00000000000E+00 0. -1.
          2    1    1    2  502    0  0.84270474280E+00 -0.25688497628E+02 -0.48640843817E+02  0.55014005026E+02  0.00000000000E+00 0.  1.
</event>
<event>
 4    1  0.6210801E+003  0.2310034E+02  0.7546771E-02  0.1491242E+00
          2   -1    0    0  501    0  0.00000000000E+00  0.00000000000E+00  0.34953738489E+00  0.34953738489E+00  0.00000000000E+00 0. -1.
          2   -1    0    0  502    0 -0.00000000000E+00 -0.00000000000E+00 -0.20771727561E+04  0.20771727561E+04  0.00000000000E+00 0. -1.
          2    1    1    2  501    0 -0.14162241127E+02 -0.18249841074E+02 -0.15731753106E+04  0.15733449029E+04  0.00000000000E+00 0. -1.
          2    1    1    2  502    0  0.14162241127E+02  0.18249841074E+02 -0.50364790820E+03  0.50417739061E+03  0.00000000000E+00 0. -1.
</event>
<event>
 4    1  0.6210801E+003  0.2218656E+02  0.7546771E-02  0.1502973E+00
          2   -1    0    0  502    0  0.00000000000E+00  0.00000000000E+00  0.23345413268E+03  0.23345413268E+03  0.00000000000E+00 0. -1.
          2   -1    0    0  501    0 -0.00000000000E+00 -0.00000000000E+00 -0.62003018926E+01  0.62003018926E+01  0.00000000000E+00 0.  1.
          2    1    1    2  501    0 -0.16942240677E+02 -0.14324946715E+02  0.21096999624E+03  0.21213340834E+03  0.00000000000E+00 0. -1.
          2    1    1    2  502    0  0.16942240677E+02  0.14324946715E+02  0.16283834540E+02  0.27521026232E+02  0.00000000000E+00 0.  1.
</event>
<event>
 4    1  0.6210801E+003  0.2173043E+02  0.7546771E-02  0.1509087E+00
          2   -1    0    0  502    0  0.00000000000E+00  0.00000000000E+00  0.12060500940E+01  0.12060500940E+01  0.00000000000E+00 0.  1.
          2   -1    0    0  501    0 -0.00000000000E+00 -0.00000000000E+00 -0.62932828057E+03  0.62932828057E+03  0.00000000000E+00 0.  1.
          2    1    1    2  501    0 -0.63245762670E+01  0.20789692002E+02 -0.12026755094E+03  0.12221495558E+03  0.00000000000E+00 0.  1.
          2    1    1    2  502    0  0.63245762670E+01 -0.20789692002E+02 -0.50785467954E+03  0.50831937509E+03  0.00000000000E+00 0.  1.
</event>
<event>
 4    1  0.6210801E+003  0.2337263E+02  0.7546771E-02  0.1487871E+00
          2   -1    0    0  501    0  0.00000000000E+00  0.00000000000E+00  0.38337456117E+02  0.38337456117E+02  0.00000000000E+00 0. -1.
          2   -1    0    0  502    0 -0.00000000000E+00 -0.00000000000E+00 -0.14332335810E+02  0.14332335810E+02  0.00000000000E+00 0. -1.
          2    1    1    2  501    0 -0.18833037990E+02 -0.13841843615E+02  0.99974445852E+01  0.25421031703E+02  0.00000000000E+00 0. -1.
          2    1    1    2  502    0  0.18833037990E+02  0.13841843615E+02  0.14007675721E+02  0.27248760224E+02  0.00000000000E+00 0. -1.
</event>
<event>
 4    1  0.6210801E+003  0.2711553E+02  0.7546771E-02  0.1446451E+00
          2   -1    0    0  502    0  0.00000000000E+00  0.00000000000E+00  0.77127679751E+01  0.77127679751E+01  0.00000000000E+00 0. -1.
          2   -1    0    0  501    0 -0.00000000000E+00 -0.00000000000E+00 -0.10776850287E+03  0.10776850287E+03  0.00000000000E+00 0. -1.
          2    1    1    2  501    0  0.12448171431E+02 -0.24089316152E+02 -0.30410832088E+02  0.40743966829E+02  0.00000000000E+00 0. -1.
          2    1    1    2  502    0 -0.12448171431E+02  0.24089316152E+02 -0.69644902811E+02  0.74737304020E+02  0.00000000000E+00 0. -1.
</event>
<event>
 4    1  0.6210801E+003  0.2404991E+02  0.7546771E-02  0.1479719E+00
          2   -1    0    0  501    0  0.00000000000E+00  0.00000000000E+00  0.10655993363E+02  0.10655993363E+02  0.00000000000E+00 0. -1.
          2   -1    0    0  502    0 -0.00000000000E+00 -0.00000000000E+00 -0.20144312354E+03  0.20144312354E+03  0.00000000000E+00 0. -1.
          2    1    1    2  501    0 -0.32888468885E+00  0.24047657029E+02 -0.18603639040E+03  0.18758447837E+03  0.00000000000E+00 0. -1.
          2    1    1    2  502    0  0.32888468885E+00 -0.24047657029E+02 -0.47507397758E+01  0.24514638528E+02  0.00000000000E+00 0. -1.
</event>
<event>
 4    1  0.6210801E+003  0.2045024E+02  0.7546771E-02  0.1527261E+00
          2   -1    0    0  502    0  0.00000000000E+00  0.00000000000E+00  0.16677701643E+02  0.16677701643E+02  0.00000000000E+00 0. -1.
          2   -1    0    0  501    0 -0.00000000000E+00 -0.00000000000E+00 -0.80301284066E+02  0.80301284066E+02  0.00000000000E+00 0.  1.
          2    1    1    2  501    0  0.37058149607E+00 -0.20446880888E+02  0.84001327088E+01  0.22108245028E+02  0.00000000000E+00 0. -1.
          2    1    1    2  502    0 -0.37058149607E+00  0.20446880888E+02 -0.72023715132E+02  0.74870740681E+02  0.00000000000E+00 0.  1.
</event>
<event>
 4    1  0.6210801E+003  0.2538616E+02  0.7546771E-02  0.1464529E+00
          2   -1    0    0  502    0  0.00000000000E+00  0.00000000000E+00  0.17198594650E+04  0.17198594650E+04  0.00000000000E+00 0.  1.
          2   -1    0    0  501    0 -0.00000000000E+00 -0.00000000000E+00 -0.32825245011E+01  0.32825245011E+01  0.00000000000E+00 0.  1.
          2    1    1    2  501    0  0.25100257436E+02 -0.37992303929E+01  0.16691936229E+04  0.16693866562E+04  0.00000000000E+00 0.  1.
          2    1    1    2  502    0 -0.25100257436E+02  0.37992303929E+01  0.47383317619E+02  0.53755333350E+02  0.00000000000E+00 0.  1.
</event>
<event>
 4    1  0.6210801E+003  0.2787876E+02  0.7546771E-02  0.1438975E+00
          2   -1    0    0  502    0  0.00000000000E+00  0.00000000000E+00  0.15178670324E+03  0.15178670324E+03  0.00000000000E+00 0. -1.
          2   -1    0    0  501    0 -0.00000000000E+00 -0.00000000000E+00 -0.13003397541E+04  0.13003397541E+04  0.00000000000E+00 0. -1.
          2    1    1    2  501    0  0.23346683672E+02  0.15236718666E+02  0.15035573845E+03  0.15291851856E+03  0.00000000000E+00 0. -1.
          2    1    1    2  502    0 -0.23346683672E+02 -0.15236718666E+02 -0.12989087893E+04  0.12992079387E+04  0.00000000000E+00 0. -1.
</event>
<event>
 4    1  0.6210801E+003  0.3544183E+02  0.7546771E-02  0.1377483E+00
          2   -1    0    0  502    0  0.00000000000E+00  0.00000000000E+00  0.73734703125E+00  0.73734703125E+00  0.00000000000E+00 0. -1.
          2   -1    0    0  501    0 -0.00000000000E+00 -0.00000000000E+00 -0.19171984995E+04  0.19171984995E+04  0.00000000000E+00 0. -1.
          2    1    1    2  501    0  0.25829543646E+02  0.24268458179E+02 -0.63812104042E+03  0.63910451853E+03  0.00000000000E+00 0. -1.
          2    1    1    2  502    0 -0.25829543646E+02 -0.24268458179E+02 -0.12783401120E+04  0.12788313280E+04  0.00000000000E+00 0. -1.
</event>
<event>
 4    1  0.6210801E+003  0.2916534E+02  0.7546771E-02  0.1426991E+00
          2   -1    0    0  501    0  0.00000000000E+00  0.00000000000E+00  0.88116477704E+03  0.88116477704E+03  0.00000000000E+00 0. -1.
          2   -1    0    0  502    0 -0.00000000000E+00 -0.00000000000E+00 -0.17774594552E+01  0.17774594552E+01  0.00000000000E+00 0. -1.
          2    1    1    2  501    0 -0.23684929153E+02  0.17018843810E+02  0.14128293016E+03  0.14426185659E+03  0.00000000000E+00 0. -1.
          2    1    1    2  502    0  0.23684929153E+02 -0.17018843810E+02  0.73810438743E+03  0.73868037990E+03  0.00000000000E+00 0. -1.
</event>
<event>
 4    1  0.6210801E+003  0.6691713E+02  0.7546771E-02  0.1237984E+00
          2   -1    0    0  502    0  0.00000000000E+00  0.00000000000E+00  0.55041879845E+02  0.55041879845E+02  0.00000000000E+00 0.  1.
          2   -1    0    0  501    0 -0.00000000000E+00 -0.00000000000E+00 -0.13111127220E+03  0.13111127220E+03  0.00000000000E+00 0.  1.
          2    1    1    2  501    0 -0.32228899581E+02  0.58644700686E+02  0.19303842382E+02  0.69645826992E+02  0.00000000000E+00 0.  1.
          2    1    1    2  502    0  0.32228899581E+02 -0.58644700686E+02 -0.95373234738E+02  0.11650732505E+03  0.00000000000E+00 0.  1.
</event>
<event>
 4    1  0.6210801E+003  0.5726605E+02  0.7546771E-02  0.1269416E+00
          2   -1    0    0  502    0  0.00000000000E+00  0.00000000000E+00  0.20427482324E+04  0.20427482324E+04  0.00000000000E+00 0.  1.
          2   -1    0    0  501    0 -0.00000000000E+00 -0.00000000000E+00 -0.42904059368E+01  0.42904059368E+01  0.00000000000E+00 0.  1.
          2    1    1    2  501    0  0.12491351836E+02  0.55887086645E+02  0.18289222650E+04  0.18298185844E+04  0.00000000000E+00 0.  1.
          2    1    1    2  502    0 -0.12491351836E+02 -0.55887086645E+02  0.20953556149E+03  0.21722005398E+03  0.00000000000E+00 0.  1.
</event>
<event>
 4    1  0.6210801E+003  0.2152618E+02  0.7546771E-02  0.1511883E+00
          2   -1    0    0  502    0  0.00000000000E+00  0.00000000000E+00  0.60963066008E+00  0.60963066008E+00  0.00000000000E+00 0. -1.
          2   -1    0    0  501    0 -0.00000000000E+00 -0.00000000000E+00 -0.11974760351E+04  0.11974760351E+04  0.00000000000E+00 0.  1.
          2    1    1    2  501    0 -0.20968836927E+02  0.48666453906E+01 -0.23639438848E+03  0.23737245684E+03  0.00000000000E+00 0. -1.
          2    1    1    2  502    0  0.20968836927E+02 -0.48666453906E+01 -0.96047201594E+03  0.96071320891E+03  0.00000000000E+00 0.  1.
</event>
<event>
 4    1  0.6210801E+003  0.2772845E+02  0.7546771E-02  0.1440425E+00
          2   -1    0    0  501    0  0.00000000000E+00  0.00000000000E+00  0.14589498179E+04  0.14589498179E+04  0.00000000000E+00 0.  1.
          2   -1    0    0  502    0 -0.00000000000E+00 -0.00000000000E+00 -0.56982280264E+01  0.56982280264E+01  0.00000000000E+00 0. -1.
          2    1    1    2  501    0  0.18339715214E+02  0.20797154408E+02  0.28987669898E+02  0.40114234278E+02  0.00000000000E+00 0. -1.
          2    1    1    2  502    0 -0.18339715214E+02 -0.20797154408E+02  0.14242639200E+04  0.14245338117E+04  0.00000000000E+00 0.  1.
</event>
<event>
 4    1  0.6210801E+003  0.2195816E+02  0.7546771E-02  0.1506012E+00
          2   -1    0    0  501    0  0.00000000000E+00  0.00000000000E+00  0.15355164827E+03  0.15355164827E+03  0.00000000000E+00 0.  1.
          2   -1    0    0  502    0 -0.00000000000E+00 -0.00000000000E+00 -0.83764403160E+02  0.83764403160E+02  0.00000000000E+00 0. -1.
          2    1    1    2  501    0 -0.21105438602E+01  0.21856493631E+02 -0.81519107856E+02  0.84424674443E+02  0.00000000000E+00 0. -1.
          2    1    1    2  502    0  0.21105438602E+01 -0.21856493631E+02  0.15130635296E+03  0.15289137698E+03  0.00000000000E+00 0.  1.
</event>
<event>
 4    1  0.6210801E+003  0.2563024E+02  0.7546771E-02  0.1461875E+00
          2   -1    0    0  501    0  0.00000000000E+00  0.00000000000E+00  0.42290059628E+03  0.42290059628E+03  0.00000000000E+00 0.  1.
          2   -1    0    0  502    0 -0.00000000000E+00 -0.00000000000E+00 -0.59645080425E+01  0.59645080425E+01  0.00000000000E+00 0.  1.
          2    1    1    2  501    0 -0.13606024290E+02 -0.21720622413E+02  0.24059901280E+02  0.35153779094E+02  0.00000000000E+00 0.  1.
          2    1    1    2  502    0  0.13606024290E+02  0.21720622413E+02  0.39287618696E+03  0.39371132523E+03  0.00000000000E+00 0.  1.
</event>
<event>
 4    1  0.6210801E+003  0.2850647E+02  0.7546771E-02  0.1433035E+00
          2   -1    0    0  502    0  0.00000000000E+00  0.00000000000E+00  0.21874525335E+03  0.21874525335E+03  0.00000000000E+00 0.  1.
          2   -1    0    0  501    0 -0.00000000000E+00 -0.00000000000E+00 -0.18190526809E+04  0.18190526809E+04  0.00000000000E+00 0.  1.
          2    1    1    2  501    0 -0.28487051621E+02 -0.10519827013E+01  0.21770431270E+03  0.21956271666E+03  0.00000000000E+00 0.  1.
          2    1    1    2  502    0  0.28487051621E+02  0.10519827013E+01 -0.18180117403E+04  0.18182352176E+04  0.00000000000E+00 0.  1.
</event>
<event>
 4    1  0.6210801E+003  0.2941957E+02  0.7546771E-02  0.1424708E+00
          2   -1    0    0  502    0  0.00000000000E+00  0.00000000000E+00  0.76323037378E+03  0.76323037378E+03  0.00000000000E+00 0. -1.
          2   -1    0    0  501    0 -0.00000000000E+00 -0.00000000000E+00 -0.66242106095E+01  0.66242106095E+01  0.00000000000E+00 0. -1.
          2    1    1    2  501    0 -0.29409819443E+02 -0.75722903629E+00  0.72873668592E+03  0.72933028751E+03  0.00000000000E+00 0. -1.
          2    1    1    2  502    0  0.29409819443E+02  0.75722903629E+00  0.27869477258E+02  0.40524296886E+02  0.00000000000E+00 0. -1.
</event>
<event>
 4    1  0.6210801E+003  0.2092711E+02  0.7546771E-02  0.1520308E+00
          2   -1    0    0  502    0  0.00000000000E+00  0.00000000000E+00  0.67724409042E+00  0.67724409042E+00  0.00000000000E+00 0. -1.
          2   -1    0    0  501    0 -0.00000000000E+00 -0.00000000000E+00 -0.80203435365E+03  0.80203435365E+03  0.00000000000E+00 0.  1.
          2    1    1    2  501    0 -0.13643188009E+02  0.15868436026E+02 -0.22402249122E+03  0.22499782313E+03  0.00000000000E+00 0. -1.
          2    1    1    2  502    0  0.13643188009E+02 -0.15868436026E+02 -0.57733461834E+03  0.57771377462E+03  0.00000000000E+00 0.  1.
</event>
<event>
 4    1  0.6210801E+003  0.3311842E+02  0.7546771E-02  0.1394297E+00
          2   -1    0    0  502    0  0.00000000000E+00  0.00000000000E+00  0.12725452323E+03  0.12725452323E+03  0.00000000000E+00 0.  1.
          2   -1    0    0  501    0 -0.00000000000E+00 -0.00000000000E+00 -0.44194033038E+03  0.44194033038E+03  0.00000000000E+00 0. -1.
          2    1    1    2  501    0 -0.19829281867E+02 -0.26526013830E+02  0.12446560016E+03  0.12879641086E+03  0.00000000000E+00 0.  1.
          2    1    1    2  502    0  0.19829281867E+02  0.26526013830E+02 -0.43915140731E+03  0.44039844275E+03  0.00000000000E+00 0. -1.
</event>
<event>
 4    1  0.6210801E+003  0.2002861E+02  0.7546771E-02  0.1533599E+00
          2   -1    0    0  501    0  0.00000000000E+00  0.00000000000E+00  0.37593352755E+01  0.37593352755E+01  0.00000000000E+00 0. -1.
          2   -1    0    0  502    0 -0.00000000000E+00 -0.00000000000E+00 -0.11358076507E+03  0.11358076507E+03  0.00000000000E+00 0.  1.
          2    1    1    2  501    0  0.12855302488E+02  0.15358593740E+02 -0.69344484610E+02  0.72178963345E+02  0.00000000000E+00 0.  1.
          2    1    1    2  502    0 -0.12855302488E+02 -0.15358593740E+02 -0.40476945185E+02  0.45161137001E+02  0.00000000000E+00 0. -1.
</event>
<event>
 4    1  0.6210801E+003  0.2175980E+02  0.7546771E-02  0.1508687E+00
          2   -1    0    0  502    0  0.00000000000E+00  0.00000000000E+00  0.11413683914E+02  0.11413683914E+02  0.00000000000E+00 0. -1.
          2   -1    0    0  501    0 -0.00000000000E+00 -0.00000000000E+00 -0.55583031301E+03  0.55583031301E+03  0.00000000000E+00 0.  1.
          2    1    1    2  501    0 -0.15664900060E+02  0.15102976870E+02  0.62442006967E+00  0.21768759833E+02  0.00000000000E+00 0. -1.
          2    1    1    2  502    0  0.15664900060E+02 -0.15102976870E+02 -0.54504104916E+03  0.54547523709E+03  0.00000000000E+00 0.  1.
</event>
<event>
 4    1  0.1280896E+004  0.2344314E+02  0.7546771E-02  0.1487007E+00
          2   -1    0    0  502    0  0.00000000000E+00  0.00000000000E+00  0.59539826790E+03  0.59539826790E+03  0.00000000000E+00 0.  1.
          2   -1    0    0  501    0 -0.00000000000E+00 -0.00000000000E+00 -0.14481216514E+04  0.14481216514E+04  0.00000000000E+00 0. -1.
          2    1    1    2  501    0  0.23068721761E+02  0.41731162852E+01  0.59507257592E+03  0.59553417319E+03  0.00000000000E+00 0.  1.
          2    1    1    2  502    0 -0.23068721761E+02 -0.41731162852E+01 -0.14477959594E+04  0.14479857461E+04  0.00000000000E+00 0. -1.
</event>
<event>
 4    1  0.6210801E+003  0.2793916E+02  0.7546771E-02  0.1438395E+00
          2   -1    0    0  502    0  0.00000000000E+00  0.00000000000E+00  0.17876711277E+02  0.17876711277E+02  0.00000000000E+00 0. -1.
          2   -1    0    0  501    0 -0.00000000000E+00 -0.00000000000E+00 -0.50364105563E+02  0.50364105563E+02  0.00000000000E+00 0.  1.
          2    1    1    2  501    0 -0.22187729918E+02  0.16979444226E+02 -0.38001724134E+01  0.28196421679E+02  0.00000000000E+00 0. -1.
          2    1    1    2  502    0  0.22187729918E+02 -0.16979444226E+02 -0.28687221872E+02  0.40044395162E+02  0.00000000000E+00 0.  1.
</event>
<event>
 4    1  0.6210801E+003  0.2653468E+02  0.7546771E-02  0.1452339E+00
          2   -1    0    0  502    0  0.00000000000E+00  0.00000000000E+00  0.88825452504E+02  0.88825452504E+02  0.00000000000E+00 0.  1.
          2   -1    0    0  501    0 -0.00000000000E+00 -0.00000000000E+00 -0.37735139840E+03  0.37735139840E+03  0.00000000000E+00 0.  1.
          2    1    1    2  501    0 -0.22793790957E+02  0.13584263712E+02  0.86364326562E+02  0.90348691354E+02  0.00000000000E+00 0.  1.
          2    1    1    2  502    0  0.22793790957E+02 -0.13584263712E+02 -0.37489027246E+03  0.37582815955E+03  0.00000000000E+00 0.  1.
</event>
<event>
 4    1  0.6210801E+003  0.3103212E+02  0.7546771E-02  0.1410834E+00
          2   -1    0    0  501    0  0.00000000000E+00  0.00000000000E+00  0.18423478871E+01  0.18423478871E+01  0.00000000000E+00 0. -1.
          2   -1    0    0  502    0 -0.00000000000E+00 -0.00000000000E+00 -0.72989752144E+03  0.72989752144E+03  0.00000000000E+00 0. -1.
          2    1    1    2  501    0  0.29766550194E+02 -0.87718306253E+01 -0.55896248796E+03  0.55982323592E+03  0.00000000000E+00 0. -1.
          2    1    1    2  502    0 -0.29766550194E+02  0.87718306253E+01 -0.16909268559E+03  0.17191663341E+03  0.00000000000E+00 0. -1.
</event>
<event>
 4    1  0.6210801E+003  0.2772322E+02  0.7546771E-02  0.1440475E+00
          2   -1    0    0  501    0  0.00000000000E+00  0.00000000000E+00  0.50958571011E+00  0.50958571011E+00  0.00000000000E+00 0.  1.
          2   -1    0    0  502    0 -0.00000000000E+00 -0.00000000000E+00 -0.20575694086E+04  0.20575694086E+04  0.00000000000E+00 0. -1.
          2    1    1    2  501    0  0.17367536357E+02  0.21608921962E+02 -0.15602361839E+04  0.15604824659E+04  0.00000000000E+00 0. -1.
          2    1    1    2  502    0 -0.17367536357E+02 -0.21608921962E+02 -0.49682363892E+03  0.49759652834E+03  0.00000000000E+00 0.  1.
</event>
<event>
 4    1  0.6210801E+003  0.2109815E+02  0.7546771E-02  0.1517868E+00
          2   -1    0    0  501    0  0.00000000000E+00  0.00000000000E+00  0.32260066862E+01  0.32260066862E+01  0.00000000000E+00 0. -1.
          2   -1    0    0  502    0 -0.00000000000E+00 -0.00000000000E+00 -0.13825579065E+03  0.13825579065E+03  0.00000000000E+00 0. -1.
          2    1    1    2  501    0 -0.17113590761E+02  0.12339235593E+02 -0.64368416042E+02  0.67737911892E+02  0.00000000000E+00 0. -1.
          2    1    1    2  502    0  0.17113590761E+02 -0.12339235593E+02 -0.70661367917E+02  0.73743885440E+02  0.00000000000E+00 0. -1.
</event>
<event>
 4    1  0.6210801E+003  0.2988322E+02  0.7546771E-02  0.1420614E+00
          2   -1    0    0  502    0  0.00000000000E+00  0.00000000000E+00  0.40177852118E+01  0.40177852118E+01  0.00000000000E+00 0. -1.
          2   -1    0    0  501    0 -0.00000000000E+00 -0.00000000000E+00 -0.11883664282E+04  0.11883664282E+04  0.00000000000E+00 0. -1.
          2    1    1    2  501    0  0.16906317735E+02  0.24641086124E+02 -0.54619513472E+02  0.62259922556E+02  0.00000000000E+00 0. -1.
          2    1    1    2  502    0 -0.16906317735E+02 -0.24641086124E+02 -0.11297291295E+04  0.11301242909E+04  0.00000000000E+00 0. -1.
</event>
<event>
 4    1  0.6210801E+003  0.2033632E+02  0.7546771E-02  0.1528955E+00
          2   -1    0    0  501    0  0.00000000000E+00  0.00000000000E+00  0.54755155400E+01  0.54755155400E+01  0.00000000000E+00 0.  1.
          2   -1    0    0  502    0 -0.00000000000E+00 -0.00000000000E+00 -0.46699398793E+03  0.46699398793E+03  0.00000000000E+00 0. -1.
          2    1    1    2  501    0  0.15857900245E+02  0.12731564372E+02 -0.44704804289E+03  0.44751035562E+03  0.00000000000E+00 0. -1.
          2    1    1    2  502    0 -0.15857900245E+02 -0.12731564372E+02 -0.14470429493E+02  0.24959147847E+02  0.00000000000E+00 0.  1.
</event>
<event>
 4    1  0.6210801E+003  0.3226560E+02  0.7546771E-02  0.1400878E+00
          2   -1    0    0  501    0  0.00000000000E+00  0.00000000000E+00  0.21482779325E+03  0.21482779325E+03  0.00000000000E+00 0. -1.
          2   -1    0    0  502    0 -0.00000000000E+00 -0.00000000000E+00 -0.49377014418E+01  0.49377014418E+01  0.00000000000E+00 0. -1.
          2    1    1    2  501    0 -0.95523622174E+01 -0.30819172235E+02  0.89975585222E+02  0.95585955753E+02  0.00000000000E+00 0. -1.
          2    1    1    2  502    0  0.95523622174E+01  0.30819172235E+02  0.11991450659E+03  0.12417953894E+03  0.00000000000E+00 0. -1.
</event>
<event>
 4    1  0.6514104E+003  0.3909549E+02  0.7546771E-02  0.1353869E+00
          2   -1    0    0  501    0  0.00000000000E+00  0.00000000000E+00  0.21366984267E+04  0.21366984267E+04  0.00000000000E+00 0. -1.
          2   -1    0    0  502    0 -0.00000000000E+00 -0.00000000000E+00 -0.17805305278E+04  0.17805305278E+04  0.00000000000E+00 0.  1.
          2    1    1    2  501    0 -0.38495790559E+02 -0.68214243267E+01 -0.17801370471E+04  0.17805663044E+04  0.00000000000E+00 0.  1.
          2    1    1    2  502    0  0.38495790559E+02  0.68214243267E+01  0.21363049460E+04  0.21366626501E+04  0.00000000000E+00 0. -1.
</event>
<event>
 4    1  0.6210801E+003  0.2192512E+02  0.7546771E-02  0.1506455E+00
          2   -1    0    0  502    0  0.00000000000E+00  0.00000000000E+00  0.66483705594E+03  0.66483705594E+03  0.00000000000E+00 0.  1.
          2   -1    0    0  501    0 -0.00000000000E+00 -0.00000000000E+00 -0.16199162498E+02  0.16199162498E+02  0.00000000000E+00 0.  1.
          2    1    1    2  501    0 -0.17514251585E+02 -0.13189468040E+02  0.65715078042E+03  0.65751643271E+03  0.00000000000E+00 0.  1.
          2    1    1    2  502    0  0.17514251585E+02  0.13189468040E+02 -0.85128869823E+01  0.23519785725E+02  0.00000000000E+00 0.  1.
</event>
<event>
 4    1  0.6210801E+003  0.2092475E+02  0.7546771E-02  0.1520342E+00
          2   -1    0    0  501    0  0.00000000000E+00  0.00000000000E+00  0.73435318418E+01  0.73435318418E+01  0.00000000000E+00 0.  1.
          2   -1    0    0  502    0 -0.00000000000E+00 -0.00000000000E+00 -0.99058562519E+03  0.99058562519E+03  0.00000000000E+00 0. -1.
          2    1    1    2  501    0  0.82687091046E+01  0.19221691205E+02 -0.97533629580E+03  0.97556072843E+03  0.00000000000E+00 0. -1.
          2    1    1    2  502    0 -0.82687091046E+01 -0.19221691205E+02 -0.79057975516E+01  0.22368428599E+02  0.00000000000E+00 0.  1.
</event>
<event>
 4    1  0.6210801E+003  0.2316417E+02  0.7546771E-02  0.1490447E+00
          2   -1    0    0  501    0  0.00000000000E+00  0.00000000000E+00  0.22743432492E+02  0.22743432492E+02  0.00000000000E+00 0. -1.
          2   -1    0    0  502    0 -0.00000000000E+00 -0.00000000000E+00 -0.21392660930E+03  0.21392660930E+03  0.00000000000E+00 0. -1.
          2    1    1    2  501    0  0.23082066102E+02  0.19485533967E+01 -0.20721080987E+03  0.20850155483E+03  0.00000000000E+00 0. -1.
          2    1    1    2  502    0 -0.23082066102E+02 -0.19485533967E+01  0.16027633071E+02  0.28168486962E+02  0.00000000000E+00 0. -1.
</event>
<event>
 4    1  0.6210801E+003  0.3227387E+02  0.7546771E-02  0.1400813E+00
          2   -1    0    0  501    0  0.00000000000E+00  0.00000000000E+00  0.24380103936E+04  0.24380103936E+04  0.00000000000E+00 0. -1.
          2   -1    0    0  502    0 -0.00000000000E+00 -0.00000000000E+00 -0.14705983665E+01  0.14705983665E+01  0.00000000000E+00 0.  1.
          2    1    1    2  501    0  0.31826292160E+02 -0.53562833611E+01  0.19087298261E+03  0.19358227743E+03  0.00000000000E+00 0.  1.
          2    1    1    2  502    0 -0.31826292160E+02  0.53562833611E+01  0.22456668126E+04  0.22458987145E+04  0.00000000000E+00 0. -1.
</event>
<event>
 4    1  0.6210801E+003  0.2797361E+02  0.7546771E-02  0.1438066E+00
          2   -1    0    0  501    0  0.00000000000E+00  0.00000000000E+00  0.22590612471E+02  0.22590612471E+02  0.00000000000E+00 0. -1.
          2   -1    0    0  502    0 -0.00000000000E+00 -0.00000000000E+00 -0.11151558936E+04  0.11151558936E+04  0.00000000000E+00 0. -1.
          2    1    1    2  501    0  0.27877564469E+02 -0.23160283286E+01 -0.11062509467E+04  0.11066045724E+04  0.00000000000E+00 0. -1.
          2    1    1    2  502    0 -0.27877564469E+02  0.23160283286E+01  0.13685665600E+02  0.31141933640E+02  0.00000000000E+00 0. -1.
</event>
<event>
 4    1  0.6210801E+003  0.3329093E+02  0.7546771E-02  0.1392994E+00
          2   -1    0    0  502    0  0.00000000000E+00  0.00000000000E+00  0.93019616568E+03  0.93019616568E+03  0.00000000000E+00 0.  1.
          2   -1    0    0  501    0 -0.00000000000E+00 -0.00000000000E+00 -0.71858863587E+02  0.71858863587E+02  0.00000000000E+00 0.  1.
          2    1    1    2  501    0 -0.27091841507E+02 -0.19347308739E+02  0.92602516627E+03  0.92662338347E+03  0.00000000000E+00 0.  1.
          2    1    1    2  502    0  0.27091841507E+02  0.19347308739E+02 -0.67687864173E+02  0.75431645799E+02  0.00000000000E+00 0.  1.
</event>
<event>
 4    1  0.6210801E+003  0.2112545E+02  0.7546771E-02  0.1517481E+00
          2   -1    0    0  501    0  0.00000000000E+00  0.00000000000E+00  0.16021499027E+02  0.16021499027E+02  0.00000000000E+00 0. -1.
          2   -1    0    0  502    0 -0.00000000000E+00 -0.00000000000E+00 -0.18776778759E+03  0.18776778759E+03  0.00000000000E+00 0. -1.
          2    1    1    2  501    0 -0.88864580133E+01 -0.19165473481E+02 -0.17990649820E+03  0.18114257535E+03  0.00000000000E+00 0. -1.
          2    1    1    2  502    0  0.88864580133E+01  0.19165473481E+02  0.81602096399E+01  0.22646711265E+02  0.00000000000E+00 0. -1.
</event>
<event>
 4    1  0.6210801E+003  0.3115489E+02  0.7546771E-02  0.1409819E+00
          2   -1    0    0  501    0  0.00000000000E+00  0.00000000000E+00  0.99102034174E+03  0.99102034174E+03  0.00000000000E+00 0. -1.
          2   -1    0    0  502    0 -0.00000000000E+00 -0.00000000000E+00 -0.13141035294E+03  0.13141035294E+03  0.00000000000E+00 0. -1.
          2    1    1    2  501    0  0.12062678880E+02 -0.28724884379E+02 -0.12931502820E+03  0.13301505074E+03  0.00000000000E+00 0. -1.
          2    1    1    2  502    0 -0.12062678880E+02  0.28724884379E+02  0.98892501701E+03  0.98941564394E+03  0.00000000000E+00 0. -1.
</event>
<event>
 4    1  0.6210801E+003  0.2084790E+02  0.7546771E-02  0.1521448E+00
          2   -1    0    0  501    0  0.00000000000E+00  0.00000000000E+00  0.95117382301E+03  0.95117382301E+03  0.00000000000E+00 0. -1.
          2   -1    0    0  502    0 -0.00000000000E+00 -0.00000000000E+00 -0.35108528104E+01  0.35108528104E+01  0.00000000000E+00 0. -1.
          2    1    1    2  501    0 -0.15233342152E+02  0.14233060852E+02  0.28635170773E+02  0.35420442396E+02  0.00000000000E+00 0. -1.
          2    1    1    2  502    0  0.15233342152E+02 -0.14233060852E+02  0.91902779943E+03  0.91926423343E+03  0.00000000000E+00 0. -1.
</event>
<event>
 4    1  0.6210801E+003  0.3938387E+02  0.7546771E-02  0.1352135E+00
          2   -1    0    0  501    0  0.00000000000E+00  0.00000000000E+00  0.10398692796E+01  0.10398692796E+01  0.00000000000E+00 0. -1.
          2   -1    0    0  502    0 -0.00000000000E+00 -0.00000000000E+00 -0.15130583638E+04  0.15130583638E+04  0.00000000000E+00 0.  1.
          2    1    1    2  501    0 -0.38473860494E+02  0.84173064803E+01 -0.84612486646E+03  0.84704095452E+03  0.00000000000E+00 0.  1.
          2    1    1    2  502    0  0.38473860494E+02 -0.84173064803E+01 -0.66589362802E+03  0.66705727852E+03  0.00000000000E+00 0. -1.
</event>
<event>
 4    1  0.6210801E+003  0.2842844E+02  0.7546771E-02  0.1433764E+00
          2   -1    0    0  502    0  0.00000000000E+00  0.00000000000E+00  0.84853023299E+03  0.84853023299E+03  0.00000000000E+00 0.  1.
          2   -1    0    0  501    0 -0.00000000000E+00 -0.00000000000E+00 -0.19711618227E+03  0.19711618227E+03  0.00000000000E+00 0.  1.
          2    1    1    2  501    0 -0.25269791272E+02 -0.13023583609E+02  0.84726559325E+03  0.84774239106E+03  0.00000000000E+00 0.  1.
          2    1    1    2  502    0  0.25269791272E+02  0.13023583609E+02 -0.19585154254E+03  0.19790402420E+03  0.00000000000E+00 0.  1.
</event>
<event>
 4    1  0.6210801E+003  0.3090504E+02  0.7546771E-02  0.1411891E+00
          2   -1    0    0  502    0  0.00000000000E+00  0.00000000000E+00  0.19122269298E+03  0.19122269298E+03  0.00000000000E+00 0.  1.
          2   -1    0    0  501    0 -0.00000000000E+00 -0.00000000000E+00 -0.44418670655E+02  0.44418670655E+02  0.00000000000E+00 0.  1.
          2    1    1    2  501    0 -0.29521627402E+02  0.91430150554E+01  0.18440082127E+03  0.18697268275E+03  0.00000000000E+00 0.  1.
          2    1    1    2  502    0  0.29521627402E+02 -0.91430150554E+01 -0.37596798943E+02  0.48668680890E+02  0.00000000000E+00 0.  1.
</event>
<event>
 4    1  0.6210801E+003  0.2231608E+02  0.7546771E-02  0.1501269E+00
          2   -1    0    0  502    0  0.00000000000E+00  0.00000000000E+00  0.76177548644E+03  0.76177548644E+03  0.00000000000E+00 0.  1.
          2   -1    0    0  501    0 -0.00000000000E+00 -0.00000000000E+00 -0.28348075609E+02  0.28348075609E+02  0.00000000000E+00 0.  1.
          2    1    1    2  501    0 -0.13795920620E+02 -0.17540813975E+02  0.75719358026E+03  0.75752235978E+03  0.00000000000E+00 0.  1.
          2    1    1    2  502    0  0.13795920620E+02  0.17540813975E+02 -0.23766169423E+02  0.32601202274E+02  0.00000000000E+00 0.  1.
</event>
<event>
 4    1  0.6210801E+003  0.2927079E+02  0.7546771E-02  0.1426041E+00
          2   -1    0    0  501    0  0.00000000000E+00  0.00000000000E+00  0.11092482984E+04  0.11092482984E+04  0.00000000000E+00 0. -1.
          2   -1    0    0  502    0 -0.00000000000E+00 -0.00000000000E+00 -0.78175332566E+01  0.78175332566E+01  0.00000000000E+00 0.  1.
          2    1    1    2  501    0 -0.16960188343E+02  0.23856469230E+02  0.20492302295E+02  0.35731128811E+02  0.00000000000E+00 0.  1.
          2    1    1    2  502    0  0.16960188343E+02 -0.23856469230E+02  0.10809384628E+04  0.10813347028E+04  0.00000000000E+00 0. -1.
</event>
<event>
 4    1  0.6210801E+003  0.3623033E+02  0.7546771E-02  0.1372114E+00
          2   -1    0    0  502    0  0.00000000000E+00  0.00000000000E+00  0.11730964954E+04  0.11730964954E+04  0.00000000000E+00 0.  1.
          2   -1    0    0  501    0 -0.00000000000E+00 -0.00000000000E+00 -0.17628317219E+02  0.17628317219E+02  0.00000000000E+00 0.  1.
          2    1    1    2  501    0  0.74261281085E+01 -0.35461097271E+02  0.11538915473E+04  0.11544601940E+04  0.00000000000E+00 0.  1.
          2    1    1    2  502    0 -0.74261281085E+01  0.35461097271E+02  0.15766309678E+01  0.36264618619E+02  0.00000000000E+00 0.  1.
</event>
<event>
 4    1  0.6210801E+003  0.4764885E+02  0.7546771E-02  0.1308701E+00
          2   -1    0    0  502    0  0.00000000000E+00  0.00000000000E+00  0.68235516410E+02  0.68235516410E+02  0.00000000000E+00 0.  1.
          2   -1    0    0  501    0 -0.00000000000E+00 -0.00000000000E+00 -0.39170926307E+03  0.39170926307E+03  0.00000000000E+00 0.  1.
          2    1    1    2  501    0 -0.21649203167E+02  0.42446734491E+02  0.58251451639E+02  0.75257191582E+02  0.00000000000E+00 0.  1.
          2    1    1    2  502    0  0.21649203167E+02 -0.42446734491E+02 -0.38172519830E+03  0.38468758790E+03  0.00000000000E+00 0.  1.
</event>
<event>
 4    1  0.6210801E+003  0.2351256E+02  0.7546771E-02  0.1486160E+00
          2   -1    0    0  502    0  0.00000000000E+00  0.00000000000E+00  0.19858451972E+01  0.19858451972E+01  0.00000000000E+00 0.  1.
          2   -1    0    0  501    0 -0.00000000000E+00 -0.00000000000E+00 -0.57700872683E+03  0.57700872683E+03  0.00000000000E+00 0. -1.
          2    1    1    2  501    0 -0.23345602273E+02 -0.27970621543E+01 -0.79248802869E+02  0.82663253374E+02  0.00000000000E+00 0.  1.
          2    1    1    2  502    0  0.23345602273E+02  0.27970621543E+01 -0.49577407877E+03  0.49633131866E+03  0.00000000000E+00 0. -1.
</event>
<event>
 4    1  0.6210801E+003  0.2105238E+02  0.7546771E-02  0.1518518E+00
          2   -1    0    0  502    0  0.00000000000E+00  0.00000000000E+00  0.10893981705E+04  0.10893981705E+04  0.00000000000E+00 0.  1.
          2   -1    0    0  501    0 -0.00000000000E+00 -0.00000000000E+00 -0.10040664749E+01  0.10040664749E+01  0.00000000000E+00 0. -1.
          2    1    1    2  501    0 -0.75035940160E+01  0.19669743101E+02  0.96467934552E+03  0.96490903322E+03  0.00000000000E+00 0.  1.
          2    1    1    2  502    0  0.75035940160E+01 -0.19669743101E+02  0.12371475855E+03  0.12549320380E+03  0.00000000000E+00 0. -1.
</event>
<event>
 4    1  0.6210801E+003  0.2484630E+02  0.7546771E-02  0.1470530E+00
          2   -1    0    0  501    0  0.00000000000E+00  0.00000000000E+00  0.36256159511E+02  0.36256159511E+02  0.00000000000E+00 0.  1.
          2   -1    0    0  502    0 -0.00000000000E+00 -0.00000000000E+00 -0.34243708662E+02  0.34243708662E+02  0.00000000000E+00 0. -1.
          2    1    1    2  501    0 -0.22029270749E+02 -0.11491291821E+02 -0.23988090958E+02  0.34536459941E+02  0.00000000000E+00 0. -1.
          2    1    1    2  502    0  0.22029270749E+02  0.11491291821E+02  0.26000541807E+02  0.35963408233E+02  0.00000000000E+00 0.  1.
</event>
<event>
 4    1  0.6210801E+003  0.4644043E+02  0.7546771E-02  0.1314390E+00
          2   -1    0    0  502    0  0.00000000000E+00  0.00000000000E+00  0.46889547617E+02  0.46889547617E+02  0.00000000000E+00 0. -1.
          2   -1    0    0  501    0 -0.00000000000E+00 -0.00000000000E+00 -0.23710428956E+03  0.23710428956E+03  0.00000000000E+00 0. -1.
          2    1    1    2  501    0  0.38837498804E+02  0.25462951747E+02  0.32374791959E+02  0.56611309643E+02  0.00000000000E+00 0. -1.
          2    1    1    2  502    0 -0.38837498804E+02 -0.25462951747E+02 -0.22258953390E+03  0.22738252753E+03  0.00000000000E+00 0. -1.
</event>
<event>
 4    1  0.6210801E+003  0.3139254E+02  0.7546771E-02  0.1407869E+00
          2   -1    0    0  502    0  0.00000000000E+00  0.00000000000E+00  0.15487819910E+02  0.15487819910E+02  0.00000000000E+00 0. -1.
          2   -1    0    0  501    0 -0.00000000000E+00 -0.00000000000E+00 -0.19233996754E+03  0.19233996754E+03  0.00000000000E+00 0. -1.
          2    1    1    2  501    0 -0.31362616563E+02  0.13704459239E+01 -0.34210218609E+01  0.31578398159E+02  0.00000000000E+00 0. -1.
          2    1    1    2  502    0  0.31362616563E+02 -0.13704459239E+01 -0.17343112577E+03  0.17624938929E+03  0.00000000000E+00 0. -1.
</event>
<event>
 4    1  0.6210801E+003  0.2942735E+02  0.7546771E-02  0.1424639E+00
          2   -1    0    0  501    0  0.00000000000E+00  0.00000000000E+00  0.89145302844E+02  0.89145302844E+02  0.00000000000E+00 0. -1.
          2   -1    0    0  502    0 -0.00000000000E+00 -0.00000000000E+00 -0.15028120020E+02  0.15028120020E+02  0.00000000000E+00 0. -1.
          2    1    1    2  501    0 -0.21914995707E+02  0.19639297465E+02  0.60854691398E+01  0.30049991288E+02  0.00000000000E+00 0. -1.
          2    1    1    2  502    0  0.21914995707E+02 -0.19639297465E+02  0.68031713684E+02  0.74123431576E+02  0.00000000000E+00 0. -1.
</event>
<event>
 4    1  0.6210801E+003  0.2074580E+02  0.7546771E-02  0.1522925E+00
          2   -1    0    0  501    0  0.00000000000E+00  0.00000000000E+00  0.15242699563E+03  0.15242699563E+03  0.00000000000E+00 0.  1.
          2   -1    0    0  502    0 -0.00000000000E+00 -0.00000000000E+00 -0.40710308887E+01  0.40710308887E+01  0.00000000000E+00 0. -1.
          2    1    1    2  501    0  0.19947340682E+02 -0.57001575529E+01  0.30862789832E+02  0.37187363346E+02  0.00000000000E+00 0. -1.
          2    1    1    2  502    0 -0.19947340682E+02  0.57001575529E+01  0.11749317491E+03  0.11931066317E+03  0.00000000000E+00 0.  1.
</event>
<event>
 4    1  0.6210801E+003  0.3942377E+02  0.7546771E-02  0.1351896E+00
          2   -1    0    0  501    0  0.00000000000E+00  0.00000000000E+00  0.52155038152E+02  0.52155038152E+02  0.00000000000E+00 0.  1.
          2   -1    0    0  502    0 -0.00000000000E+00 -0.00000000000E+00 -0.84981205886E+03  0.84981205886E+03  0.00000000000E+00 0.  1.
          2    1    1    2  501    0 -0.37430050346E+02  0.12378421725E+02 -0.84183419989E+03  0.84275681789E+03  0.00000000000E+00 0.  1.
          2    1    1    2  502    0  0.37430050346E+02 -0.12378421725E+02  0.44177179182E+02  0.59210279123E+02  0.00000000000E+00 0.  1.
</event>
<event>
 4    1  0.6210801E+003  0.2341616E+02  0.7546771E-02  0.1487338E+00
          2   -1    0    0  501    0  0.00000000000E+00  0.00000000000E+00  0.28487330755E+02  0.28487330755E+02  0.00000000000E+00 0. -1.
          2   -1    0    0  502    0 -0.00000000000E+00 -0.00000000000E+00 -0.19252000374E+02  0.19252000374E+02  0.00000000000E+00 0. -1.
          2    1    1    2  501    0 -0.23227037703E+02  0.29700380170E+01  0.42620987212E+01  0.23800880063E+02  0.00000000000E+00 0. -1.
          2    1    1    2  502    0  0.23227037703E+02 -0.29700380170E+01  0.49732316599E+01  0.23938451066E+02  0.00000000000E+00 0. -1.
</event>
<event>
 4    1  0.6210801E+003  0.2005176E+02  0.7546771E-02  0.1533246E+00
          2   -1    0    0  502    0  0.00000000000E+00  0.00000000000E+00  0.72449202317E+03  0.72449202317E+03  0.00000000000E+00 0. -1.
          2   -1    0    0  501    0 -0.00000000000E+00 -0.00000000000E+00 -0.28590598541E+02  0.28590598541E+02  0.00000000000E+00 0.  1.
          2    1    1    2  501    0  0.79983774523E+01  0.18387474206E+02  0.72081958923E+03  0.72109843535E+03  0.00000000000E+00 0. -1.
          2    1    1    2  502    0 -0.79983774523E+01 -0.18387474206E+02 -0.24918164604E+02  0.31984186355E+02  0.00000000000E+00 0.  1.
</event>
<event>
 4    1  0.6210801E+003  0.2046753E+02  0.7546771E-02  0.1527005E+00
          2   -1    0    0  502    0  0.00000000000E+00  0.00000000000E+00  0.14610515074E+03  0.14610515074E+03  0.00000000000E+00 0. -1.
          2   -1    0    0  501    0 -0.00000000000E+00 -0.00000000000E+00 -0.18783545840E+03  0.18783545840E+03  0.00000000000E+00 0.  1.
          2    1    1    2  501    0  0.20466154571E+02 -0.23758407814E+00  0.14482587527E+03  0.14626501317E+03  0.00000000000E+00 0. -1.
          2    1    1    2  502    0 -0.20466154571E+02  0.23758407814E+00 -0.18655618294E+03  0.18767559597E+03  0.00000000000E+00 0.  1.
</event>
<event>
 4    1  0.6210801E+003  0.2289246E+02  0.7546771E-02  0.1493853E+00
          2   -1    0    0  501    0  0.00000000000E+00  0.00000000000E+00  0.60427202174E+02  0.60427202174E+02  0.00000000000E+00 0. -1.
          2   -1    0    0  502    0 -0.00000000000E+00 -0.00000000000E+00 -0.50789090977E+03  0.50789090977E+03  0.00000000000E+00 0.  1.
          2    1    1    2  501    0 -0.17694801000E+02 -0.14524414569E+02 -0.50545433706E+03  0.50597248093E+03  0.00000000000E+00 0.  1.
          2    1    1    2  502    0  0.17694801000E+02  0.14524414569E+02  0.57990629466E+02  0.62345631017E+02  0.00000000000E+00 0. -1.
</event>
<event>
 4    1  0.6210801E+003  0.6173817E+02  0.7546771E-02  0.1254039E+00
          2   -1    0    0  502    0  0.00000000000E+00  0.00000000000E+00  0.23531428920E+04  0.23531428920E+04  0.00000000000E+00 0. -1.
          2   -1    0    0  501    0 -0.00000000000E+00 -0.00000000000E+00 -0.55248373631E+02  0.55248373631E+02  0.00000000000E+00 0. -1.
          2    1    1    2  501    0 -0.17620154012E+02 -0.59170365496E+02  0.23353590506E+04  0.23361749714E+04  0.00000000000E+00 0. -1.
          2    1    1    2  502    0  0.17620154012E+02  0.59170365496E+02 -0.37464532187E+02  0.72216294230E+02  0.00000000000E+00 0. -1.
</event>
<event>
 4    1  0.6210801E+003  0.2755795E+02  0.7546771E-02  0.1442082E+00
          2   -1    0    0  502    0  0.00000000000E+00  0.00000000000E+00  0.38386464039E+01  0.38386464039E+01  0.00000000000E+00 0. -1.
          2   -1    0    0  501    0 -0.00000000000E+00 -0.00000000000E+00 -0.19244836153E+04  0.19244836153E+04  0.00000000000E+00 0. -1.
          2    1    1    2  501    0  0.15015519962E+02 -0.23107898077E+02 -0.47063894046E+02  0.54538526896E+02  0.00000000000E+00 0. -1.
          2    1    1    2  502    0 -0.15015519962E+02  0.23107898077E+02 -0.18735810749E+04  0.18737837348E+04  0.00000000000E+00 0. -1.
</event>
<event>
 4    1  0.6210801E+003  0.2023733E+02  0.7546771E-02  0.1530438E+00
          2   -1    0    0  502    0  0.00000000000E+00  0.00000000000E+00  0.25121907005E+01  0.25121907005E+01  0.00000000000E+00 0. -1.
          2   -1    0    0  501    0 -0.00000000000E+00 -0.00000000000E+00 -0.21652342309E+03  0.21652342309E+03  0.00000000000E+00 0. -1.
          2    1    1    2  501    0  0.16923257788E+02  0.11097424770E+02 -0.52567457131E+02  0.56328385739E+02  0.00000000000E+00 0. -1.
          2    1    1    2  502    0 -0.16923257788E+02 -0.11097424770E+02 -0.16144377526E+03  0.16270722805E+03  0.00000000000E+00 0. -1.
</event>
<event>
 4    1  0.6210801E+003  0.5131278E+02  0.7546771E-02  0.1292579E+00
          2   -1    0    0  501    0  0.00000000000E+00  0.00000000000E+00  0.35844104188E+04  0.35844104188E+04  0.00000000000E+00 0. -1.
          2   -1    0    0  502    0 -0.00000000000E+00 -0.00000000000E+00 -0.80351639798E+03  0.80351639798E+03  0.00000000000E+00 0.  1.
          2    1    1    2  501    0  0.40084437648E+02 -0.32034965621E+02 -0.80251331410E+03  0.80415211277E+03  0.00000000000E+00 0.  1.
          2    1    1    2  502    0 -0.40084437648E+02  0.32034965621E+02  0.35834073349E+04  0.35837747040E+04  0.00000000000E+00 0. -1.
</event>
<event>
 4    1  0.6210801E+003  0.2378902E+02  0.7546771E-02  0.1482821E+00
          2   -1    0    0  501    0  0.00000000000E+00  0.00000000000E+00  0.62556773891E+01  0.62556773891E+01  0.00000000000E+00 0. -1.
          2   -1    0    0  502    0 -0.00000000000E+00 -0.00000000000E+00 -0.10926487698E+04  0.10926487698E+04  0.00000000000E+00 0.  1.
          2    1    1    2  501    0  0.57185706398E+00 -0.23782144325E+02 -0.10694117744E+04  0.10696763345E+04  0.00000000000E+00 0.  1.
          2    1    1    2  502    0 -0.57185706398E+00  0.23782144325E+02 -0.16981318029E+02  0.29228112686E+02  0.00000000000E+00 0. -1.
</event>
<event>
 4    1  0.6210801E+003  0.2953677E+02  0.7546771E-02  0.1423665E+00
          2   -1    0    0  501    0  0.00000000000E+00  0.00000000000E+00  0.73116938152E+02  0.73116938152E+02  0.00000000000E+00 0. -1.
          2   -1    0    0  502    0 -0.00000000000E+00 -0.00000000000E+00 -0.83982981913E+02  0.83982981913E+02  0.00000000000E+00 0. -1.
          2    1    1    2  501    0  0.95571129205E+01  0.27947847274E+02 -0.78189340682E+02  0.83582256316E+02  0.00000000000E+00 0. -1.
          2    1    1    2  502    0 -0.95571129205E+01 -0.27947847274E+02  0.67323296921E+02  0.73517663748E+02  0.00000000000E+00 0. -1.
</event>
<event>
 4    1  0.6210801E+003  0.2840853E+02  0.7546771E-02  0.1433950E+00
          2   -1    0    0  501    0  0.00000000000E+00  0.00000000000E+00  0.55922448551E+03  0.55922448551E+03  0.00000000000E+00 0. -1.
          2   -1    0    0  502    0 -0.00000000000E+00 -0.00000000000E+00 -0.48903440612E+03  0.48903440612E+03  0.00000000000E+00 0. -1.
          2    1    1    2  501    0 -0.18195057750E+02 -0.21817062874E+02 -0.48826047709E+03  0.48908622742E+03  0.00000000000E+00 0. -1.
          2    1    1    2  502    0  0.18195057750E+02  0.21817062874E+02  0.55845055649E+03  0.55917266421E+03  0.00000000000E+00 0. -1.
</event>
<event>
 4    1  0.6210801E+003  0.2766123E+02  0.7546771E-02  0.1441077E+00
          2   -1    0    0  502    0  0.00000000000E+00  0.00000000000E+00  0.21429724900E+04  0.21429724900E+04  0.00000000000E+00 0. -1.
          2   -1    0    0  501    0 -0.00000000000E+00 -0.00000000000E+00 -0.83207374340E+00  0.83207374340E+00  0.00000000000E+00 0. -1.
          2    1    1    2  501    0  0.11654413661E+02 -0.25086215640E+02  0.18809731187E+04  0.18811764980E+04  0.00000000000E+00 0. -1.
          2    1    1    2  502    0 -0.11654413661E+02  0.25086215640E+02  0.26116729760E+03  0.26262806573E+03  0.00000000000E+00 0. -1.
</event>
<event>
 4    1  0.6210801E+003  0.2324922E+02  0.7546771E-02  0.1489392E+00
          2   -1    0    0  502    0  0.00000000000E+00  0.00000000000E+00  0.26685278192E+01  0.26685278192E+01  0.00000000000E+00 0. -1.
          2   -1    0    0  501    0 -0.00000000000E+00 -0.00000000000E+00 -0.45119380546E+03  0.45119380546E+03  0.00000000000E+00 0.  1.
          2    1    1    2  501    0 -0.11980003911E+01 -0.23218333856E+02 -0.55802872990E+02  0.60452352030E+02  0.00000000000E+00 0. -1.
          2    1    1    2  502    0  0.11980003911E+01  0.23218333856E+02 -0.39272240465E+03  0.39340998125E+03  0.00000000000E+00 0.  1.
</event>
<event>
 4    1  0.6210801E+003  0.2052020E+02  0.7546771E-02  0.1526227E+00
          2   -1    0    0  501    0  0.00000000000E+00  0.00000000000E+00  0.32461009986E+03  0.32461009986E+03  0.00000000000E+00 0.  1.
          2   -1    0    0  502    0 -0.00000000000E+00 -0.00000000000E+00 -0.99670611775E+01  0.99670611775E+01  0.00000000000E+00 0. -1.
          2    1    1    2  501    0 -0.14407431069E+02 -0.14611793755E+02  0.12982978819E+01  0.20561229636E+02  0.00000000000E+00 0. -1.
          2    1    1    2  502    0  0.14407431069E+02  0.14611793755E+02  0.31334474080E+03  0.31401593140E+03  0.00000000000E+00 0.  1.
</event>
<event>
 4    1  0.6210801E+003  0.2050042E+02  0.7546771E-02  0.1526518E+00
          2   -1    0    0  501    0  0.00000000000E+00  0.00000000000E+00  0.17976384371E+02  0.17976384371E+02  0.00000000000E+00 0.  1.
          2   -1    0    0  502    0 -0.00000000000E+00 -0.00000000000E+00 -0.35664401674E+02  0.35664401674E+02  0.00000000000E+00 0.  1.
          2    1    1    2  501    0 -0.15866114321E+02 -0.12982054808E+02 -0.24585463328E+02  0.32011128342E+02  0.00000000000E+00 0.  1.
          2    1    1    2  502    0  0.15866114321E+02  0.12982054808E+02  0.68974460255E+01  0.21629657703E+02  0.00000000000E+00 0.  1.
</event>
<event>
 4    1  0.6210801E+003  0.2174879E+02  0.7546771E-02  0.1508837E+00
          2   -1    0    0  501    0  0.00000000000E+00  0.00000000000E+00  0.25718070853E+01  0.25718070853E+01  0.00000000000E+00 0. -1.
          2   -1    0    0  502    0 -0.00000000000E+00 -0.00000000000E+00 -0.24844931381E+03  0.24844931381E+03  0.00000000000E+00 0. -1.
          2    1    1    2  501    0 -0.20848878998E+02  0.61914427661E+01 -0.18690281287E+03  0.18816394761E+03  0.00000000000E+00 0. -1.
          2    1    1    2  502    0  0.20848878998E+02 -0.61914427661E+01 -0.58974693854E+02  0.62857173291E+02  0.00000000000E+00 0. -1.
</event>
<event>
 4    1  0.6210801E+003  0.2687079E+02  0.7546771E-02  0.1448910E+00
          2   -1    0    0  502    0  0.00000000000E+00  0.00000000000E+00  0.54730083235E+00  0.54730083235E+00  0.00000000000E+00 0. -1.
          2   -1    0    0  501    0 -0.00000000000E+00 -0.00000000000E+00 -0.13452003310E+04  0.13452003310E+04  0.00000000000E+00 0.  1.
          2    1    1    2  501    0 -0.22186773734E+02  0.15158709599E+02 -0.57891163167E+03  0.57953491413E+03  0.00000000000E+00 0. -1.
          2    1    1    2  502    0  0.22186773734E+02 -0.15158709599E+02 -0.76574139847E+03  0.76621271768E+03  0.00000000000E+00 0.  1.
</event>
<event>
 4    1  0.6210801E+003  0.2731105E+02  0.7546771E-02  0.1444508E+00
          2   -1    0    0  501    0  0.00000000000E+00  0.00000000000E+00  0.32540897817E+01  0.32540897817E+01  0.00000000000E+00 0. -1.
          2   -1    0    0  502    0 -0.00000000000E+00 -0.00000000000E+00 -0.23458758173E+03  0.23458758173E+03  0.00000000000E+00 0. -1.
          2    1    1    2  501    0  0.24792659028E+02  0.11455018980E+02 -0.97673589327E+02  0.10142003477E+03  0.00000000000E+00 0. -1.
          2    1    1    2  502    0 -0.24792659028E+02 -0.11455018980E+02 -0.13365990262E+03  0.13642163674E+03  0.00000000000E+00 0. -1.
</event>
<event>
 4    1  0.6210801E+003  0.2317151E+02  0.7546771E-02  0.1490356E+00
          2   -1    0    0  501    0  0.00000000000E+00  0.00000000000E+00  0.31110389367E+02  0.31110389367E+02  0.00000000000E+00 0. -1.
          2   -1    0    0  502    0 -0.00000000000E+00 -0.00000000000E+00 -0.19845924056E+02  0.19845924056E+02  0.00000000000E+00 0. -1.
          2    1    1    2  501    0 -0.22686294825E+02  0.47170695193E+01 -0.35673045089E+01  0.23444495713E+02  0.00000000000E+00 0. -1.
          2    1    1    2  502    0  0.22686294825E+02 -0.47170695193E+01  0.14831769820E+02  0.27511817711E+02  0.00000000000E+00 0. -1.
</event>
<event>
 4    1  0.6210801E+003  0.2900005E+02  0.7546771E-02  0.1428490E+00
          2   -1    0    0  501    0  0.00000000000E+00  0.00000000000E+00  0.20616642871E+03  0.20616642871E+03  0.00000000000E+00 0. -1.
          2   -1    0    0  502    0 -0.00000000000E+00 -0.00000000000E+00 -0.56034729428E+01  0.56034729428E+01  0.00000000000E+00 0.  1.
          2    1    1    2  501    0  0.21164847311E+01 -0.28922709618E+02  0.45057070193E+02  0.53583040355E+02  0.00000000000E+00 0.  1.
          2    1    1    2  502    0 -0.21164847311E+01  0.28922709618E+02  0.15550588557E+03  0.15818686130E+03  0.00000000000E+00 0. -1.
</event>
<event>
 4    1  0.6210801E+003  0.3326981E+02  0.7546771E-02  0.1393153E+00
          2   -1    0    0  502    0  0.00000000000E+00  0.00000000000E+00  0.73806951120E+02  0.73806951120E+02  0.00000000000E+00 0. -1.
          2   -1    0    0  501    0 -0.00000000000E+00 -0.00000000000E+00 -0.52987745279E+02  0.52987745279E+02  0.00000000000E+00 0.  1.
          2    1    1    2  501    0  0.27557920579E+02 -0.18639784563E+02  0.64090832713E+02  0.72211601513E+02  0.00000000000E+00 0. -1.
          2    1    1    2  502    0 -0.27557920579E+02  0.18639784563E+02 -0.43271626872E+02  0.54583094886E+02  0.00000000000E+00 0.  1.
</event>
<event>
 4    1  0.6210801E+003  0.2907576E+02  0.7546771E-02  0.1427802E+00
          2   -1    0    0  501    0  0.00000000000E+00  0.00000000000E+00  0.78486321505E+03  0.78486321505E+03  0.00000000000E+00 0.  1.
          2   -1    0    0  502    0 -0.00000000000E+00 -0.00000000000E+00 -0.12513785562E+02  0.12513785562E+02  0.00000000000E+00 0. -1.
          2    1    1    2  501    0  0.27088393548E+02  0.10564974271E+02  0.50309012802E+01  0.29507790735E+02  0.00000000000E+00 0. -1.
          2    1    1    2  502    0 -0.27088393548E+02 -0.10564974271E+02  0.76731852821E+03  0.76786920988E+03  0.00000000000E+00 0.  1.
</event>
<event>
 4    1  0.6210801E+003  0.4003804E+02  0.7546771E-02  0.1348263E+00
          2   -1    0    0  502    0  0.00000000000E+00  0.00000000000E+00  0.98128235359E+01  0.98128235359E+01  0.00000000000E+00 0. -1.
          2   -1    0    0  501    0 -0.00000000000E+00 -0.00000000000E+00 -0.29562370009E+03  0.29562370009E+03  0.00000000000E+00 0.  1.
          2    1    1    2  501    0  0.34041777347E+02  0.21076101560E+02 -0.40755517700E+02  0.57131925269E+02  0.00000000000E+00 0. -1.
          2    1    1    2  502    0 -0.34041777347E+02 -0.21076101560E+02 -0.24505535885E+03  0.24830459836E+03  0.00000000000E+00 0.  1.
</event>
<event>
 4    1  0.6210801E+003  0.2030365E+02  0.7546771E-02  0.1529443E+00
          2   -1    0    0  502    0  0.00000000000E+00  0.00000000000E+00  0.89547473555E+01  0.89547473555E+01  0.00000000000E+00 0.  1.
          2   -1    0    0  501    0 -0.00000000000E+00 -0.00000000000E+00 -0.61170450765E+03  0.61170450765E+03  0.00000000000E+00 0. -1.
          2    1    1    2  501    0 -0.14048426777E+02  0.14658779171E+02 -0.29510406147E+01  0.20516986680E+02  0.00000000000E+00 0.  1.
          2    1    1    2  502    0  0.14048426777E+02 -0.14658779171E+02 -0.59979871968E+03  0.60014226833E+03  0.00000000000E+00 0. -1.
</event>
<event>
 4    1  0.6210801E+003  0.2654914E+02  0.7546771E-02  0.1452190E+00
          2   -1    0    0  501    0  0.00000000000E+00  0.00000000000E+00  0.23698770690E+04  0.23698770690E+04  0.00000000000E+00 0.  1.
          2   -1    0    0  502    0 -0.00000000000E+00 -0.00000000000E+00 -0.40304059064E+00  0.40304059064E+00  0.00000000000E+00 0.  1.
          2    1    1    2  501    0 -0.72331264346E+01  0.25544834343E+02  0.57805268659E+03  0.57866204745E+03  0.00000000000E+00 0.  1.
          2    1    1    2  502    0  0.72331264346E+01 -0.25544834343E+02  0.17914213419E+04  0.17916180622E+04  0.00000000000E+00 0.  1.
</event>
<event>
 4    1  0.6210801E+003  0.2595033E+02  0.7546771E-02  0.1458447E+00
          2   -1    0    0  502    0  0.00000000000E+00  0.00000000000E+00  0.49854897732E+03  0.49854897732E+03  0.00000000000E+00 0.  1.
          2   -1    0    0  501    0 -0.00000000000E+00 -0.00000000000E+00 -0.11526531463E+02  0.11526531463E+02  0.00000000000E+00 0. -1.
          2    1    1    2  501    0  0.21195100904E+02  0.14972880806E+02  0.48313993402E+03  0.48383635178E+03  0.00000000000E+00 0.  1.
          2    1    1    2  502    0 -0.21195100904E+02 -0.14972880806E+02  0.38825118386E+01  0.26239157001E+02  0.00000000000E+00 0. -1.
</event>
<event>
 4    1  0.6210801E+003  0.2014745E+02  0.7546771E-02  0.1531794E+00
          2   -1    0    0  502    0  0.00000000000E+00  0.00000000000E+00  0.63165888521E+02  0.63165888521E+02  0.00000000000E+00 0.  1.
          2   -1    0    0  501    0 -0.00000000000E+00 -0.00000000000E+00 -0.29168964305E+03  0.29168964305E+03  0.00000000000E+00 0.  1.
          2    1    1    2  501    0 -0.10351757467E+02  0.17284703068E+02  0.61200536917E+02  0.64431557188E+02  0.00000000000E+00 0.  1.
          2    1    1    2  502    0  0.10351757467E+02 -0.17284703068E+02 -0.28972429145E+03  0.29042397439E+03  0.00000000000E+00 0.  1.
</event>
<event>
 4    1  0.6210801E+003  0.2211961E+02  0.7546771E-02  0.1503859E+00
          2   -1    0    0  501    0  0.00000000000E+00  0.00000000000E+00  0.29987405386E+00  0.29987405386E+00  0.00000000000E+00 0.  1.
          2   -1    0    0  502    0 -0.00000000000E+00 -0.00000000000E+00 -0.16471226131E+04  0.16471226131E+04  0.00000000000E+00 0.  1.
          2    1    1    2  501    0 -0.10100599930E+02 -0.19678797093E+02 -0.74347029844E+03  0.74379927524E+03  0.00000000000E+00 0.  1.
          2    1    1    2  502    0  0.10100599930E+02  0.19678797093E+02 -0.90335244061E+03  0.90362321193E+03  0.00000000000E+00 0.  1.
</event>
<event>
 4    1  0.6210801E+003  0.3565618E+02  0.7546771E-02  0.1376008E+00
          2   -1    0    0  502    0  0.00000000000E+00  0.00000000000E+00  0.23686735881E+04  0.23686735881E+04  0.00000000000E+00 0. -1.
          2   -1    0    0  501    0 -0.00000000000E+00 -0.00000000000E+00 -0.61308857259E+02  0.61308857259E+02  0.00000000000E+00 0. -1.
          2    1    1    2  501    0 -0.28576850215E+02 -0.21324327932E+02  0.23633434550E+04  0.23636124153E+04  0.00000000000E+00 0. -1.
          2    1    1    2  502    0  0.28576850215E+02  0.21324327932E+02 -0.55978724181E+02  0.66370030066E+02  0.00000000000E+00 0. -1.
</event>
<event>
 4    1  0.6210801E+003  0.3281946E+02  0.7546771E-02  0.1396577E+00
          2   -1    0    0  502    0  0.00000000000E+00  0.00000000000E+00  0.79849579123E+03  0.79849579123E+03  0.00000000000E+00 0.  1.
          2   -1    0    0  501    0 -0.00000000000E+00 -0.00000000000E+00 -0.19131552912E+01  0.19131552912E+01  0.00000000000E+00 0.  1.
          2    1    1    2  501    0  0.45591459158E+01  0.32501250759E+02  0.18095512833E+03  0.18390724723E+03  0.00000000000E+00 0.  1.
          2    1    1    2  502    0 -0.45591459158E+01 -0.32501250759E+02  0.61562750761E+03  0.61650169930E+03  0.00000000000E+00 0.  1.
</event>
<event>
 4    1  0.6210801E+003  0.2682090E+02  0.7546771E-02  0.1449416E+00
          2   -1    0    0  502    0  0.00000000000E+00  0.00000000000E+00  0.66411097565E+01  0.66411097565E+01  0.00000000000E+00 0.  1.
          2   -1    0    0  501    0 -0.00000000000E+00 -0.00000000000E+00 -0.24178958732E+03  0.24178958732E+03  0.00000000000E+00 0. -1.
          2    1    1    2  501    0 -0.87649403237E+01 -0.25348303364E+02 -0.25285504681E+02  0.36860784165E+02  0.00000000000E+00 0.  1.
          2    1    1    2  502    0  0.87649403237E+01  0.25348303364E+02 -0.20986297288E+03  0.21156991291E+03  0.00000000000E+00 0. -1.
</event>
<event>
 4    1  0.6210801E+003  0.5198908E+02  0.7546771E-02  0.1289771E+00
          2   -1    0    0  502    0  0.00000000000E+00  0.00000000000E+00  0.45835712980E+02  0.45835712980E+02  0.00000000000E+00 0.  1.
          2   -1    0    0  501    0 -0.00000000000E+00 -0.00000000000E+00 -0.19831325758E+04  0.19831325758E+04  0.00000000000E+00 0. -1.
          2    1    1    2  501    0  0.49054319537E+02 -0.17220280773E+02  0.30639029340E+02  0.60345790690E+02  0.00000000000E+00 0.  1.
          2    1    1    2  502    0 -0.49054319537E+02  0.17220280773E+02 -0.19679358922E+04  0.19686224981E+04  0.00000000000E+00 0. -1.
</event>
<event>
 4    1  0.6210801E+003  0.5075569E+02  0.7546771E-02  0.1294929E+00
          2   -1    0    0  501    0  0.00000000000E+00  0.00000000000E+00  0.16637448408E+04  0.16637448408E+04  0.00000000000E+00 0. -1.
          2   -1    0    0  502    0 -0.00000000000E+00 -0.00000000000E+00 -0.19070548595E+02  0.19070548595E+02  0.00000000000E+00 0. -1.
          2    1    1    2  501    0 -0.49805999717E+02 -0.97725549024E+01  0.15810758386E+02  0.53161268964E+02  0.00000000000E+00 0. -1.
          2    1    1    2  502    0  0.49805999717E+02  0.97725549024E+01  0.16288635339E+04  0.16296541205E+04  0.00000000000E+00 0. -1.
</event>
<event>
 4    1  0.6210801E+003  0.6215076E+02  0.7546771E-02  0.1252695E+00
          2   -1    0    0  501    0  0.00000000000E+00  0.00000000000E+00  0.67494025932E+03  0.67494025932E+03  0.00000000000E+00 0. -1.
          2   -1    0    0  502    0 -0.00000000000E+00 -0.00000000000E+00 -0.28448466396E+03  0.28448466396E+03  0.00000000000E+00 0.  1.
          2    1    1    2  501    0 -0.25549752260E+02  0.56656222867E+02 -0.27963489982E+03  0.28645836456E+03  0.00000000000E+00 0.  1.
          2    1    1    2  502    0  0.25549752260E+02 -0.56656222867E+02  0.67009049518E+03  0.67296655872E+03  0.00000000000E+00 0. -1.
</event>
<event>
 4    1  0.6210801E+003  0.2445120E+02  0.7546771E-02  0.1475037E+00
          2   -1    0    0  501    0  0.00000000000E+00  0.00000000000E+00  0.16833834560E+02  0.16833834560E+02  0.00000000000E+00 0.  1.
          2   -1    0    0  502    0 -0.00000000000E+00 -0.00000000000E+00 -0.11603732222E+03  0.11603732222E+03  0.00000000000E+00 0.  1.
          2    1    1    2  501    0 -0.16271975006E+02 -0.18250586479E+02 -0.10494425031E+03  0.10775507761E+03  0.00000000000E+00 0.  1.
          2    1    1    2  502    0  0.16271975006E+02  0.18250586479E+02  0.57407626455E+01  0.25116079176E+02  0.00000000000E+00 0.  1.
</event>
<event>
 4    1  0.6210801E+003  0.3287264E+02  0.7546771E-02  0.1396169E+00
          2   -1    0    0  502    0  0.00000000000E+00  0.00000000000E+00  0.10140417946E+01  0.10140417946E+01  0.00000000000E+00 0. -1.
          2   -1    0    0  501    0 -0.00000000000E+00 -0.00000000000E+00 -0.12066439148E+04  0.12066439148E+04  0.00000000000E+00 0.  1.
          2    1    1    2  501    0  0.29431402557E+02 -0.14642511860E+02 -0.39640567887E+03  0.39776635460E+03  0.00000000000E+00 0. -1.
          2    1    1    2  502    0 -0.29431402557E+02  0.14642511860E+02 -0.80922419413E+03  0.80989160199E+03  0.00000000000E+00 0.  1.
</event>
<event>
 4    1  0.6210801E+003  0.3045853E+02  0.7546771E-02  0.1415653E+00
          2   -1    0    0  502    0  0.00000000000E+00  0.00000000000E+00  0.34095419323E+02  0.34095419323E+02  0.00000000000E+00 0.  1.
          2   -1    0    0  501    0 -0.00000000000E+00 -0.00000000000E+00 -0.48651777567E+02  0.48651777567E+02  0.00000000000E+00 0.  1.
          2    1    1    2  501    0 -0.29530375192E+02  0.74618436009E+01  0.20188651353E+02  0.36541809101E+02  0.00000000000E+00 0.  1.
          2    1    1    2  502    0  0.29530375192E+02 -0.74618436009E+01 -0.34745009597E+02  0.46205387790E+02  0.00000000000E+00 0.  1.
</event>
<event>
 4    1  0.6210801E+003  0.4993466E+02  0.7546771E-02  0.1298456E+00
          2   -1    0    0  501    0  0.00000000000E+00  0.00000000000E+00  0.14353883039E+02  0.14353883039E+02  0.00000000000E+00 0.  1.
          2   -1    0    0  502    0 -0.00000000000E+00 -0.00000000000E+00 -0.66322227084E+03  0.66322227084E+03  0.00000000000E+00 0.  1.
          2    1    1    2  501    0  0.48539273133E+02 -0.11722160292E+02 -0.61549156021E+03  0.61751383043E+03  0.00000000000E+00 0.  1.
          2    1    1    2  502    0 -0.48539273133E+02  0.11722160292E+02 -0.33376827587E+02  0.60062323448E+02  0.00000000000E+00 0.  1.
</event>
<event>
 4    1  0.6210801E+003  0.2859449E+02  0.7546771E-02  0.1432217E+00
          2   -1    0    0  502    0  0.00000000000E+00  0.00000000000E+00  0.83128914421E+01  0.83128914421E+01  0.00000000000E+00 0.  1.
          2   -1    0    0  501    0 -0.00000000000E+00 -0.00000000000E+00 -0.12824256683E+03  0.12824256683E+03  0.00000000000E+00 0.  1.
          2    1    1    2  501    0  0.10860778769E+02 -0.26451622501E+02 -0.27005257839E+02  0.39331015743E+02  0.00000000000E+00 0.  1.
          2    1    1    2  502    0 -0.10860778769E+02  0.26451622501E+02 -0.92924417551E+02  0.97224442531E+02  0.00000000000E+00 0.  1.
</event>
<event>
 4    1  0.6210801E+003  0.3758814E+02  0.7546771E-02  0.1363230E+00
          2   -1    0    0  501    0  0.00000000000E+00  0.00000000000E+00  0.12849628764E+03  0.12849628764E+03  0.00000000000E+00 0. -1.
          2   -1    0    0  502    0 -0.00000000000E+00 -0.00000000000E+00 -0.19468505843E+04  0.19468505843E+04  0.00000000000E+00 0.  1.
          2    1    1    2  501    0  0.32366123277E+02  0.19112889369E+02 -0.19439161544E+04  0.19442795282E+04  0.00000000000E+00 0.  1.
          2    1    1    2  502    0 -0.32366123277E+02 -0.19112889369E+02  0.12556185774E+03  0.13106734374E+03  0.00000000000E+00 0. -1.
</event>
<event>
 4    1  0.7862633E+003  0.2161205E+02  0.7546771E-02  0.1510703E+00
          2   -1    0    0  501    0  0.00000000000E+00  0.00000000000E+00  0.61595585650E+03  0.61595585650E+03  0.00000000000E+00 0. -1.
          2   -1    0    0  502    0 -0.00000000000E+00 -0.00000000000E+00 -0.10033047992E+04  0.10033047992E+04  0.00000000000E+00 0.  1.
          2    1    1    2  501    0 -0.21453039770E+02  0.26168270299E+01 -0.10029987803E+04  0.10032315954E+04  0.00000000000E+00 0.  1.
          2    1    1    2  502    0  0.21453039770E+02 -0.26168270299E+01  0.61564983756E+03  0.61602906034E+03  0.00000000000E+00 0. -1.
</event>
<event>
 4    1  0.6210801E+003  0.2233215E+02  0.7546771E-02  0.1501059E+00
          2   -1    0    0  502    0  0.00000000000E+00  0.00000000000E+00  0.82615273688E+01  0.82615273688E+01  0.00000000000E+00 0. -1.
          2   -1    0    0  501    0 -0.00000000000E+00 -0.00000000000E+00 -0.35596645848E+03  0.35596645848E+03  0.00000000000E+00 0. -1.
          2    1    1    2  501    0 -0.12006072087E+02 -0.18830275819E+02 -0.78974174956E+01  0.23687428258E+02  0.00000000000E+00 0. -1.
          2    1    1    2  502    0  0.12006072087E+02  0.18830275819E+02 -0.33980751361E+03  0.34054055759E+03  0.00000000000E+00 0. -1.
</event>
<event>
 4    1  0.6210801E+003  0.2032242E+02  0.7546771E-02  0.1529163E+00
          2   -1    0    0  501    0  0.00000000000E+00  0.00000000000E+00  0.43689928941E+03  0.43689928941E+03  0.00000000000E+00 0. -1.
          2   -1    0    0  502    0 -0.00000000000E+00 -0.00000000000E+00 -0.24636789753E+01  0.24636789753E+01  0.00000000000E+00 0.  1.
          2    1    1    2  501    0  0.18948368911E+02  0.73457616797E+01  0.44756572550E+02  0.49154365884E+02  0.00000000000E+00 0.  1.
          2    1    1    2  502    0 -0.18948368911E+02 -0.73457616797E+01  0.38967903788E+03  0.39020860250E+03  0.00000000000E+00 0. -1.
</event>
<event>
 4    1  0.6210801E+003  0.2126628E+02  0.7546771E-02  0.1515497E+00
          2   -1    0    0  502    0  0.00000000000E+00  0.00000000000E+00  0.15168537794E+04  0.15168537794E+04  0.00000000000E+00 0.  1.
          2   -1    0    0  501    0 -0.00000000000E+00 -0.00000000000E+00 -0.99544030685E+01  0.99544030685E+01  0.00000000000E+00 0. -1.
          2    1    1    2  501    0  0.20284651717E+02 -0.63865270554E+01  0.15053341665E+04  0.15054843764E+04  0.00000000000E+00 0.  1.
          2    1    1    2  502    0 -0.20284651717E+02  0.63865270554E+01  0.15652098488E+01  0.21323806062E+02  0.00000000000E+00 0. -1.
</event>
<event>
 4    1  0.6210801E+003  0.2036601E+02  0.7546771E-02  0.1528512E+00
          2   -1    0    0  502    0  0.00000000000E+00  0.00000000000E+00  0.21996165131E+03  0.21996165131E+03  0.00000000000E+00 0.  1.
          2   -1    0    0  501    0 -0.00000000000E+00 -0.00000000000E+00 -0.58453962016E+01  0.58453962016E+01  0.00000000000E+00 0. -1.
          2    1    1    2  501    0 -0.14804429179E+02  0.13985825579E+02  0.19998327523E+03  0.20101762314E+03  0.00000000000E+00 0.  1.
          2    1    1    2  502    0  0.14804429179E+02 -0.13985825579E+02  0.14132979874E+02  0.24789424369E+02  0.00000000000E+00 0. -1.
</event>
<event>
 4    1  0.6210801E+003  0.2119029E+02  0.7546771E-02  0.1516565E+00
          2   -1    0    0  501    0  0.00000000000E+00  0.00000000000E+00  0.14207548824E+02  0.14207548824E+02  0.00000000000E+00 0. -1.
          2   -1    0    0  502    0 -0.00000000000E+00 -0.00000000000E+00 -0.14359941786E+04  0.14359941786E+04  0.00000000000E+00 0.  1.
          2    1    1    2  501    0  0.34812086245E+01 -0.20902382169E+02 -0.14279703810E+04  0.14281275984E+04  0.00000000000E+00 0.  1.
          2    1    1    2  502    0 -0.34812086245E+01  0.20902382169E+02  0.61837511828E+01  0.22074129032E+02  0.00000000000E+00 0. -1.
</event>
<event>
 4    1  0.6210801E+003  0.3241565E+02  0.7546771E-02  0.1399703E+00
          2   -1    0    0  501    0  0.00000000000E+00  0.00000000000E+00  0.17089817642E+02  0.17089817642E+02  0.00000000000E+00 0. -1.
          2   -1    0    0  502    0 -0.00000000000E+00 -0.00000000000E+00 -0.26788388058E+03  0.26788388058E+03  0.00000000000E+00 0.  1.
          2    1    1    2  501    0 -0.31658556088E+02  0.69649135976E+01 -0.25046749079E+03  0.25255640586E+03  0.00000000000E+00 0.  1.
          2    1    1    2  502    0  0.31658556088E+02 -0.69649135976E+01 -0.32657214695E+00  0.32417292367E+02  0.00000000000E+00 0. -1.
</event>
<event>
 4    1  0.6210801E+003  0.2782065E+02  0.7546771E-02  0.1439534E+00
          2   -1    0    0  502    0  0.00000000000E+00  0.00000000000E+00  0.15077528409E+01  0.15077528409E+01  0.00000000000E+00 0. -1.
          2   -1    0    0  501    0 -0.00000000000E+00 -0.00000000000E+00 -0.98978074702E+03  0.98978074702E+03  0.00000000000E+00 0.  1.
          2    1    1    2  501    0 -0.11231429527E+01  0.27797971964E+02 -0.15025772542E+03  0.15281155959E+03  0.00000000000E+00 0. -1.
          2    1    1    2  502    0  0.11231429527E+01 -0.27797971964E+02 -0.83801526876E+03  0.83847694027E+03  0.00000000000E+00 0.  1.
</event>
<event>
 4    1  0.6210801E+003  0.2373638E+02  0.7546771E-02  0.1483453E+00
          2   -1    0    0  502    0  0.00000000000E+00  0.00000000000E+00  0.19348502150E+02  0.19348502150E+02  0.00000000000E+00 0. -1.
          2   -1    0    0  501    0 -0.00000000000E+00 -0.00000000000E+00 -0.29191784798E+02  0.29191784798E+02  0.00000000000E+00 0. -1.
          2    1    1    2  501    0  0.23682758626E+02  0.15945150016E+01 -0.37125537380E+01  0.24024957638E+02  0.00000000000E+00 0. -1.
          2    1    1    2  502    0 -0.23682758626E+02 -0.15945150016E+01 -0.61307289092E+01  0.24515329310E+02  0.00000000000E+00 0. -1.
</event>
<event>
 4    1  0.6210801E+003  0.2649497E+02  0.7546771E-02  0.1452748E+00
          2   -1    0    0  501    0  0.00000000000E+00  0.00000000000E+00  0.71467660485E+02  0.71467660485E+02  0.00000000000E+00 0.  1.
          2   -1    0    0  502    0 -0.00000000000E+00 -0.00000000000E+00 -0.66565827573E+03  0.66565827573E+03  0.00000000000E+00 0.  1.
          2    1    1    2  501    0  0.21645122094E+01 -0.26406404770E+02 -0.66292892946E+03  0.66345817415E+03  0.00000000000E+00 0.  1.
          2    1    1    2  502    0 -0.21645122094E+01  0.26406404770E+02  0.68738314219E+02  0.73667762065E+02  0.00000000000E+00 0.  1.
</event>
<event>
 4    1  0.6210801E+003  0.2337587E+02  0.7546771E-02  0.1487832E+00
          2   -1    0    0  501    0  0.00000000000E+00  0.00000000000E+00  0.12979082823E+02  0.12979082823E+02  0.00000000000E+00 0.  1.
          2   -1    0    0  502    0 -0.00000000000E+00 -0.00000000000E+00 -0.26411624691E+03  0.26411624691E+03  0.00000000000E+00 0. -1.
          2    1    1    2  501    0 -0.20403565170E+02  0.11407263797E+02 -0.25259473472E+03  0.25367406479E+03  0.00000000000E+00 0. -1.
          2    1    1    2  502    0  0.20403565170E+02 -0.11407263797E+02  0.14575706401E+01  0.23421264935E+02  0.00000000000E+00 0.  1.
</event>
<event>
 4    1  0.6210801E+003  0.2651476E+02  0.7546771E-02  0.1452544E+00
          2   -1    0    0  502    0  0.00000000000E+00  0.00000000000E+00  0.59640165789E+03  0.59640165789E+03  0.00000000000E+00 0.  1.
          2   -1    0    0  501    0 -0.00000000000E+00 -0.00000000000E+00 -0.14723696714E+02  0.14723696714E+02  0.00000000000E+00 0. -1.
          2    1    1    2  501    0 -0.26133602093E+02  0.44796630903E+01  0.58391472588E+03  0.58451641520E+03  0.00000000000E+00 0.  1.
          2    1    1    2  502    0  0.26133602093E+02 -0.44796630903E+01 -0.22367647046E+01  0.26608939402E+02  0.00000000000E+00 0. -1.
</event>
<event>
 4    1  0.6210801E+003  0.2320179E+02  0.7546771E-02  0.1489980E+00
          2   -1    0    0  501    0  0.00000000000E+00  0.00000000000E+00  0.38399388960E+02  0.38399388960E+02  0.00000000000E+00 0.  1.
          2   -1    0    0  502    0 -0.00000000000E+00 -0.00000000000E+00 -0.50648338208E+03  0.50648338208E+03  0.00000000000E+00 0.  1.
          2    1    1    2  501    0 -0.11063505167E+02  0.20394165991E+02 -0.50268644376E+03  0.50322160515E+03  0.00000000000E+00 0.  1.
          2    1    1    2  502    0  0.11063505167E+02 -0.20394165991E+02  0.34602450638E+02  0.41661165889E+02  0.00000000000E+00 0.  1.
</event>
<event>
 4    1  0.6210801E+003  0.3419982E+02  0.7546771E-02  0.1386278E+00
          2   -1    0    0  501    0  0.00000000000E+00  0.00000000000E+00  0.14286685582E+04  0.14286685582E+04  0.00000000000E+00 0. -1.
          2   -1    0    0  502    0 -0.00000000000E+00 -0.00000000000E+00 -0.23909316791E+03  0.23909316791E+03  0.00000000000E+00 0. -1.
          2    1    1    2  501    0  0.13871686711E+02 -0.31260259306E+02 -0.23766428981E+03  0.24011235320E+03  0.00000000000E+00 0. -1.
          2    1    1    2  502    0 -0.13871686711E+02  0.31260259306E+02  0.14272396801E+04  0.14276493729E+04  0.00000000000E+00 0. -1.
</event>
<event>
 4    1  0.6210801E+003  0.2926082E+02  0.7546771E-02  0.1426130E+00
          2   -1    0    0  502    0  0.00000000000E+00  0.00000000000E+00  0.21109704924E+02  0.21109704924E+02  0.00000000000E+00 0. -1.
          2   -1    0    0  501    0 -0.00000000000E+00 -0.00000000000E+00 -0.75846098278E+03  0.75846098278E+03  0.00000000000E+00 0. -1.
          2    1    1    2  501    0 -0.74495106734E+01 -0.28296646346E+02  0.10544472019E+02  0.31102753798E+02  0.00000000000E+00 0. -1.
          2    1    1    2  502    0  0.74495106734E+01  0.28296646346E+02 -0.74789574987E+03  0.74846793390E+03  0.00000000000E+00 0. -1.
</event>
<event>
 4    1  0.6210801E+003  0.2580764E+02  0.7546771E-02  0.1459968E+00
          2   -1    0    0  501    0  0.00000000000E+00  0.00000000000E+00  0.16409890796E+04  0.16409890796E+04  0.00000000000E+00 0.  1.
          2   -1    0    0  502    0 -0.00000000000E+00 -0.00000000000E+00 -0.57261253288E+00  0.57261253288E+00  0.00000000000E+00 0. -1.
          2    1    1    2  501    0 -0.19270225841E+02  0.17166618787E+02  0.37729863566E+03  0.37818024126E+03  0.00000000000E+00 0. -1.
          2    1    1    2  502    0  0.19270225841E+02 -0.17166618787E+02  0.12631178314E+04  0.12633814509E+04  0.00000000000E+00 0.  1.
</event>
<event>
 4    1  0.6210801E+003  0.2214088E+02  0.7546771E-02  0.1503577E+00
          2   -1    0    0  502    0  0.00000000000E+00  0.00000000000E+00  0.27249741033E+02  0.27249741033E+02  0.00000000000E+00 0. -1.
          2   -1    0    0  501    0 -0.00000000000E+00 -0.00000000000E+00 -0.40657837914E+02  0.40657837914E+02  0.00000000000E+00 0.  1.
          2    1    1    2  501    0 -0.20613997733E+02  0.80796967847E+01  0.18648564207E+02  0.28948011152E+02  0.00000000000E+00 0. -1.
          2    1    1    2  502    0  0.20613997733E+02 -0.80796967847E+01 -0.32056661088E+02  0.38959567795E+02  0.00000000000E+00 0.  1.
</event>
<event>
 4    1  0.6210801E+003  0.2153510E+02  0.7546771E-02  0.1511760E+00
          2   -1    0    0  502    0  0.00000000000E+00  0.00000000000E+00  0.12273962148E+04  0.12273962148E+04  0.00000000000E+00 0. -1.
          2   -1    0    0  501    0 -0.00000000000E+00 -0.00000000000E+00 -0.79866006079E+02  0.79866006079E+02  0.00000000000E+00 0.  1.
          2    1    1    2  501    0  0.17800002643E+02 -0.12121078882E+02  0.12258482380E+04  0.12260373825E+04  0.00000000000E+00 0. -1.
          2    1    1    2  502    0 -0.17800002643E+02  0.12121078882E+02 -0.78318029324E+02  0.81224838347E+02  0.00000000000E+00 0.  1.
</event>
<event>
 4    1  0.6210801E+003  0.2887331E+02  0.7546771E-02  0.1429647E+00
          2   -1    0    0  501    0  0.00000000000E+00  0.00000000000E+00  0.39715141595E+00  0.39715141595E+00  0.00000000000E+00 0. -1.
          2   -1    0    0  502    0 -0.00000000000E+00 -0.00000000000E+00 -0.23872304376E+04  0.23872304376E+04  0.00000000000E+00 0.  1.
          2    1    1    2  501    0 -0.12408027907E+01 -0.28846632594E+02 -0.16081511789E+04  0.16084103587E+04  0.00000000000E+00 0.  1.
          2    1    1    2  502    0  0.12408027907E+01  0.28846632594E+02 -0.77868210731E+03  0.77921723033E+03  0.00000000000E+00 0. -1.
</event>
<event>
 4    1  0.6210801E+003  0.8783151E+02  0.7546771E-02  0.1186748E+00
          2   -1    0    0  502    0  0.00000000000E+00  0.00000000000E+00  0.33047869547E+03  0.33047869547E+03  0.00000000000E+00 0. -1.
          2   -1    0    0  501    0 -0.00000000000E+00 -0.00000000000E+00 -0.10767159685E+04  0.10767159685E+04  0.00000000000E+00 0.  1.
          2    1    1    2  501    0  0.83965732802E+02  0.25770701731E+02  0.32280996543E+03  0.33454543359E+03  0.00000000000E+00 0. -1.
          2    1    1    2  502    0 -0.83965732802E+02 -0.25770701731E+02 -0.10690472385E+04  0.10726492304E+04  0.00000000000E+00 0.  1.
</event>
<event>
 4    1  0.6210801E+003  0.2041948E+02  0.7546771E-02  0.1527717E+00
          2   -1    0    0  501    0  0.00000000000E+00  0.00000000000E+00  0.14547432719E+04  0.14547432719E+04  0.00000000000E+00 0. -1.
          2   -1    0    0  502    0 -0.00000000000E+00 -0.00000000000E+00 -0.25118258257E+02  0.25118258257E+02  0.00000000000E+00 0.  1.
          2    1    1    2  501    0 -0.11371036303E+02 -0.16960383597E+02 -0.20884571545E+02  0.29208224988E+02  0.00000000000E+00 0.  1.
          2    1    1    2  502    0  0.11371036303E+02  0.16960383597E+02  0.14505095852E+04  0.14506533052E+04  0.00000000000E+00 0. -1.
</event>
<event>
 4    1  0.1635119E+004  0.3105680E+02  0.7546771E-02  0.1410630E+00
          2   -1    0    0  501    0  0.00000000000E+00  0.00000000000E+00  0.14398781676E+04  0.14398781676E+04  0.00000000000E+00 0.  1.
          2   -1    0    0  502    0 -0.00000000000E+00 -0.00000000000E+00 -0.16981480903E+04  0.16981480903E+04  0.00000000000E+00 0.  1.
          2    1    1    2  501    0 -0.29036763355E+01 -0.30920765698E+02 -0.16978385968E+04  0.16981226180E+04  0.00000000000E+00 0.  1.
          2    1    1    2  502    0  0.29036763355E+01  0.30920765698E+02  0.14395686741E+04  0.14399036400E+04  0.00000000000E+00 0.  1.
</event>
<event>
 4    1  0.6210801E+003  0.2997406E+02  0.7546771E-02  0.1419822E+00
          2   -1    0    0  501    0  0.00000000000E+00  0.00000000000E+00  0.38810135048E+01  0.38810135048E+01  0.00000000000E+00 0. -1.
          2   -1    0    0  502    0 -0.00000000000E+00 -0.00000000000E+00 -0.38011022807E+03  0.38011022807E+03  0.00000000000E+00 0.  1.
          2    1    1    2  501    0  0.19470869824E+02  0.22788795558E+02 -0.30816536507E+03  0.30961966379E+03  0.00000000000E+00 0.  1.
          2    1    1    2  502    0 -0.19470869824E+02 -0.22788795558E+02 -0.68063849501E+02  0.74371577794E+02  0.00000000000E+00 0. -1.
</event>
<event>
 4    1  0.6210801E+003  0.2692707E+02  0.7546771E-02  0.1448342E+00
          2   -1    0    0  502    0  0.00000000000E+00  0.00000000000E+00  0.95805737841E+02  0.95805737841E+02  0.00000000000E+00 0. -1.
          2   -1    0    0  501    0 -0.00000000000E+00 -0.00000000000E+00 -0.78112690039E+01  0.78112690039E+01  0.00000000000E+00 0. -1.
          2    1    1    2  501    0  0.22545554040E+02 -0.14722938059E+02  0.53138344699E+02  0.59571390696E+02  0.00000000000E+00 0. -1.
          2    1    1    2  502    0 -0.22545554040E+02  0.14722938059E+02  0.34856124138E+02  0.44045616149E+02  0.00000000000E+00 0. -1.
</event>
<event>
 4    1  0.6210801E+003  0.2692315E+02  0.7546771E-02  0.1448382E+00
          2   -1    0    0  501    0  0.00000000000E+00  0.00000000000E+00  0.28525070580E+03  0.28525070580E+03  0.00000000000E+00 0.  1.
          2   -1    0    0  502    0 -0.00000000000E+00 -0.00000000000E+00 -0.44815714312E+03  0.44815714312E+03  0.00000000000E+00 0.  1.
          2    1    1    2  501    0  0.50477884097E+00 -0.26918417111E+02 -0.44711603177E+03  0.44792588879E+03  0.00000000000E+00 0.  1.
          2    1    1    2  502    0 -0.50477884097E+00  0.26918417111E+02  0.28420959445E+03  0.28548196013E+03  0.00000000000E+00 0.  1.
</event>
<event>
 4    1  0.6210801E+003  0.2799349E+02  0.7546771E-02  0.1437876E+00
          2   -1    0    0  501    0  0.00000000000E+00  0.00000000000E+00  0.86895335829E+02  0.86895335829E+02  0.00000000000E+00 0. -1.
          2   -1    0    0  502    0 -0.00000000000E+00 -0.00000000000E+00 -0.19523058847E+02  0.19523058847E+02  0.00000000000E+00 0.  1.
          2    1    1    2  501    0 -0.62845709615E+01  0.27278926967E+02 -0.53447823388E+01  0.28499164670E+02  0.00000000000E+00 0.  1.
          2    1    1    2  502    0  0.62845709615E+01 -0.27278926967E+02  0.72717059320E+02  0.77919230006E+02  0.00000000000E+00 0. -1.
</event>
<event>
 4    1  0.6210801E+003  0.2068380E+02  0.7546771E-02  0.1523828E+00
          2   -1    0    0  502    0  0.00000000000E+00  0.00000000000E+00  0.13975468427E+03  0.13975468427E+03  0.00000000000E+00 0.  1.
          2   -1    0    0  501    0 -0.00000000000E+00 -0.00000000000E+00 -0.19075121446E+02  0.19075121446E+02  0.00000000000E+00 0. -1.
          2    1    1    2  501    0 -0.10945401114E+02 -0.17550431132E+02  0.13310384879E+03  0.13470135114E+03  0.00000000000E+00 0.  1.
          2    1    1    2  502    0  0.10945401114E+02  0.17550431132E+02 -0.12424285960E+02  0.24128454573E+02  0.00000000000E+00 0. -1.
</event>
<event>
 4    1  0.6210801E+003  0.4095706E+02  0.7546771E-02  0.1342967E+00
          2   -1    0    0  501    0  0.00000000000E+00  0.00000000000E+00  0.21226330989E+02  0.21226330989E+02  0.00000000000E+00 0.  1.
          2   -1    0    0  502    0 -0.00000000000E+00 -0.00000000000E+00 -0.82324018140E+02  0.82324018140E+02  0.00000000000E+00 0.  1.
          2    1    1    2  501    0 -0.23891544971E+02  0.33266724964E+02 -0.40908208794E+02  0.57887498285E+02  0.00000000000E+00 0.  1.
          2    1    1    2  502    0  0.23891544971E+02 -0.33266724964E+02 -0.20189478356E+02  0.45662850844E+02  0.00000000000E+00 0.  1.
</event>
<event>
 4    1  0.6210801E+003  0.2025814E+02  0.7546771E-02  0.1530125E+00
          2   -1    0    0  502    0  0.00000000000E+00  0.00000000000E+00  0.61820239969E+03  0.61820239969E+03  0.00000000000E+00 0. -1.
          2   -1    0    0  501    0 -0.00000000000E+00 -0.00000000000E+00 -0.35495173462E+01  0.35495173462E+01  0.00000000000E+00 0.  1.
          2    1    1    2  501    0 -0.13613164450E+02 -0.15002469792E+02  0.58762817150E+03  0.58797726171E+03  0.00000000000E+00 0. -1.
          2    1    1    2  502    0  0.13613164450E+02  0.15002469792E+02  0.27024710837E+02  0.33774655320E+02  0.00000000000E+00 0.  1.
</event>
<event>
 4    1  0.6210801E+003  0.2001081E+02  0.7546771E-02  0.1533870E+00
          2   -1    0    0  501    0  0.00000000000E+00  0.00000000000E+00  0.15001147889E+02  0.15001147889E+02  0.00000000000E+00 0.  1.
          2   -1    0    0  502    0 -0.00000000000E+00 -0.00000000000E+00 -0.50944207952E+02  0.50944207952E+02  0.00000000000E+00 0.  1.
          2    1    1    2  501    0  0.42167532527E+01  0.19561482614E+02 -0.40720898287E+02  0.45372063733E+02  0.00000000000E+00 0.  1.
          2    1    1    2  502    0 -0.42167532527E+01 -0.19561482614E+02  0.47778382241E+01  0.20573292108E+02  0.00000000000E+00 0.  1.
</event>
<event>
 4    1  0.6210801E+003  0.2832150E+02  0.7546771E-02  0.1434767E+00
          2   -1    0    0  502    0  0.00000000000E+00  0.00000000000E+00  0.72518794999E+02  0.72518794999E+02  0.00000000000E+00 0. -1.
          2   -1    0    0  501    0 -0.00000000000E+00 -0.00000000000E+00 -0.24910588204E+03  0.24910588204E+03  0.00000000000E+00 0.  1.
          2    1    1    2  501    0 -0.22448475510E+02  0.17267693966E+02  0.68908103136E+02  0.74501234792E+02  0.00000000000E+00 0. -1.
          2    1    1    2  502    0  0.22448475510E+02 -0.17267693966E+02 -0.24549519018E+03  0.24712344225E+03  0.00000000000E+00 0.  1.
</event>
<event>
 4    1  0.6210801E+003  0.2210747E+02  0.7546771E-02  0.1504020E+00
          2   -1    0    0  501    0  0.00000000000E+00  0.00000000000E+00  0.32523056880E+02  0.32523056880E+02  0.00000000000E+00 0.  1.
          2   -1    0    0  502    0 -0.00000000000E+00 -0.00000000000E+00 -0.27124826167E+03  0.27124826167E+03  0.00000000000E+00 0.  1.
          2    1    1    2  501    0  0.21118054517E+02 -0.65397110587E+01 -0.26698098843E+03  0.26789473349E+03  0.00000000000E+00 0.  1.
          2    1    1    2  502    0 -0.21118054517E+02  0.65397110587E+01  0.28255783634E+02  0.35876585067E+02  0.00000000000E+00 0.  1.
</event>
<event>
 4    1  0.6210801E+003  0.4579455E+02  0.7546771E-02  0.1317513E+00
          2   -1    0    0  501    0  0.00000000000E+00  0.00000000000E+00  0.20671399633E+01  0.20671399633E+01  0.00000000000E+00 0.  1.
          2   -1    0    0  502    0 -0.00000000000E+00 -0.00000000000E+00 -0.13021291628E+04  0.13021291628E+04  0.00000000000E+00 0.  1.
          2    1    1    2  501    0 -0.25859507493E+02  0.37794529874E+02 -0.95650420130E+03  0.95759982650E+03  0.00000000000E+00 0.  1.
          2    1    1    2  502    0  0.25859507493E+02 -0.37794529874E+02 -0.34355782152E+03  0.34659647624E+03  0.00000000000E+00 0.  1.
</event>
<event>
 4    1  0.6210801E+003  0.2193213E+02  0.7546771E-02  0.1506361E+00
          2   -1    0    0  501    0  0.00000000000E+00  0.00000000000E+00  0.10462735073E+03  0.10462735073E+03  0.00000000000E+00 0.  1.
          2   -1    0    0  502    0 -0.00000000000E+00 -0.00000000000E+00 -0.84462625863E+01  0.84462625863E+01  0.00000000000E+00 0. -1.
          2    1    1    2  501    0  0.30495442089E+01  0.21719082144E+02  0.99257626356E+01  0.24073616532E+02  0.00000000000E+00 0. -1.
          2    1    1    2  502    0 -0.30495442089E+01 -0.21719082144E+02  0.86255325509E+02  0.88999996785E+02  0.00000000000E+00 0.  1.
</event>
<event>
 4    1  0.6210801E+003  0.3659940E+02  0.7546771E-02  0.1369655E+00
          2   -1    0    0  502    0  0.00000000000E+00  0.00000000000E+00  0.45053961324E+01  0.45053961324E+01  0.00000000000E+00 0.  1.
          2   -1    0    0  501    0 -0.00000000000E+00 -0.00000000000E+00 -0.38143423353E+03  0.38143423353E+03  0.00000000000E+00 0.  1.
          2    1    1    2  501    0  0.33693693857E+02 -0.14291644516E+02 -0.97843076632E+02  0.10446427022E+03  0.00000000000E+00 0.  1.
          2    1    1    2  502    0 -0.33693693857E+02  0.14291644516E+02 -0.27908576077E+03  0.28147535944E+03  0.00000000000E+00 0.  1.
</event>
<event>
 4    1  0.6210801E+003  0.4930386E+02  0.7546771E-02  0.1301219E+00
          2   -1    0    0  501    0  0.00000000000E+00  0.00000000000E+00  0.29253410922E+03  0.29253410922E+03  0.00000000000E+00 0. -1.
          2   -1    0    0  502    0 -0.00000000000E+00 -0.00000000000E+00 -0.28039173620E+03  0.28039173620E+03  0.00000000000E+00 0. -1.
          2    1    1    2  501    0  0.20686185402E+02  0.44754360068E+02 -0.27611499798E+03  0.28048237577E+03  0.00000000000E+00 0. -1.
          2    1    1    2  502    0 -0.20686185402E+02 -0.44754360068E+02  0.28825737100E+03  0.29244346966E+03  0.00000000000E+00 0. -1.
</event>
<event>
 4    1  0.6210801E+003  0.1061229E+03  0.7546771E-02  0.1153601E+00
          2   -1    0    0  502    0  0.00000000000E+00  0.00000000000E+00  0.88965755048E+01  0.88965755048E+01  0.00000000000E+00 0. -1.
          2   -1    0    0  501    0 -0.00000000000E+00 -0.00000000000E+00 -0.22457536591E+04  0.22457536591E+04  0.00000000000E+00 0.  1.
          2    1    1    2  501    0  0.73221779894E+02  0.76815631066E+02 -0.37378000078E+03  0.38855316137E+03  0.00000000000E+00 0. -1.
          2    1    1    2  502    0 -0.73221779894E+02 -0.76815631066E+02 -0.18630770828E+04  0.18660970732E+04  0.00000000000E+00 0.  1.
</event>
<event>
 4    1  0.6210801E+003  0.2720973E+02  0.7546771E-02  0.1445513E+00
          2   -1    0    0  501    0  0.00000000000E+00  0.00000000000E+00  0.16130789702E+02  0.16130789702E+02  0.00000000000E+00 0.  1.
          2   -1    0    0  502    0 -0.00000000000E+00 -0.00000000000E+00 -0.10900894852E+03  0.10900894852E+03  0.00000000000E+00 0.  1.
          2    1    1    2  501    0 -0.18448674659E+02  0.20000393725E+02 -0.94047839905E+02  0.97904880045E+02  0.00000000000E+00 0.  1.
          2    1    1    2  502    0  0.18448674659E+02 -0.20000393725E+02  0.11696810923E+01  0.27234858172E+02  0.00000000000E+00 0.  1.
</event>
<event>
 4    1  0.6210801E+003  0.2785169E+02  0.7546771E-02  0.1439235E+00
          2   -1    0    0  502    0  0.00000000000E+00  0.00000000000E+00  0.30002859443E+02  0.30002859443E+02  0.00000000000E+00 0. -1.
          2   -1    0    0  501    0 -0.00000000000E+00 -0.00000000000E+00 -0.11772216641E+04  0.11772216641E+04  0.00000000000E+00 0.  1.
          2    1    1    2  501    0 -0.19343027060E+02  0.20039064498E+02  0.23337634727E+02  0.36336785719E+02  0.00000000000E+00 0. -1.
          2    1    1    2  502    0  0.19343027060E+02 -0.20039064498E+02 -0.11705564394E+04  0.11708877379E+04  0.00000000000E+00 0.  1.
</event>
<event>
 4    1  0.6210801E+003  0.2276790E+02  0.7546771E-02  0.1495433E+00
          2   -1    0    0  502    0  0.00000000000E+00  0.00000000000E+00  0.23821818128E+02  0.23821818128E+02  0.00000000000E+00 0. -1.
          2   -1    0    0  501    0 -0.00000000000E+00 -0.00000000000E+00 -0.82721196928E+03  0.82721196928E+03  0.00000000000E+00 0. -1.
          2    1    1    2  501    0 -0.14983113712E+02  0.17143031117E+02  0.18187702881E+02  0.29140517299E+02  0.00000000000E+00 0. -1.
          2    1    1    2  502    0  0.14983113712E+02 -0.17143031117E+02 -0.82157785403E+03  0.82189327011E+03  0.00000000000E+00 0. -1.
</event>
<event>
 4    1  0.6210801E+003  0.2829936E+02  0.7546771E-02  0.1434975E+00
          2   -1    0    0  502    0  0.00000000000E+00  0.00000000000E+00  0.38916649673E+02  0.38916649673E+02  0.00000000000E+00 0.  1.
          2   -1    0    0  501    0 -0.00000000000E+00 -0.00000000000E+00 -0.29519911208E+02  0.29519911208E+02  0.00000000000E+00 0. -1.
          2    1    1    2  501    0  0.13457236275E+02 -0.24894905340E+02  0.23530487411E+02  0.36804039967E+02  0.00000000000E+00 0.  1.
          2    1    1    2  502    0 -0.13457236275E+02  0.24894905340E+02 -0.14133748946E+02  0.31632520914E+02  0.00000000000E+00 0. -1.
</event>
<event>
 4    1  0.6210801E+003  0.2436201E+02  0.7546771E-02  0.1476069E+00
          2   -1    0    0  501    0  0.00000000000E+00  0.00000000000E+00  0.10262662422E+03  0.10262662422E+03  0.00000000000E+00 0.  1.
          2   -1    0    0  502    0 -0.00000000000E+00 -0.00000000000E+00 -0.42676143420E+03  0.42676143420E+03  0.00000000000E+00 0.  1.
          2    1    1    2  501    0 -0.80029174986E+01 -0.23010014961E+02 -0.42496184250E+03  0.42565957649E+03  0.00000000000E+00 0.  1.
          2    1    1    2  502    0  0.80029174986E+01  0.23010014961E+02  0.10082703252E+03  0.10372848193E+03  0.00000000000E+00 0.  1.
</event>
<event>
 4    1  0.6210801E+003  0.2745014E+02  0.7546771E-02  0.1443138E+00
          2   -1    0    0  501    0  0.00000000000E+00  0.00000000000E+00  0.30797219513E+02  0.30797219513E+02  0.00000000000E+00 0. -1.
          2   -1    0    0  502    0 -0.00000000000E+00 -0.00000000000E+00 -0.12286976787E+04  0.12286976787E+04  0.00000000000E+00 0.  1.
          2    1    1    2  501    0  0.20760593869E+02  0.17958512054E+02 -0.12223961275E+04  0.12227042991E+04  0.00000000000E+00 0.  1.
          2    1    1    2  502    0 -0.20760593869E+02 -0.17958512054E+02  0.24495668370E+02  0.36790599097E+02  0.00000000000E+00 0. -1.
</event>
<event>
 4    1  0.6210801E+003  0.2006025E+02  0.7546771E-02  0.1533117E+00
          2   -1    0    0  502    0  0.00000000000E+00  0.00000000000E+00  0.61704312431E+03  0.61704312431E+03  0.00000000000E+00 0.  1.
          2   -1    0    0  501    0 -0.00000000000E+00 -0.00000000000E+00 -0.16219241991E+02  0.16219241991E+02  0.00000000000E+00 0.  1.
          2    1    1    2  501    0 -0.93554227357E+01 -0.17745135495E+02  0.61061205103E+03  0.61094147889E+03  0.00000000000E+00 0.  1.
          2    1    1    2  502    0  0.93554227357E+01  0.17745135495E+02 -0.97881687060E+01  0.22320887413E+02  0.00000000000E+00 0.  1.
</event>
<event>
 4    1  0.6210801E+003  0.2023318E+02  0.7546771E-02  0.1530501E+00
          2   -1    0    0  502    0  0.00000000000E+00  0.00000000000E+00  0.14712579844E+04  0.14712579844E+04  0.00000000000E+00 0.  1.
          2   -1    0    0  501    0 -0.00000000000E+00 -0.00000000000E+00 -0.49549077447E+01  0.49549077447E+01  0.00000000000E+00 0.  1.
          2    1    1    2  501    0 -0.20115219202E+02  0.21816336825E+01  0.14502336328E+04  0.14503747692E+04  0.00000000000E+00 0.  1.
          2    1    1    2  502    0  0.20115219202E+02 -0.21816336825E+01  0.16069443861E+02  0.25838122902E+02  0.00000000000E+00 0.  1.
</event>
<event>
 4    1  0.6210801E+003  0.2418419E+02  0.7546771E-02  0.1478140E+00
          2   -1    0    0  502    0  0.00000000000E+00  0.00000000000E+00  0.23009237690E+02  0.23009237690E+02  0.00000000000E+00 0. -1.
          2   -1    0    0  501    0 -0.00000000000E+00 -0.00000000000E+00 -0.12459717884E+03  0.12459717884E+03  0.00000000000E+00 0.  1.
          2    1    1    2  501    0  0.22363159000E+02 -0.92067513884E+01  0.15051951496E+02  0.28485722659E+02  0.00000000000E+00 0. -1.
          2    1    1    2  502    0 -0.22363159000E+02  0.92067513884E+01 -0.11663989265E+03  0.11912069387E+03  0.00000000000E+00 0.  1.
</event>
<event>
 4    1  0.6210801E+003  0.4161740E+02  0.7546771E-02  0.1339260E+00
          2   -1    0    0  501    0  0.00000000000E+00  0.00000000000E+00  0.14595113784E+04  0.14595113784E+04  0.00000000000E+00 0. -1.
          2   -1    0    0  502    0 -0.00000000000E+00 -0.00000000000E+00 -0.65262819914E+02  0.65262819914E+02  0.00000000000E+00 0.  1.
          2    1    1    2  501    0  0.19188128006E+02 -0.36929987300E+02 -0.58299601539E+02  0.71629964107E+02  0.00000000000E+00 0.  1.
          2    1    1    2  502    0 -0.19188128006E+02  0.36929987300E+02  0.14525481600E+04  0.14531442342E+04  0.00000000000E+00 0. -1.
</event>
<event>
 4    1  0.6210801E+003  0.2101812E+02  0.7546771E-02  0.1519006E+00
          2   -1    0    0  502    0  0.00000000000E+00  0.00000000000E+00  0.37920491823E+01  0.37920491823E+01  0.00000000000E+00 0. -1.
          2   -1    0    0  501    0 -0.00000000000E+00 -0.00000000000E+00 -0.42430135370E+03  0.42430135370E+03  0.00000000000E+00 0.  1.
          2    1    1    2  501    0  0.40222111232E+01  0.20629667935E+02 -0.27945323979E+02  0.34967163364E+02  0.00000000000E+00 0. -1.
          2    1    1    2  502    0 -0.40222111232E+01 -0.20629667935E+02 -0.39256398054E+03  0.39312623952E+03  0.00000000000E+00 0.  1.
</event>
<event>
 4    1  0.6210801E+003  0.2530912E+02  0.7546771E-02  0.1465375E+00
          2   -1    0    0  501    0  0.00000000000E+00  0.00000000000E+00  0.93928135936E+03  0.93928135936E+03  0.00000000000E+00 0. -1.
          2   -1    0    0  502    0 -0.00000000000E+00 -0.00000000000E+00 -0.21974502352E+01  0.21974502352E+01  0.00000000000E+00 0. -1.
          2    1    1    2  501    0  0.13006801999E+02  0.21711161635E+02  0.77613093027E+02  0.81635431321E+02  0.00000000000E+00 0. -1.
          2    1    1    2  502    0 -0.13006801999E+02 -0.21711161635E+02  0.85947081610E+03  0.85984337828E+03  0.00000000000E+00 0. -1.
</event>
<event>
 4    1  0.6210801E+003  0.2990352E+02  0.7546771E-02  0.1420437E+00
          2   -1    0    0  502    0  0.00000000000E+00  0.00000000000E+00  0.28425136248E+01  0.28425136248E+01  0.00000000000E+00 0. -1.
          2   -1    0    0  501    0 -0.00000000000E+00 -0.00000000000E+00 -0.18733395522E+04  0.18733395522E+04  0.00000000000E+00 0. -1.
          2    1    1    2  501    0 -0.78680698336E+01 -0.28849855228E+02 -0.79541325318E+02  0.84976720947E+02  0.00000000000E+00 0. -1.
          2    1    1    2  502    0  0.78680698336E+01  0.28849855228E+02 -0.17909557132E+04  0.17912053449E+04  0.00000000000E+00 0. -1.
</event>
<event>
 4    1  0.6210801E+003  0.5571996E+02  0.7546771E-02  0.1275112E+00
          2   -1    0    0  501    0  0.00000000000E+00  0.00000000000E+00  0.11288939681E+02  0.11288939681E+02  0.00000000000E+00 0. -1.
          2   -1    0    0  502    0 -0.00000000000E+00 -0.00000000000E+00 -0.43632831015E+03  0.43632831015E+03  0.00000000000E+00 0. -1.
          2    1    1    2  501    0  0.47416350913E+02  0.29264382404E+02 -0.34859986991E+03  0.35302490523E+03  0.00000000000E+00 0. -1.
          2    1    1    2  502    0 -0.47416350913E+02 -0.29264382404E+02 -0.76439500561E+02  0.94592344603E+02  0.00000000000E+00 0. -1.
</event>
<event>
 4    1  0.6210801E+003  0.2409083E+02  0.7546771E-02  0.1479237E+00
          2   -1    0    0  502    0  0.00000000000E+00  0.00000000000E+00  0.38189538854E+01  0.38189538854E+01  0.00000000000E+00 0.  1.
          2   -1    0    0  501    0 -0.00000000000E+00 -0.00000000000E+00 -0.96687307845E+03  0.96687307845E+03  0.00000000000E+00 0.  1.
          2    1    1    2  501    0 -0.32554138917E+01 -0.23869867890E+02 -0.35953327570E+02  0.43278286427E+02  0.00000000000E+00 0.  1.
          2    1    1    2  502    0  0.32554138917E+01  0.23869867890E+02 -0.92710079699E+03  0.92741374591E+03  0.00000000000E+00 0.  1.
</event>
<event>
 4    1  0.6210801E+003  0.2812411E+02  0.7546771E-02  0.1436632E+00
          2   -1    0    0  502    0  0.00000000000E+00  0.00000000000E+00  0.60167256597E+01  0.60167256597E+01  0.00000000000E+00 0.  1.
          2   -1    0    0  501    0 -0.00000000000E+00 -0.00000000000E+00 -0.80647127987E+03  0.80647127987E+03  0.00000000000E+00 0. -1.
          2    1    1    2  501    0  0.74390128065E+01 -0.27122440921E+02 -0.28565710761E+02  0.40086974746E+02  0.00000000000E+00 0.  1.
          2    1    1    2  502    0 -0.74390128065E+01  0.27122440921E+02 -0.77188884345E+03  0.77240103078E+03  0.00000000000E+00 0. -1.
</event>
<event>
 4    1  0.6210801E+003  0.3915014E+02  0.7546771E-02  0.1353539E+00
          2   -1    0    0  502    0  0.00000000000E+00  0.00000000000E+00  0.14059643480E+04  0.14059643480E+04  0.00000000000E+00 0.  1.
          2   -1    0    0  501    0 -0.00000000000E+00 -0.00000000000E+00 -0.11942736676E+01  0.11942736676E+01  0.00000000000E+00 0.  1.
          2    1    1    2  501    0  0.33552953554E+02 -0.20172577482E+02  0.91011727846E+03  0.91095894206E+03  0.00000000000E+00 0.  1.
          2    1    1    2  502    0 -0.33552953554E+02  0.20172577482E+02  0.49465279582E+03  0.49619967956E+03  0.00000000000E+00 0.  1.
</event>
<event>
 4    1  0.6210801E+003  0.2449093E+02  0.7546771E-02  0.1474580E+00
          2   -1    0    0  501    0  0.00000000000E+00  0.00000000000E+00  0.89335990295E+02  0.89335990295E+02  0.00000000000E+00 0. -1.
          2   -1    0    0  502    0 -0.00000000000E+00 -0.00000000000E+00 -0.94361660390E+01  0.94361660390E+01  0.00000000000E+00 0.  1.
          2    1    1    2  501    0 -0.99475522687E+01 -0.22379721382E+02  0.66475229437E+02  0.70843220240E+02  0.00000000000E+00 0. -1.
          2    1    1    2  502    0  0.99475522687E+01  0.22379721382E+02  0.13424594818E+02  0.27928936093E+02  0.00000000000E+00 0.  1.
</event>
<event>
 4    1  0.6210801E+003  0.3308228E+02  0.7546771E-02  0.1394571E+00
          2   -1    0    0  501    0  0.00000000000E+00  0.00000000000E+00  0.90556705635E+02  0.90556705635E+02  0.00000000000E+00 0.  1.
          2   -1    0    0  502    0 -0.00000000000E+00 -0.00000000000E+00 -0.29850101383E+02  0.29850101383E+02  0.00000000000E+00 0.  1.
          2    1    1    2  501    0 -0.26814385110E+02  0.19375916491E+02 -0.16090090730E+02  0.36787612160E+02  0.00000000000E+00 0.  1.
          2    1    1    2  502    0  0.26814385110E+02 -0.19375916491E+02  0.76796694981E+02  0.83619194858E+02  0.00000000000E+00 0.  1.
</event>
<event>
 4    1  0.6210801E+003  0.2103331E+02  0.7546771E-02  0.1518790E+00
          2   -1    0    0  502    0  0.00000000000E+00  0.00000000000E+00  0.78751454303E+02  0.78751454303E+02  0.00000000000E+00 0.  1.
          2   -1    0    0  501    0 -0.00000000000E+00 -0.00000000000E+00 -0.40440521168E+02  0.40440521168E+02  0.00000000000E+00 0.  1.
          2    1    1    2  501    0  0.27725909492E+00  0.21031481272E+02  0.74457459487E+02  0.77371269541E+02  0.00000000000E+00 0.  1.
          2    1    1    2  502    0 -0.27725909492E+00 -0.21031481272E+02 -0.36146526353E+02  0.41820705930E+02  0.00000000000E+00 0.  1.
</event>
<event>
 4    1  0.6210801E+003  0.2085621E+02  0.7546771E-02  0.1521328E+00
          2   -1    0    0  501    0  0.00000000000E+00  0.00000000000E+00  0.13261135316E+02  0.13261135316E+02  0.00000000000E+00 0. -1.
          2   -1    0    0  502    0 -0.00000000000E+00 -0.00000000000E+00 -0.78711808702E+03  0.78711808702E+03  0.00000000000E+00 0.  1.
          2    1    1    2  501    0  0.15859537406E+02  0.13544608912E+02 -0.77869089696E+03  0.77897014986E+03  0.00000000000E+00 0.  1.
          2    1    1    2  502    0 -0.15859537406E+02 -0.13544608912E+02  0.48339452641E+01  0.21409072472E+02  0.00000000000E+00 0. -1.
</event>
<event>
 4    1  0.6210801E+003  0.3109452E+02  0.7546771E-02  0.1410317E+00
          2   -1    0    0  502    0  0.00000000000E+00  0.00000000000E+00  0.95205032164E+03  0.95205032164E+03  0.00000000000E+00 0.  1.
          2   -1    0    0  501    0 -0.00000000000E+00 -0.00000000000E+00 -0.75976241275E+01  0.75976241275E+01  0.00000000000E+00 0. -1.
          2    1    1    2  501    0 -0.24965708365E+02  0.18535988079E+02  0.91883169108E+03  0.91935768120E+03  0.00000000000E+00 0.  1.
          2    1    1    2  502    0  0.24965708365E+02 -0.18535988079E+02  0.25621006430E+02  0.40290264565E+02  0.00000000000E+00 0. -1.
</event>
<event>
 4    1  0.6210801E+003  0.2330757E+02  0.7546771E-02  0.1488672E+00
          2   -1    0    0  502    0  0.00000000000E+00  0.00000000000E+00  0.91711182599E+03  0.91711182599E+03  0.00000000000E+00 0. -1.
          2   -1    0    0  501    0 -0.00000000000E+00 -0.00000000000E+00 -0.17589469273E+01  0.17589469273E+01  0.00000000000E+00 0. -1.
          2    1    1    2  501    0  0.14255617242E+02 -0.18439631468E+02  0.83183891095E+03  0.83216537803E+03  0.00000000000E+00 0. -1.
          2    1    1    2  502    0 -0.14255617242E+02  0.18439631468E+02  0.83513968121E+02  0.86705394889E+02  0.00000000000E+00 0. -1.
</event>
<event>
 4    1  0.6210801E+003  0.3310596E+02  0.7546771E-02  0.1394391E+00
          2   -1    0    0  502    0  0.00000000000E+00  0.00000000000E+00  0.27687785347E+04  0.27687785347E+04  0.00000000000E+00 0.  1.
          2   -1    0    0  501    0 -0.00000000000E+00 -0.00000000000E+00 -0.40754651031E+00  0.40754651031E+00  0.00000000000E+00 0. -1.
          2    1    1    2  501    0  0.28979402112E+02  0.16006213854E+02  0.16188089023E+04  0.16191473889E+04  0.00000000000E+00 0.  1.
          2    1    1    2  502    0 -0.28979402112E+02 -0.16006213854E+02  0.11495620858E+04  0.11500386923E+04  0.00000000000E+00 0. -1.
</event>
<event>
 4    1  0.6210801E+003  0.3683978E+02  0.7546771E-02  0.1368071E+00
          2   -1    0    0  501    0  0.00000000000E+00  0.00000000000E+00  0.15475399586E+04  0.15475399586E+04  0.00000000000E+00 0.  1.
          2   -1    0    0  502    0 -0.00000000000E+00 -0.00000000000E+00 -0.52055586314E+01  0.52055586314E+01  0.00000000000E+00 0.  1.
          2    1    1    2  501    0 -0.15262476027E+02  0.33529483912E+02  0.63206715785E+02  0.73159130573E+02  0.00000000000E+00 0.  1.
          2    1    1    2  502    0  0.15262476027E+02 -0.33529483912E+02  0.14791276842E+04  0.14795863867E+04  0.00000000000E+00 0.  1.
</event>
<event>
 4    1  0.6210801E+003  0.2277434E+02  0.7546771E-02  0.1495351E+00
          2   -1    0    0  501    0  0.00000000000E+00  0.00000000000E+00  0.14419005969E+02  0.14419005969E+02  0.00000000000E+00 0.  1.
          2   -1    0    0  502    0 -0.00000000000E+00 -0.00000000000E+00 -0.91358470565E+03  0.91358470565E+03  0.00000000000E+00 0.  1.
          2    1    1    2  501    0 -0.13204377487E+01  0.22736025235E+02 -0.90435821519E+03  0.90464493133E+03  0.00000000000E+00 0.  1.
          2    1    1    2  502    0  0.13204377487E+01 -0.22736025235E+02  0.51925155085E+01  0.23358780290E+02  0.00000000000E+00 0.  1.
</event>
<event>
 4    1  0.6210801E+003  0.5303562E+02  0.7546771E-02  0.1285522E+00
          2   -1    0    0  502    0  0.00000000000E+00  0.00000000000E+00  0.42823512754E+01  0.42823512754E+01  0.00000000000E+00 0. -1.
          2   -1    0    0  501    0 -0.00000000000E+00 -0.00000000000E+00 -0.13068604001E+04  0.13068604001E+04  0.00000000000E+00 0. -1.
          2    1    1    2  501    0 -0.46188185985E+02 -0.26065841902E+02 -0.18893756899E+03  0.19624011215E+03  0.00000000000E+00 0. -1.
          2    1    1    2  502    0  0.46188185985E+02  0.26065841902E+02 -0.11136404798E+04  0.11149026392E+04  0.00000000000E+00 0. -1.
</event>
<event>
 4    1  0.6210801E+003  0.2057360E+02  0.7546771E-02  0.1525441E+00
          2   -1    0    0  501    0  0.00000000000E+00  0.00000000000E+00  0.11530665118E+03  0.11530665118E+03  0.00000000000E+00 0.  1.
          2   -1    0    0  502    0 -0.00000000000E+00 -0.00000000000E+00 -0.87678402000E+03  0.87678402000E+03  0.00000000000E+00 0. -1.
          2    1    1    2  501    0 -0.64141689381E+00  0.20563603064E+02 -0.87574452972E+03  0.87598616115E+03  0.00000000000E+00 0. -1.
          2    1    1    2  502    0  0.64141689381E+00 -0.20563603064E+02  0.11426716091E+03  0.11610451003E+03  0.00000000000E+00 0.  1.
</event>
<event>
 4    1  0.6210801E+003  0.2878992E+02  0.7546771E-02  0.1430412E+00
          2   -1    0    0  501    0  0.00000000000E+00  0.00000000000E+00  0.13152360916E+03  0.13152360916E+03  0.00000000000E+00 0.  1.
          2   -1    0    0  502    0 -0.00000000000E+00 -0.00000000000E+00 -0.65202019676E+01  0.65202019676E+01  0.00000000000E+00 0.  1.
          2    1    1    2  501    0 -0.18412370439E+02  0.22132415960E+02  0.49874559155E+02  0.57587593042E+02  0.00000000000E+00 0.  1.
          2    1    1    2  502    0  0.18412370439E+02 -0.22132415960E+02  0.75128848040E+02  0.80456218089E+02  0.00000000000E+00 0.  1.
</event>
<event>
 4    1  0.6210801E+003  0.3643718E+02  0.7546771E-02  0.1370731E+00
          2   -1    0    0  501    0  0.00000000000E+00  0.00000000000E+00  0.11781250295E+03  0.11781250295E+03  0.00000000000E+00 0. -1.
          2   -1    0    0  502    0 -0.00000000000E+00 -0.00000000000E+00 -0.82726350317E+03  0.82726350317E+03  0.00000000000E+00 0. -1.
          2    1    1    2  501    0  0.35867159042E+02  0.64198858400E+01 -0.82403391129E+03  0.82483910854E+03  0.00000000000E+00 0. -1.
          2    1    1    2  502    0 -0.35867159042E+02 -0.64198858400E+01  0.11458291106E+03  0.12023689758E+03  0.00000000000E+00 0. -1.
</event>
<event>
 4    1  0.6210801E+003  0.2378544E+02  0.7546771E-02  0.1482864E+00
          2   -1    0    0  501    0  0.00000000000E+00  0.00000000000E+00  0.49167987979E+02  0.49167987979E+02  0.00000000000E+00 0. -1.
          2   -1    0    0  502    0 -0.00000000000E+00 -0.00000000000E+00 -0.29305998738E+02  0.29305998738E+02  0.00000000000E+00 0. -1.
          2    1    1    2  501    0 -0.22775254486E+02 -0.68582131289E+01 -0.20647941613E+02  0.31497377622E+02  0.00000000000E+00 0. -1.
          2    1    1    2  502    0  0.22775254486E+02  0.68582131289E+01  0.40509930854E+02  0.46976609094E+02  0.00000000000E+00 0. -1.
</event>
<event>
 4    1  0.6210801E+003  0.2021689E+02  0.7546771E-02  0.1530746E+00
          2   -1    0    0  502    0  0.00000000000E+00  0.00000000000E+00  0.10999970609E+04  0.10999970609E+04  0.00000000000E+00 0.  1.
          2   -1    0    0  501    0 -0.00000000000E+00 -0.00000000000E+00 -0.58871813357E+03  0.58871813357E+03  0.00000000000E+00 0.  1.
          2    1    1    2  501    0  0.19736548974E+02 -0.43808031676E+01  0.10997305623E+04  0.10999163752E+04  0.00000000000E+00 0.  1.
          2    1    1    2  502    0 -0.19736548974E+02  0.43808031676E+01 -0.58845163500E+03  0.58879881924E+03  0.00000000000E+00 0.  1.
</event>
<event>
 4    1  0.6210801E+003  0.2185067E+02  0.7546771E-02  0.1507458E+00
          2   -1    0    0  501    0  0.00000000000E+00  0.00000000000E+00  0.30753030057E+01  0.30753030057E+01  0.00000000000E+00 0. -1.
          2   -1    0    0  502    0 -0.00000000000E+00 -0.00000000000E+00 -0.41111879101E+03  0.41111879101E+03  0.00000000000E+00 0.  1.
          2    1    1    2  501    0  0.20135792498E+02  0.84853746722E+01 -0.36740061269E+03  0.36804980904E+03  0.00000000000E+00 0.  1.
          2    1    1    2  502    0 -0.20135792498E+02 -0.84853746722E+01 -0.40642875306E+02  0.46144284976E+02  0.00000000000E+00 0. -1.
</event>
<event>
 4    1  0.6210801E+003  0.8991440E+02  0.7546771E-02  0.1182534E+00
          2   -1    0    0  502    0  0.00000000000E+00  0.00000000000E+00  0.10007127590E+03  0.10007127590E+03  0.00000000000E+00 0. -1.
          2   -1    0    0  501    0 -0.00000000000E+00 -0.00000000000E+00 -0.11590245959E+03  0.11590245959E+03  0.00000000000E+00 0.  1.
          2    1    1    2  501    0  0.71947473087E+01 -0.89626083491E+02  0.51522530200E+02  0.10362996839E+03  0.00000000000E+00 0. -1.
          2    1    1    2  502    0 -0.71947473087E+01  0.89626083491E+02 -0.67353713894E+02  0.11234376710E+03  0.00000000000E+00 0.  1.
</event>
<event>
 4    1  0.6210801E+003  0.2349422E+02  0.7546771E-02  0.1486384E+00
          2   -1    0    0  502    0  0.00000000000E+00  0.00000000000E+00  0.34753251054E+01  0.34753251054E+01  0.00000000000E+00 0.  1.
          2   -1    0    0  501    0 -0.00000000000E+00 -0.00000000000E+00 -0.13876260723E+04  0.13876260723E+04  0.00000000000E+00 0.  1.
          2    1    1    2  501    0 -0.14671740763E+02  0.18349887660E+02 -0.37540401812E+02  0.44286116587E+02  0.00000000000E+00 0.  1.
          2    1    1    2  502    0  0.14671740763E+02 -0.18349887660E+02 -0.13466103454E+04  0.13468152808E+04  0.00000000000E+00 0.  1.
</event>
<event>
 4    1  0.6210801E+003  0.7154693E+02  0.7546771E-02  0.1224961E+00
          2   -1    0    0  502    0  0.00000000000E+00  0.00000000000E+00  0.23951290348E+02  0.23951290348E+02  0.00000000000E+00 0.  1.
          2   -1    0    0  501    0 -0.00000000000E+00 -0.00000000000E+00 -0.59871959834E+03  0.59871959834E+03  0.00000000000E+00 0. -1.
          2    1    1    2  501    0  0.57285487225E+02 -0.42864161938E+02 -0.37726570899E+02  0.80884223289E+02  0.00000000000E+00 0.  1.
          2    1    1    2  502    0 -0.57285487225E+02  0.42864161938E+02 -0.53704173710E+03  0.54178666540E+03  0.00000000000E+00 0. -1.
</event>
<event>
 4    1  0.6210801E+003  0.2234967E+02  0.7546771E-02  0.1500830E+00
          2   -1    0    0  502    0  0.00000000000E+00  0.00000000000E+00  0.39286446011E+01  0.39286446011E+01  0.00000000000E+00 0.  1.
          2   -1    0    0  501    0 -0.00000000000E+00 -0.00000000000E+00 -0.12196946774E+04  0.12196946774E+04  0.00000000000E+00 0.  1.
          2    1    1    2  501    0 -0.91460094106E+00 -0.22330949815E+02 -0.28837414197E+02  0.36484301721E+02  0.00000000000E+00 0.  1.
          2    1    1    2  502    0  0.91460094106E+00  0.22330949815E+02 -0.11869286186E+04  0.11871390203E+04  0.00000000000E+00 0.  1.
</event>
<event>
 4    1  0.6210801E+003  0.2736366E+02  0.7546771E-02  0.1443989E+00
          2   -1    0    0  501    0  0.00000000000E+00  0.00000000000E+00  0.63746775041E+02  0.63746775041E+02  0.00000000000E+00 0.  1.
          2   -1    0    0  502    0 -0.00000000000E+00 -0.00000000000E+00 -0.25564313839E+03  0.25564313839E+03  0.00000000000E+00 0.  1.
          2    1    1    2  501    0  0.11459173983E+02 -0.24848683124E+02 -0.25193125815E+03  0.25341296051E+03  0.00000000000E+00 0.  1.
          2    1    1    2  502    0 -0.11459173983E+02  0.24848683124E+02  0.60034894808E+02  0.65976952915E+02  0.00000000000E+00 0.  1.
</event>
<event>
 4    1  0.6210801E+003  0.4323862E+02  0.7546771E-02  0.1330486E+00
          2   -1    0    0  502    0  0.00000000000E+00  0.00000000000E+00  0.29362045251E+04  0.29362045251E+04  0.00000000000E+00 0. -1.
          2   -1    0    0  501    0 -0.00000000000E+00 -0.00000000000E+00 -0.24136122746E+03  0.24136122746E+03  0.00000000000E+00 0.  1.
          2    1    1    2  501    0 -0.37924525598E+02  0.20767962638E+02  0.29341074643E+04  0.29344260410E+04  0.00000000000E+00 0. -1.
          2    1    1    2  502    0  0.37924525598E+02 -0.20767962638E+02 -0.23926416665E+03  0.24313971160E+03  0.00000000000E+00 0.  1.
</event>
<event>
 4    1  0.6210801E+003  0.2277455E+02  0.7546771E-02  0.1495349E+00
          2   -1    0    0  501    0  0.00000000000E+00  0.00000000000E+00  0.57756327851E+03  0.57756327851E+03  0.00000000000E+00 0. -1.
          2   -1    0    0  502    0 -0.00000000000E+00 -0.00000000000E+00 -0.15998332268E+01  0.15998332268E+01  0.00000000000E+00 0. -1.
          2    1    1    2  501    0  0.94627900352E+01 -0.20715592364E+02  0.96187587713E+02  0.98847014079E+02  0.00000000000E+00 0. -1.
          2    1    1    2  502    0 -0.94627900352E+01  0.20715592364E+02  0.47977585757E+03  0.48031609766E+03  0.00000000000E+00 0. -1.
</event>
<event>
 4    1  0.6210801E+003  0.3104123E+02  0.7546771E-02  0.1410759E+00
          2   -1    0    0  501    0  0.00000000000E+00  0.00000000000E+00  0.15354087986E+04  0.15354087986E+04  0.00000000000E+00 0.  1.
          2   -1    0    0  502    0 -0.00000000000E+00 -0.00000000000E+00 -0.62929440407E+00  0.62929440407E+00  0.00000000000E+00 0.  1.
          2    1    1    2  501    0 -0.30972552266E+02  0.20637903836E+01  0.80773182913E+03  0.80832806830E+03  0.00000000000E+00 0.  1.
          2    1    1    2  502    0  0.30972552266E+02 -0.20637903836E+01  0.72704767508E+03  0.72771002471E+03  0.00000000000E+00 0.  1.
</event>
<event>
 4    1  0.6210801E+003  0.2483722E+02  0.7546771E-02  0.1470633E+00
          2   -1    0    0  502    0  0.00000000000E+00  0.00000000000E+00  0.49639527608E+00  0.49639527608E+00  0.00000000000E+00 0. -1.
          2   -1    0    0  501    0 -0.00000000000E+00 -0.00000000000E+00 -0.16714974293E+04  0.16714974293E+04  0.00000000000E+00 0. -1.
          2    1    1    2  501    0  0.77461893337E+01 -0.23598388921E+02 -0.41209105359E+03  0.41283885944E+03  0.00000000000E+00 0. -1.
          2    1    1    2  502    0 -0.77461893337E+01  0.23598388921E+02 -0.12589099804E+04  0.12591549651E+04  0.00000000000E+00 0. -1.
</event>
<event>
 4    1  0.6210801E+003  0.4375689E+02  0.7546771E-02  0.1327773E+00
          2   -1    0    0  502    0  0.00000000000E+00  0.00000000000E+00  0.56613374442E+03  0.56613374442E+03  0.00000000000E+00 0.  1.
          2   -1    0    0  501    0 -0.00000000000E+00 -0.00000000000E+00 -0.14234149759E+02  0.14234149759E+02  0.00000000000E+00 0. -1.
          2    1    1    2  501    0 -0.36457956790E+02  0.24196760013E+02  0.52932578524E+03  0.53113129519E+03  0.00000000000E+00 0.  1.
          2    1    1    2  502    0  0.36457956790E+02 -0.24196760013E+02  0.22573809421E+02  0.49236598991E+02  0.00000000000E+00 0. -1.
</event>
<event>
 4    1  0.6210801E+003  0.2046519E+02  0.7546771E-02  0.1527039E+00
          2   -1    0    0  501    0  0.00000000000E+00  0.00000000000E+00  0.20226803043E+01  0.20226803043E+01  0.00000000000E+00 0. -1.
          2   -1    0    0  502    0 -0.00000000000E+00 -0.00000000000E+00 -0.58081113035E+03  0.58081113035E+03  0.00000000000E+00 0. -1.
          2    1    1    2  501    0 -0.18416966415E+02  0.89240967667E+01 -0.52316286192E+03  0.52356298976E+03  0.00000000000E+00 0. -1.
          2    1    1    2  502    0  0.18416966415E+02 -0.89240967667E+01 -0.55625588126E+02  0.59270820894E+02  0.00000000000E+00 0. -1.
</event>
<event>
 4    1  0.6210801E+003  0.2112046E+02  0.7546771E-02  0.1517552E+00
          2   -1    0    0  501    0  0.00000000000E+00  0.00000000000E+00  0.21908506007E+03  0.21908506007E+03  0.00000000000E+00 0. -1.
          2   -1    0    0  502    0 -0.00000000000E+00 -0.00000000000E+00 -0.91161652430E+01  0.91161652430E+01  0.00000000000E+00 0.  1.
          2    1    1    2  501    0  0.93853985302E+01 -0.18920579664E+02  0.44300150213E+01  0.21580061943E+02  0.00000000000E+00 0.  1.
          2    1    1    2  502    0 -0.93853985302E+01  0.18920579664E+02  0.20553887981E+03  0.20662116337E+03  0.00000000000E+00 0. -1.
</event>
<event>
 4    1  0.6210801E+003  0.2180665E+02  0.7546771E-02  0.1508052E+00
          2   -1    0    0  502    0  0.00000000000E+00  0.00000000000E+00  0.14057770493E+04  0.14057770493E+04  0.00000000000E+00 0.  1.
          2   -1    0    0  501    0 -0.00000000000E+00 -0.00000000000E+00 -0.23040192222E+03  0.23040192222E+03  0.00000000000E+00 0.  1.
          2    1    1    2  501    0  0.19151078591E+02  0.10429108451E+02  0.14051762827E+04  0.14053454791E+04  0.00000000000E+00 0.  1.
          2    1    1    2  502    0 -0.19151078591E+02 -0.10429108451E+02 -0.22980115561E+03  0.23083349244E+03  0.00000000000E+00 0.  1.
</event>
<event>
 4    1  0.6210801E+003  0.2063246E+02  0.7546771E-02  0.1524578E+00
          2   -1    0    0  501    0  0.00000000000E+00  0.00000000000E+00  0.11552101035E+03  0.11552101035E+03  0.00000000000E+00 0.  1.
          2   -1    0    0  502    0 -0.00000000000E+00 -0.00000000000E+00 -0.98528789088E+02  0.98528789088E+02  0.00000000000E+00 0. -1.
          2    1    1    2  501    0 -0.13623160420E+02 -0.15495412808E+02 -0.96508323207E+02  0.98689182620E+02  0.00000000000E+00 0. -1.
          2    1    1    2  502    0  0.13623160420E+02  0.15495412808E+02  0.11350054447E+03  0.11536061682E+03  0.00000000000E+00 0.  1.
</event>
<event>
 4    1  0.6210801E+003  0.2005300E+02  0.7546771E-02  0.1533227E+00
          2   -1    0    0  502    0  0.00000000000E+00  0.00000000000E+00  0.16042071019E+02  0.16042071019E+02  0.00000000000E+00 0. -1.
          2   -1    0    0  501    0 -0.00000000000E+00 -0.00000000000E+00 -0.14215710842E+04  0.14215710842E+04  0.00000000000E+00 0.  1.
          2    1    1    2  501    0 -0.12328998641E+02  0.15815135026E+02  0.96764774945E+01  0.22265599477E+02  0.00000000000E+00 0. -1.
          2    1    1    2  502    0  0.12328998641E+02 -0.15815135026E+02 -0.14152054906E+04  0.14153475557E+04  0.00000000000E+00 0.  1.
</event>
<event>
 4    1  0.6210801E+003  0.4098916E+02  0.7546771E-02  0.1342785E+00
          2   -1    0    0  501    0  0.00000000000E+00  0.00000000000E+00  0.85845442027E+01  0.85845442027E+01  0.00000000000E+00 0.  1.
          2   -1    0    0  502    0 -0.00000000000E+00 -0.00000000000E+00 -0.95957486524E+03  0.95957486524E+03  0.00000000000E+00 0.  1.
          2    1    1    2  501    0  0.29730171216E+02 -0.28217516204E+02 -0.90739666007E+03  0.90832197486E+03  0.00000000000E+00 0.  1.
          2    1    1    2  502    0 -0.29730171216E+02  0.28217516204E+02 -0.43593660965E+02  0.59837434584E+02  0.00000000000E+00 0.  1.
</event>
<event>
 4    1  0.6210801E+003  0.2538254E+02  0.7546771E-02  0.1464569E+00
          2   -1    0    0  502    0  0.00000000000E+00  0.00000000000E+00  0.19361144914E+01  0.19361144914E+01  0.00000000000E+00 0.  1.
          2   -1    0    0  501    0 -0.00000000000E+00 -0.00000000000E+00 -0.57676860749E+03  0.57676860749E+03  0.00000000000E+00 0. -1.
          2    1    1    2  501    0  0.25344590210E+02  0.13874263680E+01 -0.99214609320E+02  0.10241001859E+03  0.00000000000E+00 0.  1.
          2    1    1    2  502    0 -0.25344590210E+02 -0.13874263680E+01 -0.47561788368E+03  0.47629470340E+03  0.00000000000E+00 0. -1.
</event>
<event>
 4    1  0.6210801E+003  0.2458158E+02  0.7546771E-02  0.1473539E+00
          2   -1    0    0  502    0  0.00000000000E+00  0.00000000000E+00  0.17736733981E+03  0.17736733981E+03  0.00000000000E+00 0.  1.
          2   -1    0    0  501    0 -0.00000000000E+00 -0.00000000000E+00 -0.43466125701E+02  0.43466125701E+02  0.00000000000E+00 0.  1.
          2    1    1    2  501    0  0.23574797990E+02 -0.69629672459E+01  0.17295192756E+03  0.17469007774E+03  0.00000000000E+00 0.  1.
          2    1    1    2  502    0 -0.23574797990E+02  0.69629672459E+01 -0.39050713457E+02  0.46143387767E+02  0.00000000000E+00 0.  1.
</event>
<event>
 4    1  0.6210801E+003  0.2936591E+02  0.7546771E-02  0.1425188E+00
          2   -1    0    0  501    0  0.00000000000E+00  0.00000000000E+00  0.15470695403E+03  0.15470695403E+03  0.00000000000E+00 0.  1.
          2   -1    0    0  502    0 -0.00000000000E+00 -0.00000000000E+00 -0.10213981679E+04  0.10213981679E+04  0.00000000000E+00 0.  1.
          2    1    1    2  501    0  0.18905038439E+02  0.22471233001E+02 -0.10197913673E+04  0.10202140901E+04  0.00000000000E+00 0.  1.
          2    1    1    2  502    0 -0.18905038439E+02 -0.22471233001E+02  0.15310015349E+03  0.15589103179E+03  0.00000000000E+00 0.  1.
</event>
<event>
 4    1  0.6210801E+003  0.3108326E+02  0.7546771E-02  0.1410411E+00
          2   -1    0    0  502    0  0.00000000000E+00  0.00000000000E+00  0.39761399987E+02  0.39761399987E+02  0.00000000000E+00 0. -1.
          2   -1    0    0  501    0 -0.00000000000E+00 -0.00000000000E+00 -0.19450518031E+04  0.19450518031E+04  0.00000000000E+00 0.  1.
          2    1    1    2  501    0  0.31003656498E+02 -0.22231765074E+01  0.33542940626E+02  0.45730712829E+02  0.00000000000E+00 0. -1.
          2    1    1    2  502    0 -0.31003656498E+02  0.22231765074E+01 -0.19388333437E+04  0.19390824902E+04  0.00000000000E+00 0.  1.
</event>
<event>
 4    1  0.6210801E+003  0.3944329E+02  0.7546771E-02  0.1351779E+00
          2   -1    0    0  502    0  0.00000000000E+00  0.00000000000E+00  0.27964918086E+04  0.27964918086E+04  0.00000000000E+00 0.  1.
          2   -1    0    0  501    0 -0.00000000000E+00 -0.00000000000E+00 -0.30344504412E+01  0.30344504412E+01  0.00000000000E+00 0.  1.
          2    1    1    2  501    0  0.38997945989E+02  0.59104338505E+01  0.26616855181E+04  0.26619777554E+04  0.00000000000E+00 0.  1.
          2    1    1    2  502    0 -0.38997945989E+02 -0.59104338505E+01  0.13177184008E+03  0.13754850365E+03  0.00000000000E+00 0.  1.
</event>
<event>
 4    1  0.6210801E+003  0.2334888E+02  0.7546771E-02  0.1488163E+00
          2   -1    0    0  501    0  0.00000000000E+00  0.00000000000E+00  0.21213418125E+01  0.21213418125E+01  0.00000000000E+00 0. -1.
          2   -1    0    0  502    0 -0.00000000000E+00 -0.00000000000E+00 -0.31551303709E+03  0.31551303709E+03  0.00000000000E+00 0.  1.
          2    1    1    2  501    0  0.22231917738E+02 -0.71352615826E+01 -0.88298237965E+02  0.91333175527E+02  0.00000000000E+00 0. -1.
          2    1    1    2  502    0 -0.22231917738E+02  0.71352615826E+01 -0.22509345731E+03  0.22630120337E+03  0.00000000000E+00 0.  1.
</event>
<event>
 4    1  0.6210801E+003  0.2041131E+02  0.7546771E-02  0.1527838E+00
          2   -1    0    0  502    0  0.00000000000E+00  0.00000000000E+00  0.50742460064E+00  0.50742460064E+00  0.00000000000E+00 0.  1.
          2   -1    0    0  501    0 -0.00000000000E+00 -0.00000000000E+00 -0.14911413841E+04  0.14911413841E+04  0.00000000000E+00 0. -1.
          2    1    1    2  501    0 -0.11435467677E+02 -0.16907145338E+02 -0.24534707224E+03  0.24619465335E+03  0.00000000000E+00 0.  1.
          2    1    1    2  502    0  0.11435467677E+02  0.16907145338E+02 -0.12452868872E+04  0.12454541553E+04  0.00000000000E+00 0. -1.
</event>
<event>
 4    1  0.6210801E+003  0.2115216E+02  0.7546771E-02  0.1517103E+00
          2   -1    0    0  502    0  0.00000000000E+00  0.00000000000E+00  0.95659230815E+02  0.95659230815E+02  0.00000000000E+00 0.  1.
          2   -1    0    0  501    0 -0.00000000000E+00 -0.00000000000E+00 -0.49962972263E+03  0.49962972263E+03  0.00000000000E+00 0. -1.
          2    1    1    2  501    0 -0.43714049362E+01  0.20695528516E+02  0.94262790742E+02  0.96606872427E+02  0.00000000000E+00 0.  1.
          2    1    1    2  502    0  0.43714049362E+01 -0.20695528516E+02 -0.49823328256E+03  0.49868208102E+03  0.00000000000E+00 0. -1.
</event>
<event>
 4    1  0.6210801E+003  0.2094860E+02  0.7546771E-02  0.1520000E+00
          2   -1    0    0  501    0  0.00000000000E+00  0.00000000000E+00  0.15584309943E+03  0.15584309943E+03  0.00000000000E+00 0. -1.
          2   -1    0    0  502    0 -0.00000000000E+00 -0.00000000000E+00 -0.30486215154E+01  0.30486215154E+01  0.00000000000E+00 0. -1.
          2    1    1    2  501    0  0.18170846220E+02 -0.10424215104E+02  0.54448686841E+02  0.58339552721E+02  0.00000000000E+00 0. -1.
          2    1    1    2  502    0 -0.18170846220E+02  0.10424215104E+02  0.98345791072E+02  0.10055216822E+03  0.00000000000E+00 0. -1.
</event>
<event>
 4    1  0.6210801E+003  0.3133892E+02  0.7546771E-02  0.1408307E+00
          2   -1    0    0  502    0  0.00000000000E+00  0.00000000000E+00  0.60919594844E+03  0.60919594844E+03  0.00000000000E+00 0.  1.
          2   -1    0    0  501    0 -0.00000000000E+00 -0.00000000000E+00 -0.49432342143E+01  0.49432342143E+01  0.00000000000E+00 0. -1.
          2    1    1    2  501    0  0.28490585001E+02 -0.13054299506E+02  0.55419721560E+03  0.55508259020E+03  0.00000000000E+00 0.  1.
          2    1    1    2  502    0 -0.28490585001E+02  0.13054299506E+02  0.50055498634E+02  0.59056592458E+02  0.00000000000E+00 0. -1.
</event>
<event>
 4    1  0.6210801E+003  0.3505092E+02  0.7546771E-02  0.1380206E+00
          2   -1    0    0  502    0  0.00000000000E+00  0.00000000000E+00  0.45175881813E+02  0.45175881813E+02  0.00000000000E+00 0.  1.
          2   -1    0    0  501    0 -0.00000000000E+00 -0.00000000000E+00 -0.20266609415E+03  0.20266609415E+03  0.00000000000E+00 0. -1.
          2    1    1    2  501    0  0.32570204438E+02  0.12951794721E+02  0.36562209310E+02  0.50649406248E+02  0.00000000000E+00 0.  1.
          2    1    1    2  502    0 -0.32570204438E+02 -0.12951794721E+02 -0.19405242165E+03  0.19719256971E+03  0.00000000000E+00 0. -1.
</event>
<event>
 4    1  0.6210801E+003  0.2031194E+02  0.7546771E-02  0.1529319E+00
          2   -1    0    0  501    0  0.00000000000E+00  0.00000000000E+00  0.12642886039E+01  0.12642886039E+01  0.00000000000E+00 0. -1.
          2   -1    0    0  502    0 -0.00000000000E+00 -0.00000000000E+00 -0.34039805467E+03  0.34039805467E+03  0.00000000000E+00 0.  1.
          2    1    1    2  501    0 -0.35695728596E+01 -0.19995821846E+02 -0.13483747139E+03  0.13635878568E+03  0.00000000000E+00 0. -1.
          2    1    1    2  502    0  0.35695728596E+01  0.19995821846E+02 -0.20429629468E+03  0.20530355759E+03  0.00000000000E+00 0.  1.
</event>
<event>
 4    1  0.6210801E+003  0.2021596E+02  0.7546771E-02  0.1530760E+00
          2   -1    0    0  502    0  0.00000000000E+00  0.00000000000E+00  0.14358114411E+02  0.14358114411E+02  0.00000000000E+00 0.  1.
          2   -1    0    0  501    0 -0.00000000000E+00 -0.00000000000E+00 -0.11994938058E+04  0.11994938058E+04  0.00000000000E+00 0.  1.
          2    1    1    2  501    0 -0.16015248828E+02 -0.12336801262E+02  0.71137797104E+01  0.21431069086E+02  0.00000000000E+00 0.  1.
          2    1    1    2  502    0  0.16015248828E+02  0.12336801262E+02 -0.11922494711E+04  0.11924208511E+04  0.00000000000E+00 0.  1.
</event>
<event>
 4    1  0.6210801E+003  0.5997009E+02  0.7546771E-02  0.1259934E+00
          2   -1    0    0  502    0  0.00000000000E+00  0.00000000000E+00  0.56408234918E+01  0.56408234918E+01  0.00000000000E+00 0.  1.
          2   -1    0    0  501    0 -0.00000000000E+00 -0.00000000000E+00 -0.14666405050E+04  0.14666405050E+04  0.00000000000E+00 0. -1.
          2    1    1    2  501    0 -0.59322066119E+02 -0.87922794569E+01 -0.17702857208E+03  0.18691047868E+03  0.00000000000E+00 0.  1.
          2    1    1    2  502    0  0.59322066119E+02  0.87922794569E+01 -0.12839711094E+04  0.12853708498E+04  0.00000000000E+00 0. -1.
</event>
<event>
 4    1  0.6210801E+003  0.2204268E+02  0.7546771E-02  0.1504882E+00
          2   -1    0    0  502    0  0.00000000000E+00  0.00000000000E+00  0.68090773533E+03  0.68090773533E+03  0.00000000000E+00 0.  1.
          2   -1    0    0  501    0 -0.00000000000E+00 -0.00000000000E+00 -0.54715455368E+01  0.54715455368E+01  0.00000000000E+00 0. -1.
          2    1    1    2  501    0 -0.21159899916E+02 -0.61756403961E+01  0.65774755368E+03  0.65811680139E+03  0.00000000000E+00 0.  1.
          2    1    1    2  502    0  0.21159899916E+02  0.61756403961E+01  0.17688636116E+02  0.28262479481E+02  0.00000000000E+00 0. -1.
</event>
<event>
 4    1  0.6210801E+003  0.3149068E+02  0.7546771E-02  0.1407070E+00
          2   -1    0    0  501    0  0.00000000000E+00  0.00000000000E+00  0.14809149904E+04  0.14809149904E+04  0.00000000000E+00 0. -1.
          2   -1    0    0  502    0 -0.00000000000E+00 -0.00000000000E+00 -0.22767126065E+01  0.22767126065E+01  0.00000000000E+00 0. -1.
          2    1    1    2  501    0 -0.21192900711E+02 -0.23292136122E+02  0.13623829257E+04  0.13627468213E+04  0.00000000000E+00 0. -1.
          2    1    1    2  502    0  0.21192900711E+02  0.23292136122E+02  0.11625535207E+03  0.12044488171E+03  0.00000000000E+00 0. -1.
</event>
<event>
 4    1  0.6210801E+003  0.3868372E+02  0.7546771E-02  0.1356377E+00
          2   -1    0    0  501    0  0.00000000000E+00  0.00000000000E+00  0.12081425173E+04  0.12081425173E+04  0.00000000000E+00 0. -1.
          2   -1    0    0  502    0 -0.00000000000E+00 -0.00000000000E+00 -0.88268930306E+01  0.88268930306E+01  0.00000000000E+00 0. -1.
          2    1    1    2  501    0  0.21227826405E+02 -0.32338973437E+02  0.35478442849E+02  0.52489520133E+02  0.00000000000E+00 0. -1.
          2    1    1    2  502    0 -0.21227826405E+02  0.32338973437E+02  0.11638371815E+04  0.11644798902E+04  0.00000000000E+00 0. -1.
</event>
<event>
 4    1  0.6210801E+003  0.2945665E+02  0.7546771E-02  0.1424378E+00
          2   -1    0    0  502    0  0.00000000000E+00  0.00000000000E+00  0.10438778478E+01  0.10438778478E+01  0.00000000000E+00 0.  1.
          2   -1    0    0  501    0 -0.00000000000E+00 -0.00000000000E+00 -0.91404278668E+03  0.91404278668E+03  0.00000000000E+00 0.  1.
          2    1    1    2  501    0  0.20453507190E+02  0.21197834853E+02 -0.31877253660E+03  0.32013063623E+03  0.00000000000E+00 0.  1.
          2    1    1    2  502    0 -0.20453507190E+02 -0.21197834853E+02 -0.59422637223E+03  0.59495602831E+03  0.00000000000E+00 0.  1.
</event>
<event>
 4    1  0.6210801E+003  0.2013175E+02  0.7546771E-02  0.1532031E+00
          2   -1    0    0  501    0  0.00000000000E+00  0.00000000000E+00  0.15968347226E+04  0.15968347226E+04  0.00000000000E+00 0. -1.
          2   -1    0    0  502    0 -0.00000000000E+00 -0.00000000000E+00 -0.51482868738E+00  0.51482868738E+00  0.00000000000E+00 0.  1.
          2    1    1    2  501    0 -0.14286489751E+02  0.14183918335E+02  0.22946789728E+03  0.23034930695E+03  0.00000000000E+00 0.  1.
          2    1    1    2  502    0  0.14286489751E+02 -0.14183918335E+02  0.13668519966E+04  0.13670002443E+04  0.00000000000E+00 0. -1.
</event>
<event>
 4    1  0.6210801E+003  0.2688970E+02  0.7546771E-02  0.1448719E+00
          2   -1    0    0  502    0  0.00000000000E+00  0.00000000000E+00  0.12369423663E+03  0.12369423663E+03  0.00000000000E+00 0.  1.
          2   -1    0    0  501    0 -0.00000000000E+00 -0.00000000000E+00 -0.96700391741E+01  0.96700391741E+01  0.00000000000E+00 0.  1.
          2    1    1    2  501    0  0.13260557453E+02 -0.23392601684E+02  0.98947832817E+02  0.10253648042E+03  0.00000000000E+00 0.  1.
          2    1    1    2  502    0 -0.13260557453E+02  0.23392601684E+02  0.15076364637E+02  0.30827795383E+02  0.00000000000E+00 0.  1.
</event>
<event>
 4    1  0.6210801E+003  0.2264177E+02  0.7546771E-02  0.1497046E+00
          2   -1    0    0  502    0  0.00000000000E+00  0.00000000000E+00  0.12886623076E+01  0.12886623076E+01  0.00000000000E+00 0. -1.
          2   -1    0    0  501    0 -0.00000000000E+00 -0.00000000000E+00 -0.56043070280E+03  0.56043070280E+03  0.00000000000E+00 0. -1.
          2    1    1    2  501    0 -0.13882340791E+02  0.17886603135E+02 -0.12828148396E+03  0.13026430472E+03  0.00000000000E+00 0. -1.
          2    1    1    2  502    0  0.13882340791E+02 -0.17886603135E+02 -0.43086055653E+03  0.43145506038E+03  0.00000000000E+00 0. -1.
</event>
<event>
 4    1  0.6210801E+003  0.2539177E+02  0.7546771E-02  0.1464468E+00
          2   -1    0    0  501    0  0.00000000000E+00  0.00000000000E+00  0.34977798512E+02  0.34977798512E+02  0.00000000000E+00 0. -1.
          2   -1    0    0  502    0 -0.00000000000E+00 -0.00000000000E+00 -0.24361004294E+02  0.24361004294E+02  0.00000000000E+00 0.  1.
          2    1    1    2  501    0  0.25341642815E+02 -0.15946896475E+01 -0.93275048542E+01  0.27050771569E+02  0.00000000000E+00 0.  1.
          2    1    1    2  502    0 -0.25341642815E+02  0.15946896475E+01  0.19944299073E+02  0.32288031237E+02  0.00000000000E+00 0. -1.
</event>
<event>
 4    1  0.6210801E+003  0.2664176E+02  0.7546771E-02  0.1451240E+00
          2   -1    0    0  502    0  0.00000000000E+00  0.00000000000E+00  0.30334300257E+03  0.30334300257E+03  0.00000000000E+00 0.  1.
          2   -1    0    0  501    0 -0.00000000000E+00 -0.00000000000E+00 -0.10564908386E+03  0.10564908386E+03  0.00000000000E+00 0. -1.
          2    1    1    2  501    0  0.71415042638E+01  0.25666759214E+02  0.30106577712E+03  0.30224226337E+03  0.00000000000E+00 0.  1.
          2    1    1    2  502    0 -0.71415042638E+01 -0.25666759214E+02 -0.10337185841E+03  0.10674982306E+03  0.00000000000E+00 0. -1.
</event>
<event>
 4    1  0.6210801E+003  0.2040772E+02  0.7546771E-02  0.1527892E+00
          2   -1    0    0  501    0  0.00000000000E+00  0.00000000000E+00  0.14583777353E+04  0.14583777353E+04  0.00000000000E+00 0. -1.
          2   -1    0    0  502    0 -0.00000000000E+00 -0.00000000000E+00 -0.74849034110E+03  0.74849034110E+03  0.00000000000E+00 0.  1.
          2    1    1    2  501    0 -0.13737760533E+02  0.15091350107E+02 -0.74827982252E+03  0.74855805900E+03  0.00000000000E+00 0.  1.
          2    1    1    2  502    0  0.13737760533E+02 -0.15091350107E+02  0.14581672167E+04  0.14583100174E+04  0.00000000000E+00 0. -1.
</event>
<event>
 4    1  0.6210801E+003  0.3383566E+02  0.7546771E-02  0.1388939E+00
          2   -1    0    0  501    0  0.00000000000E+00  0.00000000000E+00  0.24984161542E+03  0.24984161542E+03  0.00000000000E+00 0. -1.
          2   -1    0    0  502    0 -0.00000000000E+00 -0.00000000000E+00 -0.11275371430E+03  0.11275371430E+03  0.00000000000E+00 0. -1.
          2    1    1    2  501    0  0.66063659337E+01  0.33184456237E+02 -0.10903153541E+03  0.11416097372E+03  0.00000000000E+00 0. -1.
          2    1    1    2  502    0 -0.66063659337E+01 -0.33184456237E+02  0.24611943653E+03  0.24843435601E+03  0.00000000000E+00 0. -1.
</event>
<event>
 4    1  0.6210801E+003  0.6792427E+02  0.7546771E-02  0.1235051E+00
          2   -1    0    0  501    0  0.00000000000E+00  0.00000000000E+00  0.27479431583E+03  0.27479431583E+03  0.00000000000E+00 0.  1.
          2   -1    0    0  502    0 -0.00000000000E+00 -0.00000000000E+00 -0.43853648700E+02  0.43853648700E+02  0.00000000000E+00 0. -1.
          2    1    1    2  501    0  0.67118726414E+02  0.10429909945E+02 -0.96921266115E+01  0.68612271316E+02  0.00000000000E+00 0. -1.
          2    1    1    2  502    0 -0.67118726414E+02 -0.10429909945E+02  0.24063279374E+03  0.25003569321E+03  0.00000000000E+00 0.  1.
</event>
<event>
 4    1  0.6210801E+003  0.2383587E+02  0.7546771E-02  0.1482261E+00
          2   -1    0    0  502    0  0.00000000000E+00  0.00000000000E+00  0.65739175741E+01  0.65739175741E+01  0.00000000000E+00 0. -1.
          2   -1    0    0  501    0 -0.00000000000E+00 -0.00000000000E+00 -0.93769358463E+03  0.93769358463E+03  0.00000000000E+00 0.  1.
          2    1    1    2  501    0 -0.63784651819E+01 -0.22966583881E+02 -0.15709592630E+02  0.28547155617E+02  0.00000000000E+00 0. -1.
          2    1    1    2  502    0  0.63784651819E+01  0.22966583881E+02 -0.91541007442E+03  0.91572034658E+03  0.00000000000E+00 0.  1.
</event>
<event>
 4    1  0.6210801E+003  0.2103200E+02  0.7546771E-02  0.1518808E+00
          2   -1    0    0  502    0  0.00000000000E+00  0.00000000000E+00  0.28294774648E+01  0.28294774648E+01  0.00000000000E+00 0. -1.
          2   -1    0    0  501    0 -0.00000000000E+00 -0.00000000000E+00 -0.66661333864E+03  0.66661333864E+03  0.00000000000E+00 0.  1.
          2    1    1    2  501    0 -0.32494559643E+01  0.20779462289E+02 -0.39038538766E+02  0.44343573673E+02  0.00000000000E+00 0. -1.
          2    1    1    2  502    0  0.32494559643E+01 -0.20779462289E+02 -0.62474532241E+03  0.62509924243E+03  0.00000000000E+00 0.  1.
</event>
<event>
 4    1  0.8673192E+003  0.2409910E+02  0.7546771E-02  0.1479139E+00
          2   -1    0    0  502    0  0.00000000000E+00  0.00000000000E+00  0.62357390197E+03  0.62357390197E+03  0.00000000000E+00 0.  1.
          2   -1    0    0  501    0 -0.00000000000E+00 -0.00000000000E+00 -0.10560563975E+04  0.10560563975E+04  0.00000000000E+00 0. -1.
          2    1    1    2  501    0 -0.13734540372E+02  0.19802253411E+02  0.62320349746E+03  0.62366927621E+03  0.00000000000E+00 0.  1.
          2    1    1    2  502    0  0.13734540372E+02 -0.19802253411E+02 -0.10556859930E+04  0.10559610233E+04  0.00000000000E+00 0. -1.
</event>
<event>
 4    1  0.6210801E+003  0.2533254E+02  0.7546771E-02  0.1465117E+00
          2   -1    0    0  502    0  0.00000000000E+00  0.00000000000E+00  0.26807126327E+02  0.26807126327E+02  0.00000000000E+00 0. -1.
          2   -1    0    0  501    0 -0.00000000000E+00 -0.00000000000E+00 -0.98504929040E+02  0.98504929040E+02  0.00000000000E+00 0. -1.
          2    1    1    2  501    0 -0.12802634162E+02  0.21859331874E+02  0.18664574238E+02  0.31465920660E+02  0.00000000000E+00 0. -1.
          2    1    1    2  502    0  0.12802634162E+02 -0.21859331874E+02 -0.90362376951E+02  0.93846134708E+02  0.00000000000E+00 0. -1.
</event>
<event>
 4    1  0.6210801E+003  0.4860088E+02  0.7546771E-02  0.1304355E+00
          2   -1    0    0  501    0  0.00000000000E+00  0.00000000000E+00  0.27493807628E+01  0.27493807628E+01  0.00000000000E+00 0. -1.
          2   -1    0    0  502    0 -0.00000000000E+00 -0.00000000000E+00 -0.15506349325E+04  0.15506349325E+04  0.00000000000E+00 0.  1.
          2    1    1    2  501    0  0.28696786745E+02 -0.39224221687E+02 -0.12926176930E+04  0.12935310377E+04  0.00000000000E+00 0.  1.
          2    1    1    2  502    0 -0.28696786745E+02  0.39224221687E+02 -0.25526785872E+03  0.25985327559E+03  0.00000000000E+00 0. -1.
</event>
<event>
 4    1  0.6210801E+003  0.2161586E+02  0.7546771E-02  0.1510651E+00
          2   -1    0    0  501    0  0.00000000000E+00  0.00000000000E+00  0.20690380158E+03  0.20690380158E+03  0.00000000000E+00 0.  1.
          2   -1    0    0  502    0 -0.00000000000E+00 -0.00000000000E+00 -0.48369997061E+02  0.48369997061E+02  0.00000000000E+00 0. -1.
          2    1    1    2  501    0 -0.17946459898E+02  0.12048649611E+02 -0.45354861198E+02  0.50242500083E+02  0.00000000000E+00 0. -1.
          2    1    1    2  502    0  0.17946459898E+02 -0.12048649611E+02  0.20388866571E+03  0.20503129855E+03  0.00000000000E+00 0.  1.
</event>
<event>
 4    1  0.6210801E+003  0.2047723E+02  0.7546771E-02  0.1526861E+00
          2   -1    0    0  501    0  0.00000000000E+00  0.00000000000E+00  0.12171078598E+04  0.12171078598E+04  0.00000000000E+00 0.  1.
          2   -1    0    0  502    0 -0.00000000000E+00 -0.00000000000E+00 -0.48886398392E+01  0.48886398392E+01  0.00000000000E+00 0.  1.
          2    1    1    2  501    0 -0.20314628847E+02  0.25754360327E+01  0.17034230574E+02  0.26636103829E+02  0.00000000000E+00 0.  1.
          2    1    1    2  502    0  0.20314628847E+02 -0.25754360327E+01  0.11951849894E+04  0.11953603958E+04  0.00000000000E+00 0.  1.
</event>
<event>
 4    1  0.6210801E+003  0.2150033E+02  0.7546771E-02  0.1512240E+00
          2   -1    0    0  501    0  0.00000000000E+00  0.00000000000E+00  0.78088675365E+01  0.78088675365E+01  0.00000000000E+00 0. -1.
          2   -1    0    0  502    0 -0.00000000000E+00 -0.00000000000E+00 -0.82725971045E+02  0.82725971045E+02  0.00000000000E+00 0.  1.
          2    1    1    2  501    0 -0.13706981150E+02 -0.16564499771E+02 -0.61600002632E+02  0.65244343120E+02  0.00000000000E+00 0.  1.
          2    1    1    2  502    0  0.13706981150E+02  0.16564499771E+02 -0.13317100876E+02  0.25290495461E+02  0.00000000000E+00 0. -1.
</event>
<event>
 4    1  0.6210801E+003  0.2514743E+02  0.7546771E-02  0.1467161E+00
          2   -1    0    0  501    0  0.00000000000E+00  0.00000000000E+00  0.79091190090E+00  0.79091190090E+00  0.00000000000E+00 0. -1.
          2   -1    0    0  502    0 -0.00000000000E+00 -0.00000000000E+00 -0.18489725862E+04  0.18489725862E+04  0.00000000000E+00 0. -1.
          2    1    1    2  501    0 -0.14462677209E+02 -0.20572418514E+02 -0.16208633186E+04  0.16210583860E+04  0.00000000000E+00 0. -1.
          2    1    1    2  502    0  0.14462677209E+02  0.20572418514E+02 -0.22731835575E+03  0.22870511209E+03  0.00000000000E+00 0. -1.
</event>
<event>
 4    1  0.6210801E+003  0.2083845E+02  0.7546771E-02  0.1521584E+00
          2   -1    0    0  501    0  0.00000000000E+00  0.00000000000E+00  0.19912143976E+02  0.19912143976E+02  0.00000000000E+00 0.  1.
          2   -1    0    0  502    0 -0.00000000000E+00 -0.00000000000E+00 -0.97869674873E+02  0.97869674873E+02  0.00000000000E+00 0. -1.
          2    1    1    2  501    0 -0.85250491201E+01  0.19014848759E+02 -0.90895524664E+02  0.93253618373E+02  0.00000000000E+00 0. -1.
          2    1    1    2  502    0  0.85250491201E+01 -0.19014848759E+02  0.12937993767E+02  0.24528200475E+02  0.00000000000E+00 0.  1.
</event>
<event>
 4    1  0.6210801E+003  0.2563725E+02  0.7546771E-02  0.1461799E+00
          2   -1    0    0  501    0  0.00000000000E+00  0.00000000000E+00  0.20707967544E+03  0.20707967544E+03  0.00000000000E+00 0. -1.
          2   -1    0    0  502    0 -0.00000000000E+00 -0.00000000000E+00 -0.46937749769E+01  0.46937749769E+01  0.00000000000E+00 0. -1.
          2    1    1    2  501    0 -0.19986216605E+02 -0.16056768559E+02  0.40940937361E+02  0.48305579623E+02  0.00000000000E+00 0. -1.
          2    1    1    2  502    0  0.19986216605E+02  0.16056768559E+02  0.16144496310E+03  0.16346787079E+03  0.00000000000E+00 0. -1.
</event>
<event>
 4    1  0.6210801E+003  0.2617204E+02  0.7546771E-02  0.1456107E+00
          2   -1    0    0  502    0  0.00000000000E+00  0.00000000000E+00  0.32526943371E+01  0.32526943371E+01  0.00000000000E+00 0.  1.
          2   -1    0    0  501    0 -0.00000000000E+00 -0.00000000000E+00 -0.12373717581E+04  0.12373717581E+04  0.00000000000E+00 0. -1.
          2    1    1    2  501    0 -0.90393759608E+01 -0.24561457521E+02 -0.51992559563E+02  0.58208261984E+02  0.00000000000E+00 0.  1.
          2    1    1    2  502    0  0.90393759608E+01  0.24561457521E+02 -0.11821265042E+04  0.11824161904E+04  0.00000000000E+00 0. -1.
</event>
<event>
 4    1  0.1175024E+004  0.2581647E+02  0.7546771E-02  0.1459873E+00
          2   -1    0    0  501    0  0.00000000000E+00  0.00000000000E+00  0.70687209386E+03  0.70687209386E+03  0.00000000000E+00 0.  1.
          2   -1    0    0  502    0 -0.00000000000E+00 -0.00000000000E+00 -0.13157291027E+04  0.13157291027E+04  0.00000000000E+00 0. -1.
          2    1    1    2  501    0 -0.17571497244E+02  0.18913815582E+02 -0.13153666809E+04  0.13156200041E+04  0.00000000000E+00 0. -1.
          2    1    1    2  502    0  0.17571497244E+02 -0.18913815582E+02  0.70650967201E+03  0.70698119252E+03  0.00000000000E+00 0.  1.
</event>
<event>
 4    1  0.6210801E+003  0.2321394E+02  0.7546771E-02  0.1489829E+00
          2   -1    0    0  502    0  0.00000000000E+00  0.00000000000E+00  0.16544338936E+02  0.16544338936E+02  0.00000000000E+00 0. -1.
          2   -1    0    0  501    0 -0.00000000000E+00 -0.00000000000E+00 -0.37344573791E+03  0.37344573791E+03  0.00000000000E+00 0.  1.
          2    1    1    2  501    0 -0.23150494033E+02 -0.17150950901E+01  0.78465303906E+01  0.24504182588E+02  0.00000000000E+00 0. -1.
          2    1    1    2  502    0  0.23150494033E+02  0.17150950901E+01 -0.36474792937E+03  0.36548589426E+03  0.00000000000E+00 0.  1.
</event>
<event>
 4    1  0.6210801E+003  0.2034630E+02  0.7546771E-02  0.1528806E+00
          2   -1    0    0  501    0  0.00000000000E+00  0.00000000000E+00  0.20502882353E+01  0.20502882353E+01  0.00000000000E+00 0. -1.
          2   -1    0    0  502    0 -0.00000000000E+00 -0.00000000000E+00 -0.10710395460E+04  0.10710395460E+04  0.00000000000E+00 0.  1.
          2    1    1    2  501    0  0.47081092925E+01 -0.19794082227E+02 -0.10178269049E+04  0.10180302453E+04  0.00000000000E+00 0.  1.
          2    1    1    2  502    0 -0.47081092925E+01  0.19794082227E+02 -0.51162352865E+02  0.55059588947E+02  0.00000000000E+00 0. -1.
</event>
<event>
 4    1  0.6210801E+003  0.2134243E+02  0.7546771E-02  0.1514432E+00
          2   -1    0    0  502    0  0.00000000000E+00  0.00000000000E+00  0.80032739311E+03  0.80032739311E+03  0.00000000000E+00 0. -1.
          2   -1    0    0  501    0 -0.00000000000E+00 -0.00000000000E+00 -0.14006973743E+01  0.14006973743E+01  0.00000000000E+00 0.  1.
          2    1    1    2  501    0 -0.18140160407E+02 -0.11244289993E+02  0.70832976031E+03  0.70865121803E+03  0.00000000000E+00 0. -1.
          2    1    1    2  502    0  0.18140160407E+02  0.11244289993E+02  0.90596935428E+02  0.93076872455E+02  0.00000000000E+00 0.  1.
</event>
<event>
 4    1  0.6210801E+003  0.2437009E+02  0.7546771E-02  0.1475975E+00
          2   -1    0    0  502    0  0.00000000000E+00  0.00000000000E+00  0.68253698195E+01  0.68253698195E+01  0.00000000000E+00 0.  1.
          2   -1    0    0  501    0 -0.00000000000E+00 -0.00000000000E+00 -0.24993442216E+03  0.24993442216E+03  0.00000000000E+00 0.  1.
          2    1    1    2  501    0  0.17880143345E+02  0.16559031878E+02 -0.17903866209E+02  0.30239865873E+02  0.00000000000E+00 0.  1.
          2    1    1    2  502    0 -0.17880143345E+02 -0.16559031878E+02 -0.22520518613E+03  0.22651992610E+03  0.00000000000E+00 0.  1.
</event>
<event>
 4    1  0.6210801E+003  0.2564933E+02  0.7546771E-02  0.1461669E+00
          2   -1    0    0  501    0  0.00000000000E+00  0.00000000000E+00  0.13878795720E+01  0.13878795720E+01  0.00000000000E+00 0. -1.
          2   -1    0    0  502    0 -0.00000000000E+00 -0.00000000000E+00 -0.52825467339E+03  0.52825467339E+03  0.00000000000E+00 0.  1.
          2    1    1    2  501    0 -0.67036025279E+00  0.25640571697E+02 -0.34828371740E+03  0.34922691206E+03  0.00000000000E+00 0.  1.
          2    1    1    2  502    0  0.67036025279E+00 -0.25640571697E+02 -0.17858307642E+03  0.18041564091E+03  0.00000000000E+00 0. -1.
</event>
<event>
 4    1  0.6210801E+003  0.2184258E+02  0.7546771E-02  0.1507567E+00
          2   -1    0    0  501    0  0.00000000000E+00  0.00000000000E+00  0.12776553540E+02  0.12776553540E+02  0.00000000000E+00 0. -1.
          2   -1    0    0  502    0 -0.00000000000E+00 -0.00000000000E+00 -0.55374594514E+02  0.55374594514E+02  0.00000000000E+00 0. -1.
          2    1    1    2  501    0  0.10110996344E+02 -0.19361459645E+02 -0.40744582191E+02  0.46230069702E+02  0.00000000000E+00 0. -1.
          2    1    1    2  502    0 -0.10110996344E+02  0.19361459645E+02 -0.18534587837E+01  0.21921078352E+02  0.00000000000E+00 0. -1.
</event>
<event>
 4    1  0.6210801E+003  0.2469797E+02  0.7546771E-02  0.1472211E+00
          2   -1    0    0  502    0  0.00000000000E+00  0.00000000000E+00  0.12125697769E+02  0.12125697769E+02  0.00000000000E+00 0.  1.
          2   -1    0    0  501    0 -0.00000000000E+00 -0.00000000000E+00 -0.41569995323E+03  0.41569995323E+03  0.00000000000E+00 0. -1.
          2    1    1    2  501    0 -0.23245539526E+02  0.83447339941E+01 -0.12347608719E+01  0.24728815736E+02  0.00000000000E+00 0.  1.
          2    1    1    2  502    0  0.23245539526E+02 -0.83447339941E+01 -0.40233949459E+03  0.40309683527E+03  0.00000000000E+00 0. -1.
</event>
<event>
 4    1  0.6210801E+003  0.2210089E+02  0.7546771E-02  0.1504108E+00
          2   -1    0    0  501    0  0.00000000000E+00  0.00000000000E+00  0.13571807749E+02  0.13571807749E+02  0.00000000000E+00 0. -1.
          2   -1    0    0  502    0 -0.00000000000E+00 -0.00000000000E+00 -0.52917546873E+02  0.52917546873E+02  0.00000000000E+00 0.  1.
          2    1    1    2  501    0  0.21865269919E+02  0.32186123536E+01 -0.38475523670E+02  0.44371335519E+02  0.00000000000E+00 0.  1.
          2    1    1    2  502    0 -0.21865269919E+02 -0.32186123536E+01 -0.87021545432E+00  0.22118019103E+02  0.00000000000E+00 0. -1.
</event>
<event>
 4    1  0.6210801E+003  0.3303688E+02  0.7546771E-02  0.1394916E+00
          2   -1    0    0  501    0  0.00000000000E+00  0.00000000000E+00  0.12790505174E+04  0.12790505174E+04  0.00000000000E+00 0. -1.
          2   -1    0    0  502    0 -0.00000000000E+00 -0.00000000000E+00 -0.36832305094E+03  0.36832305094E+03  0.00000000000E+00 0.  1.
          2    1    1    2  501    0  0.32999335675E+02  0.15746232136E+01 -0.36736835434E+03  0.36885084162E+03  0.00000000000E+00 0.  1.
          2    1    1    2  502    0 -0.32999335675E+02 -0.15746232136E+01  0.12780958208E+04  0.12785227267E+04  0.00000000000E+00 0. -1.
</event>
<event>
 4    1  0.6210801E+003  0.4548419E+02  0.7546771E-02  0.1319036E+00
          2   -1    0    0  501    0  0.00000000000E+00  0.00000000000E+00  0.17352392539E+03  0.17352392539E+03  0.00000000000E+00 0. -1.
          2   -1    0    0  502    0 -0.00000000000E+00 -0.00000000000E+00 -0.12736704110E+02  0.12736704110E+02  0.00000000000E+00 0. -1.
          2    1    1    2  501    0 -0.14404346677E+01  0.45461378621E+02  0.56844690827E+02  0.72801996355E+02  0.00000000000E+00 0. -1.
          2    1    1    2  502    0  0.14404346677E+01 -0.45461378621E+02  0.10394253045E+03  0.11345863314E+03  0.00000000000E+00 0. -1.
</event>
<event>
 4    1  0.6210801E+003  0.2583768E+02  0.7546771E-02  0.1459647E+00
          2   -1    0    0  501    0  0.00000000000E+00  0.00000000000E+00  0.35487061097E+03  0.35487061097E+03  0.00000000000E+00 0. -1.
          2   -1    0    0  502    0 -0.00000000000E+00 -0.00000000000E+00 -0.34015214887E+03  0.34015214887E+03  0.00000000000E+00 0. -1.
          2    1    1    2  501    0 -0.18809187151E+02 -0.17714410061E+02 -0.33918986187E+03  0.34017252717E+03  0.00000000000E+00 0. -1.
          2    1    1    2  502    0  0.18809187151E+02  0.17714410061E+02  0.35390832398E+03  0.35485023267E+03  0.00000000000E+00 0. -1.
</event>
<event>
 4    1  0.6210801E+003  0.3414457E+02  0.7546771E-02  0.1386679E+00
          2   -1    0    0  502    0  0.00000000000E+00  0.00000000000E+00  0.97314519317E+02  0.97314519317E+02  0.00000000000E+00 0. -1.
          2   -1    0    0  501    0 -0.00000000000E+00 -0.00000000000E+00 -0.72859880629E+03  0.72859880629E+03  0.00000000000E+00 0.  1.
          2    1    1    2  501    0 -0.23588805700E+02  0.24686428367E+02  0.93905354560E+02  0.99920303817E+02  0.00000000000E+00 0. -1.
          2    1    1    2  502    0  0.23588805700E+02 -0.24686428367E+02 -0.72518964154E+03  0.72599302179E+03  0.00000000000E+00 0.  1.
</event>
<event>
 4    1  0.6210801E+003  0.5023936E+02  0.7546771E-02  0.1297138E+00
          2   -1    0    0  502    0  0.00000000000E+00  0.00000000000E+00  0.40959527950E+01  0.40959527950E+01  0.00000000000E+00 0. -1.
          2   -1    0    0  501    0 -0.00000000000E+00 -0.00000000000E+00 -0.27180270929E+04  0.27180270929E+04  0.00000000000E+00 0. -1.
          2    1    1    2  501    0 -0.46375720498E+02 -0.19320607424E+02 -0.16009368981E+03  0.16779148620E+03  0.00000000000E+00 0. -1.
          2    1    1    2  502    0  0.46375720498E+02  0.19320607424E+02 -0.25538374503E+04  0.25543315595E+04  0.00000000000E+00 0. -1.
</event>
<event>
 4    1  0.6210801E+003  0.2873969E+02  0.7546771E-02  0.1430874E+00
          2   -1    0    0  501    0  0.00000000000E+00  0.00000000000E+00  0.95580022227E+01  0.95580022227E+01  0.00000000000E+00 0. -1.
          2   -1    0    0  502    0 -0.00000000000E+00 -0.00000000000E+00 -0.96386768103E+02  0.96386768103E+02  0.00000000000E+00 0.  1.
          2    1    1    2  501    0  0.44755929002E+01  0.28389062671E+02 -0.60451362986E+02  0.66935320258E+02  0.00000000000E+00 0.  1.
          2    1    1    2  502    0 -0.44755929002E+01 -0.28389062671E+02 -0.26377402894E+02  0.39009450067E+02  0.00000000000E+00 0. -1.
</event>
<event>
 4    1  0.6210801E+003  0.2403855E+02  0.7546771E-02  0.1479853E+00
          2   -1    0    0  502    0  0.00000000000E+00  0.00000000000E+00  0.44642085624E+01  0.44642085624E+01  0.00000000000E+00 0.  1.
          2   -1    0    0  501    0 -0.00000000000E+00 -0.00000000000E+00 -0.13445601861E+03  0.13445601861E+03  0.00000000000E+00 0.  1.
          2    1    1    2  501    0  0.19697423955E+02  0.13779100080E+02 -0.78410479401E+02  0.82012531905E+02  0.00000000000E+00 0.  1.
          2    1    1    2  502    0 -0.19697423955E+02 -0.13779100080E+02 -0.51581330651E+02  0.56907695273E+02  0.00000000000E+00 0.  1.
</event>
<event>
 4    1  0.6210801E+003  0.5791200E+02  0.7546771E-02  0.1267097E+00
          2   -1    0    0  501    0  0.00000000000E+00  0.00000000000E+00  0.88831395406E+03  0.88831395406E+03  0.00000000000E+00 0. -1.
          2   -1    0    0  502    0 -0.00000000000E+00 -0.00000000000E+00 -0.12165775455E+03  0.12165775455E+03  0.00000000000E+00 0. -1.
          2    1    1    2  501    0  0.47000034703E+02  0.33834832716E+02 -0.11376026045E+03  0.12765263814E+03  0.00000000000E+00 0. -1.
          2    1    1    2  502    0 -0.47000034703E+02 -0.33834832716E+02  0.88041645995E+03  0.88231907047E+03  0.00000000000E+00 0. -1.
</event>
<event>
 4    1  0.6210801E+003  0.2958482E+02  0.7546771E-02  0.1423239E+00
          2   -1    0    0  501    0  0.00000000000E+00  0.00000000000E+00  0.14379307483E+01  0.14379307483E+01  0.00000000000E+00 0. -1.
          2   -1    0    0  502    0 -0.00000000000E+00 -0.00000000000E+00 -0.93398910009E+03  0.93398910009E+03  0.00000000000E+00 0. -1.
          2    1    1    2  501    0 -0.25626346639E+02  0.14783503493E+02 -0.74229964599E+03  0.74288897289E+03  0.00000000000E+00 0. -1.
          2    1    1    2  502    0  0.25626346639E+02 -0.14783503493E+02 -0.19025152335E+03  0.19253805794E+03  0.00000000000E+00 0. -1.
</event>
<event>
 4    1  0.6210801E+003  0.2037598E+02  0.7546771E-02  0.1528364E+00
          2   -1    0    0  501    0  0.00000000000E+00  0.00000000000E+00  0.25015019950E+03  0.25015019950E+03  0.00000000000E+00 0.  1.
          2   -1    0    0  502    0 -0.00000000000E+00 -0.00000000000E+00 -0.14978231864E+02  0.14978231864E+02  0.00000000000E+00 0. -1.
          2    1    1    2  501    0  0.85895795684E+00  0.20357866305E+02 -0.74179850862E+01  0.21684257700E+02  0.00000000000E+00 0. -1.
          2    1    1    2  502    0 -0.85895795684E+00 -0.20357866305E+02  0.24258995272E+03  0.24344417366E+03  0.00000000000E+00 0.  1.
</event>
<event>
 4    1  0.6210801E+003  0.2330194E+02  0.7546771E-02  0.1488741E+00
          2   -1    0    0  502    0  0.00000000000E+00  0.00000000000E+00  0.37242924573E+01  0.37242924573E+01  0.00000000000E+00 0.  1.
          2   -1    0    0  501    0 -0.00000000000E+00 -0.00000000000E+00 -0.23048942071E+03  0.23048942071E+03  0.00000000000E+00 0. -1.
          2    1    1    2  501    0 -0.22956479062E+02 -0.39975407162E+01 -0.42394348229E+02  0.48376244423E+02  0.00000000000E+00 0.  1.
          2    1    1    2  502    0  0.22956479062E+02  0.39975407162E+01 -0.18437078002E+03  0.18583746874E+03  0.00000000000E+00 0. -1.
</event>
<event>
 4    1  0.6210801E+003  0.2371596E+02  0.7546771E-02  0.1483698E+00
          2   -1    0    0  501    0  0.00000000000E+00  0.00000000000E+00  0.11596176399E+02  0.11596176399E+02  0.00000000000E+00 0.  1.
          2   -1    0    0  502    0 -0.00000000000E+00 -0.00000000000E+00 -0.98477260862E+03  0.98477260862E+03  0.00000000000E+00 0.  1.
          2    1    1    2  501    0 -0.23223758036E+02 -0.48066667381E+01 -0.97234922047E+03  0.97263839813E+03  0.00000000000E+00 0.  1.
          2    1    1    2  502    0  0.23223758036E+02  0.48066667381E+01 -0.82721175335E+00  0.23730386885E+02  0.00000000000E+00 0.  1.
</event>
<event>
 4    1  0.6210801E+003  0.2528491E+02  0.7546771E-02  0.1465641E+00
          2   -1    0    0  501    0  0.00000000000E+00  0.00000000000E+00  0.35183394386E+03  0.35183394386E+03  0.00000000000E+00 0.  1.
          2   -1    0    0  502    0 -0.00000000000E+00 -0.00000000000E+00 -0.63815410434E+01  0.63815410434E+01  0.00000000000E+00 0. -1.
          2    1    1    2  501    0  0.87783534648E+01  0.23712174616E+02  0.21250097565E+02  0.33028674831E+02  0.00000000000E+00 0. -1.
          2    1    1    2  502    0 -0.87783534648E+01 -0.23712174616E+02  0.32420230526E+03  0.32518681008E+03  0.00000000000E+00 0.  1.
</event>
<event>
 4    1  0.6210801E+003  0.3289551E+02  0.7546771E-02  0.1395994E+00
          2   -1    0    0  502    0  0.00000000000E+00  0.00000000000E+00  0.59911950473E+03  0.59911950473E+03  0.00000000000E+00 0.  1.
          2   -1    0    0  501    0 -0.00000000000E+00 -0.00000000000E+00 -0.39493519796E+03  0.39493519796E+03  0.00000000000E+00 0. -1.
          2    1    1    2  501    0  0.26011646859E+02 -0.20137241303E+02  0.59798166391E+03  0.59888578596E+03  0.00000000000E+00 0.  1.
          2    1    1    2  502    0 -0.26011646859E+02  0.20137241303E+02 -0.39379735714E+03  0.39516891673E+03  0.00000000000E+00 0. -1.
</event>
<event>
 4    1  0.6210801E+003  0.2306252E+02  0.7546771E-02  0.1491715E+00
          2   -1    0    0  501    0  0.00000000000E+00  0.00000000000E+00  0.16860052370E+04  0.16860052370E+04  0.00000000000E+00 0.  1.
          2   -1    0    0  502    0 -0.00000000000E+00 -0.00000000000E+00 -0.40319916266E+00  0.40319916266E+00  0.00000000000E+00 0.  1.
          2    1    1    2  501    0  0.17782798789E+02  0.14685090948E+02  0.44947635430E+03  0.45006763147E+03  0.00000000000E+00 0.  1.
          2    1    1    2  502    0 -0.17782798789E+02 -0.14685090948E+02  0.12361256836E+04  0.12363408047E+04  0.00000000000E+00 0.  1.
</event>
<event>
 4    1  0.6210801E+003  0.3037734E+02  0.7546771E-02  0.1416345E+00
          2   -1    0    0  502    0  0.00000000000E+00  0.00000000000E+00  0.46993918937E+03  0.46993918937E+03  0.00000000000E+00 0.  1.
          2   -1    0    0  501    0 -0.00000000000E+00 -0.00000000000E+00 -0.26914982551E+01  0.26914982551E+01  0.00000000000E+00 0.  1.
          2    1    1    2  501    0  0.30266694825E+02 -0.25903933589E+01  0.35651585101E+03  0.35780767875E+03  0.00000000000E+00 0.  1.
          2    1    1    2  502    0 -0.30266694825E+02  0.25903933589E+01  0.11073184011E+03  0.11482300887E+03  0.00000000000E+00 0.  1.
</event>
<event>
 4    1  0.6210801E+003  0.3623643E+02  0.7546771E-02  0.1372073E+00
          2   -1    0    0  501    0  0.00000000000E+00  0.00000000000E+00  0.10041882872E+04  0.10041882872E+04  0.00000000000E+00 0. -1.
          2   -1    0    0  502    0 -0.00000000000E+00 -0.00000000000E+00 -0.23835483628E+01  0.23835483628E+01  0.00000000000E+00 0. -1.
          2    1    1    2  501    0  0.15150148745E+02  0.32917348277E+02  0.16276119016E+03  0.16674616591E+03  0.00000000000E+00 0. -1.
          2    1    1    2  502    0 -0.15150148745E+02 -0.32917348277E+02  0.83904354867E+03  0.83982566964E+03  0.00000000000E+00 0. -1.
</event>
<event>
 4    1  0.6210801E+003  0.2821527E+02  0.7546771E-02  0.1435768E+00
          2   -1    0    0  501    0  0.00000000000E+00  0.00000000000E+00  0.39068516496E+03  0.39068516496E+03  0.00000000000E+00 0.  1.
          2   -1    0    0  502    0 -0.00000000000E+00 -0.00000000000E+00 -0.35410082377E+03  0.35410082377E+03  0.00000000000E+00 0. -1.
          2    1    1    2  501    0  0.23984264614E+02  0.14861246081E+02 -0.35302779272E+03  0.35415353170E+03  0.00000000000E+00 0. -1.
          2    1    1    2  502    0 -0.23984264614E+02 -0.14861246081E+02  0.38961213392E+03  0.39063245703E+03  0.00000000000E+00 0.  1.
</event>
<event>
 4    1  0.6210801E+003  0.2543859E+02  0.7546771E-02  0.1463956E+00
          2   -1    0    0  501    0  0.00000000000E+00  0.00000000000E+00  0.15728721031E+01  0.15728721031E+01  0.00000000000E+00 0. -1.
          2   -1    0    0  502    0 -0.00000000000E+00 -0.00000000000E+00 -0.72523130243E+03  0.72523130243E+03  0.00000000000E+00 0.  1.
          2    1    1    2  501    0  0.68864821573E+01 -0.24488740628E+02 -0.60087362523E+03  0.60141186848E+03  0.00000000000E+00 0.  1.
          2    1    1    2  502    0 -0.68864821573E+01  0.24488740628E+02 -0.12278480509E+03  0.12539230605E+03  0.00000000000E+00 0. -1.
</event>
<event>
 4    1  0.6210801E+003  0.2524191E+02  0.7546771E-02  0.1466115E+00
          2   -1    0    0  502    0  0.00000000000E+00  0.00000000000E+00  0.11624422602E+01  0.11624422602E+01  0.00000000000E+00 0. -1.
          2   -1    0    0  501    0 -0.00000000000E+00 -0.00000000000E+00 -0.14127929436E+04  0.14127929436E+04  0.00000000000E+00 0. -1.
          2    1    1    2  501    0 -0.11660643076E+02  0.22387124394E+02 -0.15272852774E+03  0.15480037830E+03  0.00000000000E+00 0. -1.
          2    1    1    2  502    0  0.11660643076E+02 -0.22387124394E+02 -0.12589019736E+04  0.12591550075E+04  0.00000000000E+00 0. -1.
</event>
<event>
 4    1  0.6210801E+003  0.3302464E+02  0.7546771E-02  0.1395009E+00
          2   -1    0    0  501    0  0.00000000000E+00  0.00000000000E+00  0.95855496210E+03  0.95855496210E+03  0.00000000000E+00 0.  1.
          2   -1    0    0  502    0 -0.00000000000E+00 -0.00000000000E+00 -0.42925346440E+01  0.42925346440E+01  0.00000000000E+00 0. -1.
          2    1    1    2  501    0  0.29913525841E+02  0.13993139962E+02  0.64413382795E+02  0.72385847217E+02  0.00000000000E+00 0. -1.
          2    1    1    2  502    0 -0.29913525841E+02 -0.13993139962E+02  0.88984904466E+03  0.89046164952E+03  0.00000000000E+00 0.  1.
</event>
<event>
 4    1  0.6210801E+003  0.3241320E+02  0.7546771E-02  0.1399722E+00
          2   -1    0    0  501    0  0.00000000000E+00  0.00000000000E+00  0.10422470480E+02  0.10422470480E+02  0.00000000000E+00 0. -1.
          2   -1    0    0  502    0 -0.00000000000E+00 -0.00000000000E+00 -0.12312574303E+03  0.12312574303E+03  0.00000000000E+00 0.  1.
          2    1    1    2  501    0 -0.14454082205E+02  0.29011981585E+02 -0.84783682106E+02  0.90768322223E+02  0.00000000000E+00 0.  1.
          2    1    1    2  502    0  0.14454082205E+02 -0.29011981585E+02 -0.27919590446E+02  0.42779891287E+02  0.00000000000E+00 0. -1.
</event>
<event>
 4    1  0.6210801E+003  0.3629355E+02  0.7546771E-02  0.1371690E+00
          2   -1    0    0  501    0  0.00000000000E+00  0.00000000000E+00  0.20872145610E+04  0.20872145610E+04  0.00000000000E+00 0.  1.
          2   -1    0    0  502    0 -0.00000000000E+00 -0.00000000000E+00 -0.26050945400E+03  0.26050945400E+03  0.00000000000E+00 0. -1.
          2    1    1    2  501    0 -0.81478798604E+01 -0.35367129792E+02 -0.25908673660E+03  0.26161643469E+03  0.00000000000E+00 0. -1.
          2    1    1    2  502    0  0.81478798604E+01  0.35367129792E+02  0.20857918436E+04  0.20861075803E+04  0.00000000000E+00 0.  1.
</event>
<event>
 4    1  0.6210801E+003  0.3007353E+02  0.7546771E-02  0.1418959E+00
          2   -1    0    0  502    0  0.00000000000E+00  0.00000000000E+00  0.55814989503E+02  0.55814989503E+02  0.00000000000E+00 0. -1.
          2   -1    0    0  501    0 -0.00000000000E+00 -0.00000000000E+00 -0.32546678454E+02  0.32546678454E+02  0.00000000000E+00 0. -1.
          2    1    1    2  501    0 -0.38804224569E+01 -0.29822130665E+02  0.42941362013E+02  0.52424972364E+02  0.00000000000E+00 0. -1.
          2    1    1    2  502    0  0.38804224569E+01  0.29822130665E+02 -0.19673050964E+02  0.35936695592E+02  0.00000000000E+00 0. -1.
</event>
<event>
 4    1  0.6210801E+003  0.2262950E+02  0.7546771E-02  0.1497204E+00
          2   -1    0    0  502    0  0.00000000000E+00  0.00000000000E+00  0.83671752200E+00  0.83671752200E+00  0.00000000000E+00 0.  1.
          2   -1    0    0  501    0 -0.00000000000E+00 -0.00000000000E+00 -0.64648380017E+03  0.64648380017E+03  0.00000000000E+00 0. -1.
          2    1    1    2  501    0  0.22296622883E+02  0.38671798981E+01 -0.24810260243E+03  0.24913248645E+03  0.00000000000E+00 0.  1.
          2    1    1    2  502    0 -0.22296622883E+02 -0.38671798981E+01 -0.39754448022E+03  0.39818803124E+03  0.00000000000E+00 0. -1.
</event>
<event>
 4    1  0.6210801E+003  0.2760118E+02  0.7546771E-02  0.1441661E+00
          2   -1    0    0  502    0  0.00000000000E+00  0.00000000000E+00  0.81253299676E+03  0.81253299676E+03  0.00000000000E+00 0. -1.
          2   -1    0    0  501    0 -0.00000000000E+00 -0.00000000000E+00 -0.95115009613E+00  0.95115009613E+00  0.00000000000E+00 0. -1.
          2    1    1    2  501    0 -0.21270123727E+02  0.17589961198E+02  0.45435161245E+03  0.45518920532E+03  0.00000000000E+00 0. -1.
          2    1    1    2  502    0  0.21270123727E+02 -0.17589961198E+02  0.35723023420E+03  0.35829494153E+03  0.00000000000E+00 0. -1.
</event>
<event>
 4    1  0.6210801E+003  0.2204140E+02  0.7546771E-02  0.1504899E+00
          2   -1    0    0  501    0  0.00000000000E+00  0.00000000000E+00  0.14261070956E+04  0.14261070956E+04  0.00000000000E+00 0. -1.
          2   -1    0    0  502    0 -0.00000000000E+00 -0.00000000000E+00 -0.33494077620E+02  0.33494077620E+02  0.00000000000E+00 0. -1.
          2    1    1    2  501    0 -0.13520474250E+02  0.17407478277E+02 -0.29773236605E+02  0.37044151250E+02  0.00000000000E+00 0. -1.
          2    1    1    2  502    0  0.13520474250E+02 -0.17407478277E+02  0.14223862545E+04  0.14225570219E+04  0.00000000000E+00 0. -1.
</event>
<event>
 4    1  0.6210801E+003  0.2196902E+02  0.7546771E-02  0.1505866E+00
          2   -1    0    0  501    0  0.00000000000E+00  0.00000000000E+00  0.36360537311E+03  0.36360537311E+03  0.00000000000E+00 0.  1.
          2   -1    0    0  502    0 -0.00000000000E+00 -0.00000000000E+00 -0.52613465105E+01  0.52613465105E+01  0.00000000000E+00 0. -1.
          2    1    1    2  501    0 -0.21507197750E+02  0.44808866505E+01  0.19691710058E+02  0.29502565062E+02  0.00000000000E+00 0. -1.
          2    1    1    2  502    0  0.21507197750E+02 -0.44808866505E+01  0.33865231654E+03  0.33936415456E+03  0.00000000000E+00 0.  1.
</event>
<event>
 4    1  0.6210801E+003  0.2285616E+02  0.7546771E-02  0.1494312E+00
          2   -1    0    0  501    0  0.00000000000E+00  0.00000000000E+00  0.11584763013E+02  0.11584763013E+02  0.00000000000E+00 0.  1.
          2   -1    0    0  502    0 -0.00000000000E+00 -0.00000000000E+00 -0.97964319052E+02  0.97964319052E+02  0.00000000000E+00 0.  1.
          2    1    1    2  501    0 -0.22556790950E+02  0.36871645874E+01 -0.83429086025E+02  0.86503273901E+02  0.00000000000E+00 0.  1.
          2    1    1    2  502    0  0.22556790950E+02 -0.36871645874E+01 -0.29504700139E+01  0.23045808165E+02  0.00000000000E+00 0.  1.
</event>
<event>
 4    1  0.7012231E+003  0.2955044E+02  0.7546771E-02  0.1423544E+00
          2   -1    0    0  502    0  0.00000000000E+00  0.00000000000E+00  0.35873740648E+03  0.35873740648E+03  0.00000000000E+00 0.  1.
          2   -1    0    0  501    0 -0.00000000000E+00 -0.00000000000E+00 -0.18486264285E+04  0.18486264285E+04  0.00000000000E+00 0.  1.
          2    1    1    2  501    0 -0.13652360120E+02 -0.26207664260E+02  0.35801053254E+03  0.35922801953E+03  0.00000000000E+00 0.  1.
          2    1    1    2  502    0  0.13652360120E+02  0.26207664260E+02 -0.18478995546E+04  0.18481358155E+04  0.00000000000E+00 0.  1.
</event>
<event>
 4    1  0.6210801E+003  0.2227786E+02  0.7546771E-02  0.1501771E+00
          2   -1    0    0  501    0  0.00000000000E+00  0.00000000000E+00  0.39404690304E+03  0.39404690304E+03  0.00000000000E+00 0. -1.
          2   -1    0    0  502    0 -0.00000000000E+00 -0.00000000000E+00 -0.19779663668E+02  0.19779663668E+02  0.00000000000E+00 0. -1.
          2    1    1    2  501    0  0.19991936799E+02 -0.98298258625E+01 -0.13083543264E+02  0.25835675292E+02  0.00000000000E+00 0. -1.
          2    1    1    2  502    0 -0.19991936799E+02  0.98298258625E+01  0.38735078264E+03  0.38799089142E+03  0.00000000000E+00 0. -1.
</event>
<event>
 4    1  0.6210801E+003  0.2767215E+02  0.7546771E-02  0.1440971E+00
          2   -1    0    0  501    0  0.00000000000E+00  0.00000000000E+00  0.41973597338E+02  0.41973597338E+02  0.00000000000E+00 0. -1.
          2   -1    0    0  502    0 -0.00000000000E+00 -0.00000000000E+00 -0.99042535018E+03  0.99042535018E+03  0.00000000000E+00 0.  1.
          2    1    1    2  501    0  0.13049547742E+02  0.24401986215E+02 -0.98564907702E+03  0.98603744891E+03  0.00000000000E+00 0.  1.
          2    1    1    2  502    0 -0.13049547742E+02 -0.24401986215E+02  0.37197324175E+02  0.46361498609E+02  0.00000000000E+00 0. -1.
</event>
<event>
 4    1  0.6210801E+003  0.4280101E+02  0.7546771E-02  0.1332810E+00
          2   -1    0    0  501    0  0.00000000000E+00  0.00000000000E+00  0.85586138049E+01  0.85586138049E+01  0.00000000000E+00 0.  1.
          2   -1    0    0  502    0 -0.00000000000E+00 -0.00000000000E+00 -0.21740793532E+03  0.21740793532E+03  0.00000000000E+00 0.  1.
          2    1    1    2  501    0 -0.40280089314E+02  0.14472059246E+02 -0.11847716772E+03  0.12597128786E+03  0.00000000000E+00 0.  1.
          2    1    1    2  502    0  0.40280089314E+02 -0.14472059246E+02 -0.90372153796E+02  0.99995261266E+02  0.00000000000E+00 0.  1.
</event>
<event>
 4    1  0.6210801E+003  0.3815036E+02  0.7546771E-02  0.1359679E+00
          2   -1    0    0  502    0  0.00000000000E+00  0.00000000000E+00  0.78682120659E+03  0.78682120659E+03  0.00000000000E+00 0. -1.
          2   -1    0    0  501    0 -0.00000000000E+00 -0.00000000000E+00 -0.10027804394E+03  0.10027804394E+03  0.00000000000E+00 0.  1.
          2    1    1    2  501    0  0.28516417014E+02  0.25342932053E+02  0.78271118142E+03  0.78364037910E+03  0.00000000000E+00 0. -1.
          2    1    1    2  502    0 -0.28516417014E+02 -0.25342932053E+02 -0.96168018761E+02  0.10345887143E+03  0.00000000000E+00 0.  1.
</event>
<event>
 4    1  0.6210801E+003  0.2091460E+02  0.7546771E-02  0.1520488E+00
          2   -1    0    0  502    0  0.00000000000E+00  0.00000000000E+00  0.24697648248E+03  0.24697648248E+03  0.00000000000E+00 0.  1.
          2   -1    0    0  501    0 -0.00000000000E+00 -0.00000000000E+00 -0.57484144288E+01  0.57484144288E+01  0.00000000000E+00 0.  1.
          2    1    1    2  501    0 -0.33508797738E+01  0.20644419121E+02  0.22572278470E+03  0.22668964680E+03  0.00000000000E+00 0.  1.
          2    1    1    2  502    0  0.33508797738E+01 -0.20644419121E+02  0.15505283350E+02  0.26035250102E+02  0.00000000000E+00 0.  1.
</event>
<event>
 4    1  0.6210801E+003  0.2534005E+02  0.7546771E-02  0.1465035E+00
          2   -1    0    0  501    0  0.00000000000E+00  0.00000000000E+00  0.10210893172E+02  0.10210893172E+02  0.00000000000E+00 0.  1.
          2   -1    0    0  502    0 -0.00000000000E+00 -0.00000000000E+00 -0.64500449940E+02  0.64500449940E+02  0.00000000000E+00 0. -1.
          2    1    1    2  501    0 -0.14845409275E+02  0.20536112288E+02 -0.21234035855E+02  0.33060586249E+02  0.00000000000E+00 0.  1.
          2    1    1    2  502    0  0.14845409275E+02 -0.20536112288E+02 -0.33055520913E+02  0.41650756863E+02  0.00000000000E+00 0. -1.
</event>
<event>
 4    1  0.6210801E+003  0.2645288E+02  0.7546771E-02  0.1453183E+00
          2   -1    0    0  502    0  0.00000000000E+00  0.00000000000E+00  0.11590210938E+04  0.11590210938E+04  0.00000000000E+00 0. -1.
          2   -1    0    0  501    0 -0.00000000000E+00 -0.00000000000E+00 -0.22028713844E+03  0.22028713844E+03  0.00000000000E+00 0.  1.
          2    1    1    2  501    0 -0.26444080940E+02  0.68230693389E+00  0.11580753691E+04  0.11583774495E+04  0.00000000000E+00 0. -1.
          2    1    1    2  502    0  0.26444080940E+02 -0.68230693389E+00 -0.21934141377E+03  0.22093078272E+03  0.00000000000E+00 0.  1.
</event>
<event>
 4    1  0.6210801E+003  0.2595057E+02  0.7546771E-02  0.1458444E+00
          2   -1    0    0  502    0  0.00000000000E+00  0.00000000000E+00  0.16496971687E+01  0.16496971687E+01  0.00000000000E+00 0.  1.
          2   -1    0    0  501    0 -0.00000000000E+00 -0.00000000000E+00 -0.64912325232E+03  0.64912325232E+03  0.00000000000E+00 0. -1.
          2    1    1    2  501    0  0.25515074733E+02 -0.47342681296E+01 -0.12551055984E+03  0.12816525646E+03  0.00000000000E+00 0.  1.
          2    1    1    2  502    0 -0.25515074733E+02  0.47342681296E+01 -0.52196299531E+03  0.52260769302E+03  0.00000000000E+00 0. -1.
</event>
<event>
 4    1  0.6210801E+003  0.4528333E+02  0.7546771E-02  0.1320029E+00
          2   -1    0    0  501    0  0.00000000000E+00  0.00000000000E+00  0.95829986538E+03  0.95829986538E+03  0.00000000000E+00 0.  1.
          2   -1    0    0  502    0 -0.00000000000E+00 -0.00000000000E+00 -0.37570160711E+01  0.37570160711E+01  0.00000000000E+00 0. -1.
          2    1    1    2  501    0 -0.31382466749E+02 -0.32645373843E+02  0.16167512147E+03  0.16789706535E+03  0.00000000000E+00 0. -1.
          2    1    1    2  502    0  0.31382466749E+02  0.32645373843E+02  0.79286772785E+03  0.79415981610E+03  0.00000000000E+00 0.  1.
</event>
<event>
 4    1  0.6210801E+003  0.6586928E+02  0.7546771E-02  0.1241097E+00
          2   -1    0    0  502    0  0.00000000000E+00  0.00000000000E+00  0.12341142062E+03  0.12341142062E+03  0.00000000000E+00 0. -1.
          2   -1    0    0  501    0 -0.00000000000E+00 -0.00000000000E+00 -0.11865831612E+04  0.11865831612E+04  0.00000000000E+00 0. -1.
          2    1    1    2  501    0  0.44221505533E+02 -0.48818242803E+02  0.11363510808E+03  0.13134572764E+03  0.00000000000E+00 0. -1.
          2    1    1    2  502    0 -0.44221505533E+02  0.48818242803E+02 -0.11768068486E+04  0.11786488541E+04  0.00000000000E+00 0. -1.
</event>
<event>
 4    1  0.6210801E+003  0.2109481E+02  0.7546771E-02  0.1517915E+00
          2   -1    0    0  502    0  0.00000000000E+00  0.00000000000E+00  0.64453918887E+03  0.64453918887E+03  0.00000000000E+00 0. -1.
          2   -1    0    0  501    0 -0.00000000000E+00 -0.00000000000E+00 -0.19628842464E+02  0.19628842464E+02  0.00000000000E+00 0. -1.
          2    1    1    2  501    0 -0.13069717898E+02  0.16558180956E+02  0.63864674726E+03  0.63899503806E+03  0.00000000000E+00 0. -1.
          2    1    1    2  502    0  0.13069717898E+02 -0.16558180956E+02 -0.13736400845E+02  0.25172993280E+02  0.00000000000E+00 0. -1.
</event>
<event>
 4    1  0.6210801E+003  0.2330683E+02  0.7546771E-02  0.1488681E+00
          2   -1    0    0  501    0  0.00000000000E+00  0.00000000000E+00  0.24265759690E+02  0.24265759690E+02  0.00000000000E+00 0. -1.
          2   -1    0    0  502    0 -0.00000000000E+00 -0.00000000000E+00 -0.12506933730E+04  0.12506933730E+04  0.00000000000E+00 0. -1.
          2    1    1    2  501    0  0.11008447494E+02 -0.20543183141E+02 -0.12449625839E+04  0.12451807273E+04  0.00000000000E+00 0. -1.
          2    1    1    2  502    0 -0.11008447494E+02  0.20543183141E+02  0.18534970631E+02  0.29778405365E+02  0.00000000000E+00 0. -1.
</event>
<event>
 4    1  0.6210801E+003  0.2784899E+02  0.7546771E-02  0.1439261E+00
          2   -1    0    0  502    0  0.00000000000E+00  0.00000000000E+00  0.73645334328E+02  0.73645334328E+02  0.00000000000E+00 0.  1.
          2   -1    0    0  501    0 -0.00000000000E+00 -0.00000000000E+00 -0.18927431164E+03  0.18927431164E+03  0.00000000000E+00 0. -1.
          2    1    1    2  501    0 -0.23053618444E+02 -0.15623600154E+02  0.69935828457E+02  0.75276731512E+02  0.00000000000E+00 0.  1.
          2    1    1    2  502    0  0.23053618444E+02  0.15623600154E+02 -0.18556480577E+03  0.18764291446E+03  0.00000000000E+00 0. -1.
</event>
<event>
 4    1  0.7245092E+003  0.2499362E+02  0.7546771E-02  0.1468875E+00
          2   -1    0    0  502    0  0.00000000000E+00  0.00000000000E+00  0.34565918463E+03  0.34565918463E+03  0.00000000000E+00 0.  1.
          2   -1    0    0  501    0 -0.00000000000E+00 -0.00000000000E+00 -0.11753165282E+04  0.11753165282E+04  0.00000000000E+00 0.  1.
          2    1    1    2  501    0  0.14577115463E+00 -0.24993190466E+02  0.34507428067E+03  0.34597823631E+03  0.00000000000E+00 0.  1.
          2    1    1    2  502    0 -0.14577115463E+00  0.24993190466E+02 -0.11747316242E+04  0.11749974765E+04  0.00000000000E+00 0.  1.
</event>
<event>
 4    1  0.6210801E+003  0.3642523E+02  0.7546771E-02  0.1370811E+00
          2   -1    0    0  501    0  0.00000000000E+00  0.00000000000E+00  0.19263701910E+04  0.19263701910E+04  0.00000000000E+00 0.  1.
          2   -1    0    0  502    0 -0.00000000000E+00 -0.00000000000E+00 -0.29973641997E+01  0.29973641997E+01  0.00000000000E+00 0. -1.
          2    1    1    2  501    0 -0.35050691988E+02  0.99119305918E+01  0.11506272663E+03  0.12069063111E+03  0.00000000000E+00 0. -1.
          2    1    1    2  502    0  0.35050691988E+02 -0.99119305918E+01  0.18083101001E+04  0.18086769241E+04  0.00000000000E+00 0.  1.
</event>
<event>
 4    1  0.6210801E+003  0.2372739E+02  0.7546771E-02  0.1483561E+00
          2   -1    0    0  501    0  0.00000000000E+00  0.00000000000E+00  0.14445257287E+02  0.14445257287E+02  0.00000000000E+00 0. -1.
          2   -1    0    0  502    0 -0.00000000000E+00 -0.00000000000E+00 -0.19602117817E+03  0.19602117817E+03  0.00000000000E+00 0.  1.
          2    1    1    2  501    0  0.17245530227E+02  0.16296652027E+02 -0.18498048731E+03  0.18649603177E+03  0.00000000000E+00 0.  1.
          2    1    1    2  502    0 -0.17245530227E+02 -0.16296652027E+02  0.34045664329E+01  0.23970403682E+02  0.00000000000E+00 0. -1.
</event>
<event>
 4    1  0.6210801E+003  0.2075376E+02  0.7546771E-02  0.1522810E+00
          2   -1    0    0  502    0  0.00000000000E+00  0.00000000000E+00  0.53623571864E+01  0.53623571864E+01  0.00000000000E+00 0. -1.
          2   -1    0    0  501    0 -0.00000000000E+00 -0.00000000000E+00 -0.14204110473E+04  0.14204110473E+04  0.00000000000E+00 0. -1.
          2    1    1    2  501    0  0.20513450761E+02  0.31491419345E+01 -0.15087424950E+02  0.25658315390E+02  0.00000000000E+00 0. -1.
          2    1    1    2  502    0 -0.20513450761E+02 -0.31491419345E+01 -0.13999612652E+04  0.14001150891E+04  0.00000000000E+00 0. -1.
</event>
<event>
 4    1  0.6210801E+003  0.2005069E+02  0.7546771E-02  0.1533262E+00
          2   -1    0    0  502    0  0.00000000000E+00  0.00000000000E+00  0.26508344550E+01  0.26508344550E+01  0.00000000000E+00 0. -1.
          2   -1    0    0  501    0 -0.00000000000E+00 -0.00000000000E+00 -0.16569899415E+03  0.16569899415E+03  0.00000000000E+00 0. -1.
          2    1    1    2  501    0  0.19694505143E+02 -0.37625212020E+01 -0.57024184975E+02  0.60446569553E+02  0.00000000000E+00 0. -1.
          2    1    1    2  502    0 -0.19694505143E+02  0.37625212020E+01 -0.10602397472E+03  0.10790325905E+03  0.00000000000E+00 0. -1.
</event>
<event>
 4    1  0.6210801E+003  0.4466388E+02  0.7546771E-02  0.1323129E+00
          2   -1    0    0  502    0  0.00000000000E+00  0.00000000000E+00  0.16000213097E+01  0.16000213097E+01  0.00000000000E+00 0.  1.
          2   -1    0    0  501    0 -0.00000000000E+00 -0.00000000000E+00 -0.13978967413E+04  0.13978967413E+04  0.00000000000E+00 0. -1.
          2    1    1    2  501    0 -0.29991033052E+02 -0.33096825524E+02 -0.46807199760E+03  0.47019810384E+03  0.00000000000E+00 0.  1.
          2    1    1    2  502    0  0.29991033052E+02  0.33096825524E+02 -0.92822472238E+03  0.92929865875E+03  0.00000000000E+00 0. -1.
</event>
<event>
 4    1  0.6210801E+003  0.2043445E+02  0.7546771E-02  0.1527495E+00
          2   -1    0    0  501    0  0.00000000000E+00  0.00000000000E+00  0.27188616535E+03  0.27188616535E+03  0.00000000000E+00 0.  1.
          2   -1    0    0  502    0 -0.00000000000E+00 -0.00000000000E+00 -0.31767996389E+01  0.31767996389E+01  0.00000000000E+00 0.  1.
          2    1    1    2  501    0 -0.19805378848E+02  0.50312918806E+01  0.35508607202E+02  0.40968623540E+02  0.00000000000E+00 0.  1.
          2    1    1    2  502    0  0.19805378848E+02 -0.50312918806E+01  0.23320075851E+03  0.23409434145E+03  0.00000000000E+00 0.  1.
</event>
<event>
 4    1  0.6210801E+003  0.3627503E+02  0.7546771E-02  0.1371814E+00
          2   -1    0    0  502    0  0.00000000000E+00  0.00000000000E+00  0.72332595034E+03  0.72332595034E+03  0.00000000000E+00 0.  1.
          2   -1    0    0  501    0 -0.00000000000E+00 -0.00000000000E+00 -0.78558750694E+01  0.78558750694E+01  0.00000000000E+00 0.  1.
          2    1    1    2  501    0 -0.18081987129E+01 -0.36229933193E+02  0.67821202932E+03  0.67918144435E+03  0.00000000000E+00 0.  1.
          2    1    1    2  502    0  0.18081987129E+01  0.36229933193E+02  0.37258045952E+02  0.52000381056E+02  0.00000000000E+00 0.  1.
</event>
<event>
 4    1  0.6210801E+003  0.2912192E+02  0.7546771E-02  0.1427383E+00
          2   -1    0    0  501    0  0.00000000000E+00  0.00000000000E+00  0.20668601008E+01  0.20668601008E+01  0.00000000000E+00 0.  1.
          2   -1    0    0  502    0 -0.00000000000E+00 -0.00000000000E+00 -0.84749328250E+03  0.84749328250E+03  0.00000000000E+00 0.  1.
          2    1    1    2  501    0 -0.20027900397E+02  0.21141654446E+02 -0.72779750424E+03  0.72837991016E+03  0.00000000000E+00 0.  1.
          2    1    1    2  502    0  0.20027900397E+02 -0.21141654446E+02 -0.11762891816E+03  0.12118023244E+03  0.00000000000E+00 0.  1.
</event>
<event>
 4    1  0.6210801E+003  0.2345193E+02  0.7546771E-02  0.1486900E+00
          2   -1    0    0  502    0  0.00000000000E+00  0.00000000000E+00  0.41742924697E+01  0.41742924697E+01  0.00000000000E+00 0. -1.
          2   -1    0    0  501    0 -0.00000000000E+00 -0.00000000000E+00 -0.59407168708E+03  0.59407168708E+03  0.00000000000E+00 0. -1.
          2    1    1    2  501    0  0.22012064861E+02  0.80908514783E+01 -0.31073153902E+02  0.38929857057E+02  0.00000000000E+00 0. -1.
          2    1    1    2  502    0 -0.22012064861E+02 -0.80908514783E+01 -0.55882424071E+03  0.55931612249E+03  0.00000000000E+00 0. -1.
</event>
<event>
 4    1  0.6210801E+003  0.2215665E+02  0.7546771E-02  0.1503369E+00
          2   -1    0    0  501    0  0.00000000000E+00  0.00000000000E+00  0.48937717258E+02  0.48937717258E+02  0.00000000000E+00 0. -1.
          2   -1    0    0  502    0 -0.00000000000E+00 -0.00000000000E+00 -0.16299375559E+03  0.16299375559E+03  0.00000000000E+00 0.  1.
          2    1    1    2  501    0 -0.52123452504E+01  0.21534823557E+02 -0.15968114105E+03  0.16121099211E+03  0.00000000000E+00 0.  1.
          2    1    1    2  502    0  0.52123452504E+01 -0.21534823557E+02  0.45625102719E+02  0.50720480742E+02  0.00000000000E+00 0. -1.
</event>
<event>
 4    1  0.6210801E+003  0.2060761E+02  0.7546771E-02  0.1524942E+00
          2   -1    0    0  501    0  0.00000000000E+00  0.00000000000E+00  0.51540316274E+00  0.51540316274E+00  0.00000000000E+00 0.  1.
          2   -1    0    0  502    0 -0.00000000000E+00 -0.00000000000E+00 -0.13470421521E+04  0.13470421521E+04  0.00000000000E+00 0. -1.
          2    1    1    2  501    0  0.20587137302E+02 -0.91842881729E+00 -0.10931286505E+04  0.10933228802E+04  0.00000000000E+00 0. -1.
          2    1    1    2  502    0 -0.20587137302E+02  0.91842881729E+00 -0.25339809843E+03  0.25423467510E+03  0.00000000000E+00 0.  1.
</event>
<event>
 4    1  0.6210801E+003  0.2544541E+02  0.7546771E-02  0.1463882E+00
          2   -1    0    0  501    0  0.00000000000E+00  0.00000000000E+00  0.11085568424E+02  0.11085568424E+02  0.00000000000E+00 0.  1.
          2   -1    0    0  502    0 -0.00000000000E+00 -0.00000000000E+00 -0.44580850887E+03  0.44580850887E+03  0.00000000000E+00 0. -1.
          2    1    1    2  501    0 -0.25162245531E+02  0.37855149231E+01 -0.43031866482E+03  0.43107032143E+03  0.00000000000E+00 0. -1.
          2    1    1    2  502    0  0.25162245531E+02 -0.37855149231E+01 -0.44042756283E+01  0.25823755869E+02  0.00000000000E+00 0.  1.
</event>
<event>
 4    1  0.6210801E+003  0.5086285E+02  0.7546771E-02  0.1294474E+00
          2   -1    0    0  502    0  0.00000000000E+00  0.00000000000E+00  0.64617714929E+02  0.64617714929E+02  0.00000000000E+00 0. -1.
          2   -1    0    0  501    0 -0.00000000000E+00 -0.00000000000E+00 -0.12357774470E+04  0.12357774470E+04  0.00000000000E+00 0.  1.
          2    1    1    2  501    0  0.33272431559E+02 -0.38470440798E+02  0.53998659337E+02  0.74181431149E+02  0.00000000000E+00 0. -1.
          2    1    1    2  502    0 -0.33272431559E+02  0.38470440798E+02 -0.12251583914E+04  0.12262137308E+04  0.00000000000E+00 0.  1.
</event>
<event>
 4    1  0.6210801E+003  0.2253135E+02  0.7546771E-02  0.1498468E+00
          2   -1    0    0  502    0  0.00000000000E+00  0.00000000000E+00  0.12491320132E+03  0.12491320132E+03  0.00000000000E+00 0. -1.
          2   -1    0    0  501    0 -0.00000000000E+00 -0.00000000000E+00 -0.56483219266E+02  0.56483219266E+02  0.00000000000E+00 0. -1.
          2    1    1    2  501    0  0.14395204784E+02 -0.17333194291E+02  0.12158930860E+03  0.12365929610E+03  0.00000000000E+00 0. -1.
          2    1    1    2  502    0 -0.14395204784E+02  0.17333194291E+02 -0.53159326548E+02  0.57737124488E+02  0.00000000000E+00 0. -1.
</event>
<event>
 4    1  0.6210801E+003  0.3538796E+02  0.7546771E-02  0.1377856E+00
          2   -1    0    0  502    0  0.00000000000E+00  0.00000000000E+00  0.74598211502E+03  0.74598211502E+03  0.00000000000E+00 0.  1.
          2   -1    0    0  501    0 -0.00000000000E+00 -0.00000000000E+00 -0.14387218810E+02  0.14387218810E+02  0.00000000000E+00 0.  1.
          2    1    1    2  501    0  0.32625256913E+02  0.13707677211E+02  0.72311389635E+03  0.72397929176E+03  0.00000000000E+00 0.  1.
          2    1    1    2  502    0 -0.32625256913E+02 -0.13707677211E+02  0.84809998578E+01  0.36390042068E+02  0.00000000000E+00 0.  1.
</event>
<event>
 4    1  0.6210801E+003  0.2556094E+02  0.7546771E-02  0.1462625E+00
          2   -1    0    0  502    0  0.00000000000E+00  0.00000000000E+00  0.78917279769E+01  0.78917279769E+01  0.00000000000E+00 0.  1.
          2   -1    0    0  501    0 -0.00000000000E+00 -0.00000000000E+00 -0.18659406975E+04  0.18659406975E+04  0.00000000000E+00 0.  1.
          2    1    1    2  501    0 -0.23912715514E+02  0.90301439584E+01 -0.13129295874E+02  0.28735689888E+02  0.00000000000E+00 0.  1.
          2    1    1    2  502    0  0.23912715514E+02 -0.90301439584E+01 -0.18449196737E+04  0.18450967356E+04  0.00000000000E+00 0.  1.
</event>
<event>
 4    1  0.6210801E+003  0.3129455E+02  0.7546771E-02  0.1408671E+00
          2   -1    0    0  501    0  0.00000000000E+00  0.00000000000E+00  0.30932004552E+03  0.30932004552E+03  0.00000000000E+00 0. -1.
          2   -1    0    0  502    0 -0.00000000000E+00 -0.00000000000E+00 -0.96304581139E+01  0.96304581139E+01  0.00000000000E+00 0. -1.
          2    1    1    2  501    0  0.99698429126E+01 -0.29663972039E+02  0.19188193518E+02  0.36708796974E+02  0.00000000000E+00 0. -1.
          2    1    1    2  502    0 -0.99698429126E+01  0.29663972039E+02  0.28050139389E+03  0.28224170666E+03  0.00000000000E+00 0. -1.
</event>
<event>
 4    1  0.6210801E+003  0.2442438E+02  0.7546771E-02  0.1475347E+00
          2   -1    0    0  502    0  0.00000000000E+00  0.00000000000E+00  0.12228586461E+01  0.12228586461E+01  0.00000000000E+00 0. -1.
          2   -1    0    0  501    0 -0.00000000000E+00 -0.00000000000E+00 -0.10883452429E+04  0.10883452429E+04  0.00000000000E+00 0. -1.
          2    1    1    2  501    0  0.11058613614E+02 -0.21777451527E+02 -0.13889016153E+03  0.14102137179E+03  0.00000000000E+00 0. -1.
          2    1    1    2  502    0 -0.11058613614E+02  0.21777451527E+02 -0.94823222269E+03  0.94854672973E+03  0.00000000000E+00 0. -1.
</event>
<event>
 4    1  0.6210801E+003  0.2326674E+02  0.7546771E-02  0.1489176E+00
          2   -1    0    0  502    0  0.00000000000E+00  0.00000000000E+00  0.96462076967E+03  0.96462076967E+03  0.00000000000E+00 0.  1.
          2   -1    0    0  501    0 -0.00000000000E+00 -0.00000000000E+00 -0.24129311009E+01  0.24129311009E+01  0.00000000000E+00 0.  1.
          2    1    1    2  501    0 -0.14543560299E+02  0.18161112836E+02  0.90467724324E+03  0.90497638400E+03  0.00000000000E+00 0.  1.
          2    1    1    2  502    0  0.14543560299E+02 -0.18161112836E+02  0.57530595327E+02  0.62057316767E+02  0.00000000000E+00 0.  1.
</event>
<event>
 4    1  0.6210801E+003  0.2016075E+02  0.7546771E-02  0.1531592E+00
          2   -1    0    0  502    0  0.00000000000E+00  0.00000000000E+00  0.32442777406E+02  0.32442777406E+02  0.00000000000E+00 0.  1.
          2   -1    0    0  501    0 -0.00000000000E+00 -0.00000000000E+00 -0.11466945834E+03  0.11466945834E+03  0.00000000000E+00 0.  1.
          2    1    1    2  501    0  0.20126696911E+02  0.11712817077E+01  0.28308338605E+02  0.34753674107E+02  0.00000000000E+00 0.  1.
          2    1    1    2  502    0 -0.20126696911E+02 -0.11712817077E+01 -0.11053501954E+03  0.11235856164E+03  0.00000000000E+00 0.  1.
</event>
<event>
 4    1  0.6210801E+003  0.2703432E+02  0.7546771E-02  0.1447264E+00
          2   -1    0    0  502    0  0.00000000000E+00  0.00000000000E+00  0.49994279437E+01  0.49994279437E+01  0.00000000000E+00 0. -1.
          2   -1    0    0  501    0 -0.00000000000E+00 -0.00000000000E+00 -0.11395056036E+04  0.11395056036E+04  0.00000000000E+00 0.  1.
          2    1    1    2  501    0 -0.11882094289E+02 -0.24283126102E+02 -0.32967288533E+02  0.42634451928E+02  0.00000000000E+00 0. -1.
          2    1    1    2  502    0  0.11882094289E+02  0.24283126102E+02 -0.11015388871E+04  0.11018705796E+04  0.00000000000E+00 0.  1.
</event>
<event>
 4    1  0.6210801E+003  0.3080549E+02  0.7546771E-02  0.1412723E+00
          2   -1    0    0  502    0  0.00000000000E+00  0.00000000000E+00  0.16428954129E+03  0.16428954129E+03  0.00000000000E+00 0.  1.
          2   -1    0    0  501    0 -0.00000000000E+00 -0.00000000000E+00 -0.38653913745E+02  0.38653913745E+02  0.00000000000E+00 0. -1.
          2    1    1    2  501    0  0.28778550958E+02  0.10989690271E+02  0.15640120073E+03  0.15940612874E+03  0.00000000000E+00 0.  1.
          2    1    1    2  502    0 -0.28778550958E+02 -0.10989690271E+02 -0.30765573189E+02  0.43537326298E+02  0.00000000000E+00 0. -1.
</event>
<event>
 4    1  0.6210801E+003  0.1232898E+03  0.7546771E-02  0.1128640E+00
          2   -1    0    0  501    0  0.00000000000E+00  0.00000000000E+00  0.63145150184E+03  0.63145150184E+03  0.00000000000E+00 0.  1.
          2   -1    0    0  502    0 -0.00000000000E+00 -0.00000000000E+00 -0.14734393022E+03  0.14734393022E+03  0.00000000000E+00 0. -1.
          2    1    1    2  501    0 -0.92291104514E+02 -0.81747975329E+02 -0.11411770409E+03  0.16799770781E+03  0.00000000000E+00 0. -1.
          2    1    1    2  502    0  0.92291104514E+02  0.81747975329E+02  0.59822527572E+03  0.61079772425E+03  0.00000000000E+00 0.  1.
</event>
<event>
 4    1  0.6210801E+003  0.2192291E+02  0.7546771E-02  0.1506485E+00
          2   -1    0    0  502    0  0.00000000000E+00  0.00000000000E+00  0.54679848187E+01  0.54679848187E+01  0.00000000000E+00 0. -1.
          2   -1    0    0  501    0 -0.00000000000E+00 -0.00000000000E+00 -0.44788152769E+03  0.44788152769E+03  0.00000000000E+00 0. -1.
          2    1    1    2  501    0  0.91726004051E+01  0.19911743940E+02 -0.17987876246E+02  0.28358029493E+02  0.00000000000E+00 0. -1.
          2    1    1    2  502    0 -0.91726004051E+01 -0.19911743940E+02 -0.42442566663E+03  0.42499148302E+03  0.00000000000E+00 0. -1.
</event>
<event>
 4    1  0.6210801E+003  0.3144576E+02  0.7546771E-02  0.1407435E+00
          2   -1    0    0  501    0  0.00000000000E+00  0.00000000000E+00  0.22012757341E+04  0.22012757341E+04  0.00000000000E+00 0. -1.
          2   -1    0    0  502    0 -0.00000000000E+00 -0.00000000000E+00 -0.78514572059E+00  0.78514572059E+00  0.00000000000E+00 0. -1.
          2    1    1    2  501    0  0.45919928544E+01 -0.31108666629E+02  0.38004690092E+03  0.38134562071E+03  0.00000000000E+00 0. -1.
          2    1    1    2  502    0 -0.45919928544E+01  0.31108666629E+02  0.18204436875E+04  0.18207152591E+04  0.00000000000E+00 0. -1.
</event>
<event>
 4    1  0.6210801E+003  0.2704556E+02  0.7546771E-02  0.1447151E+00
          2   -1    0    0  501    0  0.00000000000E+00  0.00000000000E+00  0.15227653213E+02  0.15227653213E+02  0.00000000000E+00 0.  1.
          2   -1    0    0  502    0 -0.00000000000E+00 -0.00000000000E+00 -0.16005426261E+04  0.16005426261E+04  0.00000000000E+00 0.  1.
          2    1    1    2  501    0 -0.75479025192E+01  0.25970975380E+02 -0.15883272403E+04  0.15885574855E+04  0.00000000000E+00 0.  1.
          2    1    1    2  502    0  0.75479025192E+01 -0.25970975380E+02  0.30122673901E+01  0.27212793856E+02  0.00000000000E+00 0.  1.
</event>
<event>
 4    1  0.6210801E+003  0.2278924E+02  0.7546771E-02  0.1495162E+00
          2   -1    0    0  501    0  0.00000000000E+00  0.00000000000E+00  0.84285025979E+01  0.84285025979E+01  0.00000000000E+00 0.  1.
          2   -1    0    0  502    0 -0.00000000000E+00 -0.00000000000E+00 -0.19637919128E+03  0.19637919128E+03  0.00000000000E+00 0.  1.
          2    1    1    2  501    0 -0.20511985844E+02 -0.99301529195E+01 -0.17880556005E+03  0.18025198420E+03  0.00000000000E+00 0.  1.
          2    1    1    2  502    0  0.20511985844E+02  0.99301529195E+01 -0.91451286252E+01  0.24555709679E+02  0.00000000000E+00 0.  1.
</event>
<event>
 4    1  0.6210801E+003  0.2679578E+02  0.7546771E-02  0.1449670E+00
          2   -1    0    0  502    0  0.00000000000E+00  0.00000000000E+00  0.26035817373E+01  0.26035817373E+01  0.00000000000E+00 0. -1.
          2   -1    0    0  501    0 -0.00000000000E+00 -0.00000000000E+00 -0.38869463071E+03  0.38869463071E+03  0.00000000000E+00 0. -1.
          2    1    1    2  501    0  0.26262662995E+02 -0.53185012557E+01 -0.87594677582E+02  0.91601536362E+02  0.00000000000E+00 0. -1.
          2    1    1    2  502    0 -0.26262662995E+02  0.53185012557E+01 -0.29849637139E+03  0.29969667609E+03  0.00000000000E+00 0. -1.
</event>
<event>
 4    1  0.6210801E+003  0.2531000E+02  0.7546771E-02  0.1465365E+00
          2   -1    0    0  502    0  0.00000000000E+00  0.00000000000E+00  0.67078740172E+02  0.67078740172E+02  0.00000000000E+00 0.  1.
          2   -1    0    0  501    0 -0.00000000000E+00 -0.00000000000E+00 -0.70159959468E+02  0.70159959468E+02  0.00000000000E+00 0. -1.
          2    1    1    2  501    0  0.16570781783E+02  0.19131259168E+02  0.62237883707E+02  0.67187424824E+02  0.00000000000E+00 0.  1.
          2    1    1    2  502    0 -0.16570781783E+02 -0.19131259168E+02 -0.65319103003E+02  0.70051274816E+02  0.00000000000E+00 0. -1.
</event>
<event>
 4    1  0.6210801E+003  0.2227824E+02  0.7546771E-02  0.1501766E+00
          2   -1    0    0  501    0  0.00000000000E+00  0.00000000000E+00  0.44597982492E+03  0.44597982492E+03  0.00000000000E+00 0. -1.
          2   -1    0    0  502    0 -0.00000000000E+00 -0.00000000000E+00 -0.81512742766E+03  0.81512742766E+03  0.00000000000E+00 0. -1.
          2    1    1    2  501    0  0.19902865548E+02 -0.10009787913E+02 -0.81469684025E+03  0.81500138738E+03  0.00000000000E+00 0. -1.
          2    1    1    2  502    0 -0.19902865548E+02  0.10009787913E+02  0.44554923752E+03  0.44610586520E+03  0.00000000000E+00 0. -1.
</event>
<event>
 4    1  0.6210801E+003  0.3061035E+02  0.7546771E-02  0.1414365E+00
          2   -1    0    0  502    0  0.00000000000E+00  0.00000000000E+00  0.20568939621E+04  0.20568939621E+04  0.00000000000E+00 0. -1.
          2   -1    0    0  501    0 -0.00000000000E+00 -0.00000000000E+00 -0.38907358063E+02  0.38907358063E+02  0.00000000000E+00 0.  1.
          2    1    1    2  501    0 -0.14856209358E+02  0.26763530598E+02  0.20507413449E+04  0.20509697846E+04  0.00000000000E+00 0. -1.
          2    1    1    2  502    0  0.14856209358E+02 -0.26763530598E+02 -0.32754740916E+02  0.44831535542E+02  0.00000000000E+00 0.  1.
</event>
<event>
 4    1  0.6210801E+003  0.3066685E+02  0.7546771E-02  0.1413888E+00
          2   -1    0    0  502    0  0.00000000000E+00  0.00000000000E+00  0.86773735907E+02  0.86773735907E+02  0.00000000000E+00 0. -1.
          2   -1    0    0  501    0 -0.00000000000E+00 -0.00000000000E+00 -0.13183694583E+04  0.13183694583E+04  0.00000000000E+00 0.  1.
          2    1    1    2  501    0  0.97431035548E+01 -0.29077962635E+02  0.83879932929E+02  0.89310128911E+02  0.00000000000E+00 0. -1.
          2    1    1    2  502    0 -0.97431035548E+01  0.29077962635E+02 -0.13154756554E+04  0.13158330653E+04  0.00000000000E+00 0.  1.
</event>
<event>
 4    1  0.6210801E+003  0.3184611E+02  0.7546771E-02  0.1404204E+00
          2   -1    0    0  502    0  0.00000000000E+00  0.00000000000E+00  0.15067628404E+04  0.15067628404E+04  0.00000000000E+00 0.  1.
          2   -1    0    0  501    0 -0.00000000000E+00 -0.00000000000E+00 -0.97981585222E+01  0.97981585222E+01  0.00000000000E+00 0.  1.
          2    1    1    2  501    0  0.30356947197E+02  0.96244783056E+01  0.14802545570E+04  0.14805970851E+04  0.00000000000E+00 0.  1.
          2    1    1    2  502    0 -0.30356947197E+02 -0.96244783056E+01  0.16710124886E+02  0.35963913851E+02  0.00000000000E+00 0.  1.
</event>
<event>
 4    1  0.6210801E+003  0.2850228E+02  0.7546771E-02  0.1433074E+00
          2   -1    0    0  502    0  0.00000000000E+00  0.00000000000E+00  0.97063038929E+00  0.97063038929E+00  0.00000000000E+00 0. -1.
          2   -1    0    0  501    0 -0.00000000000E+00 -0.00000000000E+00 -0.22127717642E+04  0.22127717642E+04  0.00000000000E+00 0. -1.
          2    1    1    2  501    0 -0.27461443680E+02  0.76321002083E+01 -0.23311387113E+03  0.23484986003E+03  0.00000000000E+00 0. -1.
          2    1    1    2  502    0  0.27461443680E+02 -0.76321002083E+01 -0.19786872627E+04  0.19788925345E+04  0.00000000000E+00 0. -1.
</event>
<event>
 4    1  0.6210801E+003  0.2195170E+02  0.7546771E-02  0.1506099E+00
          2   -1    0    0  501    0  0.00000000000E+00  0.00000000000E+00  0.20220110897E+02  0.20220110897E+02  0.00000000000E+00 0.  1.
          2   -1    0    0  502    0 -0.00000000000E+00 -0.00000000000E+00 -0.32497880482E+03  0.32497880482E+03  0.00000000000E+00 0.  1.
          2    1    1    2  501    0  0.10835602378E+02  0.19091014945E+02 -0.31852972872E+03  0.31928524114E+03  0.00000000000E+00 0.  1.
          2    1    1    2  502    0 -0.10835602378E+02 -0.19091014945E+02  0.13771034801E+02  0.25913674575E+02  0.00000000000E+00 0.  1.
</event>
<event>
 4    1  0.6210801E+003  0.9290021E+02  0.7546771E-02  0.1176714E+00
          2   -1    0    0  501    0  0.00000000000E+00  0.00000000000E+00  0.73226441032E+03  0.73226441032E+03  0.00000000000E+00 0.  1.
          2   -1    0    0  502    0 -0.00000000000E+00 -0.00000000000E+00 -0.18535480892E+02  0.18535480892E+02  0.00000000000E+00 0.  1.
          2    1    1    2  501    0  0.36892570130E+02  0.85260699313E+02  0.13033310557E+03  0.16005363784E+03  0.00000000000E+00 0.  1.
          2    1    1    2  502    0 -0.36892570130E+02 -0.85260699313E+02  0.58339582385E+03  0.59074625337E+03  0.00000000000E+00 0.  1.
</event>
<event>
 4    1  0.6210801E+003  0.2268626E+02  0.7546771E-02  0.1496476E+00
          2   -1    0    0  502    0  0.00000000000E+00  0.00000000000E+00  0.14457704153E+04  0.14457704153E+04  0.00000000000E+00 0. -1.
          2   -1    0    0  501    0 -0.00000000000E+00 -0.00000000000E+00 -0.53380807080E+01  0.53380807080E+01  0.00000000000E+00 0. -1.
          2    1    1    2  501    0 -0.19185596580E+02 -0.12106984596E+02  0.14211605295E+04  0.14213415905E+04  0.00000000000E+00 0. -1.
          2    1    1    2  502    0  0.19185596580E+02  0.12106984596E+02  0.19271805015E+02  0.29766905461E+02  0.00000000000E+00 0. -1.
</event>
<event>
 4    1  0.6210801E+003  0.2377479E+02  0.7546771E-02  0.1482992E+00
          2   -1    0    0  502    0  0.00000000000E+00  0.00000000000E+00  0.78780662141E+02  0.78780662141E+02  0.00000000000E+00 0. -1.
          2   -1    0    0  501    0 -0.00000000000E+00 -0.00000000000E+00 -0.36491776118E+02  0.36491776118E+02  0.00000000000E+00 0.  1.
          2    1    1    2  501    0 -0.16753166271E+02 -0.16869259214E+02  0.72804763995E+02  0.76588342109E+02  0.00000000000E+00 0. -1.
          2    1    1    2  502    0  0.16753166271E+02  0.16869259214E+02 -0.30515877972E+02  0.38684096150E+02  0.00000000000E+00 0.  1.
</event>
<event>
 4    1  0.6210801E+003  0.4583171E+02  0.7546771E-02  0.1317332E+00
          2   -1    0    0  501    0  0.00000000000E+00  0.00000000000E+00  0.34849310501E+01  0.34849310501E+01  0.00000000000E+00 0.  1.
          2   -1    0    0  502    0 -0.00000000000E+00 -0.00000000000E+00 -0.60676274453E+03  0.60676274453E+03  0.00000000000E+00 0.  1.
          2    1    1    2  501    0 -0.22258310605E+02  0.40063861638E+02 -0.32644952523E+03  0.32965108513E+03  0.00000000000E+00 0.  1.
          2    1    1    2  502    0  0.22258310605E+02 -0.40063861638E+02 -0.27682828824E+03  0.28059659045E+03  0.00000000000E+00 0.  1.
</event>
<event>
 4    1  0.6210801E+003  0.5404730E+02  0.7546771E-02  0.1281518E+00
          2   -1    0    0  501    0  0.00000000000E+00  0.00000000000E+00  0.22983676372E+04  0.22983676372E+04  0.00000000000E+00 0. -1.
          2   -1    0    0  502    0 -0.00000000000E+00 -0.00000000000E+00 -0.70015052975E+02  0.70015052975E+02  0.00000000000E+00 0. -1.
          2    1    1    2  501    0  0.48373165581E+02 -0.24106994689E+02 -0.59217797731E+02  0.80173922876E+02  0.00000000000E+00 0. -1.
          2    1    1    2  502    0 -0.48373165581E+02  0.24106994689E+02  0.22875703819E+04  0.22882087673E+04  0.00000000000E+00 0. -1.
</event>
<event>
 4    1  0.6210801E+003  0.2467720E+02  0.7546771E-02  0.1472447E+00
          2   -1    0    0  501    0  0.00000000000E+00  0.00000000000E+00  0.16551772069E+04  0.16551772069E+04  0.00000000000E+00 0. -1.
          2   -1    0    0  502    0 -0.00000000000E+00 -0.00000000000E+00 -0.40743481574E+00  0.40743481574E+00  0.00000000000E+00 0.  1.
          2    1    1    2  501    0 -0.24029699714E+02 -0.56158369057E+01  0.56957402682E+03  0.57010835472E+03  0.00000000000E+00 0.  1.
          2    1    1    2  502    0  0.24029699714E+02  0.56158369057E+01  0.10851957453E+04  0.10854762870E+04  0.00000000000E+00 0. -1.
</event>
<event>
 4    1  0.6210801E+003  0.3018079E+02  0.7546771E-02  0.1418032E+00
          2   -1    0    0  502    0  0.00000000000E+00  0.00000000000E+00  0.20098681843E+01  0.20098681843E+01  0.00000000000E+00 0. -1.
          2   -1    0    0  501    0 -0.00000000000E+00 -0.00000000000E+00 -0.47167139115E+03  0.47167139115E+03  0.00000000000E+00 0. -1.
          2    1    1    2  501    0 -0.83933076937E+01 -0.28990217974E+02 -0.18796680930E+03  0.19037437262E+03  0.00000000000E+00 0. -1.
          2    1    1    2  502    0  0.83933076937E+01  0.28990217974E+02 -0.28169471366E+03  0.28330688671E+03  0.00000000000E+00 0. -1.
</event>
<event>
 4    1  0.6210801E+003  0.2728844E+02  0.7546771E-02  0.1444732E+00
          2   -1    0    0  501    0  0.00000000000E+00  0.00000000000E+00  0.26239321030E+03  0.26239321030E+03  0.00000000000E+00 0.  1.
          2   -1    0    0  502    0 -0.00000000000E+00 -0.00000000000E+00 -0.21970578833E+03  0.21970578833E+03  0.00000000000E+00 0.  1.
          2    1    1    2  501    0  0.17222699633E+02 -0.21166896504E+02 -0.21814390418E+03  0.21984408526E+03  0.00000000000E+00 0.  1.
          2    1    1    2  502    0 -0.17222699633E+02  0.21166896504E+02  0.26083132615E+03  0.26225491338E+03  0.00000000000E+00 0.  1.
</event>
<event>
 4    1  0.6210801E+003  0.2812128E+02  0.7546771E-02  0.1436659E+00
          2   -1    0    0  502    0  0.00000000000E+00  0.00000000000E+00  0.30806149070E+01  0.30806149070E+01  0.00000000000E+00 0.  1.
          2   -1    0    0  501    0 -0.00000000000E+00 -0.00000000000E+00 -0.20592920099E+04  0.20592920099E+04  0.00000000000E+00 0.  1.
          2    1    1    2  501    0  0.27884572424E+02  0.36409866099E+01 -0.63329874268E+02  0.69292706236E+02  0.00000000000E+00 0.  1.
          2    1    1    2  502    0 -0.27884572424E+02 -0.36409866099E+01 -0.19928815207E+04  0.19930799185E+04  0.00000000000E+00 0.  1.
</event>
<event>
 4    1  0.6210801E+003  0.2474040E+02  0.7546771E-02  0.1471728E+00
          2   -1    0    0  501    0  0.00000000000E+00  0.00000000000E+00  0.41919472019E+02  0.41919472019E+02  0.00000000000E+00 0. -1.
          2   -1    0    0  502    0 -0.00000000000E+00 -0.00000000000E+00 -0.68280849608E+03  0.68280849608E+03  0.00000000000E+00 0. -1.
          2    1    1    2  501    0 -0.22524184886E+02  0.10234682684E+02 -0.67891307374E+03  0.67936370916E+03  0.00000000000E+00 0. -1.
          2    1    1    2  502    0  0.22524184886E+02 -0.10234682684E+02  0.38024049681E+02  0.45364258933E+02  0.00000000000E+00 0. -1.
</event>
<event>
 4    1  0.6210801E+003  0.2416619E+02  0.7546771E-02  0.1478351E+00
          2   -1    0    0  502    0  0.00000000000E+00  0.00000000000E+00  0.23220718220E+02  0.23220718220E+02  0.00000000000E+00 0. -1.
          2   -1    0    0  501    0 -0.00000000000E+00 -0.00000000000E+00 -0.64169685353E+02  0.64169685353E+02  0.00000000000E+00 0. -1.
          2    1    1    2  501    0 -0.14689853794E+02 -0.19188869906E+02  0.13598474941E+02  0.27729461832E+02  0.00000000000E+00 0. -1.
          2    1    1    2  502    0  0.14689853794E+02  0.19188869906E+02 -0.54547442074E+02  0.59660941742E+02  0.00000000000E+00 0. -1.
</event>
<event>
 4    1  0.6210801E+003  0.2200593E+02  0.7546771E-02  0.1505373E+00
          2   -1    0    0  501    0  0.00000000000E+00  0.00000000000E+00  0.28479020366E+02  0.28479020366E+02  0.00000000000E+00 0. -1.
          2   -1    0    0  502    0 -0.00000000000E+00 -0.00000000000E+00 -0.60063289429E+02  0.60063289429E+02  0.00000000000E+00 0. -1.
          2    1    1    2  501    0 -0.16790773568E+02  0.14224309424E+02 -0.53276404117E+02  0.57642313375E+02  0.00000000000E+00 0. -1.
          2    1    1    2  502    0  0.16790773568E+02 -0.14224309424E+02  0.21692135054E+02  0.30899996420E+02  0.00000000000E+00 0. -1.
</event>
<event>
 4    1  0.6210801E+003  0.2441255E+02  0.7546771E-02  0.1475484E+00
          2   -1    0    0  501    0  0.00000000000E+00  0.00000000000E+00  0.10835037203E+02  0.10835037203E+02  0.00000000000E+00 0. -1.
          2   -1    0    0  502    0 -0.00000000000E+00 -0.00000000000E+00 -0.14151573009E+04  0.14151573009E+04  0.00000000000E+00 0. -1.
          2    1    1    2  501    0  0.24283172780E+02  0.25100459605E+01 -0.14011636374E+04  0.14013762919E+04  0.00000000000E+00 0. -1.
          2    1    1    2  502    0 -0.24283172780E+02 -0.25100459605E+01 -0.31586263391E+01  0.24616046216E+02  0.00000000000E+00 0. -1.
</event>
<event>
 4    1  0.6210801E+003  0.6060740E+02  0.7546771E-02  0.1257783E+00
          2   -1    0    0  501    0  0.00000000000E+00  0.00000000000E+00  0.27671105855E+03  0.27671105855E+03  0.00000000000E+00 0. -1.
          2   -1    0    0  502    0 -0.00000000000E+00 -0.00000000000E+00 -0.56821273352E+03  0.56821273352E+03  0.00000000000E+00 0.  1.
          2    1    1    2  501    0 -0.16665935728E+02 -0.58270948567E+02 -0.56324874918E+03  0.56650014149E+03  0.00000000000E+00 0.  1.
          2    1    1    2  502    0  0.16665935728E+02  0.58270948567E+02  0.27174707421E+03  0.27842365058E+03  0.00000000000E+00 0. -1.
</event>
<event>
 4    1  0.6210801E+003  0.2461463E+02  0.7546771E-02  0.1473161E+00
          2   -1    0    0  502    0  0.00000000000E+00  0.00000000000E+00  0.23768943520E+03  0.23768943520E+03  0.00000000000E+00 0.  1.
          2   -1    0    0  501    0 -0.00000000000E+00 -0.00000000000E+00 -0.18192513167E+03  0.18192513167E+03  0.00000000000E+00 0.  1.
          2    1    1    2  501    0 -0.24331411772E+02  0.37232151518E+01  0.23621439490E+03  0.23749341104E+03  0.00000000000E+00 0.  1.
          2    1    1    2  502    0  0.24331411772E+02 -0.37232151518E+01 -0.18045009137E+03  0.18212115584E+03  0.00000000000E+00 0.  1.
</event>
<event>
 4    1  0.6210801E+003  0.2208662E+02  0.7546771E-02  0.1504297E+00
          2   -1    0    0  501    0  0.00000000000E+00  0.00000000000E+00  0.29587415624E+01  0.29587415624E+01  0.00000000000E+00 0. -1.
          2   -1    0    0  502    0 -0.00000000000E+00 -0.00000000000E+00 -0.14777345753E+04  0.14777345753E+04  0.00000000000E+00 0. -1.
          2    1    1    2  501    0 -0.57322487290E+01  0.21329794917E+02 -0.14352124719E+04  0.14353824084E+04  0.00000000000E+00 0. -1.
          2    1    1    2  502    0  0.57322487290E+01 -0.21329794917E+02 -0.39563361859E+02  0.45310908491E+02  0.00000000000E+00 0. -1.
</event>
<event>
 4    1  0.6210801E+003  0.2584265E+02  0.7546771E-02  0.1459593E+00
          2   -1    0    0  501    0  0.00000000000E+00  0.00000000000E+00  0.90432609639E+03  0.90432609639E+03  0.00000000000E+00 0.  1.
          2   -1    0    0  502    0 -0.00000000000E+00 -0.00000000000E+00 -0.73903831189E+00  0.73903831189E+00  0.00000000000E+00 0.  1.
          2    1    1    2  501    0  0.19456120696E+02  0.17008878888E+02  0.46403476249E+03  0.46475380945E+03  0.00000000000E+00 0.  1.
          2    1    1    2  502    0 -0.19456120696E+02 -0.17008878888E+02  0.43955229559E+03  0.44031132526E+03  0.00000000000E+00 0.  1.
</event>
<event>
 4    1  0.6210801E+003  0.2083699E+02  0.7546771E-02  0.1521605E+00
          2   -1    0    0  501    0  0.00000000000E+00  0.00000000000E+00  0.65712223974E+03  0.65712223974E+03  0.00000000000E+00 0. -1.
          2   -1    0    0  502    0 -0.00000000000E+00 -0.00000000000E+00 -0.77745526057E+00  0.77745526057E+00  0.00000000000E+00 0.  1.
          2    1    1    2  501    0  0.39085955580E+01 -0.20467123173E+02  0.20071214033E+03  0.20179084104E+03  0.00000000000E+00 0.  1.
          2    1    1    2  502    0 -0.39085955580E+01  0.20467123173E+02  0.45563264415E+03  0.45610885397E+03  0.00000000000E+00 0. -1.
</event>
<event>
 4    1  0.6210801E+003  0.5238105E+02  0.7546771E-02  0.1288166E+00
          2   -1    0    0  501    0  0.00000000000E+00  0.00000000000E+00  0.42192421190E+03  0.42192421190E+03  0.00000000000E+00 0. -1.
          2   -1    0    0  502    0 -0.00000000000E+00 -0.00000000000E+00 -0.18375332247E+02  0.18375332247E+02  0.00000000000E+00 0.  1.
          2    1    1    2  501    0 -0.12435209714E+02  0.50883591148E+02  0.24817087557E+02  0.57962592451E+02  0.00000000000E+00 0.  1.
          2    1    1    2  502    0  0.12435209714E+02 -0.50883591148E+02  0.37873179210E+03  0.38233695170E+03  0.00000000000E+00 0. -1.
</event>
<event>
 4    1  0.6210801E+003  0.2335171E+02  0.7546771E-02  0.1488128E+00
          2   -1    0    0  501    0  0.00000000000E+00  0.00000000000E+00  0.11205520835E+04  0.11205520835E+04  0.00000000000E+00 0.  1.
          2   -1    0    0  502    0 -0.00000000000E+00 -0.00000000000E+00 -0.51293940228E+00  0.51293940228E+00  0.00000000000E+00 0.  1.
          2    1    1    2  501    0 -0.15410016108E+02  0.17545192033E+02  0.43308977060E+03  0.43371886258E+03  0.00000000000E+00 0.  1.
          2    1    1    2  502    0  0.15410016108E+02 -0.17545192033E+02  0.68694937348E+03  0.68734616030E+03  0.00000000000E+00 0.  1.
</event>
<event>
 4    1  0.6210801E+003  0.4423658E+02  0.7546771E-02  0.1325301E+00
          2   -1    0    0  502    0  0.00000000000E+00  0.00000000000E+00  0.12711610602E+03  0.12711610602E+03  0.00000000000E+00 0. -1.
          2   -1    0    0  501    0 -0.00000000000E+00 -0.00000000000E+00 -0.63660906933E+02  0.63660906933E+02  0.00000000000E+00 0. -1.
          2    1    1    2  501    0 -0.44199035644E+02  0.18221373322E+01  0.11478581911E+03  0.12301487391E+03  0.00000000000E+00 0. -1.
          2    1    1    2  502    0  0.44199035644E+02 -0.18221373322E+01 -0.51330620016E+02  0.67762139042E+02  0.00000000000E+00 0. -1.
</event>
<event>
 4    1  0.6210801E+003  0.2013869E+02  0.7546771E-02  0.1531926E+00
          2   -1    0    0  502    0  0.00000000000E+00  0.00000000000E+00  0.78791900800E+01  0.78791900800E+01  0.00000000000E+00 0.  1.
          2   -1    0    0  501    0 -0.00000000000E+00 -0.00000000000E+00 -0.11478588549E+04  0.11478588549E+04  0.00000000000E+00 0.  1.
          2    1    1    2  501    0  0.20061055248E+02  0.17666065345E+01 -0.52260355572E+01  0.20805727191E+02  0.00000000000E+00 0.  1.
          2    1    1    2  502    0 -0.20061055248E+02 -0.17666065345E+01 -0.11347536293E+04  0.11349323178E+04  0.00000000000E+00 0.  1.
</event>
<event>
 4    1  0.6210801E+003  0.2654815E+02  0.7546771E-02  0.1452201E+00
          2   -1    0    0  502    0  0.00000000000E+00  0.00000000000E+00  0.62936563383E+02  0.62936563383E+02  0.00000000000E+00 0. -1.
          2   -1    0    0  501    0 -0.00000000000E+00 -0.00000000000E+00 -0.28750161789E+03  0.28750161789E+03  0.00000000000E+00 0.  1.
          2    1    1    2  501    0 -0.26539190320E+02 -0.68954340323E+00  0.59490138745E+02  0.65145074264E+02  0.00000000000E+00 0. -1.
          2    1    1    2  502    0  0.26539190320E+02  0.68954340323E+00 -0.28405519326E+03  0.28529310701E+03  0.00000000000E+00 0.  1.
</event>
<event>
 4    1  0.6210801E+003  0.2492700E+02  0.7546771E-02  0.1469622E+00
          2   -1    0    0  502    0  0.00000000000E+00  0.00000000000E+00  0.10502687991E+03  0.10502687991E+03  0.00000000000E+00 0.  1.
          2   -1    0    0  501    0 -0.00000000000E+00 -0.00000000000E+00 -0.17328710767E+02  0.17328710767E+02  0.00000000000E+00 0. -1.
          2    1    1    2  501    0  0.22853002372E+02  0.99546717896E+01  0.93497131525E+02  0.96762951646E+02  0.00000000000E+00 0.  1.
          2    1    1    2  502    0 -0.22853002372E+02 -0.99546717896E+01 -0.57989623824E+01  0.25592639031E+02  0.00000000000E+00 0. -1.
</event>
<event>
 4    1  0.6210801E+003  0.2868081E+02  0.7546771E-02  0.1431417E+00
          2   -1    0    0  501    0  0.00000000000E+00  0.00000000000E+00  0.14833990651E+01  0.14833990651E+01  0.00000000000E+00 0. -1.
          2   -1    0    0  502    0 -0.00000000000E+00 -0.00000000000E+00 -0.18493403171E+04  0.18493403171E+04  0.00000000000E+00 0. -1.
          2    1    1    2  501    0  0.81542849396E+00  0.28669219895E+02 -0.16982649721E+04  0.16985071400E+04  0.00000000000E+00 0. -1.
          2    1    1    2  502    0 -0.81542849396E+00 -0.28669219895E+02 -0.14959194596E+03  0.15231657621E+03  0.00000000000E+00 0. -1.
</event>
<event>
 4    1  0.6210801E+003  0.2559740E+02  0.7546771E-02  0.1462230E+00
          2   -1    0    0  502    0  0.00000000000E+00  0.00000000000E+00  0.99146853701E+03  0.99146853701E+03  0.00000000000E+00 0.  1.
          2   -1    0    0  501    0 -0.00000000000E+00 -0.00000000000E+00 -0.13325549328E+03  0.13325549328E+03  0.00000000000E+00 0. -1.
          2    1    1    2  501    0  0.82646892418E+00  0.25584057718E+02  0.99007231908E+03  0.99040316239E+03  0.00000000000E+00 0.  1.
          2    1    1    2  502    0 -0.82646892418E+00 -0.25584057718E+02 -0.13185927535E+03  0.13432086791E+03  0.00000000000E+00 0. -1.
</event>
<event>
 4    1  0.6210801E+003  0.2313737E+02  0.7546771E-02  0.1490780E+00
          2   -1    0    0  501    0  0.00000000000E+00  0.00000000000E+00  0.65452760461E+02  0.65452760461E+02  0.00000000000E+00 0. -1.
          2   -1    0    0  502    0 -0.00000000000E+00 -0.00000000000E+00 -0.15088109212E+04  0.15088109212E+04  0.00000000000E+00 0.  1.
          2    1    1    2  501    0  0.65993971390E+01 -0.22176248028E+02 -0.15066745705E+04  0.15068522155E+04  0.00000000000E+00 0.  1.
          2    1    1    2  502    0 -0.65993971390E+01  0.22176248028E+02  0.63316409774E+02  0.67411466131E+02  0.00000000000E+00 0. -1.
</event>
<event>
 4    1  0.6210801E+003  0.2324472E+02  0.7546771E-02  0.1489448E+00
          2   -1    0    0  501    0  0.00000000000E+00  0.00000000000E+00  0.28713829102E+02  0.28713829102E+02  0.00000000000E+00 0. -1.
          2   -1    0    0  502    0 -0.00000000000E+00 -0.00000000000E+00 -0.38130892037E+03  0.38130892037E+03  0.00000000000E+00 0.  1.
          2    1    1    2  501    0  0.23203373223E+02  0.13857907309E+01 -0.37618634373E+03  0.37690381022E+03  0.00000000000E+00 0.  1.
          2    1    1    2  502    0 -0.23203373223E+02 -0.13857907309E+01  0.23591252462E+02  0.33118939259E+02  0.00000000000E+00 0. -1.
</event>
<event>
 4    1  0.6210801E+003  0.2019750E+02  0.7546771E-02  0.1531038E+00
          2   -1    0    0  502    0  0.00000000000E+00  0.00000000000E+00  0.14415812001E+02  0.14415812001E+02  0.00000000000E+00 0.  1.
          2   -1    0    0  501    0 -0.00000000000E+00 -0.00000000000E+00 -0.49486763793E+03  0.49486763793E+03  0.00000000000E+00 0. -1.
          2    1    1    2  501    0 -0.19140242626E+02 -0.64490351677E+01  0.70280538610E+01  0.21385333372E+02  0.00000000000E+00 0.  1.
          2    1    1    2  502    0  0.19140242626E+02  0.64490351677E+01 -0.48747987979E+03  0.48789811656E+03  0.00000000000E+00 0. -1.
</event>
<event>
 4    1  0.6210801E+003  0.5713605E+02  0.7546771E-02  0.1269886E+00
          2   -1    0    0  502    0  0.00000000000E+00  0.00000000000E+00  0.36115856759E+03  0.36115856759E+03  0.00000000000E+00 0. -1.
          2   -1    0    0  501    0 -0.00000000000E+00 -0.00000000000E+00 -0.29816110243E+02  0.29816110243E+02  0.00000000000E+00 0. -1.
          2    1    1    2  501    0 -0.56412938851E+01  0.56856872794E+02  0.32885811438E+03  0.33378464250E+03  0.00000000000E+00 0. -1.
          2    1    1    2  502    0  0.56412938851E+01 -0.56856872794E+02  0.24843429676E+01  0.57190035326E+02  0.00000000000E+00 0. -1.
</event>
<event>
 4    1  0.6210801E+003  0.4461716E+02  0.7546771E-02  0.1323365E+00
          2   -1    0    0  502    0  0.00000000000E+00  0.00000000000E+00  0.13193521934E+04  0.13193521934E+04  0.00000000000E+00 0. -1.
          2   -1    0    0  501    0 -0.00000000000E+00 -0.00000000000E+00 -0.30124443554E+01  0.30124443554E+01  0.00000000000E+00 0.  1.
          2    1    1    2  501    0  0.27330232157E+02 -0.35266825478E+02  0.11252900109E+04  0.11261741869E+04  0.00000000000E+00 0. -1.
          2    1    1    2  502    0 -0.27330232157E+02  0.35266825478E+02  0.19104973819E+03  0.19619045092E+03  0.00000000000E+00 0.  1.
</event>
<event>
 4    1  0.6210801E+003  0.4027118E+02  0.7546771E-02  0.1346904E+00
          2   -1    0    0  502    0  0.00000000000E+00  0.00000000000E+00  0.29287096855E+04  0.29287096855E+04  0.00000000000E+00 0.  1.
          2   -1    0    0  501    0 -0.00000000000E+00 -0.00000000000E+00 -0.61528146508E+01  0.61528146508E+01  0.00000000000E+00 0. -1.
          2    1    1    2  501    0 -0.31058525409E+02  0.25634659903E+02  0.28611192670E+04  0.28614026679E+04  0.00000000000E+00 0.  1.
          2    1    1    2  502    0  0.31058525409E+02 -0.25634659903E+02  0.61437603821E+02  0.73459832236E+02  0.00000000000E+00 0. -1.
</event>
<event>
 4    1  0.6210801E+003  0.9777524E+02  0.7546771E-02  0.1167720E+00
          2   -1    0    0  501    0  0.00000000000E+00  0.00000000000E+00  0.73591879099E+03  0.73591879099E+03  0.00000000000E+00 0. -1.
          2   -1    0    0  502    0 -0.00000000000E+00 -0.00000000000E+00 -0.61274343187E+03  0.61274343187E+03  0.00000000000E+00 0. -1.
          2    1    1    2  501    0  0.59392122602E+02 -0.77669639538E+02 -0.60555700920E+03  0.61339977872E+03  0.00000000000E+00 0. -1.
          2    1    1    2  502    0 -0.59392122602E+02  0.77669639538E+02  0.72873236832E+03  0.73526244415E+03  0.00000000000E+00 0. -1.
</event>
<event>
 4    1  0.6210801E+003  0.3687584E+02  0.7546771E-02  0.1367834E+00
          2   -1    0    0  502    0  0.00000000000E+00  0.00000000000E+00  0.23418730197E+01  0.23418730197E+01  0.00000000000E+00 0. -1.
          2   -1    0    0  501    0 -0.00000000000E+00 -0.00000000000E+00 -0.22033279271E+04  0.22033279271E+04  0.00000000000E+00 0. -1.
          2    1    1    2  501    0  0.13607445530E+02 -0.34273389904E+02 -0.15406848115E+03  0.15842008936E+03  0.00000000000E+00 0. -1.
          2    1    1    2  502    0 -0.13607445530E+02  0.34273389904E+02 -0.20469175729E+04  0.20472497107E+04  0.00000000000E+00 0. -1.
</event>
<event>
 4    1  0.6210801E+003  0.2195377E+02  0.7546771E-02  0.1506071E+00
          2   -1    0    0  502    0  0.00000000000E+00  0.00000000000E+00  0.17207971162E+02  0.17207971162E+02  0.00000000000E+00 0. -1.
          2   -1    0    0  501    0 -0.00000000000E+00 -0.00000000000E+00 -0.24044478883E+03  0.24044478883E+03  0.00000000000E+00 0. -1.
          2    1    1    2  501    0 -0.15018197806E+02 -0.16013172547E+02  0.94725061668E+01  0.23910172175E+02  0.00000000000E+00 0. -1.
          2    1    1    2  502    0  0.15018197806E+02  0.16013172547E+02 -0.23270932384E+03  0.23374258782E+03  0.00000000000E+00 0. -1.
</event>
<event>
 4    1  0.6210801E+003  0.2390979E+02  0.7546771E-02  0.1481379E+00
          2   -1    0    0  501    0  0.00000000000E+00  0.00000000000E+00  0.84222946568E+01  0.84222946568E+01  0.00000000000E+00 0. -1.
          2   -1    0    0  502    0 -0.00000000000E+00 -0.00000000000E+00 -0.79429870608E+02  0.79429870608E+02  0.00000000000E+00 0. -1.
          2    1    1    2  501    0 -0.20232276149E+02 -0.12741000753E+02 -0.18751275276E+02  0.30385661468E+02  0.00000000000E+00 0. -1.
          2    1    1    2  502    0  0.20232276149E+02  0.12741000753E+02 -0.52256300675E+02  0.57466503796E+02  0.00000000000E+00 0. -1.
</event>
<event>
 4    1  0.6210801E+003  0.2130069E+02  0.7546771E-02  0.1515015E+00
          2   -1    0    0  501    0  0.00000000000E+00  0.00000000000E+00  0.45718879962E+03  0.45718879962E+03  0.00000000000E+00 0. -1.
          2   -1    0    0  502    0 -0.00000000000E+00 -0.00000000000E+00 -0.28803145794E+01  0.28803145794E+01  0.00000000000E+00 0.  1.
          2    1    1    2  501    0  0.12146220062E+01  0.21266033825E+02  0.40918536646E+02  0.46130750509E+02  0.00000000000E+00 0.  1.
          2    1    1    2  502    0 -0.12146220062E+01 -0.21266033825E+02  0.41338994840E+03  0.41393836369E+03  0.00000000000E+00 0. -1.
</event>
<event>
 4    1  0.6210801E+003  0.2173598E+02  0.7546771E-02  0.1509011E+00
          2   -1    0    0  501    0  0.00000000000E+00  0.00000000000E+00  0.19125037614E+02  0.19125037614E+02  0.00000000000E+00 0. -1.
          2   -1    0    0  502    0 -0.00000000000E+00 -0.00000000000E+00 -0.35997447511E+03  0.35997447511E+03  0.00000000000E+00 0.  1.
          2    1    1    2  501    0 -0.84991801876E+01 -0.20005417635E+02 -0.35335493287E+03  0.35402282607E+03  0.00000000000E+00 0.  1.
          2    1    1    2  502    0  0.84991801876E+01  0.20005417635E+02  0.12505495375E+02  0.25076686647E+02  0.00000000000E+00 0. -1.
</event>
<event>
 4    1  0.6210801E+003  0.3058545E+02  0.7546771E-02  0.1414576E+00
          2   -1    0    0  502    0  0.00000000000E+00  0.00000000000E+00  0.42231103101E+01  0.42231103101E+01  0.00000000000E+00 0.  1.
          2   -1    0    0  501    0 -0.00000000000E+00 -0.00000000000E+00 -0.11831340483E+04  0.11831340483E+04  0.00000000000E+00 0.  1.
          2    1    1    2  501    0 -0.23995128895E+02 -0.18965857883E+02 -0.54230224000E+02  0.62260639019E+02  0.00000000000E+00 0.  1.
          2    1    1    2  502    0  0.23995128895E+02  0.18965857883E+02 -0.11246807140E+04  0.11250965196E+04  0.00000000000E+00 0.  1.
</event>
<event>
 4    1  0.6210801E+003  0.3949304E+02  0.7546771E-02  0.1351482E+00
          2   -1    0    0  502    0  0.00000000000E+00  0.00000000000E+00  0.37712652712E+02  0.37712652712E+02  0.00000000000E+00 0. -1.
          2   -1    0    0  501    0 -0.00000000000E+00 -0.00000000000E+00 -0.14521672118E+04  0.14521672118E+04  0.00000000000E+00 0. -1.
          2    1    1    2  501    0  0.39475278187E+02  0.11841867608E+01  0.27028150193E+02  0.47856251306E+02  0.00000000000E+00 0. -1.
          2    1    1    2  502    0 -0.39475278187E+02 -0.11841867608E+01 -0.14414827093E+04  0.14420236132E+04  0.00000000000E+00 0. -1.
</event>
<event>
 4    1  0.6210801E+003  0.2144970E+02  0.7546771E-02  0.1512940E+00
          2   -1    0    0  502    0  0.00000000000E+00  0.00000000000E+00  0.21296114847E+01  0.21296114847E+01  0.00000000000E+00 0.  1.
          2   -1    0    0  501    0 -0.00000000000E+00 -0.00000000000E+00 -0.77685648287E+03  0.77685648287E+03  0.00000000000E+00 0.  1.
          2    1    1    2  501    0  0.18036574953E+02 -0.11609114877E+02 -0.56431877244E+02  0.60370906516E+02  0.00000000000E+00 0.  1.
          2    1    1    2  502    0 -0.18036574953E+02  0.11609114877E+02 -0.71829499414E+03  0.71861518784E+03  0.00000000000E+00 0.  1.
</event>
<event>
 4    1  0.6210801E+003  0.4555076E+02  0.7546771E-02  0.1318708E+00
          2   -1    0    0  501    0  0.00000000000E+00  0.00000000000E+00  0.14444412048E+04  0.14444412048E+04  0.00000000000E+00 0.  1.
          2   -1    0    0  502    0 -0.00000000000E+00 -0.00000000000E+00 -0.36782477846E+01  0.36782477846E+01  0.00000000000E+00 0. -1.
          2    1    1    2  501    0 -0.26099086558E+02 -0.37332416468E+02  0.15511680396E+03  0.16166661532E+03  0.00000000000E+00 0. -1.
          2    1    1    2  502    0  0.26099086558E+02  0.37332416468E+02  0.12856461531E+04  0.12864528373E+04  0.00000000000E+00 0.  1.
</event>
<event>
 4    1  0.6210801E+003  0.4095351E+02  0.7546771E-02  0.1342987E+00
          2   -1    0    0  502    0  0.00000000000E+00  0.00000000000E+00  0.16991186024E+03  0.16991186024E+03  0.00000000000E+00 0.  1.
          2   -1    0    0  501    0 -0.00000000000E+00 -0.00000000000E+00 -0.58786580631E+02  0.58786580631E+02  0.00000000000E+00 0.  1.
          2    1    1    2  501    0 -0.31660027012E+02 -0.25977544332E+02  0.15987072480E+03  0.16503284148E+03  0.00000000000E+00 0.  1.
          2    1    1    2  502    0  0.31660027012E+02  0.25977544332E+02 -0.48745445184E+02  0.63665599394E+02  0.00000000000E+00 0.  1.
</event>
<event>
 4    1  0.6210801E+003  0.2131062E+02  0.7546771E-02  0.1514876E+00
          2   -1    0    0  501    0  0.00000000000E+00  0.00000000000E+00  0.10512106147E+03  0.10512106147E+03  0.00000000000E+00 0. -1.
          2   -1    0    0  502    0 -0.00000000000E+00 -0.00000000000E+00 -0.10933878681E+02  0.10933878681E+02  0.00000000000E+00 0. -1.
          2    1    1    2  501    0  0.20499903690E+02 -0.58220505456E+01  0.19632537087E+01  0.21400857202E+02  0.00000000000E+00 0. -1.
          2    1    1    2  502    0 -0.20499903690E+02  0.58220505456E+01  0.92223929085E+02  0.94654082953E+02  0.00000000000E+00 0. -1.
</event>
<event>
 4    1  0.6210801E+003  0.2121727E+02  0.7546771E-02  0.1516185E+00
          2   -1    0    0  501    0  0.00000000000E+00  0.00000000000E+00  0.94195954907E+03  0.94195954907E+03  0.00000000000E+00 0. -1.
          2   -1    0    0  502    0 -0.00000000000E+00 -0.00000000000E+00 -0.53860893275E+00  0.53860893275E+00  0.00000000000E+00 0.  1.
          2    1    1    2  501    0 -0.10397827308E+02  0.18494806689E+02  0.31251238173E+03  0.31323180142E+03  0.00000000000E+00 0.  1.
          2    1    1    2  502    0  0.10397827308E+02 -0.18494806689E+02  0.62890855841E+03  0.62926635658E+03  0.00000000000E+00 0. -1.
</event>
<event>
 4    1  0.6210801E+003  0.2654767E+02  0.7546771E-02  0.1452206E+00
          2   -1    0    0  502    0  0.00000000000E+00  0.00000000000E+00  0.30323557671E+03  0.30323557671E+03  0.00000000000E+00 0.  1.
          2   -1    0    0  501    0 -0.00000000000E+00 -0.00000000000E+00 -0.56607999249E+01  0.56607999249E+01  0.00000000000E+00 0.  1.
          2    1    1    2  501    0 -0.25338524217E+02 -0.79207148545E+01  0.26736325998E+03  0.26867804398E+03  0.00000000000E+00 0.  1.
          2    1    1    2  502    0  0.25338524217E+02  0.79207148545E+01  0.30211516803E+02  0.40218332646E+02  0.00000000000E+00 0.  1.
</event>
<event>
 4    1  0.6210801E+003  0.2032260E+02  0.7546771E-02  0.1529160E+00
          2   -1    0    0  502    0  0.00000000000E+00  0.00000000000E+00  0.46884462715E+03  0.46884462715E+03  0.00000000000E+00 0. -1.
          2   -1    0    0  501    0 -0.00000000000E+00 -0.00000000000E+00 -0.14183688058E+02  0.14183688058E+02  0.00000000000E+00 0. -1.
          2    1    1    2  501    0 -0.73013161877E+01 -0.18965729607E+02  0.46122455731E+03  0.46167207017E+03  0.00000000000E+00 0. -1.
          2    1    1    2  502    0  0.73013161877E+01  0.18965729607E+02 -0.65636182177E+01  0.21356245029E+02  0.00000000000E+00 0. -1.
</event>
<event>
 4    1  0.6210801E+003  0.2050496E+02  0.7546771E-02  0.1526451E+00
          2   -1    0    0  501    0  0.00000000000E+00  0.00000000000E+00  0.80107668024E+01  0.80107668024E+01  0.00000000000E+00 0.  1.
          2   -1    0    0  502    0 -0.00000000000E+00 -0.00000000000E+00 -0.70639022593E+02  0.70639022593E+02  0.00000000000E+00 0.  1.
          2    1    1    2  501    0  0.14739276744E+02 -0.14255070379E+02 -0.51249272810E+02  0.55199105736E+02  0.00000000000E+00 0.  1.
          2    1    1    2  502    0 -0.14739276744E+02  0.14255070379E+02 -0.11378982981E+02  0.23450683660E+02  0.00000000000E+00 0.  1.
</event>
<event>
 4    1  0.6210801E+003  0.2126141E+02  0.7546771E-02  0.1515565E+00
          2   -1    0    0  501    0  0.00000000000E+00  0.00000000000E+00  0.34551651548E+03  0.34551651548E+03  0.00000000000E+00 0. -1.
          2   -1    0    0  502    0 -0.00000000000E+00 -0.00000000000E+00 -0.60403594571E+01  0.60403594571E+01  0.00000000000E+00 0.  1.
          2    1    1    2  501    0  0.18875421319E+02 -0.97860121111E+01  0.14156489659E+02  0.25543174479E+02  0.00000000000E+00 0.  1.
          2    1    1    2  502    0 -0.18875421319E+02  0.97860121111E+01  0.32531966636E+03  0.32601370045E+03  0.00000000000E+00 0. -1.
</event>
<event>
 4    1  0.6210801E+003  0.2604245E+02  0.7546771E-02  0.1457471E+00
          2   -1    0    0  501    0  0.00000000000E+00  0.00000000000E+00  0.36361082866E+01  0.36361082866E+01  0.00000000000E+00 0. -1.
          2   -1    0    0  502    0 -0.00000000000E+00 -0.00000000000E+00 -0.17727566198E+04  0.17727566198E+04  0.00000000000E+00 0.  1.
          2    1    1    2  501    0 -0.25645371416E+02 -0.45303324652E+01 -0.17247325211E+04  0.17249291227E+04  0.00000000000E+00 0.  1.
          2    1    1    2  502    0  0.25645371416E+02  0.45303324652E+01 -0.44387990451E+02  0.51463605428E+02  0.00000000000E+00 0. -1.
</event>
<event>
 4    1  0.6210801E+003  0.3690157E+02  0.7546771E-02  0.1367666E+00
          2   -1    0    0  501    0  0.00000000000E+00  0.00000000000E+00  0.68673586135E+03  0.68673586135E+03  0.00000000000E+00 0. -1.
          2   -1    0    0  502    0 -0.00000000000E+00 -0.00000000000E+00 -0.64574681830E+03  0.64574681830E+03  0.00000000000E+00 0. -1.
          2    1    1    2  501    0 -0.33683968658E+02  0.15070368866E+02 -0.64472311757E+03  0.64577830878E+03  0.00000000000E+00 0. -1.
          2    1    1    2  502    0  0.33683968658E+02 -0.15070368866E+02  0.68571216061E+03  0.68670437087E+03  0.00000000000E+00 0. -1.
</event>
<event>
 4    1  0.6210801E+003  0.2788061E+02  0.7546771E-02  0.1438957E+00
          2   -1    0    0  501    0  0.00000000000E+00  0.00000000000E+00  0.20024121162E+01  0.20024121162E+01  0.00000000000E+00 0. -1.
          2   -1    0    0  502    0 -0.00000000000E+00 -0.00000000000E+00 -0.10946196909E+04  0.10946196909E+04  0.00000000000E+00 0. -1.
          2    1    1    2  501    0 -0.62555779213E+01 -0.27169768067E+02 -0.98679044229E+03  0.98718423080E+03  0.00000000000E+00 0. -1.
          2    1    1    2  502    0  0.62555779213E+01  0.27169768067E+02 -0.10582683646E+03  0.10943787218E+03  0.00000000000E+00 0. -1.
</event>
<event>
 4    1  0.6210801E+003  0.3140507E+02  0.7546771E-02  0.1407767E+00
          2   -1    0    0  501    0  0.00000000000E+00  0.00000000000E+00  0.12087291845E+04  0.12087291845E+04  0.00000000000E+00 0.  1.
          2   -1    0    0  502    0 -0.00000000000E+00 -0.00000000000E+00 -0.32146511228E+02  0.32146511228E+02  0.00000000000E+00 0. -1.
          2    1    1    2  501    0 -0.81422220149E+01  0.30331218059E+02 -0.24221725641E+02  0.39660692900E+02  0.00000000000E+00 0. -1.
          2    1    1    2  502    0  0.81422220149E+01 -0.30331218059E+02  0.12008043989E+04  0.12012150029E+04  0.00000000000E+00 0.  1.
</event>
<event>
 4    1  0.6210801E+003  0.1045238E+03  0.7546771E-02  0.1156192E+00
          2   -1    0    0  501    0  0.00000000000E+00  0.00000000000E+00  0.38755478536E+02  0.38755478536E+02  0.00000000000E+00 0. -1.
          2   -1    0    0  502    0 -0.00000000000E+00 -0.00000000000E+00 -0.39170694134E+03  0.39170694134E+03  0.00000000000E+00 0. -1.
          2    1    1    2  501    0 -0.86790500234E+02  0.58246371053E+02 -0.29043151820E+03  0.30866761644E+03  0.00000000000E+00 0. -1.
          2    1    1    2  502    0  0.86790500234E+02 -0.58246371053E+02 -0.62519944602E+02  0.12179480344E+03  0.00000000000E+00 0. -1.
</event>
<event>
 4    1  0.6210801E+003  0.3768165E+02  0.7546771E-02  0.1362634E+00
          2   -1    0    0  502    0  0.00000000000E+00  0.00000000000E+00  0.37555529911E+03  0.37555529911E+03  0.00000000000E+00 0.  1.
          2   -1    0    0  501    0 -0.00000000000E+00 -0.00000000000E+00 -0.42101318256E+01  0.42101318256E+01  0.00000000000E+00 0. -1.
          2    1    1    2  501    0 -0.83098048724E+01 -0.36753965318E+02  0.12503746509E+03  0.13059201545E+03  0.00000000000E+00 0. -1.
          2    1    1    2  502    0  0.83098048724E+01  0.36753965318E+02  0.24630770220E+03  0.24917341549E+03  0.00000000000E+00 0.  1.
</event>
<event>
 4    1  0.6210801E+003  0.3477733E+02  0.7546771E-02  0.1382135E+00
          2   -1    0    0  502    0  0.00000000000E+00  0.00000000000E+00  0.12776115072E+02  0.12776115072E+02  0.00000000000E+00 0. -1.
          2   -1    0    0  501    0 -0.00000000000E+00 -0.00000000000E+00 -0.31577507660E+03  0.31577507660E+03  0.00000000000E+00 0. -1.
          2    1    1    2  501    0  0.66488485955E+01 -0.34135835778E+02 -0.14035946059E+02  0.37502936600E+02  0.00000000000E+00 0. -1.
          2    1    1    2  502    0 -0.66488485955E+01  0.34135835778E+02 -0.28896301547E+03  0.29104825507E+03  0.00000000000E+00 0. -1.
</event>
<event>
 4    1  0.6210801E+003  0.3997288E+02  0.7546771E-02  0.1348645E+00
          2   -1    0    0  501    0  0.00000000000E+00  0.00000000000E+00  0.24963146643E+02  0.24963146643E+02  0.00000000000E+00 0.  1.
          2   -1    0    0  502    0 -0.00000000000E+00 -0.00000000000E+00 -0.58411832408E+03  0.58411832408E+03  0.00000000000E+00 0.  1.
          2    1    1    2  501    0  0.37707071642E+02 -0.13266784858E+02 -0.56694855325E+03  0.56835595613E+03  0.00000000000E+00 0.  1.
          2    1    1    2  502    0 -0.37707071642E+02  0.13266784858E+02  0.77933758166E+01  0.40725514594E+02  0.00000000000E+00 0.  1.
</event>
<event>
 4    1  0.6210801E+003  0.2543909E+03  0.7546771E-02  0.1022109E+00
          2   -1    0    0  501    0  0.00000000000E+00  0.00000000000E+00  0.12929925454E+04  0.12929925454E+04  0.00000000000E+00 0.  1.
          2   -1    0    0  502    0 -0.00000000000E+00 -0.00000000000E+00 -0.13712121834E+03  0.13712121834E+03  0.00000000000E+00 0.  1.
          2    1    1    2  501    0 -0.25159824792E+03 -0.37590612388E+02  0.81327166203E+01  0.25452087061E+03  0.00000000000E+00 0.  1.
          2    1    1    2  502    0  0.25159824792E+03  0.37590612388E+02  0.11477386104E+04  0.11755928931E+04  0.00000000000E+00 0.  1.
</event>
<event>
 4    1  0.6210801E+003  0.2002009E+02  0.7546771E-02  0.1533729E+00
          2   -1    0    0  501    0  0.00000000000E+00  0.00000000000E+00  0.10680823184E+03  0.10680823184E+03  0.00000000000E+00 0. -1.
          2   -1    0    0  502    0 -0.00000000000E+00 -0.00000000000E+00 -0.10340452450E+02  0.10340452450E+02  0.00000000000E+00 0.  1.
          2    1    1    2  501    0  0.10349745828E+02  0.17137296270E+02  0.14807327805E+01  0.20074778497E+02  0.00000000000E+00 0.  1.
          2    1    1    2  502    0 -0.10349745828E+02 -0.17137296270E+02  0.94987046611E+02  0.97073905794E+02  0.00000000000E+00 0. -1.
</event>
<event>
 4    1  0.6210801E+003  0.2459453E+02  0.7546771E-02  0.1473391E+00
          2   -1    0    0  502    0  0.00000000000E+00  0.00000000000E+00  0.47587179044E+03  0.47587179044E+03  0.00000000000E+00 0.  1.
          2   -1    0    0  501    0 -0.00000000000E+00 -0.00000000000E+00 -0.16082076446E+02  0.16082076446E+02  0.00000000000E+00 0. -1.
          2    1    1    2  501    0 -0.84854685363E+01  0.23084365252E+02  0.46595074907E+03  0.46659939097E+03  0.00000000000E+00 0.  1.
          2    1    1    2  502    0  0.84854685363E+01 -0.23084365252E+02 -0.61610350827E+01  0.25354475909E+02  0.00000000000E+00 0. -1.
</event>
<event>
 4    1  0.6210801E+003  0.3291717E+02  0.7546771E-02  0.1395829E+00
          2   -1    0    0  502    0  0.00000000000E+00  0.00000000000E+00  0.36261201547E+03  0.36261201547E+03  0.00000000000E+00 0.  1.
          2   -1    0    0  501    0 -0.00000000000E+00 -0.00000000000E+00 -0.12870542081E+03  0.12870542081E+03  0.00000000000E+00 0.  1.
          2    1    1    2  501    0  0.26106887116E+02  0.20049197696E+02  0.35974354064E+03  0.36124639087E+03  0.00000000000E+00 0.  1.
          2    1    1    2  502    0 -0.26106887116E+02 -0.20049197696E+02 -0.12583694598E+03  0.13007104542E+03  0.00000000000E+00 0.  1.
</event>
<event>
 4    1  0.6210801E+003  0.2610869E+02  0.7546771E-02  0.1456773E+00
          2   -1    0    0  502    0  0.00000000000E+00  0.00000000000E+00  0.46154023924E+03  0.46154023924E+03  0.00000000000E+00 0. -1.
          2   -1    0    0  501    0 -0.00000000000E+00 -0.00000000000E+00 -0.96163841154E+01  0.96163841154E+01  0.00000000000E+00 0. -1.
          2    1    1    2  501    0 -0.54621685818E+01 -0.25530934484E+02  0.44269588932E+03  0.44346512188E+03  0.00000000000E+00 0. -1.
          2    1    1    2  502    0  0.54621685818E+01  0.25530934484E+02  0.92279658051E+01  0.27691501478E+02  0.00000000000E+00 0. -1.
</event>
<event>
 4    1  0.6210801E+003  0.2022745E+02  0.7546771E-02  0.1530587E+00
          2   -1    0    0  502    0  0.00000000000E+00  0.00000000000E+00  0.14787011206E+04  0.14787011206E+04  0.00000000000E+00 0. -1.
          2   -1    0    0  501    0 -0.00000000000E+00 -0.00000000000E+00 -0.81264073085E+00  0.81264073085E+00  0.00000000000E+00 0.  1.
          2    1    1    2  501    0 -0.10346284693E+02 -0.17381148043E+02  0.13397027538E+04  0.13398554469E+04  0.00000000000E+00 0. -1.
          2    1    1    2  502    0  0.10346284693E+02  0.17381148043E+02  0.13818572602E+03  0.13965831443E+03  0.00000000000E+00 0.  1.
</event>
<event>
 4    1  0.6210801E+003  0.2608531E+02  0.7546771E-02  0.1457019E+00
          2   -1    0    0  502    0  0.00000000000E+00  0.00000000000E+00  0.47117969544E+02  0.47117969544E+02  0.00000000000E+00 0. -1.
          2   -1    0    0  501    0 -0.00000000000E+00 -0.00000000000E+00 -0.31498940251E+02  0.31498940251E+02  0.00000000000E+00 0.  1.
          2    1    1    2  501    0 -0.25404843034E+01  0.25961305291E+02  0.36736143861E+02  0.45055384791E+02  0.00000000000E+00 0. -1.
          2    1    1    2  502    0  0.25404843034E+01 -0.25961305291E+02 -0.21117114568E+02  0.33561525004E+02  0.00000000000E+00 0.  1.
</event>
<event>
 4    1  0.6210801E+003  0.2371428E+02  0.7546771E-02  0.1483719E+00
          2   -1    0    0  502    0  0.00000000000E+00  0.00000000000E+00  0.39544657807E+02  0.39544657807E+02  0.00000000000E+00 0.  1.
          2   -1    0    0  501    0 -0.00000000000E+00 -0.00000000000E+00 -0.11060747667E+04  0.11060747667E+04  0.00000000000E+00 0. -1.
          2    1    1    2  501    0 -0.22095634757E+02  0.86110361718E+01  0.35850370657E+02  0.42983905076E+02  0.00000000000E+00 0.  1.
          2    1    1    2  502    0  0.22095634757E+02 -0.86110361718E+01 -0.11023804795E+04  0.11026355194E+04  0.00000000000E+00 0. -1.
</event>
<event>
 4    1  0.6210801E+003  0.3453853E+02  0.7546771E-02  0.1383837E+00
          2   -1    0    0  502    0  0.00000000000E+00  0.00000000000E+00  0.12058401209E+03  0.12058401209E+03  0.00000000000E+00 0. -1.
          2   -1    0    0  501    0 -0.00000000000E+00 -0.00000000000E+00 -0.46009256064E+03  0.46009256064E+03  0.00000000000E+00 0.  1.
          2    1    1    2  501    0  0.34528435673E+02 -0.83482796856E+00  0.11744566806E+03  0.12241893135E+03  0.00000000000E+00 0. -1.
          2    1    1    2  502    0 -0.34528435673E+02  0.83482796856E+00 -0.45695421660E+03  0.45825764138E+03  0.00000000000E+00 0.  1.
</event>
<event>
 4    1  0.6210801E+003  0.3609038E+02  0.7546771E-02  0.1373055E+00
          2   -1    0    0  501    0  0.00000000000E+00  0.00000000000E+00  0.61505283449E+02  0.61505283449E+02  0.00000000000E+00 0. -1.
          2   -1    0    0  502    0 -0.00000000000E+00 -0.00000000000E+00 -0.43073319389E+03  0.43073319389E+03  0.00000000000E+00 0.  1.
          2    1    1    2  501    0  0.10665604031E+02 -0.34478403919E+02 -0.42460662984E+03  0.42613766033E+03  0.00000000000E+00 0.  1.
          2    1    1    2  502    0 -0.10665604031E+02  0.34478403919E+02  0.55378719403E+02  0.66100817006E+02  0.00000000000E+00 0. -1.
</event>
<event>
 4    1  0.6210801E+003  0.2171850E+02  0.7546771E-02  0.1509249E+00
          2   -1    0    0  501    0  0.00000000000E+00  0.00000000000E+00  0.96170212118E+02  0.96170212118E+02  0.00000000000E+00 0.  1.
          2   -1    0    0  502    0 -0.00000000000E+00 -0.00000000000E+00 -0.75149927906E+01  0.75149927906E+01  0.00000000000E+00 0. -1.
          2    1    1    2  501    0  0.25201508244E+01 -0.21571789431E+02  0.13774116021E+02  0.25718077914E+02  0.00000000000E+00 0. -1.
          2    1    1    2  502    0 -0.25201508244E+01  0.21571789431E+02  0.74881103307E+02  0.77967126995E+02  0.00000000000E+00 0.  1.
</event>
<event>
 4    1  0.6210801E+003  0.6657768E+02  0.7546771E-02  0.1238985E+00
          2   -1    0    0  502    0  0.00000000000E+00  0.00000000000E+00  0.17000379245E+04  0.17000379245E+04  0.00000000000E+00 0.  1.
          2   -1    0    0  501    0 -0.00000000000E+00 -0.00000000000E+00 -0.31140157135E+03  0.31140157135E+03  0.00000000000E+00 0. -1.
          2    1    1    2  501    0  0.59894901238E+02 -0.29072111995E+02  0.16958186597E+04  0.16971250730E+04  0.00000000000E+00 0.  1.
          2    1    1    2  502    0 -0.59894901238E+02  0.29072111995E+02 -0.30718230659E+03  0.31431442279E+03  0.00000000000E+00 0. -1.
</event>
<event>
 4    1  0.6210801E+003  0.7787198E+02  0.7546771E-02  0.1208876E+00
          2   -1    0    0  502    0  0.00000000000E+00  0.00000000000E+00  0.28450773688E+01  0.28450773688E+01  0.00000000000E+00 0.  1.
          2   -1    0    0  501    0 -0.00000000000E+00 -0.00000000000E+00 -0.21426554949E+04  0.21426554949E+04  0.00000000000E+00 0. -1.
          2    1    1    2  501    0 -0.77301405363E+02 -0.94094505275E+01 -0.99221165957E+03  0.99526279063E+03  0.00000000000E+00 0. -1.
          2    1    1    2  502    0  0.77301405363E+02  0.94094505275E+01 -0.11475987580E+04  0.11502377817E+04  0.00000000000E+00 0.  1.
</event>
<event>
 4    1  0.6210801E+003  0.2955607E+02  0.7546771E-02  0.1423494E+00
          2   -1    0    0  502    0  0.00000000000E+00  0.00000000000E+00  0.12682501789E+04  0.12682501789E+04  0.00000000000E+00 0.  1.
          2   -1    0    0  501    0 -0.00000000000E+00 -0.00000000000E+00 -0.15715274990E+02  0.15715274990E+02  0.00000000000E+00 0. -1.
          2    1    1    2  501    0 -0.22133168298E+02 -0.19587860801E+02  0.12540236554E+04  0.12543719105E+04  0.00000000000E+00 0.  1.
          2    1    1    2  502    0  0.22133168298E+02  0.19587860801E+02 -0.14887515312E+01  0.29593543396E+02  0.00000000000E+00 0. -1.
</event>
<event>
 4    1  0.6210801E+003  0.2241755E+02  0.7546771E-02  0.1499944E+00
          2   -1    0    0  502    0  0.00000000000E+00  0.00000000000E+00  0.20407697122E+03  0.20407697122E+03  0.00000000000E+00 0. -1.
          2   -1    0    0  501    0 -0.00000000000E+00 -0.00000000000E+00 -0.65018434999E+03  0.65018434999E+03  0.00000000000E+00 0.  1.
          2    1    1    2  501    0  0.11901541019E+01  0.22385939838E+02  0.20326733761E+03  0.20449977337E+03  0.00000000000E+00 0. -1.
          2    1    1    2  502    0 -0.11901541019E+01 -0.22385939838E+02 -0.64937471639E+03  0.64976154784E+03  0.00000000000E+00 0.  1.
</event>
<event>
 4    1  0.6210801E+003  0.2292904E+02  0.7546771E-02  0.1493391E+00
          2   -1    0    0  501    0  0.00000000000E+00  0.00000000000E+00  0.10606983864E+02  0.10606983864E+02  0.00000000000E+00 0. -1.
          2   -1    0    0  502    0 -0.00000000000E+00 -0.00000000000E+00 -0.39770407370E+03  0.39770407370E+03  0.00000000000E+00 0. -1.
          2    1    1    2  501    0 -0.15011307315E+02  0.17332090274E+02 -0.38455901989E+03  0.38524197653E+03  0.00000000000E+00 0. -1.
          2    1    1    2  502    0  0.15011307315E+02 -0.17332090274E+02 -0.25380699403E+01  0.23069081030E+02  0.00000000000E+00 0. -1.
</event>
<event>
 4    1  0.6210801E+003  0.4451204E+02  0.7546771E-02  0.1323898E+00
          2   -1    0    0  502    0  0.00000000000E+00  0.00000000000E+00  0.21593104496E+01  0.21593104496E+01  0.00000000000E+00 0. -1.
          2   -1    0    0  501    0 -0.00000000000E+00 -0.00000000000E+00 -0.18762579520E+04  0.18762579520E+04  0.00000000000E+00 0. -1.
          2    1    1    2  501    0  0.37905999864E+01 -0.44350339486E+02 -0.26569135519E+03  0.26939416750E+03  0.00000000000E+00 0. -1.
          2    1    1    2  502    0 -0.37905999864E+01  0.44350339486E+02 -0.16084072863E+04  0.16090230949E+04  0.00000000000E+00 0. -1.
</event>
<event>
 4    1  0.6210801E+003  0.2610757E+02  0.7546771E-02  0.1456785E+00
          2   -1    0    0  502    0  0.00000000000E+00  0.00000000000E+00  0.14733549453E+03  0.14733549453E+03  0.00000000000E+00 0. -1.
          2   -1    0    0  501    0 -0.00000000000E+00 -0.00000000000E+00 -0.49184739931E+02  0.49184739931E+02  0.00000000000E+00 0. -1.
          2    1    1    2  501    0  0.19205793555E+02  0.17684529337E+02  0.14260033286E+03  0.14497054879E+03  0.00000000000E+00 0. -1.
          2    1    1    2  502    0 -0.19205793555E+02 -0.17684529337E+02 -0.44449578269E+02  0.51549685666E+02  0.00000000000E+00 0. -1.
</event>
<event>
 4    1  0.6210801E+003  0.2048837E+02  0.7546771E-02  0.1526697E+00
          2   -1    0    0  501    0  0.00000000000E+00  0.00000000000E+00  0.11117551363E+04  0.11117551363E+04  0.00000000000E+00 0.  1.
          2   -1    0    0  502    0 -0.00000000000E+00 -0.00000000000E+00 -0.48311840968E+00  0.48311840968E+00  0.00000000000E+00 0.  1.
          2    1    1    2  501    0 -0.20214977248E+02 -0.33358426364E+01  0.29570833672E+03  0.29641726258E+03  0.00000000000E+00 0.  1.
          2    1    1    2  502    0  0.20214977248E+02  0.33358426364E+01  0.81556368116E+03  0.81582099212E+03  0.00000000000E+00 0.  1.
</event>
<event>
 4    1  0.6210801E+003  0.2162555E+02  0.7546771E-02  0.1510518E+00
          2   -1    0    0  502    0  0.00000000000E+00  0.00000000000E+00  0.68035758487E+01  0.68035758487E+01  0.00000000000E+00 0. -1.
          2   -1    0    0  501    0 -0.00000000000E+00 -0.00000000000E+00 -0.20989106988E+03  0.20989106988E+03  0.00000000000E+00 0.  1.
          2    1    1    2  501    0  0.65253634312E+01  0.20617569446E+02 -0.12691934600E+02  0.25074882685E+02  0.00000000000E+00 0. -1.
          2    1    1    2  502    0 -0.65253634312E+01 -0.20617569446E+02 -0.19039555943E+03  0.19161976304E+03  0.00000000000E+00 0.  1.
</event>
<event>
 4    1  0.6210801E+003  0.2655164E+02  0.7546771E-02  0.1452165E+00
          2   -1    0    0  501    0  0.00000000000E+00  0.00000000000E+00  0.21719058730E+02  0.21719058730E+02  0.00000000000E+00 0.  1.
          2   -1    0    0  502    0 -0.00000000000E+00 -0.00000000000E+00 -0.17249517559E+03  0.17249517559E+03  0.00000000000E+00 0.  1.
          2    1    1    2  501    0  0.16455647623E+02 -0.20837493506E+02 -0.16288279997E+03  0.16503271191E+03  0.00000000000E+00 0.  1.
          2    1    1    2  502    0 -0.16455647623E+02  0.20837493506E+02  0.12106683110E+02  0.29181522411E+02  0.00000000000E+00 0.  1.
</event>
<event>
 4    1  0.6210801E+003  0.2591706E+02  0.7546771E-02  0.1458801E+00
          2   -1    0    0  502    0  0.00000000000E+00  0.00000000000E+00  0.90700019214E+02  0.90700019214E+02  0.00000000000E+00 0. -1.
          2   -1    0    0  501    0 -0.00000000000E+00 -0.00000000000E+00 -0.36776684584E+03  0.36776684584E+03  0.00000000000E+00 0. -1.
          2    1    1    2  501    0 -0.22868521708E+02  0.12195275014E+02  0.88380262098E+02  0.92101925855E+02  0.00000000000E+00 0. -1.
          2    1    1    2  502    0  0.22868521708E+02 -0.12195275014E+02 -0.36544708873E+03  0.36636493920E+03  0.00000000000E+00 0. -1.
</event>
<event>
 4    1  0.6210801E+003  0.2163645E+02  0.7546771E-02  0.1510369E+00
          2   -1    0    0  501    0  0.00000000000E+00  0.00000000000E+00  0.10626983891E+04  0.10626983891E+04  0.00000000000E+00 0. -1.
          2   -1    0    0  502    0 -0.00000000000E+00 -0.00000000000E+00 -0.55957080907E+02  0.55957080907E+02  0.00000000000E+00 0. -1.
          2    1    1    2  501    0  0.85208580567E+01  0.19887962948E+02 -0.53751105426E+02  0.57942362972E+02  0.00000000000E+00 0. -1.
          2    1    1    2  502    0 -0.85208580567E+01 -0.19887962948E+02  0.10604924136E+04  0.10607131070E+04  0.00000000000E+00 0. -1.
</event>
<event>
 4    1  0.6210801E+003  0.2060567E+02  0.7546771E-02  0.1524970E+00
          2   -1    0    0  501    0  0.00000000000E+00  0.00000000000E+00  0.54796451560E+01  0.54796451560E+01  0.00000000000E+00 0.  1.
          2   -1    0    0  502    0 -0.00000000000E+00 -0.00000000000E+00 -0.47519698642E+03  0.47519698642E+03  0.00000000000E+00 0.  1.
          2    1    1    2  501    0 -0.20046245706E+02  0.47688033084E+01 -0.45473080946E+03  0.45519743246E+03  0.00000000000E+00 0.  1.
          2    1    1    2  502    0  0.20046245706E+02 -0.47688033084E+01 -0.14986531810E+02  0.25479199116E+02  0.00000000000E+00 0.  1.
</event>
<event>
 4    1  0.6210801E+003  0.2320954E+02  0.7546771E-02  0.1489884E+00
          2   -1    0    0  501    0  0.00000000000E+00  0.00000000000E+00  0.74332687383E+03  0.74332687383E+03  0.00000000000E+00 0.  1.
          2   -1    0    0  502    0 -0.00000000000E+00 -0.00000000000E+00 -0.62135869261E+03  0.62135869261E+03  0.00000000000E+00 0.  1.
          2    1    1    2  501    0  0.19539028286E+02  0.12526335086E+02 -0.62096066783E+03  0.62139426590E+03  0.00000000000E+00 0.  1.
          2    1    1    2  502    0 -0.19539028286E+02 -0.12526335086E+02  0.74292884906E+03  0.74329130054E+03  0.00000000000E+00 0.  1.
</event>
<event>
 4    1  0.6210801E+003  0.2527881E+02  0.7546771E-02  0.1465708E+00
          2   -1    0    0  501    0  0.00000000000E+00  0.00000000000E+00  0.16732431659E+02  0.16732431659E+02  0.00000000000E+00 0. -1.
          2   -1    0    0  502    0 -0.00000000000E+00 -0.00000000000E+00 -0.38195778962E+02  0.38195778962E+02  0.00000000000E+00 0.  1.
          2    1    1    2  501    0  0.67560568743E+01 -0.24359263881E+02 -0.10405364543E+02  0.27336599141E+02  0.00000000000E+00 0. -1.
          2    1    1    2  502    0 -0.67560568743E+01  0.24359263881E+02 -0.11057982760E+02  0.27591611480E+02  0.00000000000E+00 0.  1.
</event>
<event>
 4    1  0.6210801E+003  0.2120270E+02  0.7546771E-02  0.1516390E+00
          2   -1    0    0  502    0  0.00000000000E+00  0.00000000000E+00  0.42548674916E+01  0.42548674916E+01  0.00000000000E+00 0. -1.
          2   -1    0    0  501    0 -0.00000000000E+00 -0.00000000000E+00 -0.42868427795E+03  0.42868427795E+03  0.00000000000E+00 0. -1.
          2    1    1    2  501    0 -0.20658344748E+02 -0.47735938693E+01 -0.24305516711E+02  0.32253876492E+02  0.00000000000E+00 0. -1.
          2    1    1    2  502    0  0.20658344748E+02  0.47735938693E+01 -0.40012389375E+03  0.40068526895E+03  0.00000000000E+00 0. -1.
</event>
<event>
 4    1  0.6210801E+003  0.3020021E+02  0.7546771E-02  0.1417864E+00
          2   -1    0    0  502    0  0.00000000000E+00  0.00000000000E+00  0.19623432433E+03  0.19623432433E+03  0.00000000000E+00 0.  1.
          2   -1    0    0  501    0 -0.00000000000E+00 -0.00000000000E+00 -0.15072844417E+03  0.15072844417E+03  0.00000000000E+00 0.  1.
          2    1    1    2  501    0 -0.36211890019E+01 -0.29982326836E+02  0.19353869583E+03  0.19588077934E+03  0.00000000000E+00 0.  1.
          2    1    1    2  502    0  0.36211890019E+01  0.29982326836E+02 -0.14803281567E+03  0.15108198916E+03  0.00000000000E+00 0.  1.
</event>
<event>
 4    1  0.6210801E+003  0.2515929E+02  0.7546771E-02  0.1467029E+00
          2   -1    0    0  502    0  0.00000000000E+00  0.00000000000E+00  0.34183988397E+03  0.34183988397E+03  0.00000000000E+00 0.  1.
          2   -1    0    0  501    0 -0.00000000000E+00 -0.00000000000E+00 -0.37793089293E+02  0.37793089293E+02  0.00000000000E+00 0.  1.
          2    1    1    2  501    0  0.22664176014E+02  0.10923594692E+02  0.33713135016E+03  0.33806883479E+03  0.00000000000E+00 0.  1.
          2    1    1    2  502    0 -0.22664176014E+02 -0.10923594692E+02 -0.33084555484E+02  0.41564138472E+02  0.00000000000E+00 0.  1.
</event>
<event>
 4    1  0.6210801E+003  0.3664111E+02  0.7546771E-02  0.1369379E+00
          2   -1    0    0  502    0  0.00000000000E+00  0.00000000000E+00  0.90925213417E+03  0.90925213417E+03  0.00000000000E+00 0. -1.
          2   -1    0    0  501    0 -0.00000000000E+00 -0.00000000000E+00 -0.10919510920E+02  0.10919510920E+02  0.00000000000E+00 0.  1.
          2    1    1    2  501    0 -0.61377615611E+01  0.36123385017E+02  0.87701576216E+03  0.87778084858E+03  0.00000000000E+00 0. -1.
          2    1    1    2  502    0  0.61377615611E+01 -0.36123385017E+02  0.21316861099E+02  0.42390796516E+02  0.00000000000E+00 0.  1.
</event>
<event>
 4    1  0.6210801E+003  0.2266683E+02  0.7546771E-02  0.1496725E+00
          2   -1    0    0  501    0  0.00000000000E+00  0.00000000000E+00  0.32709255032E+02  0.32709255032E+02  0.00000000000E+00 0. -1.
          2   -1    0    0  502    0 -0.00000000000E+00 -0.00000000000E+00 -0.80063229083E+02  0.80063229083E+02  0.00000000000E+00 0. -1.
          2    1    1    2  501    0 -0.10166292248E+02 -0.20259114489E+02 -0.74230313014E+02  0.77613945835E+02  0.00000000000E+00 0. -1.
          2    1    1    2  502    0  0.10166292248E+02  0.20259114489E+02  0.26876338963E+02  0.35158538280E+02  0.00000000000E+00 0. -1.
</event>
<event>
 4    1  0.6210801E+003  0.2479011E+02  0.7546771E-02  0.1471165E+00
          2   -1    0    0  502    0  0.00000000000E+00  0.00000000000E+00  0.17599164540E+04  0.17599164540E+04  0.00000000000E+00 0. -1.
          2   -1    0    0  501    0 -0.00000000000E+00 -0.00000000000E+00 -0.41769689507E+00  0.41769689507E+00  0.00000000000E+00 0.  1.
          2    1    1    2  501    0  0.20989991587E+02  0.13189769653E+02  0.12361951392E+04  0.12364436793E+04  0.00000000000E+00 0. -1.
          2    1    1    2  502    0 -0.20989991587E+02 -0.13189769653E+02  0.52330361790E+03  0.52389047165E+03  0.00000000000E+00 0.  1.
</event>
<event>
 4    1  0.6210801E+003  0.2449016E+02  0.7546771E-02  0.1474588E+00
          2   -1    0    0  502    0  0.00000000000E+00  0.00000000000E+00  0.90639739145E+03  0.90639739145E+03  0.00000000000E+00 0.  1.
          2   -1    0    0  501    0 -0.00000000000E+00 -0.00000000000E+00 -0.13538475085E+01  0.13538475085E+01  0.00000000000E+00 0. -1.
          2    1    1    2  501    0  0.66614624257E+01 -0.23566771122E+02  0.77704792933E+03  0.77743376069E+03  0.00000000000E+00 0.  1.
          2    1    1    2  502    0 -0.66614624257E+01  0.23566771122E+02  0.12799561461E+03  0.13031747826E+03  0.00000000000E+00 0. -1.
</event>
<event>
 4    1  0.6210801E+003  0.2031757E+02  0.7546771E-02  0.1529235E+00
          2   -1    0    0  501    0  0.00000000000E+00  0.00000000000E+00  0.86303916318E+03  0.86303916318E+03  0.00000000000E+00 0. -1.
          2   -1    0    0  502    0 -0.00000000000E+00 -0.00000000000E+00 -0.51402112130E+00  0.51402112130E+00  0.00000000000E+00 0.  1.
          2    1    1    2  501    0  0.19977450035E+02  0.37020203982E+01  0.31746112287E+03  0.31811062227E+03  0.00000000000E+00 0.  1.
          2    1    1    2  502    0 -0.19977450035E+02 -0.37020203982E+01  0.54506401919E+03  0.54544256203E+03  0.00000000000E+00 0. -1.
</event>
<event>
 4    1  0.6210801E+003  0.2829279E+02  0.7546771E-02  0.1435037E+00
          2   -1    0    0  502    0  0.00000000000E+00  0.00000000000E+00  0.14303955071E+04  0.14303955071E+04  0.00000000000E+00 0.  1.
          2   -1    0    0  501    0 -0.00000000000E+00 -0.00000000000E+00 -0.37378644981E+01  0.37378644981E+01  0.00000000000E+00 0.  1.
          2    1    1    2  501    0 -0.28170476832E+02 -0.26279235756E+01  0.13745416013E+04  0.13748327518E+04  0.00000000000E+00 0.  1.
          2    1    1    2  502    0  0.28170476832E+02  0.26279235756E+01  0.52116041378E+02  0.59300619863E+02  0.00000000000E+00 0.  1.
</event>
<event>
 4    1  0.6210801E+003  0.2133837E+02  0.7546771E-02  0.1514488E+00
          2   -1    0    0  501    0  0.00000000000E+00  0.00000000000E+00  0.88417248945E+03  0.88417248945E+03  0.00000000000E+00 0.  1.
          2   -1    0    0  502    0 -0.00000000000E+00 -0.00000000000E+00 -0.89469916572E+01  0.89469916572E+01  0.00000000000E+00 0.  1.
          2    1    1    2  501    0  0.77847174191E+01  0.19867668282E+02  0.40950849742E+01  0.21727765399E+02  0.00000000000E+00 0.  1.
          2    1    1    2  502    0 -0.77847174191E+01 -0.19867668282E+02  0.87113041281E+03  0.87139171570E+03  0.00000000000E+00 0.  1.
</event>
<event>
 4    1  0.6210801E+003  0.2129931E+02  0.7546771E-02  0.1515034E+00
          2   -1    0    0  502    0  0.00000000000E+00  0.00000000000E+00  0.15138226036E+03  0.15138226036E+03  0.00000000000E+00 0.  1.
          2   -1    0    0  501    0 -0.00000000000E+00 -0.00000000000E+00 -0.51908802829E+02  0.51908802829E+02  0.00000000000E+00 0. -1.
          2    1    1    2  501    0  0.15884327788E+02  0.14189744589E+02  0.14840455410E+03  0.14992522268E+03  0.00000000000E+00 0.  1.
          2    1    1    2  502    0 -0.15884327788E+02 -0.14189744589E+02 -0.48931096569E+02  0.53365840499E+02  0.00000000000E+00 0. -1.
</event>
<event>
 4    1  0.6210801E+003  0.2481524E+02  0.7546771E-02  0.1470881E+00
          2   -1    0    0  501    0  0.00000000000E+00  0.00000000000E+00  0.23627518283E+01  0.23627518283E+01  0.00000000000E+00 0.  1.
          2   -1    0    0  502    0 -0.00000000000E+00 -0.00000000000E+00 -0.41112878398E+03  0.41112878398E+03  0.00000000000E+00 0. -1.
          2    1    1    2  501    0 -0.16110931545E+02  0.18874165403E+02 -0.32947196092E+03  0.33040515927E+03  0.00000000000E+00 0. -1.
          2    1    1    2  502    0  0.16110931545E+02 -0.18874165403E+02 -0.79294071225E+02  0.83086376538E+02  0.00000000000E+00 0.  1.
</event>
<event>
 4    1  0.6210801E+003  0.3683126E+02  0.7546771E-02  0.1368127E+00
          2   -1    0    0  502    0  0.00000000000E+00  0.00000000000E+00  0.14364733099E+04  0.14364733099E+04  0.00000000000E+00 0.  1.
          2   -1    0    0  501    0 -0.00000000000E+00 -0.00000000000E+00 -0.91632555206E+01  0.91632555206E+01  0.00000000000E+00 0.  1.
          2    1    1    2  501    0  0.30862818919E+02  0.20100444129E+02  0.13982143345E+04  0.13986993482E+04  0.00000000000E+00 0.  1.
          2    1    1    2  502    0 -0.30862818919E+02 -0.20100444129E+02  0.29095719892E+02  0.46937217236E+02  0.00000000000E+00 0.  1.
</event>
<event>
 4    1  0.6210801E+003  0.5116924E+02  0.7546771E-02  0.1293181E+00
          2   -1    0    0  501    0  0.00000000000E+00  0.00000000000E+00  0.13305872958E+03  0.13305872958E+03  0.00000000000E+00 0. -1.
          2   -1    0    0  502    0 -0.00000000000E+00 -0.00000000000E+00 -0.71833369339E+02  0.71833369339E+02  0.00000000000E+00 0.  1.
          2    1    1    2  501    0 -0.47981348393E+02 -0.17778668100E+02 -0.56681004488E+02  0.76361162267E+02  0.00000000000E+00 0.  1.
          2    1    1    2  502    0  0.47981348393E+02  0.17778668100E+02  0.11790636473E+03  0.12853093665E+03  0.00000000000E+00 0. -1.
</event>
<event>
 4    1  0.6210801E+003  0.6284023E+02  0.7546771E-02  0.1250476E+00
          2   -1    0    0  502    0  0.00000000000E+00  0.00000000000E+00  0.78573732256E+03  0.78573732256E+03  0.00000000000E+00 0.  1.
          2   -1    0    0  501    0 -0.00000000000E+00 -0.00000000000E+00 -0.11847876762E+03  0.11847876762E+03  0.00000000000E+00 0. -1.
          2    1    1    2  501    0 -0.78610520490E+01  0.62346598263E+02  0.77604449590E+03  0.77858458376E+03  0.00000000000E+00 0.  1.
          2    1    1    2  502    0  0.78610520490E+01 -0.62346598263E+02 -0.10878594096E+03  0.12563150642E+03  0.00000000000E+00 0. -1.
</event>
<event>
 4    1  0.6210801E+003  0.2818196E+02  0.7546771E-02  0.1436083E+00
          2   -1    0    0  501    0  0.00000000000E+00  0.00000000000E+00  0.43265372637E+03  0.43265372637E+03  0.00000000000E+00 0.  1.
          2   -1    0    0  502    0 -0.00000000000E+00 -0.00000000000E+00 -0.70203322966E+01  0.70203322966E+01  0.00000000000E+00 0. -1.
          2    1    1    2  501    0  0.25862635215E+02  0.11195838003E+02  0.23895378047E+02  0.36948772386E+02  0.00000000000E+00 0. -1.
          2    1    1    2  502    0 -0.25862635215E+02 -0.11195838003E+02  0.40173801602E+03  0.40272528628E+03  0.00000000000E+00 0.  1.
</event>
<event>
 4    1  0.6210801E+003  0.2168614E+02  0.7546771E-02  0.1509690E+00
          2   -1    0    0  501    0  0.00000000000E+00  0.00000000000E+00  0.15106430337E+04  0.15106430337E+04  0.00000000000E+00 0. -1.
          2   -1    0    0  502    0 -0.00000000000E+00 -0.00000000000E+00 -0.65936223995E+00  0.65936223995E+00  0.00000000000E+00 0. -1.
          2    1    1    2  501    0  0.17552637310E+02 -0.12735530573E+02  0.20598569082E+03  0.20712410203E+03  0.00000000000E+00 0. -1.
          2    1    1    2  502    0 -0.17552637310E+02  0.12735530573E+02  0.13039979807E+04  0.13041782940E+04  0.00000000000E+00 0. -1.
</event>
<event>
 4    1  0.6210801E+003  0.2101953E+02  0.7546771E-02  0.1518986E+00
          2   -1    0    0  501    0  0.00000000000E+00  0.00000000000E+00  0.93222628345E+02  0.93222628345E+02  0.00000000000E+00 0.  1.
          2   -1    0    0  502    0 -0.00000000000E+00 -0.00000000000E+00 -0.81957213315E+01  0.81957213315E+01  0.00000000000E+00 0. -1.
          2    1    1    2  501    0 -0.13853025503E+02  0.15808682488E+02  0.95828991157E+01  0.23100924506E+02  0.00000000000E+00 0. -1.
          2    1    1    2  502    0  0.13853025503E+02 -0.15808682488E+02  0.75444007898E+02  0.78317425170E+02  0.00000000000E+00 0.  1.
</event>
<event>
 4    1  0.6210801E+003  0.2134588E+02  0.7546771E-02  0.1514384E+00
          2   -1    0    0  502    0  0.00000000000E+00  0.00000000000E+00  0.53444303209E+03  0.53444303209E+03  0.00000000000E+00 0. -1.
          2   -1    0    0  501    0 -0.00000000000E+00 -0.00000000000E+00 -0.98490693043E+01  0.98490693043E+01  0.00000000000E+00 0.  1.
          2    1    1    2  501    0  0.14410456900E+02 -0.15747546085E+02  0.52239759604E+03  0.52283352496E+03  0.00000000000E+00 0. -1.
          2    1    1    2  502    0 -0.14410456900E+02  0.15747546085E+02  0.21963667491E+01  0.21458576436E+02  0.00000000000E+00 0.  1.
</event>
<event>
 4    1  0.6210801E+003  0.2159924E+02  0.7546771E-02  0.1510879E+00
          2   -1    0    0  501    0  0.00000000000E+00  0.00000000000E+00  0.49418968145E+01  0.49418968145E+01  0.00000000000E+00 0. -1.
          2   -1    0    0  502    0 -0.00000000000E+00 -0.00000000000E+00 -0.23246715735E+03  0.23246715735E+03  0.00000000000E+00 0. -1.
          2    1    1    2  501    0  0.18648441170E+02 -0.10897835339E+02 -0.20524297994E+03  0.20637637459E+03  0.00000000000E+00 0. -1.
          2    1    1    2  502    0 -0.18648441170E+02  0.10897835339E+02 -0.22282280593E+02  0.31032679575E+02  0.00000000000E+00 0. -1.
</event>
<event>
 4    1  0.6210801E+003  0.2594376E+02  0.7546771E-02  0.1458517E+00
          2   -1    0    0  501    0  0.00000000000E+00  0.00000000000E+00  0.20523992975E+03  0.20523992975E+03  0.00000000000E+00 0. -1.
          2   -1    0    0  502    0 -0.00000000000E+00 -0.00000000000E+00 -0.12325609074E+03  0.12325609074E+03  0.00000000000E+00 0. -1.
          2    1    1    2  501    0  0.15689118183E+02 -0.20662289250E+02 -0.12105628795E+03  0.12380510280E+03  0.00000000000E+00 0. -1.
          2    1    1    2  502    0 -0.15689118183E+02  0.20662289250E+02  0.20304012696E+03  0.20469091769E+03  0.00000000000E+00 0. -1.
</event>
<event>
 4    1  0.6210801E+003  0.2713879E+02  0.7546771E-02  0.1446219E+00
          2   -1    0    0  502    0  0.00000000000E+00  0.00000000000E+00  0.70637825622E+03  0.70637825622E+03  0.00000000000E+00 0.  1.
          2   -1    0    0  501    0 -0.00000000000E+00 -0.00000000000E+00 -0.15514262278E+01  0.15514262278E+01  0.00000000000E+00 0. -1.
          2    1    1    2  501    0  0.13862171381E+02 -0.23331399170E+02  0.55511293222E+03  0.55577592743E+03  0.00000000000E+00 0.  1.
          2    1    1    2  502    0 -0.13862171381E+02  0.23331399170E+02  0.14971389777E+03  0.15215375502E+03  0.00000000000E+00 0. -1.
</event>
<event>
 4    1  0.6210801E+003  0.2901129E+02  0.7546771E-02  0.1428387E+00
          2   -1    0    0  501    0  0.00000000000E+00  0.00000000000E+00  0.46796406057E+03  0.46796406057E+03  0.00000000000E+00 0. -1.
          2   -1    0    0  502    0 -0.00000000000E+00 -0.00000000000E+00 -0.31101804622E+03  0.31101804622E+03  0.00000000000E+00 0.  1.
          2    1    1    2  501    0  0.23171439589E+02  0.17456783738E+02 -0.30989024468E+03  0.31124527090E+03  0.00000000000E+00 0.  1.
          2    1    1    2  502    0 -0.23171439589E+02 -0.17456783738E+02  0.46683625903E+03  0.46773683589E+03  0.00000000000E+00 0. -1.
</event>
<event>
 4    1  0.6210801E+003  0.4359249E+02  0.7546771E-02  0.1328629E+00
          2   -1    0    0  501    0  0.00000000000E+00  0.00000000000E+00  0.20037045100E+03  0.20037045100E+03  0.00000000000E+00 0. -1.
          2   -1    0    0  502    0 -0.00000000000E+00 -0.00000000000E+00 -0.64861012561E+02  0.64861012561E+02  0.00000000000E+00 0.  1.
          2    1    1    2  501    0 -0.34546757868E+02 -0.26586212053E+02 -0.54782524145E+02  0.70010214271E+02  0.00000000000E+00 0.  1.
          2    1    1    2  502    0  0.34546757868E+02  0.26586212053E+02  0.19029196259E+03  0.19522124929E+03  0.00000000000E+00 0. -1.
</event>
<event>
 4    1  0.6210801E+003  0.2438639E+02  0.7546771E-02  0.1475786E+00
          2   -1    0    0  501    0  0.00000000000E+00  0.00000000000E+00  0.10111659435E+04  0.10111659435E+04  0.00000000000E+00 0. -1.
          2   -1    0    0  502    0 -0.00000000000E+00 -0.00000000000E+00 -0.21763369909E+01  0.21763369909E+01  0.00000000000E+00 0.  1.
          2    1    1    2  501    0 -0.87645952264E+01  0.22756930101E+02  0.71665369245E+02  0.75700866218E+02  0.00000000000E+00 0.  1.
          2    1    1    2  502    0  0.87645952264E+01 -0.22756930101E+02  0.93732423723E+03  0.93764141424E+03  0.00000000000E+00 0. -1.
</event>
<event>
 4    1  0.6210801E+003  0.2250266E+02  0.7546771E-02  0.1498840E+00
          2   -1    0    0  501    0  0.00000000000E+00  0.00000000000E+00  0.17094916777E+04  0.17094916777E+04  0.00000000000E+00 0. -1.
          2   -1    0    0  502    0 -0.00000000000E+00 -0.00000000000E+00 -0.71099201038E+00  0.71099201038E+00  0.00000000000E+00 0. -1.
          2    1    1    2  501    0 -0.74200073228E+00 -0.22490422987E+02  0.20126757337E+03  0.20252161806E+03  0.00000000000E+00 0. -1.
          2    1    1    2  502    0  0.74200073228E+00  0.22490422987E+02  0.15075131123E+04  0.15076810516E+04  0.00000000000E+00 0. -1.
</event>
<event>
 4    1  0.6210801E+003  0.2489120E+02  0.7546771E-02  0.1470024E+00
          2   -1    0    0  502    0  0.00000000000E+00  0.00000000000E+00  0.32569654589E+02  0.32569654589E+02  0.00000000000E+00 0. -1.
          2   -1    0    0  501    0 -0.00000000000E+00 -0.00000000000E+00 -0.13044487415E+03  0.13044487415E+03  0.00000000000E+00 0.  1.
          2    1    1    2  501    0  0.13456624347E+01 -0.24854802071E+02  0.26392408068E+02  0.36278522530E+02  0.00000000000E+00 0. -1.
          2    1    1    2  502    0 -0.13456624347E+01  0.24854802071E+02 -0.12426762763E+03  0.12673600621E+03  0.00000000000E+00 0.  1.
</event>
<event>
 4    1  0.6210801E+003  0.4111029E+02  0.7546771E-02  0.1342100E+00
          2   -1    0    0  501    0  0.00000000000E+00  0.00000000000E+00  0.41510097028E+03  0.41510097028E+03  0.00000000000E+00 0. -1.
          2   -1    0    0  502    0 -0.00000000000E+00 -0.00000000000E+00 -0.54660381279E+01  0.54660381279E+01  0.00000000000E+00 0. -1.
          2    1    1    2  501    0 -0.39737294728E+02 -0.10535829947E+02  0.98600397251E+02  0.10682740586E+03  0.00000000000E+00 0. -1.
          2    1    1    2  502    0  0.39737294728E+02  0.10535829947E+02  0.31103453490E+03  0.31373960255E+03  0.00000000000E+00 0. -1.
</event>
<event>
 4    1  0.6210801E+003  0.2946111E+02  0.7546771E-02  0.1424338E+00
          2   -1    0    0  501    0  0.00000000000E+00  0.00000000000E+00  0.45509893377E+02  0.45509893377E+02  0.00000000000E+00 0.  1.
          2   -1    0    0  502    0 -0.00000000000E+00 -0.00000000000E+00 -0.19246220881E+02  0.19246220881E+02  0.00000000000E+00 0.  1.
          2    1    1    2  501    0 -0.21540815173E+02  0.20098519261E+02  0.10049831988E+02  0.31128063187E+02  0.00000000000E+00 0.  1.
          2    1    1    2  502    0  0.21540815173E+02 -0.20098519261E+02  0.16213840508E+02  0.33628051071E+02  0.00000000000E+00 0.  1.
</event>
<event>
 4    1  0.6210801E+003  0.5246442E+02  0.7546771E-02  0.1287827E+00
          2   -1    0    0  501    0  0.00000000000E+00  0.00000000000E+00  0.41443813425E+03  0.41443813425E+03  0.00000000000E+00 0. -1.
          2   -1    0    0  502    0 -0.00000000000E+00 -0.00000000000E+00 -0.59444725166E+02  0.59444725166E+02  0.00000000000E+00 0. -1.
          2    1    1    2  501    0 -0.46217278999E+02  0.24828976292E+02 -0.45816461496E+02  0.69653880622E+02  0.00000000000E+00 0. -1.
          2    1    1    2  502    0  0.46217278999E+02 -0.24828976292E+02  0.40080987058E+03  0.40422897880E+03  0.00000000000E+00 0. -1.
</event>
<event>
 4    1  0.6210801E+003  0.2733616E+02  0.7546771E-02  0.1444260E+00
          2   -1    0    0  501    0  0.00000000000E+00  0.00000000000E+00  0.92369109781E+03  0.92369109781E+03  0.00000000000E+00 0.  1.
          2   -1    0    0  502    0 -0.00000000000E+00 -0.00000000000E+00 -0.52165898365E+02  0.52165898365E+02  0.00000000000E+00 0.  1.
          2    1    1    2  501    0 -0.15296580387E+02  0.22655690252E+02 -0.48367666863E+02  0.55558049552E+02  0.00000000000E+00 0.  1.
          2    1    1    2  502    0  0.15296580387E+02 -0.22655690252E+02  0.91989286631E+03  0.92029894663E+03  0.00000000000E+00 0.  1.
</event>
<event>
 4    1  0.6210801E+003  0.5500805E+02  0.7546771E-02  0.1277807E+00
          2   -1    0    0  501    0  0.00000000000E+00  0.00000000000E+00  0.18388368034E+01  0.18388368034E+01  0.00000000000E+00 0. -1.
          2   -1    0    0  502    0 -0.00000000000E+00 -0.00000000000E+00 -0.20756200925E+04  0.20756200925E+04  0.00000000000E+00 0. -1.
          2    1    1    2  501    0  0.77232749748E+01  0.54463165072E+02 -0.56406436389E+03  0.56674023321E+03  0.00000000000E+00 0. -1.
          2    1    1    2  502    0 -0.77232749748E+01 -0.54463165072E+02 -0.15097168918E+04  0.15107186961E+04  0.00000000000E+00 0. -1.
</event>
<event>
 4    1  0.6210801E+003  0.2360009E+02  0.7546771E-02  0.1485097E+00
          2   -1    0    0  501    0  0.00000000000E+00  0.00000000000E+00  0.51787195972E+03  0.51787195972E+03  0.00000000000E+00 0. -1.
          2   -1    0    0  502    0 -0.00000000000E+00 -0.00000000000E+00 -0.20309812350E+03  0.20309812350E+03  0.00000000000E+00 0. -1.
          2    1    1    2  501    0 -0.60620991991E+01 -0.22808228290E+02 -0.20214239968E+03  0.20351539026E+03  0.00000000000E+00 0. -1.
          2    1    1    2  502    0  0.60620991991E+01  0.22808228290E+02  0.51691623590E+03  0.51745469296E+03  0.00000000000E+00 0. -1.
</event>
<event>
 4    1  0.6210801E+003  0.2587304E+02  0.7546771E-02  0.1459269E+00
          2   -1    0    0  502    0  0.00000000000E+00  0.00000000000E+00  0.78603569512E+03  0.78603569512E+03  0.00000000000E+00 0. -1.
          2   -1    0    0  501    0 -0.00000000000E+00 -0.00000000000E+00 -0.49329073108E+01  0.49329073108E+01  0.00000000000E+00 0. -1.
          2    1    1    2  501    0 -0.81301716608E+01 -0.24562458158E+02  0.75028056496E+03  0.75072654156E+03  0.00000000000E+00 0. -1.
          2    1    1    2  502    0  0.81301716608E+01  0.24562458158E+02  0.30822222850E+02  0.40242060874E+02  0.00000000000E+00 0. -1.
</event>
<event>
 4    1  0.6210801E+003  0.3806620E+02  0.7546771E-02  0.1360206E+00
          2   -1    0    0  502    0  0.00000000000E+00  0.00000000000E+00  0.11195678439E+04  0.11195678439E+04  0.00000000000E+00 0.  1.
          2   -1    0    0  501    0 -0.00000000000E+00 -0.00000000000E+00 -0.33689611697E+01  0.33689611697E+01  0.00000000000E+00 0.  1.
          2    1    1    2  501    0  0.38043005261E+02 -0.13285306665E+01  0.99870798039E+03  0.99943317202E+03  0.00000000000E+00 0.  1.
          2    1    1    2  502    0 -0.38043005261E+02  0.13285306665E+01  0.11749090232E+03  0.12350363302E+03  0.00000000000E+00 0.  1.
</event>
<event>
 4    1  0.6210801E+003  0.2977466E+02  0.7546771E-02  0.1421565E+00
          2   -1    0    0  501    0  0.00000000000E+00  0.00000000000E+00  0.28616507256E+01  0.28616507256E+01  0.00000000000E+00 0.  1.
          2   -1    0    0  502    0 -0.00000000000E+00 -0.00000000000E+00 -0.53648361211E+03  0.53648361211E+03  0.00000000000E+00 0. -1.
          2    1    1    2  501    0 -0.27125402944E+02 -0.12277746648E+02 -0.44210684359E+03  0.44310832953E+03  0.00000000000E+00 0. -1.
          2    1    1    2  502    0  0.27125402944E+02  0.12277746648E+02 -0.91515117796E+02  0.96236933310E+02  0.00000000000E+00 0.  1.
</event>
<event>
 4    1  0.6210801E+003  0.2777568E+02  0.7546771E-02  0.1439968E+00
          2   -1    0    0  502    0  0.00000000000E+00  0.00000000000E+00  0.17281142577E+04  0.17281142577E+04  0.00000000000E+00 0.  1.
          2   -1    0    0  501    0 -0.00000000000E+00 -0.00000000000E+00 -0.21929202881E+01  0.21929202881E+01  0.00000000000E+00 0.  1.
          2    1    1    2  501    0  0.13626253777E+01 -0.27742237198E+02  0.16350444263E+04  0.16352803321E+04  0.00000000000E+00 0.  1.
          2    1    1    2  502    0 -0.13626253777E+01  0.27742237198E+02  0.90876911146E+02  0.95026845955E+02  0.00000000000E+00 0.  1.
</event>
<event>
 4    1  0.6210801E+003  0.2864949E+02  0.7546771E-02  0.1431707E+00
          2   -1    0    0  502    0  0.00000000000E+00  0.00000000000E+00  0.13055552528E+02  0.13055552528E+02  0.00000000000E+00 0. -1.
          2   -1    0    0  501    0 -0.00000000000E+00 -0.00000000000E+00 -0.15065594271E+03  0.15065594271E+03  0.00000000000E+00 0. -1.
          2    1    1    2  501    0  0.28536467444E+02 -0.25423066053E+01 -0.63159834660E+01  0.29337432474E+02  0.00000000000E+00 0. -1.
          2    1    1    2  502    0 -0.28536467444E+02  0.25423066053E+01 -0.13128440672E+03  0.13437406276E+03  0.00000000000E+00 0. -1.
</event>
<event>
 4    1  0.6210801E+003  0.2184776E+02  0.7546771E-02  0.1507497E+00
          2   -1    0    0  501    0  0.00000000000E+00  0.00000000000E+00  0.28085966972E+01  0.28085966972E+01  0.00000000000E+00 0. -1.
          2   -1    0    0  502    0 -0.00000000000E+00 -0.00000000000E+00 -0.96473221309E+03  0.96473221309E+03  0.00000000000E+00 0. -1.
          2    1    1    2  501    0  0.21084672153E+02 -0.57237286879E+01 -0.92005796837E+03  0.92031733094E+03  0.00000000000E+00 0. -1.
          2    1    1    2  502    0 -0.21084672153E+02  0.57237286879E+01 -0.41865648019E+02  0.47223478842E+02  0.00000000000E+00 0. -1.
</event>
<event>
 4    1  0.6210801E+003  0.3289005E+02  0.7546771E-02  0.1396036E+00
          2   -1    0    0  502    0  0.00000000000E+00  0.00000000000E+00  0.51826533666E+02  0.51826533666E+02  0.00000000000E+00 0. -1.
          2   -1    0    0  501    0 -0.00000000000E+00 -0.00000000000E+00 -0.55494080271E+03  0.55494080271E+03  0.00000000000E+00 0. -1.
          2    1    1    2  501    0  0.32770790553E+02  0.27983264184E+01  0.46066368041E+02  0.56602699659E+02  0.00000000000E+00 0. -1.
          2    1    1    2  502    0 -0.32770790553E+02 -0.27983264184E+01 -0.54918063709E+03  0.55016463672E+03  0.00000000000E+00 0. -1.
</event>
<event>
 4    1  0.6210801E+003  0.4949665E+02  0.7546771E-02  0.1300370E+00
          2   -1    0    0  501    0  0.00000000000E+00  0.00000000000E+00  0.18392459381E+01  0.18392459381E+01  0.00000000000E+00 0.  1.
          2   -1    0    0  502    0 -0.00000000000E+00 -0.00000000000E+00 -0.14465251528E+04  0.14465251528E+04  0.00000000000E+00 0.  1.
          2    1    1    2  501    0  0.36202198467E+02 -0.33753800988E+02 -0.92608999082E+03  0.92741176904E+03  0.00000000000E+00 0.  1.
          2    1    1    2  502    0 -0.36202198467E+02  0.33753800988E+02 -0.51859591601E+03  0.52095262967E+03  0.00000000000E+00 0.  1.
</event>
<event>
 4    1  0.6210801E+003  0.2152038E+02  0.7546771E-02  0.1511963E+00
          2   -1    0    0  502    0  0.00000000000E+00  0.00000000000E+00  0.13451129594E+04  0.13451129594E+04  0.00000000000E+00 0. -1.
          2   -1    0    0  501    0 -0.00000000000E+00 -0.00000000000E+00 -0.45050839958E+01  0.45050839958E+01  0.00000000000E+00 0.  1.
          2    1    1    2  501    0 -0.15185796602E+02 -0.15248555121E+02  0.13188141896E+04  0.13189897625E+04  0.00000000000E+00 0. -1.
          2    1    1    2  502    0  0.15185796602E+02  0.15248555121E+02  0.21793685868E+02  0.30628280974E+02  0.00000000000E+00 0.  1.
</event>
<event>
 4    1  0.6210801E+003  0.2714672E+02  0.7546771E-02  0.1446140E+00
          2   -1    0    0  501    0  0.00000000000E+00  0.00000000000E+00  0.23829236763E+01  0.23829236763E+01  0.00000000000E+00 0. -1.
          2   -1    0    0  502    0 -0.00000000000E+00 -0.00000000000E+00 -0.31067166425E+03  0.31067166425E+03  0.00000000000E+00 0. -1.
          2    1    1    2  501    0 -0.58109623198E+01 -0.26517487808E+02 -0.16469334547E+03  0.16691567477E+03  0.00000000000E+00 0. -1.
          2    1    1    2  502    0  0.58109623198E+01  0.26517487808E+02 -0.14359539511E+03  0.14613891316E+03  0.00000000000E+00 0. -1.
</event>
<event>
 4    1  0.6210801E+003  0.2457866E+02  0.7546771E-02  0.1473572E+00
          2   -1    0    0  501    0  0.00000000000E+00  0.00000000000E+00  0.15576883832E+04  0.15576883832E+04  0.00000000000E+00 0. -1.
          2   -1    0    0  502    0 -0.00000000000E+00 -0.00000000000E+00 -0.43813705336E+01  0.43813705336E+01  0.00000000000E+00 0. -1.
          2    1    1    2  501    0  0.23937026322E+02 -0.55793527919E+01  0.30986788017E+02  0.39551124362E+02  0.00000000000E+00 0. -1.
          2    1    1    2  502    0 -0.23937026322E+02  0.55793527919E+01  0.15223202247E+04  0.15225186294E+04  0.00000000000E+00 0. -1.
</event>
<event>
 4    1  0.6210801E+003  0.2018370E+02  0.7546771E-02  0.1531246E+00
          2   -1    0    0  501    0  0.00000000000E+00  0.00000000000E+00  0.20923712052E+01  0.20923712052E+01  0.00000000000E+00 0. -1.
          2   -1    0    0  502    0 -0.00000000000E+00 -0.00000000000E+00 -0.19692581350E+03  0.19692581350E+03  0.00000000000E+00 0. -1.
          2    1    1    2  501    0  0.52222541490E+01 -0.19496400878E+02 -0.10799950102E+03  0.10986934880E+03  0.00000000000E+00 0. -1.
          2    1    1    2  502    0 -0.52222541490E+01  0.19496400878E+02 -0.86833941275E+02  0.89148835904E+02  0.00000000000E+00 0. -1.
</event>
<event>
 4    1  0.6210801E+003  0.4906979E+02  0.7546771E-02  0.1302257E+00
          2   -1    0    0  502    0  0.00000000000E+00  0.00000000000E+00  0.21367832142E+04  0.21367832142E+04  0.00000000000E+00 0.  1.
          2   -1    0    0  501    0 -0.00000000000E+00 -0.00000000000E+00 -0.32143857368E+01  0.32143857368E+01  0.00000000000E+00 0.  1.
          2    1    1    2  501    0  0.18729050898E+02  0.45354902064E+02  0.19290692554E+04  0.19296932494E+04  0.00000000000E+00 0.  1.
          2    1    1    2  502    0 -0.18729050898E+02 -0.45354902064E+02  0.20449957302E+03  0.21030435053E+03  0.00000000000E+00 0.  1.
</event>
<event>
 4    1  0.6210801E+003  0.3343909E+02  0.7546771E-02  0.1391882E+00
          2   -1    0    0  501    0  0.00000000000E+00  0.00000000000E+00  0.12688870447E+03  0.12688870447E+03  0.00000000000E+00 0.  1.
          2   -1    0    0  502    0 -0.00000000000E+00 -0.00000000000E+00 -0.14917841431E+04  0.14917841431E+04  0.00000000000E+00 0.  1.
          2    1    1    2  501    0 -0.30798473874E+02  0.13024076311E+02 -0.14893901563E+04  0.14897654883E+04  0.00000000000E+00 0.  1.
          2    1    1    2  502    0  0.30798473874E+02 -0.13024076311E+02  0.12449471764E+03  0.12890735928E+03  0.00000000000E+00 0.  1.
</event>
<event>
 4    1  0.6210801E+003  0.2127612E+02  0.7546771E-02  0.1515359E+00
          2   -1    0    0  501    0  0.00000000000E+00  0.00000000000E+00  0.20589058431E+03  0.20589058431E+03  0.00000000000E+00 0. -1.
          2   -1    0    0  502    0 -0.00000000000E+00 -0.00000000000E+00 -0.73164999079E+03  0.73164999079E+03  0.00000000000E+00 0. -1.
          2    1    1    2  501    0  0.18132743391E+02 -0.11129995307E+02 -0.73094513281E+03  0.73125471647E+03  0.00000000000E+00 0. -1.
          2    1    1    2  502    0 -0.18132743391E+02  0.11129995307E+02  0.20518572633E+03  0.20628585863E+03  0.00000000000E+00 0. -1.
</event>
<event>
 4    1  0.6210801E+003  0.2202610E+02  0.7546771E-02  0.1505103E+00
          2   -1    0    0  501    0  0.00000000000E+00  0.00000000000E+00  0.98687541022E+02  0.98687541022E+02  0.00000000000E+00 0.  1.
          2   -1    0    0  502    0 -0.00000000000E+00 -0.00000000000E+00 -0.17202668723E+02  0.17202668723E+02  0.00000000000E+00 0.  1.
          2    1    1    2  501    0  0.60652947427E+01  0.21174547809E+02 -0.82281923139E+01  0.23512814038E+02  0.00000000000E+00 0.  1.
          2    1    1    2  502    0 -0.60652947427E+01 -0.21174547809E+02  0.89713064613E+02  0.92377395707E+02  0.00000000000E+00 0.  1.
</event>
<event>
 4    1  0.6210801E+003  0.2223016E+02  0.7546771E-02  0.1502398E+00
          2   -1    0    0  501    0  0.00000000000E+00  0.00000000000E+00  0.13716163181E+03  0.13716163181E+03  0.00000000000E+00 0.  1.
          2   -1    0    0  502    0 -0.00000000000E+00 -0.00000000000E+00 -0.58965665648E+03  0.58965665648E+03  0.00000000000E+00 0. -1.
          2    1    1    2  501    0 -0.12186439476E+02  0.18592219750E+02 -0.58854470957E+03  0.58896439206E+03  0.00000000000E+00 0. -1.
          2    1    1    2  502    0  0.12186439476E+02 -0.18592219750E+02  0.13604968491E+03  0.13785389623E+03  0.00000000000E+00 0.  1.
</event>
<event>
 4    1  0.6210801E+003  0.2646553E+02  0.7546771E-02  0.1453052E+00
          2   -1    0    0  502    0  0.00000000000E+00  0.00000000000E+00  0.15295815551E+04  0.15295815551E+04  0.00000000000E+00 0.  1.
          2   -1    0    0  501    0 -0.00000000000E+00 -0.00000000000E+00 -0.55713750942E+02  0.55713750942E+02  0.00000000000E+00 0.  1.
          2    1    1    2  501    0  0.26426338494E+02  0.14397251315E+01  0.15263173953E+04  0.15265468271E+04  0.00000000000E+00 0.  1.
          2    1    1    2  502    0 -0.26426338494E+02 -0.14397251315E+01 -0.52449591100E+02  0.58748478969E+02  0.00000000000E+00 0.  1.
</event>
<event>
 4    1  0.6210801E+003  0.2833886E+02  0.7546771E-02  0.1434604E+00
          2   -1    0    0  502    0  0.00000000000E+00  0.00000000000E+00  0.44371958166E+03  0.44371958166E+03  0.00000000000E+00 0. -1.
          2   -1    0    0  501    0 -0.00000000000E+00 -0.00000000000E+00 -0.23874209680E+02  0.23874209680E+02  0.00000000000E+00 0.  1.
          2    1    1    2  501    0  0.28226508312E+02 -0.25209502493E+01  0.43468285319E+03  0.43560564025E+03  0.00000000000E+00 0. -1.
          2    1    1    2  502    0 -0.28226508312E+02  0.25209502493E+01 -0.14837481208E+02  0.31988151091E+02  0.00000000000E+00 0.  1.
</event>
<event>
 4    1  0.6210801E+003  0.2283258E+02  0.7546771E-02  0.1494611E+00
          2   -1    0    0  502    0  0.00000000000E+00  0.00000000000E+00  0.71473206055E+03  0.71473206055E+03  0.00000000000E+00 0.  1.
          2   -1    0    0  501    0 -0.00000000000E+00 -0.00000000000E+00 -0.17951721639E+02  0.17951721639E+02  0.00000000000E+00 0. -1.
          2    1    1    2  501    0 -0.16851707691E+02 -0.15406060440E+02  0.70721241291E+03  0.70758089554E+03  0.00000000000E+00 0.  1.
          2    1    1    2  502    0  0.16851707691E+02  0.15406060440E+02 -0.10432074001E+02  0.25102886653E+02  0.00000000000E+00 0. -1.
</event>
<event>
 4    1  0.6210801E+003  0.3942059E+02  0.7546771E-02  0.1351915E+00
          2   -1    0    0  502    0  0.00000000000E+00  0.00000000000E+00  0.39380957628E+01  0.39380957628E+01  0.00000000000E+00 0.  1.
          2   -1    0    0  501    0 -0.00000000000E+00 -0.00000000000E+00 -0.26155109586E+04  0.26155109586E+04  0.00000000000E+00 0.  1.
          2    1    1    2  501    0  0.24211595695E+01 -0.39346165269E+02 -0.98898317338E+02  0.10646529908E+03  0.00000000000E+00 0.  1.
          2    1    1    2  502    0 -0.24211595695E+01  0.39346165269E+02 -0.25126745455E+04  0.25129837553E+04  0.00000000000E+00 0.  1.
</event>
<event>
 4    1  0.6210801E+003  0.3887465E+02  0.7546771E-02  0.1355210E+00
          2   -1    0    0  501    0  0.00000000000E+00  0.00000000000E+00  0.76000657919E+03  0.76000657919E+03  0.00000000000E+00 0.  1.
          2   -1    0    0  502    0 -0.00000000000E+00 -0.00000000000E+00 -0.67091776213E+03  0.67091776213E+03  0.00000000000E+00 0. -1.
          2    1    1    2  501    0 -0.37964226422E+02 -0.83639580570E+01 -0.66985673832E+03  0.67098382108E+03  0.00000000000E+00 0. -1.
          2    1    1    2  502    0  0.37964226422E+02  0.83639580570E+01  0.75894555538E+03  0.75994052024E+03  0.00000000000E+00 0.  1.
</event>
<event>
 4    1  0.6210801E+003  0.2140746E+02  0.7546771E-02  0.1513526E+00
          2   -1    0    0  501    0  0.00000000000E+00  0.00000000000E+00  0.15607766091E+03  0.15607766091E+03  0.00000000000E+00 0.  1.
          2   -1    0    0  502    0 -0.00000000000E+00 -0.00000000000E+00 -0.92946162605E+03  0.92946162605E+03  0.00000000000E+00 0. -1.
          2    1    1    2  501    0 -0.48409399332E+01 -0.20852924051E+02 -0.92860362695E+03  0.92885035131E+03  0.00000000000E+00 0. -1.
          2    1    1    2  502    0  0.48409399332E+01  0.20852924051E+02  0.15521966181E+03  0.15668893565E+03  0.00000000000E+00 0.  1.
</event>
<event>
 4    1  0.6210801E+003  0.2729845E+02  0.7546771E-02  0.1444633E+00
          2   -1    0    0  502    0  0.00000000000E+00  0.00000000000E+00  0.32216213637E+03  0.32216213637E+03  0.00000000000E+00 0.  1.
          2   -1    0    0  501    0 -0.00000000000E+00 -0.00000000000E+00 -0.59964912112E+01  0.59964912112E+01  0.00000000000E+00 0.  1.
          2    1    1    2  501    0  0.11233254535E+02  0.24880102903E+02  0.28667865826E+03  0.28797544796E+03  0.00000000000E+00 0.  1.
          2    1    1    2  502    0 -0.11233254535E+02 -0.24880102903E+02  0.29486986902E+02  0.40183179622E+02  0.00000000000E+00 0.  1.
</event>
<event>
 4    1  0.6210801E+003  0.4494293E+02  0.7546771E-02  0.1321725E+00
          2   -1    0    0  501    0  0.00000000000E+00  0.00000000000E+00  0.30907237336E+03  0.30907237336E+03  0.00000000000E+00 0. -1.
          2   -1    0    0  502    0 -0.00000000000E+00 -0.00000000000E+00 -0.11407047766E+03  0.11407047766E+03  0.00000000000E+00 0. -1.
          2    1    1    2  501    0  0.29784993905E+02  0.33655916405E+02 -0.10792048436E+03  0.11690465139E+03  0.00000000000E+00 0. -1.
          2    1    1    2  502    0 -0.29784993905E+02 -0.33655916405E+02  0.30292238007E+03  0.30623819964E+03  0.00000000000E+00 0. -1.
</event>
<event>
 4    1  0.6210801E+003  0.2015064E+02  0.7546771E-02  0.1531745E+00
          2   -1    0    0  502    0  0.00000000000E+00  0.00000000000E+00  0.81742904898E+03  0.81742904898E+03  0.00000000000E+00 0. -1.
          2   -1    0    0  501    0 -0.00000000000E+00 -0.00000000000E+00 -0.12826144997E+01  0.12826144997E+01  0.00000000000E+00 0. -1.
          2    1    1    2  501    0 -0.20350487598E+00 -0.20149615040E+02  0.72850084078E+03  0.72877947516E+03  0.00000000000E+00 0. -1.
          2    1    1    2  502    0  0.20350487598E+00  0.20149615040E+02  0.87645593702E+02  0.89932188319E+02  0.00000000000E+00 0. -1.
</event>
<event>
 4    1  0.6210801E+003  0.4584046E+02  0.7546771E-02  0.1317289E+00
          2   -1    0    0  502    0  0.00000000000E+00  0.00000000000E+00  0.10195152037E+04  0.10195152037E+04  0.00000000000E+00 0. -1.
          2   -1    0    0  501    0 -0.00000000000E+00 -0.00000000000E+00 -0.26540651144E+03  0.26540651144E+03  0.00000000000E+00 0. -1.
          2    1    1    2  501    0 -0.45778492293E+02 -0.23827491374E+01  0.10170156930E+04  0.10180482639E+04  0.00000000000E+00 0. -1.
          2    1    1    2  502    0  0.45778492293E+02  0.23827491374E+01 -0.26290700082E+03  0.26687345115E+03  0.00000000000E+00 0. -1.
</event>
<event>
 4    1  0.6210801E+003  0.3196553E+02  0.7546771E-02  0.1403251E+00
          2   -1    0    0  501    0  0.00000000000E+00  0.00000000000E+00  0.10962123747E+03  0.10962123747E+03  0.00000000000E+00 0.  1.
          2   -1    0    0  502    0 -0.00000000000E+00 -0.00000000000E+00 -0.93482961249E+01  0.93482961249E+01  0.00000000000E+00 0. -1.
          2    1    1    2  501    0 -0.27428595585E+02 -0.16415465600E+02  0.53342293316E+02  0.62186780129E+02  0.00000000000E+00 0. -1.
          2    1    1    2  502    0  0.27428595585E+02  0.16415465600E+02  0.46930648028E+02  0.56782753464E+02  0.00000000000E+00 0.  1.
</event>
<event>
 4    1  0.6210801E+003  0.2555522E+02  0.7546771E-02  0.1462687E+00
          2   -1    0    0  502    0  0.00000000000E+00  0.00000000000E+00  0.32878314199E+03  0.32878314199E+03  0.00000000000E+00 0. -1.
          2   -1    0    0  501    0 -0.00000000000E+00 -0.00000000000E+00 -0.83372737890E+01  0.83372737890E+01  0.00000000000E+00 0. -1.
          2    1    1    2  501    0 -0.21570285159E+02  0.13703730298E+02  0.30733978148E+03  0.30840040646E+03  0.00000000000E+00 0. -1.
          2    1    1    2  502    0  0.21570285159E+02 -0.13703730298E+02  0.13106086717E+02  0.28720009313E+02  0.00000000000E+00 0. -1.
</event>
<event>
 4    1  0.6210801E+003  0.5026627E+02  0.7546771E-02  0.1297022E+00
          2   -1    0    0  502    0  0.00000000000E+00  0.00000000000E+00  0.39379243860E+03  0.39379243860E+03  0.00000000000E+00 0. -1.
          2   -1    0    0  501    0 -0.00000000000E+00 -0.00000000000E+00 -0.79883342948E+02  0.79883342948E+02  0.00000000000E+00 0. -1.
          2    1    1    2  501    0 -0.16310674626E+01 -0.50239800498E+02  0.38408182407E+03  0.38735712917E+03  0.00000000000E+00 0. -1.
          2    1    1    2  502    0  0.16310674626E+01  0.50239800498E+02 -0.70172728418E+02  0.86318652381E+02  0.00000000000E+00 0. -1.
</event>
<event>
 4    1  0.6210801E+003  0.4145310E+02  0.7546771E-02  0.1340175E+00
          2   -1    0    0  501    0  0.00000000000E+00  0.00000000000E+00  0.25760463214E+03  0.25760463214E+03  0.00000000000E+00 0.  1.
          2   -1    0    0  502    0 -0.00000000000E+00 -0.00000000000E+00 -0.35592107309E+02  0.35592107309E+02  0.00000000000E+00 0.  1.
          2    1    1    2  501    0  0.14528246405E+02  0.38823830098E+02 -0.21142551081E+02  0.46533506135E+02  0.00000000000E+00 0.  1.
          2    1    1    2  502    0 -0.14528246405E+02 -0.38823830098E+02  0.24315507591E+03  0.24666323331E+03  0.00000000000E+00 0.  1.
</event>
<event>
 4    1  0.6210801E+003  0.2135268E+02  0.7546771E-02  0.1514289E+00
          2   -1    0    0  502    0  0.00000000000E+00  0.00000000000E+00  0.17714138166E+02  0.17714138166E+02  0.00000000000E+00 0. -1.
          2   -1    0    0  501    0 -0.00000000000E+00 -0.00000000000E+00 -0.44061847778E+02  0.44061847778E+02  0.00000000000E+00 0.  1.
          2    1    1    2  501    0  0.15439424289E+02 -0.14749959605E+02  0.67447793345E+01  0.22392614385E+02  0.00000000000E+00 0. -1.
          2    1    1    2  502    0 -0.15439424289E+02  0.14749959605E+02 -0.33092488947E+02  0.39383371560E+02  0.00000000000E+00 0.  1.
</event>
<event>
 4    1  0.6210801E+003  0.2796216E+02  0.7546771E-02  0.1438175E+00
          2   -1    0    0  501    0  0.00000000000E+00  0.00000000000E+00  0.13094619998E+01  0.13094619998E+01  0.00000000000E+00 0.  1.
          2   -1    0    0  502    0 -0.00000000000E+00 -0.00000000000E+00 -0.95306113527E+03  0.95306113527E+03  0.00000000000E+00 0.  1.
          2    1    1    2  501    0  0.20798109178E+02  0.18690136086E+02 -0.76750212833E+03  0.76801132773E+03  0.00000000000E+00 0.  1.
          2    1    1    2  502    0 -0.20798109178E+02 -0.18690136086E+02 -0.18424954493E+03  0.18635926953E+03  0.00000000000E+00 0.  1.
</event>
<event>
 4    1  0.6210801E+003  0.2935303E+02  0.7546771E-02  0.1425303E+00
          2   -1    0    0  501    0  0.00000000000E+00  0.00000000000E+00  0.12116832343E+04  0.12116832343E+04  0.00000000000E+00 0.  1.
          2   -1    0    0  502    0 -0.00000000000E+00 -0.00000000000E+00 -0.22858527581E+01  0.22858527581E+01  0.00000000000E+00 0.  1.
          2    1    1    2  501    0 -0.78183031718E+01 -0.28292662395E+02  0.10089330476E+03  0.10507644625E+03  0.00000000000E+00 0.  1.
          2    1    1    2  502    0  0.78183031718E+01  0.28292662395E+02  0.11085040768E+04  0.11088926408E+04  0.00000000000E+00 0.  1.
</event>
<event>
 4    1  0.6210801E+003  0.2404349E+02  0.7546771E-02  0.1479795E+00
          2   -1    0    0  502    0  0.00000000000E+00  0.00000000000E+00  0.35285147950E+02  0.35285147950E+02  0.00000000000E+00 0.  1.
          2   -1    0    0  501    0 -0.00000000000E+00 -0.00000000000E+00 -0.38604534792E+02  0.38604534792E+02  0.00000000000E+00 0. -1.
          2    1    1    2  501    0  0.30815662754E+01  0.23845193707E+02  0.26369986820E+02  0.35685648635E+02  0.00000000000E+00 0.  1.
          2    1    1    2  502    0 -0.30815662754E+01 -0.23845193707E+02 -0.29689373661E+02  0.38204034107E+02  0.00000000000E+00 0. -1.
</event>
<event>
 4    1  0.6210801E+003  0.2282580E+02  0.7546771E-02  0.1494697E+00
          2   -1    0    0  502    0  0.00000000000E+00  0.00000000000E+00  0.23518066997E+03  0.23518066997E+03  0.00000000000E+00 0.  1.
          2   -1    0    0  501    0 -0.00000000000E+00 -0.00000000000E+00 -0.24063422627E+03  0.24063422627E+03  0.00000000000E+00 0.  1.
          2    1    1    2  501    0  0.18183024514E+02  0.13798357653E+02  0.23408299437E+03  0.23519325099E+03  0.00000000000E+00 0.  1.
          2    1    1    2  502    0 -0.18183024514E+02 -0.13798357653E+02 -0.23953655067E+03  0.24062164525E+03  0.00000000000E+00 0.  1.
</event>
<event>
 4    1  0.6210801E+003  0.2043839E+02  0.7546771E-02  0.1527436E+00
          2   -1    0    0  501    0  0.00000000000E+00  0.00000000000E+00  0.14368103126E+04  0.14368103126E+04  0.00000000000E+00 0.  1.
          2   -1    0    0  502    0 -0.00000000000E+00 -0.00000000000E+00 -0.38954016176E+02  0.38954016176E+02  0.00000000000E+00 0. -1.
          2    1    1    2  501    0  0.32882579139E+01  0.20172140401E+02 -0.36195272017E+02  0.41567121681E+02  0.00000000000E+00 0. -1.
          2    1    1    2  502    0 -0.32882579139E+01 -0.20172140401E+02  0.14340515685E+04  0.14341972071E+04  0.00000000000E+00 0.  1.
</event>
<event>
 4    1  0.6210801E+003  0.5329315E+02  0.7546771E-02  0.1284493E+00
          2   -1    0    0  502    0  0.00000000000E+00  0.00000000000E+00  0.49743358914E+03  0.49743358914E+03  0.00000000000E+00 0. -1.
          2   -1    0    0  501    0 -0.00000000000E+00 -0.00000000000E+00 -0.30477751650E+03  0.30477751650E+03  0.00000000000E+00 0.  1.
          2    1    1    2  501    0 -0.25137475635E+02  0.46992205401E+02  0.49365872009E+03  0.49652703046E+03  0.00000000000E+00 0. -1.
          2    1    1    2  502    0  0.25137475635E+02 -0.46992205401E+02 -0.30100264745E+03  0.30568407519E+03  0.00000000000E+00 0.  1.
</event>
<event>
 4    1  0.6210801E+003  0.3393386E+02  0.7546771E-02  0.1388217E+00
          2   -1    0    0  502    0  0.00000000000E+00  0.00000000000E+00  0.62691650040E+01  0.62691650040E+01  0.00000000000E+00 0. -1.
          2   -1    0    0  501    0 -0.00000000000E+00 -0.00000000000E+00 -0.21046708003E+04  0.21046708003E+04  0.00000000000E+00 0.  1.
          2    1    1    2  501    0 -0.85547401162E+01  0.32837835803E+02 -0.40838334669E+02  0.53096860710E+02  0.00000000000E+00 0. -1.
          2    1    1    2  502    0  0.85547401162E+01 -0.32837835803E+02 -0.20575633006E+04  0.20578431046E+04  0.00000000000E+00 0.  1.
</event>
<event>
 4    1  0.6210801E+003  0.2107967E+02  0.7546771E-02  0.1518130E+00
          2   -1    0    0  501    0  0.00000000000E+00  0.00000000000E+00  0.60020413902E+02  0.60020413902E+02  0.00000000000E+00 0.  1.
          2   -1    0    0  502    0 -0.00000000000E+00 -0.00000000000E+00 -0.11084524941E+04  0.11084524941E+04  0.00000000000E+00 0.  1.
          2    1    1    2  501    0 -0.20016674028E+02  0.66094705576E+01 -0.11064981680E+04  0.11066989420E+04  0.00000000000E+00 0.  1.
          2    1    1    2  502    0  0.20016674028E+02 -0.66094705576E+01  0.58066087753E+02  0.61773966095E+02  0.00000000000E+00 0.  1.
</event>
<event>
 4    1  0.6210801E+003  0.3482763E+02  0.7546771E-02  0.1381779E+00
          2   -1    0    0  502    0  0.00000000000E+00  0.00000000000E+00  0.86474877994E+03  0.86474877994E+03  0.00000000000E+00 0.  1.
          2   -1    0    0  501    0 -0.00000000000E+00 -0.00000000000E+00 -0.60990147916E+01  0.60990147916E+01  0.00000000000E+00 0. -1.
          2    1    1    2  501    0 -0.32702505966E+02  0.11979574434E+02  0.81141168224E+03  0.81215877892E+03  0.00000000000E+00 0.  1.
          2    1    1    2  502    0  0.32702505966E+02 -0.11979574434E+02  0.47238082905E+02  0.58689015809E+02  0.00000000000E+00 0. -1.
</event>
<event>
 4    1  0.6210801E+003  0.2293290E+02  0.7546771E-02  0.1493342E+00
          2   -1    0    0  502    0  0.00000000000E+00  0.00000000000E+00  0.41592769202E+00  0.41592769202E+00  0.00000000000E+00 0.  1.
          2   -1    0    0  501    0 -0.00000000000E+00 -0.00000000000E+00 -0.14779184184E+04  0.14779184184E+04  0.00000000000E+00 0. -1.
          2    1    1    2  501    0  0.10958983843E+02 -0.20144939804E+02 -0.45782729587E+03  0.45840129883E+03  0.00000000000E+00 0.  1.
          2    1    1    2  502    0 -0.10958983843E+02  0.20144939804E+02 -0.10196751948E+04  0.10199330472E+04  0.00000000000E+00 0. -1.
</event>
<event>
 4    1  0.6210801E+003  0.2610827E+02  0.7546771E-02  0.1456777E+00
          2   -1    0    0  501    0  0.00000000000E+00  0.00000000000E+00  0.17009786489E+04  0.17009786489E+04  0.00000000000E+00 0.  1.
          2   -1    0    0  502    0 -0.00000000000E+00 -0.00000000000E+00 -0.40846474712E+01  0.40846474712E+01  0.00000000000E+00 0. -1.
          2    1    1    2  501    0 -0.15716204738E+02 -0.20848084541E+02  0.38814618539E+02  0.46778374627E+02  0.00000000000E+00 0. -1.
          2    1    1    2  502    0  0.15716204738E+02  0.20848084541E+02  0.16580793829E+04  0.16582849217E+04  0.00000000000E+00 0.  1.
</event>
<event>
 4    1  0.6210801E+003  0.6469208E+02  0.7546771E-02  0.1244673E+00
          2   -1    0    0  502    0  0.00000000000E+00  0.00000000000E+00  0.60690831735E+01  0.60690831735E+01  0.00000000000E+00 0.  1.
          2   -1    0    0  501    0 -0.00000000000E+00 -0.00000000000E+00 -0.83050264394E+03  0.83050264394E+03  0.00000000000E+00 0. -1.
          2    1    1    2  501    0  0.37956940151E+02 -0.52386406020E+02 -0.23990829683E+03  0.24847747529E+03  0.00000000000E+00 0. -1.
          2    1    1    2  502    0 -0.37956940151E+02  0.52386406020E+02 -0.58452526394E+03  0.58809425182E+03  0.00000000000E+00 0.  1.
</event>
<event>
 4    1  0.6210801E+003  0.6243180E+02  0.7546771E-02  0.1251787E+00
          2   -1    0    0  502    0  0.00000000000E+00  0.00000000000E+00  0.29503561546E+02  0.29503561546E+02  0.00000000000E+00 0. -1.
          2   -1    0    0  501    0 -0.00000000000E+00 -0.00000000000E+00 -0.28357674021E+04  0.28357674021E+04  0.00000000000E+00 0. -1.
          2    1    1    2  501    0 -0.55737168622E+02 -0.28126451289E+02 -0.42656708716E+01  0.62577353540E+02  0.00000000000E+00 0. -1.
          2    1    1    2  502    0  0.55737168622E+02  0.28126451289E+02 -0.28019981697E+04  0.28026936101E+04  0.00000000000E+00 0. -1.
</event>
<event>
 4    1  0.6210801E+003  0.2843341E+02  0.7546771E-02  0.1433717E+00
          2   -1    0    0  502    0  0.00000000000E+00  0.00000000000E+00  0.19015256510E+04  0.19015256510E+04  0.00000000000E+00 0.  1.
          2   -1    0    0  501    0 -0.00000000000E+00 -0.00000000000E+00 -0.10382612213E+01  0.10382612213E+01  0.00000000000E+00 0. -1.
          2    1    1    2  501    0 -0.26288944874E+02 -0.10832820487E+02  0.16812496582E+04  0.16814900749E+04  0.00000000000E+00 0.  1.
          2    1    1    2  502    0  0.26288944874E+02  0.10832820487E+02  0.21923773162E+03  0.22107383741E+03  0.00000000000E+00 0. -1.
</event>
<event>
 4    1  0.6210801E+003  0.2112717E+02  0.7546771E-02  0.1517457E+00
          2   -1    0    0  502    0  0.00000000000E+00  0.00000000000E+00  0.31951574443E+01  0.31951574443E+01  0.00000000000E+00 0.  1.
          2   -1    0    0  501    0 -0.00000000000E+00 -0.00000000000E+00 -0.58884537209E+03  0.58884537209E+03  0.00000000000E+00 0.  1.
          2    1    1    2  501    0 -0.14088736680E+02 -0.15743725018E+02 -0.34292575248E+02  0.40278258351E+02  0.00000000000E+00 0.  1.
          2    1    1    2  502    0  0.14088736680E+02  0.15743725018E+02 -0.55135763939E+03  0.55176227118E+03  0.00000000000E+00 0.  1.
</event>
<event>
 4    1  0.6210801E+003  0.2300740E+02  0.7546771E-02  0.1492405E+00
          2   -1    0    0  502    0  0.00000000000E+00  0.00000000000E+00  0.21697967801E+03  0.21697967801E+03  0.00000000000E+00 0. -1.
          2   -1    0    0  501    0 -0.00000000000E+00 -0.00000000000E+00 -0.88381090178E+01  0.88381090178E+01  0.00000000000E+00 0.  1.
          2    1    1    2  501    0 -0.20590432411E+02  0.10265209991E+02  0.20014091148E+03  0.20145899059E+03  0.00000000000E+00 0. -1.
          2    1    1    2  502    0  0.20590432411E+02 -0.10265209991E+02  0.80006575109E+01  0.24358796433E+02  0.00000000000E+00 0.  1.
</event>
<event>
 4    1  0.6210801E+003  0.4949958E+02  0.7546771E-02  0.1300357E+00
          2   -1    0    0  501    0  0.00000000000E+00  0.00000000000E+00  0.78197280635E+02  0.78197280635E+02  0.00000000000E+00 0. -1.
          2   -1    0    0  502    0 -0.00000000000E+00 -0.00000000000E+00 -0.12952144930E+03  0.12952144930E+03  0.00000000000E+00 0. -1.
          2    1    1    2  501    0 -0.49293009243E+02  0.45175102011E+01 -0.11609020587E+03  0.12620279140E+03  0.00000000000E+00 0. -1.
          2    1    1    2  502    0  0.49293009243E+02 -0.45175102011E+01  0.64766037209E+02  0.81515938529E+02  0.00000000000E+00 0. -1.
</event>
<event>
 4    1  0.6210801E+003  0.2118307E+02  0.7546771E-02  0.1516667E+00
          2   -1    0    0  501    0  0.00000000000E+00  0.00000000000E+00  0.18744459991E+03  0.18744459991E+03  0.00000000000E+00 0.  1.
          2   -1    0    0  502    0 -0.00000000000E+00 -0.00000000000E+00 -0.52882348540E+01  0.52882348540E+01  0.00000000000E+00 0.  1.
          2    1    1    2  501    0  0.18713631977E+02  0.99258464894E+01  0.19785459176E+02  0.28985976698E+02  0.00000000000E+00 0.  1.
          2    1    1    2  502    0 -0.18713631977E+02 -0.99258464894E+01  0.16237090588E+03  0.16374685807E+03  0.00000000000E+00 0.  1.
</event>
<event>
 4    1  0.6210801E+003  0.3361757E+02  0.7546771E-02  0.1390551E+00
          2   -1    0    0  502    0  0.00000000000E+00  0.00000000000E+00  0.13212678396E+04  0.13212678396E+04  0.00000000000E+00 0. -1.
          2   -1    0    0  501    0 -0.00000000000E+00 -0.00000000000E+00 -0.14669697294E+03  0.14669697294E+03  0.00000000000E+00 0.  1.
          2    1    1    2  501    0  0.22801052382E+02 -0.24703295822E+02  0.13191248965E+04  0.13195531946E+04  0.00000000000E+00 0. -1.
          2    1    1    2  502    0 -0.22801052382E+02  0.24703295822E+02 -0.14455402981E+03  0.14841161797E+03  0.00000000000E+00 0.  1.
</event>
<event>
 4    1  0.6210801E+003  0.2467553E+02  0.7546771E-02  0.1472466E+00
          2   -1    0    0  502    0  0.00000000000E+00  0.00000000000E+00  0.54464663333E+03  0.54464663333E+03  0.00000000000E+00 0. -1.
          2   -1    0    0  501    0 -0.00000000000E+00 -0.00000000000E+00 -0.13752464611E+01  0.13752464611E+01  0.00000000000E+00 0. -1.
          2    1    1    2  501    0  0.20361518351E+02  0.13938804296E+02  0.38972647571E+03  0.39050685981E+03  0.00000000000E+00 0. -1.
          2    1    1    2  502    0 -0.20361518351E+02 -0.13938804296E+02  0.15354491117E+03  0.15551501998E+03  0.00000000000E+00 0. -1.
</event>
<event>
 4    1  0.1214363E+004  0.2583669E+02  0.7546771E-02  0.1459657E+00
          2   -1    0    0  501    0  0.00000000000E+00  0.00000000000E+00  0.18587905925E+04  0.18587905925E+04  0.00000000000E+00 0.  1.
          2   -1    0    0  502    0 -0.00000000000E+00 -0.00000000000E+00 -0.55524681882E+03  0.55524681882E+03  0.00000000000E+00 0. -1.
          2    1    1    2  501    0 -0.21854188738E+02 -0.13781467299E+02 -0.55485641743E+03  0.55545762968E+03  0.00000000000E+00 0. -1.
          2    1    1    2  502    0  0.21854188738E+02  0.13781467299E+02  0.18584001911E+04  0.18585797816E+04  0.00000000000E+00 0.  1.
</event>
<event>
 4    1  0.6210801E+003  0.2501074E+02  0.7546771E-02  0.1468683E+00
          2   -1    0    0  501    0  0.00000000000E+00  0.00000000000E+00  0.92229208143E+02  0.92229208143E+02  0.00000000000E+00 0. -1.
          2   -1    0    0  502    0 -0.00000000000E+00 -0.00000000000E+00 -0.29040908182E+02  0.29040908182E+02  0.00000000000E+00 0. -1.
          2    1    1    2  501    0 -0.14451629868E+02 -0.20412929523E+02 -0.21490202680E+02  0.32975234780E+02  0.00000000000E+00 0. -1.
          2    1    1    2  502    0  0.14451629868E+02  0.20412929523E+02  0.84678502641E+02  0.88294881545E+02  0.00000000000E+00 0. -1.
</event>
<event>
 4    1  0.6210801E+003  0.2260686E+02  0.7546771E-02  0.1497495E+00
          2   -1    0    0  502    0  0.00000000000E+00  0.00000000000E+00  0.12189942787E+03  0.12189942787E+03  0.00000000000E+00 0. -1.
          2   -1    0    0  501    0 -0.00000000000E+00 -0.00000000000E+00 -0.32002502616E+02  0.32002502616E+02  0.00000000000E+00 0. -1.
          2    1    1    2  501    0 -0.58059704265E+01  0.21848586058E+02  0.11668199042E+03  0.11885182748E+03  0.00000000000E+00 0. -1.
          2    1    1    2  502    0  0.58059704265E+01 -0.21848586058E+02 -0.26785065165E+02  0.35050103014E+02  0.00000000000E+00 0. -1.
</event>
<event>
 4    1  0.6210801E+003  0.2531686E+02  0.7546771E-02  0.1465290E+00
          2   -1    0    0  502    0  0.00000000000E+00  0.00000000000E+00  0.10424353935E+04  0.10424353935E+04  0.00000000000E+00 0. -1.
          2   -1    0    0  501    0 -0.00000000000E+00 -0.00000000000E+00 -0.80863198180E+00  0.80863198180E+00  0.00000000000E+00 0.  1.
          2    1    1    2  501    0 -0.24556517641E+02  0.61579782324E+01  0.77616296702E+03  0.77657574944E+03  0.00000000000E+00 0. -1.
          2    1    1    2  502    0  0.24556517641E+02 -0.61579782324E+01  0.26546379454E+03  0.26666827608E+03  0.00000000000E+00 0.  1.
</event>
<event>
 4    1  0.6210801E+003  0.5312481E+02  0.7546771E-02  0.1285165E+00
          2   -1    0    0  502    0  0.00000000000E+00  0.00000000000E+00  0.95565779444E+02  0.95565779444E+02  0.00000000000E+00 0.  1.
          2   -1    0    0  501    0 -0.00000000000E+00 -0.00000000000E+00 -0.33676905693E+02  0.33676905693E+02  0.00000000000E+00 0.  1.
          2    1    1    2  501    0  0.40325107014E+02  0.34585128771E+02  0.53615347939E+02  0.75477486196E+02  0.00000000000E+00 0.  1.
          2    1    1    2  502    0 -0.40325107014E+02 -0.34585128771E+02  0.82735258116E+01  0.53765198941E+02  0.00000000000E+00 0.  1.
</event>
<event>
 4    1  0.6210801E+003  0.2053719E+02  0.7546771E-02  0.1525976E+00
          2   -1    0    0  501    0  0.00000000000E+00  0.00000000000E+00  0.21697781288E+02  0.21697781288E+02  0.00000000000E+00 0. -1.
          2   -1    0    0  502    0 -0.00000000000E+00 -0.00000000000E+00 -0.91426914621E+02  0.91426914621E+02  0.00000000000E+00 0. -1.
          2    1    1    2  501    0  0.93350786497E+01  0.18292966891E+02 -0.85055023013E+02  0.87499332974E+02  0.00000000000E+00 0. -1.
          2    1    1    2  502    0 -0.93350786497E+01 -0.18292966891E+02  0.15325889680E+02  0.25625362935E+02  0.00000000000E+00 0. -1.
</event>
<event>
 4    1  0.6210801E+003  0.6927250E+02  0.7546771E-02  0.1231214E+00
          2   -1    0    0  502    0  0.00000000000E+00  0.00000000000E+00  0.65647147419E+01  0.65647147419E+01  0.00000000000E+00 0.  1.
          2   -1    0    0  501    0 -0.00000000000E+00 -0.00000000000E+00 -0.73181787870E+03  0.73181787870E+03  0.00000000000E+00 0.  1.
          2    1    1    2  501    0  0.56740977493E+02  0.39738408352E+02 -0.37511378122E+03  0.38145645687E+03  0.00000000000E+00 0.  1.
          2    1    1    2  502    0 -0.56740977493E+02 -0.39738408352E+02 -0.35013938274E+03  0.35692613657E+03  0.00000000000E+00 0.  1.
</event>
<event>
 4    1  0.6210801E+003  0.2668346E+02  0.7546771E-02  0.1450814E+00
          2   -1    0    0  501    0  0.00000000000E+00  0.00000000000E+00  0.11408450550E+04  0.11408450550E+04  0.00000000000E+00 0. -1.
          2   -1    0    0  502    0 -0.00000000000E+00 -0.00000000000E+00 -0.26224207561E+01  0.26224207561E+01  0.00000000000E+00 0.  1.
          2    1    1    2  501    0 -0.60723768095E+01  0.25983331273E+02  0.70026136210E+02  0.74937754281E+02  0.00000000000E+00 0.  1.
          2    1    1    2  502    0  0.60723768095E+01 -0.25983331273E+02  0.10681964981E+04  0.10685297215E+04  0.00000000000E+00 0. -1.
</event>
<event>
 4    1  0.6210801E+003  0.6969213E+02  0.7546771E-02  0.1230040E+00
          2   -1    0    0  501    0  0.00000000000E+00  0.00000000000E+00  0.31064575284E+01  0.31064575284E+01  0.00000000000E+00 0. -1.
          2   -1    0    0  502    0 -0.00000000000E+00 -0.00000000000E+00 -0.18009007783E+04  0.18009007783E+04  0.00000000000E+00 0. -1.
          2    1    1    2  501    0 -0.49492764536E+02  0.49065862356E+02 -0.12263817278E+04  0.12283603440E+04  0.00000000000E+00 0. -1.
          2    1    1    2  502    0  0.49492764536E+02 -0.49065862356E+02 -0.57141259297E+03  0.57564689176E+03  0.00000000000E+00 0. -1.
</event>
<event>
 4    1  0.6210801E+003  0.3798824E+02  0.7546771E-02  0.1360696E+00
          2   -1    0    0  502    0  0.00000000000E+00  0.00000000000E+00  0.34255198730E+03  0.34255198730E+03  0.00000000000E+00 0.  1.
          2   -1    0    0  501    0 -0.00000000000E+00 -0.00000000000E+00 -0.60708975086E+01  0.60708975086E+01  0.00000000000E+00 0.  1.
          2    1    1    2  501    0 -0.34813622478E+02  0.15202561392E+02  0.26467508527E+03  0.26738737245E+03  0.00000000000E+00 0.  1.
          2    1    1    2  502    0  0.34813622478E+02 -0.15202561392E+02  0.71806004525E+02  0.81235512362E+02  0.00000000000E+00 0.  1.
</event>
<event>
 4    1  0.6210801E+003  0.2343608E+02  0.7546771E-02  0.1487094E+00
          2   -1    0    0  502    0  0.00000000000E+00  0.00000000000E+00  0.12623799775E+03  0.12623799775E+03  0.00000000000E+00 0. -1.
          2   -1    0    0  501    0 -0.00000000000E+00 -0.00000000000E+00 -0.73429658334E+03  0.73429658334E+03  0.00000000000E+00 0. -1.
          2    1    1    2  501    0 -0.22182691772E+02 -0.75616030150E+01  0.12496137881E+03  0.12714006390E+03  0.00000000000E+00 0. -1.
          2    1    1    2  502    0  0.22182691772E+02  0.75616030150E+01 -0.73301996440E+03  0.73339451720E+03  0.00000000000E+00 0. -1.
</event>
<event>
 4    1  0.6210801E+003  0.2066875E+02  0.7546771E-02  0.1524047E+00
          2   -1    0    0  502    0  0.00000000000E+00  0.00000000000E+00  0.23132448992E+02  0.23132448992E+02  0.00000000000E+00 0. -1.
          2   -1    0    0  501    0 -0.00000000000E+00 -0.00000000000E+00 -0.11803458362E+04  0.11803458362E+04  0.00000000000E+00 0. -1.
          2    1    1    2  501    0 -0.13614509942E+02  0.15551286508E+02  0.18406546567E+02  0.27676675189E+02  0.00000000000E+00 0. -1.
          2    1    1    2  502    0  0.13614509942E+02 -0.15551286508E+02 -0.11756199338E+04  0.11758016100E+04  0.00000000000E+00 0. -1.
</event>
<event>
 4    1  0.6210801E+003  0.2315120E+02  0.7546771E-02  0.1490608E+00
          2   -1    0    0  502    0  0.00000000000E+00  0.00000000000E+00  0.57532402118E+03  0.57532402118E+03  0.00000000000E+00 0.  1.
          2   -1    0    0  501    0 -0.00000000000E+00 -0.00000000000E+00 -0.76771814796E+02  0.76771814796E+02  0.00000000000E+00 0.  1.
          2    1    1    2  501    0 -0.21391358333E+02  0.88536916370E+01  0.57333971952E+03  0.57380694667E+03  0.00000000000E+00 0.  1.
          2    1    1    2  502    0  0.21391358333E+02 -0.88536916370E+01 -0.74787513138E+02  0.78288889303E+02  0.00000000000E+00 0.  1.
</event>
<event>
 4    1  0.6210801E+003  0.3440001E+02  0.7546771E-02  0.1384831E+00
          2   -1    0    0  502    0  0.00000000000E+00  0.00000000000E+00  0.30648076999E+03  0.30648076999E+03  0.00000000000E+00 0.  1.
          2   -1    0    0  501    0 -0.00000000000E+00 -0.00000000000E+00 -0.64920279334E+03  0.64920279334E+03  0.00000000000E+00 0. -1.
          2    1    1    2  501    0 -0.28126828828E+02  0.19805111753E+02  0.30505767157E+03  0.30699111377E+03  0.00000000000E+00 0.  1.
          2    1    1    2  502    0  0.28126828828E+02 -0.19805111753E+02 -0.64777969492E+03  0.64869244955E+03  0.00000000000E+00 0. -1.
</event>
<event>
 4    1  0.6210801E+003  0.2071551E+02  0.7546771E-02  0.1523366E+00
          2   -1    0    0  501    0  0.00000000000E+00  0.00000000000E+00  0.27546317907E+03  0.27546317907E+03  0.00000000000E+00 0. -1.
          2   -1    0    0  502    0 -0.00000000000E+00 -0.00000000000E+00 -0.19828410206E+03  0.19828410206E+03  0.00000000000E+00 0.  1.
          2    1    1    2  501    0  0.17295648766E+02  0.11401444235E+02 -0.19735174526E+03  0.19843599410E+03  0.00000000000E+00 0.  1.
          2    1    1    2  502    0 -0.17295648766E+02 -0.11401444235E+02  0.27453082226E+03  0.27531128704E+03  0.00000000000E+00 0. -1.
</event>
<event>
 4    1  0.6210801E+003  0.2502767E+02  0.7546771E-02  0.1468494E+00
          2   -1    0    0  502    0  0.00000000000E+00  0.00000000000E+00  0.15781851906E+03  0.15781851906E+03  0.00000000000E+00 0. -1.
          2   -1    0    0  501    0 -0.00000000000E+00 -0.00000000000E+00 -0.30205273185E+02  0.30205273185E+02  0.00000000000E+00 0. -1.
          2    1    1    2  501    0  0.21574709929E+02 -0.12685269604E+02  0.15142442826E+03  0.15347879869E+03  0.00000000000E+00 0. -1.
          2    1    1    2  502    0 -0.21574709929E+02  0.12685269604E+02 -0.23811182382E+02  0.34544993557E+02  0.00000000000E+00 0. -1.
</event>
<event>
 4    1  0.6210801E+003  0.4066471E+02  0.7546771E-02  0.1344634E+00
          2   -1    0    0  502    0  0.00000000000E+00  0.00000000000E+00  0.44741249396E+01  0.44741249396E+01  0.00000000000E+00 0. -1.
          2   -1    0    0  501    0 -0.00000000000E+00 -0.00000000000E+00 -0.37622126346E+03  0.37622126346E+03  0.00000000000E+00 0. -1.
          2    1    1    2  501    0 -0.18541368723E+02  0.36191659192E+02 -0.16061385143E+03  0.16568170635E+03  0.00000000000E+00 0. -1.
          2    1    1    2  502    0  0.18541368723E+02 -0.36191659192E+02 -0.21113328709E+03  0.21501368205E+03  0.00000000000E+00 0. -1.
</event>
<event>
 4    1  0.6210801E+003  0.2074822E+02  0.7546771E-02  0.1522890E+00
          2   -1    0    0  502    0  0.00000000000E+00  0.00000000000E+00  0.48505409159E+03  0.48505409159E+03  0.00000000000E+00 0. -1.
          2   -1    0    0  501    0 -0.00000000000E+00 -0.00000000000E+00 -0.20205905057E+01  0.20205905057E+01  0.00000000000E+00 0. -1.
          2    1    1    2  501    0 -0.19054424624E+02 -0.82108255098E+01  0.42388844090E+03  0.42439592256E+03  0.00000000000E+00 0. -1.
          2    1    1    2  502    0  0.19054424624E+02  0.82108255098E+01  0.59145060187E+02  0.62678759543E+02  0.00000000000E+00 0. -1.
</event>
<event>
 4    1  0.6210801E+003  0.3860094E+02  0.7546771E-02  0.1356885E+00
          2   -1    0    0  501    0  0.00000000000E+00  0.00000000000E+00  0.69864741824E+03  0.69864741824E+03  0.00000000000E+00 0.  1.
          2   -1    0    0  502    0 -0.00000000000E+00 -0.00000000000E+00 -0.22265968113E+01  0.22265968113E+01  0.00000000000E+00 0.  1.
          2    1    1    2  501    0  0.25194438420E+02 -0.29245044782E+02  0.27626135032E+03  0.27894509505E+03  0.00000000000E+00 0.  1.
          2    1    1    2  502    0 -0.25194438420E+02  0.29245044782E+02  0.42015947111E+03  0.42192892001E+03  0.00000000000E+00 0.  1.
</event>
<event>
 4    1  0.6210801E+003  0.2350983E+02  0.7546771E-02  0.1486194E+00
          2   -1    0    0  502    0  0.00000000000E+00  0.00000000000E+00  0.13068707203E+04  0.13068707203E+04  0.00000000000E+00 0.  1.
          2   -1    0    0  501    0 -0.00000000000E+00 -0.00000000000E+00 -0.96720087940E+00  0.96720087940E+00  0.00000000000E+00 0. -1.
          2    1    1    2  501    0  0.12619308746E+02 -0.19835953421E+02  0.11434912806E+04  0.11437329325E+04  0.00000000000E+00 0.  1.
          2    1    1    2  502    0 -0.12619308746E+02  0.19835953421E+02  0.16241223876E+03  0.16410498865E+03  0.00000000000E+00 0. -1.
</event>
<event>
 4    1  0.6210801E+003  0.3964979E+02  0.7546771E-02  0.1350550E+00
          2   -1    0    0  502    0  0.00000000000E+00  0.00000000000E+00  0.17847177728E+03  0.17847177728E+03  0.00000000000E+00 0.  1.
          2   -1    0    0  501    0 -0.00000000000E+00 -0.00000000000E+00 -0.14197325068E+02  0.14197325068E+02  0.00000000000E+00 0. -1.
          2    1    1    2  501    0 -0.25106399241E+02 -0.30688342610E+02  0.14148678602E+03  0.14693745701E+03  0.00000000000E+00 0.  1.
          2    1    1    2  502    0  0.25106399241E+02  0.30688342610E+02  0.22787666199E+02  0.45731645343E+02  0.00000000000E+00 0. -1.
</event>
<event>
 4    1  0.6210801E+003  0.2484936E+02  0.7546771E-02  0.1470496E+00
          2   -1    0    0  502    0  0.00000000000E+00  0.00000000000E+00  0.91825371493E+02  0.91825371493E+02  0.00000000000E+00 0.  1.
          2   -1    0    0  501    0 -0.00000000000E+00 -0.00000000000E+00 -0.67777129401E+03  0.67777129401E+03  0.00000000000E+00 0.  1.
          2    1    1    2  501    0  0.85643051216E+01  0.23326882305E+02  0.89911692692E+02  0.93282384420E+02  0.00000000000E+00 0.  1.
          2    1    1    2  502    0 -0.85643051216E+01 -0.23326882305E+02 -0.67585761521E+03  0.67631428108E+03  0.00000000000E+00 0.  1.
</event>
<event>
 4    1  0.6210801E+003  0.2275533E+02  0.7546771E-02  0.1495594E+00
          2   -1    0    0  502    0  0.00000000000E+00  0.00000000000E+00  0.16862246174E+02  0.16862246174E+02  0.00000000000E+00 0. -1.
          2   -1    0    0  501    0 -0.00000000000E+00 -0.00000000000E+00 -0.37189589936E+03  0.37189589936E+03  0.00000000000E+00 0.  1.
          2    1    1    2  501    0  0.20361931060E+02  0.10158583109E+02  0.86642990714E+01  0.24349027201E+02  0.00000000000E+00 0. -1.
          2    1    1    2  502    0 -0.20361931060E+02 -0.10158583109E+02 -0.36369795226E+03  0.36440911833E+03  0.00000000000E+00 0.  1.
</event>
<event>
 4    1  0.6210801E+003  0.2363590E+02  0.7546771E-02  0.1484664E+00
          2   -1    0    0  502    0  0.00000000000E+00  0.00000000000E+00  0.26528427260E+01  0.26528427260E+01  0.00000000000E+00 0.  1.
          2   -1    0    0  501    0 -0.00000000000E+00 -0.00000000000E+00 -0.12751636301E+04  0.12751636301E+04  0.00000000000E+00 0. -1.
          2    1    1    2  501    0 -0.17666786751E+02  0.15701600439E+02 -0.52482557054E+02  0.57559312065E+02  0.00000000000E+00 0.  1.
          2    1    1    2  502    0  0.17666786751E+02 -0.15701600439E+02 -0.12200282304E+04  0.12202571608E+04  0.00000000000E+00 0. -1.
</event>
<event>
 4    1  0.1001341E+004  0.3940295E+02  0.7546771E-02  0.1352020E+00
          2   -1    0    0  501    0  0.00000000000E+00  0.00000000000E+00  0.18637082671E+04  0.18637082671E+04  0.00000000000E+00 0. -1.
          2   -1    0    0  502    0 -0.00000000000E+00 -0.00000000000E+00 -0.80500310612E+03  0.80500310612E+03  0.00000000000E+00 0. -1.
          2    1    1    2  501    0 -0.39400481131E+02 -0.44077418611E+00 -0.80431249125E+03  0.80527708012E+03  0.00000000000E+00 0. -1.
          2    1    1    2  502    0  0.39400481131E+02  0.44077418611E+00  0.18630176522E+04  0.18634342931E+04  0.00000000000E+00 0. -1.
</event>
<event>
 4    1  0.6210801E+003  0.3213284E+02  0.7546771E-02  0.1401924E+00
          2   -1    0    0  502    0  0.00000000000E+00  0.00000000000E+00  0.38149064278E+02  0.38149064278E+02  0.00000000000E+00 0. -1.
          2   -1    0    0  501    0 -0.00000000000E+00 -0.00000000000E+00 -0.39315697628E+03  0.39315697628E+03  0.00000000000E+00 0. -1.
          2    1    1    2  501    0 -0.40211232231E+01 -0.31880240532E+02  0.30593814713E+02  0.44367788620E+02  0.00000000000E+00 0. -1.
          2    1    1    2  502    0  0.40211232231E+01  0.31880240532E+02 -0.38560172672E+03  0.38693825194E+03  0.00000000000E+00 0. -1.
</event>
<event>
 4    1  0.6210801E+003  0.2353437E+02  0.7546771E-02  0.1485895E+00
          2   -1    0    0  501    0  0.00000000000E+00  0.00000000000E+00  0.15923478098E+04  0.15923478098E+04  0.00000000000E+00 0.  1.
          2   -1    0    0  502    0 -0.00000000000E+00 -0.00000000000E+00 -0.79409182752E+01  0.79409182752E+01  0.00000000000E+00 0. -1.
          2    1    1    2  501    0 -0.28998138208E-01  0.23534352201E+02  0.97793664056E+01  0.25485340526E+02  0.00000000000E+00 0. -1.
          2    1    1    2  502    0  0.28998138208E-01 -0.23534352201E+02  0.15746275251E+04  0.15748033875E+04  0.00000000000E+00 0.  1.
</event>
<event>
 4    1  0.6210801E+003  0.2337121E+02  0.7546771E-02  0.1487889E+00
          2   -1    0    0  502    0  0.00000000000E+00  0.00000000000E+00  0.67782861506E+02  0.67782861506E+02  0.00000000000E+00 0. -1.
          2   -1    0    0  501    0 -0.00000000000E+00 -0.00000000000E+00 -0.48117106551E+02  0.48117106551E+02  0.00000000000E+00 0.  1.
          2    1    1    2  501    0  0.13342507558E+02  0.19188302158E+02  0.62708155838E+02  0.66921792088E+02  0.00000000000E+00 0. -1.
          2    1    1    2  502    0 -0.13342507558E+02 -0.19188302158E+02 -0.43042400882E+02  0.48978175970E+02  0.00000000000E+00 0.  1.
</event>
<event>
 4    1  0.6210801E+003  0.2943517E+02  0.7546771E-02  0.1424569E+00
          2   -1    0    0  502    0  0.00000000000E+00  0.00000000000E+00  0.10840318558E+04  0.10840318558E+04  0.00000000000E+00 0.  1.
          2   -1    0    0  501    0 -0.00000000000E+00 -0.00000000000E+00 -0.28379006071E+01  0.28379006071E+01  0.00000000000E+00 0.  1.
          2    1    1    2  501    0 -0.60312995389E+01  0.28810630095E+02  0.10011914219E+04  0.10016240274E+04  0.00000000000E+00 0.  1.
          2    1    1    2  502    0  0.60312995389E+01 -0.28810630095E+02  0.80002533299E+02  0.85245729012E+02  0.00000000000E+00 0.  1.
</event>
<event>
 4    1  0.6210801E+003  0.2244181E+02  0.7546771E-02  0.1499629E+00
          2   -1    0    0  502    0  0.00000000000E+00  0.00000000000E+00  0.19501388473E+03  0.19501388473E+03  0.00000000000E+00 0. -1.
          2   -1    0    0  501    0 -0.00000000000E+00 -0.00000000000E+00 -0.15890370265E+03  0.15890370265E+03  0.00000000000E+00 0.  1.
          2    1    1    2  501    0 -0.42613982956E+01 -0.22033506919E+02  0.19356999547E+03  0.19486656483E+03  0.00000000000E+00 0. -1.
          2    1    1    2  502    0  0.42613982956E+01  0.22033506919E+02 -0.15745981339E+03  0.15905102255E+03  0.00000000000E+00 0.  1.
</event>
<event>
 4    1  0.6210801E+003  0.3462412E+02  0.7546771E-02  0.1383225E+00
          2   -1    0    0  501    0  0.00000000000E+00  0.00000000000E+00  0.12830972279E+04  0.12830972279E+04  0.00000000000E+00 0.  1.
          2   -1    0    0  502    0 -0.00000000000E+00 -0.00000000000E+00 -0.14548693772E+02  0.14548693772E+02  0.00000000000E+00 0.  1.
          2    1    1    2  501    0 -0.24321622183E+02 -0.24643221049E+02  0.66308671646E+01  0.35253340957E+02  0.00000000000E+00 0.  1.
          2    1    1    2  502    0  0.24321622183E+02  0.24643221049E+02  0.12619176669E+04  0.12623925807E+04  0.00000000000E+00 0.  1.
</event>
<event>
 4    1  0.6210801E+003  0.4338496E+02  0.7546771E-02  0.1329716E+00
          2   -1    0    0  502    0  0.00000000000E+00  0.00000000000E+00  0.23535692467E+03  0.23535692467E+03  0.00000000000E+00 0.  1.
          2   -1    0    0  501    0 -0.00000000000E+00 -0.00000000000E+00 -0.53726788560E+03  0.53726788560E+03  0.00000000000E+00 0. -1.
          2    1    1    2  501    0 -0.39805351264E+02 -0.17256551934E+02  0.23247093737E+03  0.23648465341E+03  0.00000000000E+00 0.  1.
          2    1    1    2  502    0  0.39805351264E+02  0.17256551934E+02 -0.53438189830E+03  0.53614015686E+03  0.00000000000E+00 0. -1.
</event>
<event>
 4    1  0.6210801E+003  0.3016709E+02  0.7546771E-02  0.1418150E+00
          2   -1    0    0  502    0  0.00000000000E+00  0.00000000000E+00  0.22532496957E+02  0.22532496957E+02  0.00000000000E+00 0. -1.
          2   -1    0    0  501    0 -0.00000000000E+00 -0.00000000000E+00 -0.20993923829E+04  0.20993923829E+04  0.00000000000E+00 0. -1.
          2    1    1    2  501    0  0.78361456061E+01 -0.29131568008E+02  0.12277442798E+02  0.32569756435E+02  0.00000000000E+00 0. -1.
          2    1    1    2  502    0 -0.78361456061E+01  0.29131568008E+02 -0.20891373288E+04  0.20893551234E+04  0.00000000000E+00 0. -1.
</event>
<event>
 4    1  0.6210801E+003  0.2096184E+02  0.7546771E-02  0.1519810E+00
          2   -1    0    0  501    0  0.00000000000E+00  0.00000000000E+00  0.13142043309E+04  0.13142043309E+04  0.00000000000E+00 0.  1.
          2   -1    0    0  502    0 -0.00000000000E+00 -0.00000000000E+00 -0.47712091223E+00  0.47712091223E+00  0.00000000000E+00 0.  1.
          2    1    1    2  501    0 -0.10866047551E+02 -0.17925615819E+02  0.29727776899E+03  0.29801588989E+03  0.00000000000E+00 0.  1.
          2    1    1    2  502    0  0.10866047551E+02  0.17925615819E+02  0.10164494410E+04  0.10166655619E+04  0.00000000000E+00 0.  1.
</event>
<event>
 4    1  0.6210801E+003  0.2012700E+02  0.7546771E-02  0.1532103E+00
          2   -1    0    0  502    0  0.00000000000E+00  0.00000000000E+00  0.71328474097E+00  0.71328474097E+00  0.00000000000E+00 0. -1.
          2   -1    0    0  501    0 -0.00000000000E+00 -0.00000000000E+00 -0.68146378907E+03  0.68146378907E+03  0.00000000000E+00 0.  1.
          2    1    1    2  501    0  0.78633378432E+01 -0.18527388297E+02 -0.47959704945E+03  0.48001919341E+03  0.00000000000E+00 0. -1.
          2    1    1    2  502    0 -0.78633378432E+01  0.18527388297E+02 -0.20115345488E+03  0.20215788040E+03  0.00000000000E+00 0.  1.
</event>
<event>
 4    1  0.6210801E+003  0.2502641E+02  0.7546771E-02  0.1468508E+00
          2   -1    0    0  502    0  0.00000000000E+00  0.00000000000E+00  0.20900202963E+01  0.20900202963E+01  0.00000000000E+00 0.  1.
          2   -1    0    0  501    0 -0.00000000000E+00 -0.00000000000E+00 -0.44135236362E+03  0.44135236362E+03  0.00000000000E+00 0.  1.
          2    1    1    2  501    0 -0.20991682318E+02  0.13626095237E+02 -0.94008263949E+02  0.97282449027E+02  0.00000000000E+00 0.  1.
          2    1    1    2  502    0  0.20991682318E+02 -0.13626095237E+02 -0.34525407937E+03  0.34615993489E+03  0.00000000000E+00 0.  1.
</event>
<event>
 4    1  0.6210801E+003  0.2013284E+02  0.7546771E-02  0.1532015E+00
          2   -1    0    0  502    0  0.00000000000E+00  0.00000000000E+00  0.12720696597E+02  0.12720696597E+02  0.00000000000E+00 0.  1.
          2   -1    0    0  501    0 -0.00000000000E+00 -0.00000000000E+00 -0.72948384079E+02  0.72948384079E+02  0.00000000000E+00 0. -1.
          2    1    1    2  501    0  0.22271424569E+01 -0.20009274492E+02  0.20320199008E+01  0.20235126243E+02  0.00000000000E+00 0.  1.
          2    1    1    2  502    0 -0.22271424569E+01  0.20009274492E+02 -0.62259707383E+02  0.65433954433E+02  0.00000000000E+00 0. -1.
</event>
<event>
 4    1  0.6210801E+003  0.2156595E+02  0.7546771E-02  0.1511336E+00
          2   -1    0    0  501    0  0.00000000000E+00  0.00000000000E+00  0.33858795361E+01  0.33858795361E+01  0.00000000000E+00 0.  1.
          2   -1    0    0  502    0 -0.00000000000E+00 -0.00000000000E+00 -0.12354390970E+04  0.12354390970E+04  0.00000000000E+00 0.  1.
          2    1    1    2  501    0  0.77022002158E+01  0.20143642502E+02 -0.11999901850E+04  0.12001839586E+04  0.00000000000E+00 0.  1.
          2    1    1    2  502    0 -0.77022002158E+01 -0.20143642502E+02 -0.32063032449E+02  0.38641017989E+02  0.00000000000E+00 0.  1.
</event>
<event>
 4    1  0.6210801E+003  0.3371041E+02  0.7546771E-02  0.1389863E+00
          2   -1    0    0  502    0  0.00000000000E+00  0.00000000000E+00  0.42947771593E+01  0.42947771593E+01  0.00000000000E+00 0. -1.
          2   -1    0    0  501    0 -0.00000000000E+00 -0.00000000000E+00 -0.26709591249E+03  0.26709591249E+03  0.00000000000E+00 0. -1.
          2    1    1    2  501    0 -0.28612592906E+02  0.17824449299E+02 -0.11827920103E+03  0.12298927133E+03  0.00000000000E+00 0. -1.
          2    1    1    2  502    0  0.28612592906E+02 -0.17824449299E+02 -0.14452193430E+03  0.14840141832E+03  0.00000000000E+00 0. -1.
</event>
<event>
 4    1  0.6210801E+003  0.3807338E+02  0.7546771E-02  0.1360161E+00
          2   -1    0    0  501    0  0.00000000000E+00  0.00000000000E+00  0.11867721595E+04  0.11867721595E+04  0.00000000000E+00 0. -1.
          2   -1    0    0  502    0 -0.00000000000E+00 -0.00000000000E+00 -0.13239920954E+01  0.13239920954E+01  0.00000000000E+00 0. -1.
          2    1    1    2  501    0  0.26762079481E+02  0.27080867155E+02  0.42740193379E+03  0.42909438969E+03  0.00000000000E+00 0. -1.
          2    1    1    2  502    0 -0.26762079481E+02 -0.27080867155E+02  0.75804623362E+03  0.75900176190E+03  0.00000000000E+00 0. -1.
</event>
<event>
 4    1  0.6210801E+003  0.3207439E+02  0.7546771E-02  0.1402387E+00
          2   -1    0    0  501    0  0.00000000000E+00  0.00000000000E+00  0.14134307672E+04  0.14134307672E+04  0.00000000000E+00 0. -1.
          2   -1    0    0  502    0 -0.00000000000E+00 -0.00000000000E+00 -0.76442089752E+00  0.76442089752E+00  0.00000000000E+00 0. -1.
          2    1    1    2  501    0  0.30599943300E+02  0.96130122641E+01  0.55167356736E+03  0.55260518587E+03  0.00000000000E+00 0. -1.
          2    1    1    2  502    0 -0.30599943300E+02 -0.96130122641E+01  0.86099277899E+03  0.86159000227E+03  0.00000000000E+00 0. -1.
</event>
<event>
 4    1  0.6210801E+003  0.2100004E+02  0.7546771E-02  0.1519264E+00
          2   -1    0    0  502    0  0.00000000000E+00  0.00000000000E+00  0.50653028622E+03  0.50653028622E+03  0.00000000000E+00 0.  1.
          2   -1    0    0  501    0 -0.00000000000E+00 -0.00000000000E+00 -0.46677425342E+03  0.46677425342E+03  0.00000000000E+00 0.  1.
          2    1    1    2  501    0 -0.13865557716E+02 -0.15771749091E+02  0.50607621976E+03  0.50651173922E+03  0.00000000000E+00 0.  1.
          2    1    1    2  502    0  0.13865557716E+02  0.15771749091E+02 -0.46632018696E+03  0.46679280042E+03  0.00000000000E+00 0.  1.
</event>
<event>
 4    1  0.6210801E+003  0.2330008E+02  0.7546771E-02  0.1488764E+00
          2   -1    0    0  502    0  0.00000000000E+00  0.00000000000E+00  0.36463498559E+03  0.36463498559E+03  0.00000000000E+00 0. -1.
          2   -1    0    0  501    0 -0.00000000000E+00 -0.00000000000E+00 -0.41226411268E+01  0.41226411268E+01  0.00000000000E+00 0.  1.
          2    1    1    2  501    0  0.18101595787E+02  0.14670586956E+02  0.32762726746E+03  0.32845474616E+03  0.00000000000E+00 0. -1.
          2    1    1    2  502    0 -0.18101595787E+02 -0.14670586956E+02  0.32885077002E+02  0.40302880556E+02  0.00000000000E+00 0.  1.
</event>
<event>
 4    1  0.6210801E+003  0.2054235E+02  0.7546771E-02  0.1525900E+00
          2   -1    0    0  501    0  0.00000000000E+00  0.00000000000E+00  0.53146051787E+01  0.53146051787E+01  0.00000000000E+00 0.  1.
          2   -1    0    0  502    0 -0.00000000000E+00 -0.00000000000E+00 -0.80458600162E+03  0.80458600162E+03  0.00000000000E+00 0.  1.
          2    1    1    2  501    0 -0.14572636901E+02  0.14478482155E+02 -0.78408556739E+03  0.78435461699E+03  0.00000000000E+00 0.  1.
          2    1    1    2  502    0  0.14572636901E+02 -0.14478482155E+02 -0.15185829052E+02  0.25545989818E+02  0.00000000000E+00 0.  1.
</event>
<event>
 4    1  0.6210801E+003  0.5507165E+02  0.7546771E-02  0.1277564E+00
          2   -1    0    0  501    0  0.00000000000E+00  0.00000000000E+00  0.23807732024E+04  0.23807732024E+04  0.00000000000E+00 0.  1.
          2   -1    0    0  502    0 -0.00000000000E+00 -0.00000000000E+00 -0.17220683675E+01  0.17220683675E+01  0.00000000000E+00 0.  1.
          2    1    1    2  501    0  0.51490946209E+01  0.54830403990E+02  0.58181958717E+03  0.58442015570E+03  0.00000000000E+00 0.  1.
          2    1    1    2  502    0 -0.51490946209E+01 -0.54830403990E+02  0.17972315469E+04  0.17980751151E+04  0.00000000000E+00 0.  1.
</event>
<event>
 4    1  0.6210801E+003  0.2822613E+02  0.7546771E-02  0.1435666E+00
          2   -1    0    0  502    0  0.00000000000E+00  0.00000000000E+00  0.80374622556E+02  0.80374622556E+02  0.00000000000E+00 0. -1.
          2   -1    0    0  501    0 -0.00000000000E+00 -0.00000000000E+00 -0.72638635746E+03  0.72638635746E+03  0.00000000000E+00 0. -1.
          2    1    1    2  501    0  0.13290487776E+02  0.24901348980E+02  0.77612835925E+02  0.82586115944E+02  0.00000000000E+00 0. -1.
          2    1    1    2  502    0 -0.13290487776E+02 -0.24901348980E+02 -0.72362457083E+03  0.72417486407E+03  0.00000000000E+00 0. -1.
</event>
<event>
 4    1  0.6210801E+003  0.2015573E+02  0.7546771E-02  0.1531668E+00
          2   -1    0    0  502    0  0.00000000000E+00  0.00000000000E+00  0.26636916195E+02  0.26636916195E+02  0.00000000000E+00 0.  1.
          2   -1    0    0  501    0 -0.00000000000E+00 -0.00000000000E+00 -0.19531869783E+03  0.19531869783E+03  0.00000000000E+00 0.  1.
          2    1    1    2  501    0 -0.90467167626E+01 -0.18011390140E+02  0.22215994291E+02  0.29996727510E+02  0.00000000000E+00 0.  1.
          2    1    1    2  502    0  0.90467167626E+01  0.18011390140E+02 -0.19089777593E+03  0.19195888652E+03  0.00000000000E+00 0.  1.
</event>
<event>
 4    1  0.6210801E+003  0.2907140E+02  0.7546771E-02  0.1427841E+00
          2   -1    0    0  501    0  0.00000000000E+00  0.00000000000E+00  0.18444462614E+04  0.18444462614E+04  0.00000000000E+00 0. -1.
          2   -1    0    0  502    0 -0.00000000000E+00 -0.00000000000E+00 -0.26795583074E+01  0.26795583074E+01  0.00000000000E+00 0.  1.
          2    1    1    2  501    0  0.28783718663E+02  0.40797042898E+01  0.79985846973E+02  0.85105124188E+02  0.00000000000E+00 0.  1.
          2    1    1    2  502    0 -0.28783718663E+02 -0.40797042898E+01  0.17617808562E+04  0.17620206956E+04  0.00000000000E+00 0. -1.
</event>
<event>
 4    1  0.6210801E+003  0.4152906E+02  0.7546771E-02  0.1339751E+00
          2   -1    0    0  501    0  0.00000000000E+00  0.00000000000E+00  0.28118868632E+03  0.28118868632E+03  0.00000000000E+00 0.  1.
          2   -1    0    0  502    0 -0.00000000000E+00 -0.00000000000E+00 -0.71380226413E+03  0.71380226413E+03  0.00000000000E+00 0.  1.
          2    1    1    2  501    0 -0.39657663816E+02 -0.12326099123E+02 -0.71166024381E+03  0.71287093197E+03  0.00000000000E+00 0.  1.
          2    1    1    2  502    0  0.39657663816E+02  0.12326099123E+02  0.27904666600E+03  0.28212001848E+03  0.00000000000E+00 0.  1.
</event>
<event>
 4    1  0.6210801E+003  0.2712595E+02  0.7546771E-02  0.1446347E+00
          2   -1    0    0  502    0  0.00000000000E+00  0.00000000000E+00  0.56889962700E+03  0.56889962700E+03  0.00000000000E+00 0. -1.
          2   -1    0    0  501    0 -0.00000000000E+00 -0.00000000000E+00 -0.14076834748E+01  0.14076834748E+01  0.00000000000E+00 0. -1.
          2    1    1    2  501    0 -0.25943932653E+02 -0.79201944324E+01  0.36499353171E+03  0.36600013020E+03  0.00000000000E+00 0. -1.
          2    1    1    2  502    0  0.25943932653E+02  0.79201944324E+01  0.20249841182E+03  0.20430718027E+03  0.00000000000E+00 0. -1.
</event>
<event>
 4    1  0.6210801E+003  0.2456691E+02  0.7546771E-02  0.1473707E+00
          2   -1    0    0  502    0  0.00000000000E+00  0.00000000000E+00  0.54591178380E+03  0.54591178380E+03  0.00000000000E+00 0.  1.
          2   -1    0    0  501    0 -0.00000000000E+00 -0.00000000000E+00 -0.18875996639E+03  0.18875996639E+03  0.00000000000E+00 0. -1.
          2    1    1    2  501    0 -0.24270872060E+02 -0.38023629077E+01  0.54483447686E+03  0.54538806402E+03  0.00000000000E+00 0.  1.
          2    1    1    2  502    0  0.24270872060E+02  0.38023629077E+01 -0.18768265945E+03  0.18928368618E+03  0.00000000000E+00 0. -1.
</event>
<event>
 4    1  0.6210801E+003  0.2763800E+02  0.7546771E-02  0.1441302E+00
          2   -1    0    0  501    0  0.00000000000E+00  0.00000000000E+00  0.87145431648E+02  0.87145431648E+02  0.00000000000E+00 0. -1.
          2   -1    0    0  502    0 -0.00000000000E+00 -0.00000000000E+00 -0.42866358015E+02  0.42866358015E+02  0.00000000000E+00 0. -1.
          2    1    1    2  501    0 -0.14232760643E+02  0.23691512400E+02 -0.35840451974E+02  0.45259222629E+02  0.00000000000E+00 0. -1.
          2    1    1    2  502    0  0.14232760643E+02 -0.23691512400E+02  0.80119525607E+02  0.84752567034E+02  0.00000000000E+00 0. -1.
</event>
<event>
 4    1  0.6210801E+003  0.2026868E+02  0.7546771E-02  0.1529967E+00
          2   -1    0    0  502    0  0.00000000000E+00  0.00000000000E+00  0.51733024137E+01  0.51733024137E+01  0.00000000000E+00 0.  1.
          2   -1    0    0  501    0 -0.00000000000E+00 -0.00000000000E+00 -0.66689664542E+03  0.66689664542E+03  0.00000000000E+00 0.  1.
          2    1    1    2  501    0 -0.62538108735E+01  0.19279760260E+02 -0.15467482533E+02  0.25496319774E+02  0.00000000000E+00 0.  1.
          2    1    1    2  502    0  0.62538108735E+01 -0.19279760260E+02 -0.64625586047E+03  0.64657362806E+03  0.00000000000E+00 0.  1.
</event>
<event>
 4    1  0.6210801E+003  0.3089256E+02  0.7546771E-02  0.1411995E+00
          2   -1    0    0  501    0  0.00000000000E+00  0.00000000000E+00  0.49586649180E+02  0.49586649180E+02  0.00000000000E+00 0.  1.
          2   -1    0    0  502    0 -0.00000000000E+00 -0.00000000000E+00 -0.20270512069E+02  0.20270512069E+02  0.00000000000E+00 0.  1.
          2    1    1    2  501    0 -0.25489878531E+02  0.17453270033E+02  0.68060389212E+01  0.31633411264E+02  0.00000000000E+00 0.  1.
          2    1    1    2  502    0  0.25489878531E+02 -0.17453270033E+02  0.22510098191E+02  0.38223749985E+02  0.00000000000E+00 0.  1.
</event>
<event>
 4    1  0.6210801E+003  0.2387542E+02  0.7546771E-02  0.1481789E+00
          2   -1    0    0  502    0  0.00000000000E+00  0.00000000000E+00  0.86084773851E+03  0.86084773851E+03  0.00000000000E+00 0.  1.
          2   -1    0    0  501    0 -0.00000000000E+00 -0.00000000000E+00 -0.28787581121E+03  0.28787581121E+03  0.00000000000E+00 0. -1.
          2    1    1    2  501    0  0.23331084358E+02  0.50691484348E+01  0.86018677714E+03  0.86051805752E+03  0.00000000000E+00 0.  1.
          2    1    1    2  502    0 -0.23331084358E+02 -0.50691484348E+01 -0.28721484984E+03  0.28820549220E+03  0.00000000000E+00 0. -1.
</event>
<event>
 4    1  0.6210801E+003  0.2014999E+02  0.7546771E-02  0.1531755E+00
          2   -1    0    0  501    0  0.00000000000E+00  0.00000000000E+00  0.21605723429E+03  0.21605723429E+03  0.00000000000E+00 0. -1.
          2   -1    0    0  502    0 -0.00000000000E+00 -0.00000000000E+00 -0.68700793681E+01  0.68700793681E+01  0.00000000000E+00 0. -1.
          2    1    1    2  501    0  0.59071760974E+01 -0.19264663039E+02  0.95901020354E+01  0.22315734998E+02  0.00000000000E+00 0. -1.
          2    1    1    2  502    0 -0.59071760974E+01  0.19264663039E+02  0.19959705289E+03  0.20061157866E+03  0.00000000000E+00 0. -1.
</event>
<event>
 4    1  0.6210801E+003  0.2575919E+02  0.7546771E-02  0.1460487E+00
          2   -1    0    0  502    0  0.00000000000E+00  0.00000000000E+00  0.23801353087E+02  0.23801353087E+02  0.00000000000E+00 0.  1.
          2   -1    0    0  501    0 -0.00000000000E+00 -0.00000000000E+00 -0.26362764536E+03  0.26362764536E+03  0.00000000000E+00 0.  1.
          2    1    1    2  501    0  0.25084996993E+02  0.58548289194E+01  0.15990327798E+02  0.30318751276E+02  0.00000000000E+00 0.  1.
          2    1    1    2  502    0 -0.25084996993E+02 -0.58548289194E+01 -0.25581662007E+03  0.25711024717E+03  0.00000000000E+00 0.  1.
</event>
<event>
 4    1  0.6210801E+003  0.2570064E+02  0.7546771E-02  0.1461116E+00
          2   -1    0    0  501    0  0.00000000000E+00  0.00000000000E+00  0.49221539627E+01  0.49221539627E+01  0.00000000000E+00 0.  1.
          2   -1    0    0  502    0 -0.00000000000E+00 -0.00000000000E+00 -0.19441136359E+03  0.19441136359E+03  0.00000000000E+00 0.  1.
          2    1    1    2  501    0  0.22513525269E+02  0.12396121392E+02 -0.15021369309E+03  0.15239644431E+03  0.00000000000E+00 0.  1.
          2    1    1    2  502    0 -0.22513525269E+02 -0.12396121392E+02 -0.39275516535E+02  0.46937073244E+02  0.00000000000E+00 0.  1.
</event>
<event>
 4    1  0.6210801E+003  0.3740343E+02  0.7546771E-02  0.1364412E+00
          2   -1    0    0  501    0  0.00000000000E+00  0.00000000000E+00  0.55296150293E+02  0.55296150293E+02  0.00000000000E+00 0. -1.
          2   -1    0    0  502    0 -0.00000000000E+00 -0.00000000000E+00 -0.65224750101E+03  0.65224750101E+03  0.00000000000E+00 0. -1.
          2    1    1    2  501    0  0.14446769065E+02 -0.34500835599E+02 -0.64531830255E+03  0.64640136788E+03  0.00000000000E+00 0. -1.
          2    1    1    2  502    0 -0.14446769065E+02  0.34500835599E+02  0.48366951828E+02  0.61142283426E+02  0.00000000000E+00 0. -1.
</event>
<event>
 4    1  0.6210801E+003  0.2961841E+02  0.7546771E-02  0.1422942E+00
          2   -1    0    0  501    0  0.00000000000E+00  0.00000000000E+00  0.14360992871E+01  0.14360992871E+01  0.00000000000E+00 0. -1.
          2   -1    0    0  502    0 -0.00000000000E+00 -0.00000000000E+00 -0.77159740183E+03  0.77159740183E+03  0.00000000000E+00 0. -1.
          2    1    1    2  501    0  0.25233915989E+02  0.15508055259E+02 -0.56149601917E+03  0.56227664885E+03  0.00000000000E+00 0. -1.
          2    1    1    2  502    0 -0.25233915989E+02 -0.15508055259E+02 -0.20866528337E+03  0.21075685227E+03  0.00000000000E+00 0. -1.
</event>
<event>
 4    1  0.6210801E+003  0.2227342E+02  0.7546771E-02  0.1501829E+00
          2   -1    0    0  502    0  0.00000000000E+00  0.00000000000E+00  0.16006064080E+04  0.16006064080E+04  0.00000000000E+00 0. -1.
          2   -1    0    0  501    0 -0.00000000000E+00 -0.00000000000E+00 -0.95740251551E+01  0.95740251551E+01  0.00000000000E+00 0.  1.
          2    1    1    2  501    0  0.22250541982E+02  0.10091676207E+01  0.15874672517E+04  0.15876235008E+04  0.00000000000E+00 0. -1.
          2    1    1    2  502    0 -0.22250541982E+02 -0.10091676207E+01  0.35651311476E+01  0.22556932369E+02  0.00000000000E+00 0.  1.
</event>
<event>
 4    1  0.6210801E+003  0.2488440E+02  0.7546771E-02  0.1470101E+00
          2   -1    0    0  501    0  0.00000000000E+00  0.00000000000E+00  0.16527828791E+02  0.16527828791E+02  0.00000000000E+00 0.  1.
          2   -1    0    0  502    0 -0.00000000000E+00 -0.00000000000E+00 -0.15404620445E+03  0.15404620445E+03  0.00000000000E+00 0.  1.
          2    1    1    2  501    0  0.24585269152E+02 -0.38468190960E+01 -0.14295333042E+03  0.14510302600E+03  0.00000000000E+00 0.  1.
          2    1    1    2  502    0 -0.24585269152E+02  0.38468190960E+01  0.54349547630E+01  0.25471007238E+02  0.00000000000E+00 0.  1.
</event>
<event>
 4    1  0.6210801E+003  0.2432754E+02  0.7546771E-02  0.1476469E+00
          2   -1    0    0  501    0  0.00000000000E+00  0.00000000000E+00  0.98169450484E+03  0.98169450484E+03  0.00000000000E+00 0. -1.
          2   -1    0    0  502    0 -0.00000000000E+00 -0.00000000000E+00 -0.26386425572E+02  0.26386425572E+02  0.00000000000E+00 0. -1.
          2    1    1    2  501    0 -0.12206388396E+02 -0.21043600834E+02 -0.20595113952E+02  0.31874563094E+02  0.00000000000E+00 0. -1.
          2    1    1    2  502    0  0.12206388396E+02  0.21043600834E+02  0.97590319322E+03  0.97620636732E+03  0.00000000000E+00 0. -1.
</event>
<event>
 4    1  0.6210801E+003  0.2941716E+02  0.7546771E-02  0.1424730E+00
          2   -1    0    0  502    0  0.00000000000E+00  0.00000000000E+00  0.68615747157E+01  0.68615747157E+01  0.00000000000E+00 0. -1.
          2   -1    0    0  501    0 -0.00000000000E+00 -0.00000000000E+00 -0.48559310843E+03  0.48559310843E+03  0.00000000000E+00 0. -1.
          2    1    1    2  501    0  0.13369537903E+02 -0.26203528957E+02 -0.27512918275E+02  0.40278159659E+02  0.00000000000E+00 0. -1.
          2    1    1    2  502    0 -0.13369537903E+02  0.26203528957E+02 -0.45121861544E+03  0.45217652348E+03  0.00000000000E+00 0. -1.
</event>
<event>
 4    1  0.6210801E+003  0.3034172E+02  0.7546771E-02  0.1416650E+00
          2   -1    0    0  502    0  0.00000000000E+00  0.00000000000E+00  0.17160723344E+03  0.17160723344E+03  0.00000000000E+00 0. -1.
          2   -1    0    0  501    0 -0.00000000000E+00 -0.00000000000E+00 -0.11425068803E+02  0.11425068803E+02  0.00000000000E+00 0. -1.
          2    1    1    2  501    0  0.17120855574E+01 -0.30293378575E+02  0.14674384171E+03  0.14984783984E+03  0.00000000000E+00 0. -1.
          2    1    1    2  502    0 -0.17120855574E+01  0.30293378575E+02  0.13438322926E+02  0.33184462411E+02  0.00000000000E+00 0. -1.
</event>
<event>
 4    1  0.6210801E+003  0.3346533E+02  0.7546771E-02  0.1391686E+00
          2   -1    0    0  502    0  0.00000000000E+00  0.00000000000E+00  0.60594475376E+01  0.60594475376E+01  0.00000000000E+00 0. -1.
          2   -1    0    0  501    0 -0.00000000000E+00 -0.00000000000E+00 -0.19958214941E+04  0.19958214941E+04  0.00000000000E+00 0.  1.
          2    1    1    2  501    0 -0.33449735323E+02  0.10215397462E+01 -0.41412444577E+02  0.53243956488E+02  0.00000000000E+00 0. -1.
          2    1    1    2  502    0  0.33449735323E+02 -0.10215397462E+01 -0.19483496020E+04  0.19486369851E+04  0.00000000000E+00 0.  1.
</event>
<event>
 4    1  0.6210801E+003  0.2203758E+02  0.7546771E-02  0.1504950E+00
          2   -1    0    0  502    0  0.00000000000E+00  0.00000000000E+00  0.47658625620E+03  0.47658625620E+03  0.00000000000E+00 0. -1.
          2   -1    0    0  501    0 -0.00000000000E+00 -0.00000000000E+00 -0.10474029153E+01  0.10474029153E+01  0.00000000000E+00 0.  1.
          2    1    1    2  501    0 -0.20705679815E+02 -0.75451801271E+01  0.27707665587E+03  0.27795166513E+03  0.00000000000E+00 0. -1.
          2    1    1    2  502    0  0.20705679815E+02  0.75451801271E+01  0.19846219741E+03  0.19968199398E+03  0.00000000000E+00 0.  1.
</event>
<event>
 4    1  0.6210801E+003  0.2302346E+02  0.7546771E-02  0.1492204E+00
          2   -1    0    0  501    0  0.00000000000E+00  0.00000000000E+00  0.11167842822E+03  0.11167842822E+03  0.00000000000E+00 0.  1.
          2   -1    0    0  502    0 -0.00000000000E+00 -0.00000000000E+00 -0.14992299018E+03  0.14992299018E+03  0.00000000000E+00 0.  1.
          2    1    1    2  501    0 -0.18145835741E+02  0.14170694381E+02 -0.14783579594E+03  0.14961785487E+03  0.00000000000E+00 0.  1.
          2    1    1    2  502    0  0.18145835741E+02 -0.14170694381E+02  0.10959123398E+03  0.11198356353E+03  0.00000000000E+00 0.  1.
</event>
<event>
 4    1  0.6210801E+003  0.2764425E+02  0.7546771E-02  0.1441242E+00
          2   -1    0    0  502    0  0.00000000000E+00  0.00000000000E+00  0.23739442717E+02  0.23739442717E+02  0.00000000000E+00 0. -1.
          2   -1    0    0  501    0 -0.00000000000E+00 -0.00000000000E+00 -0.10517302994E+03  0.10517302994E+03  0.00000000000E+00 0. -1.
          2    1    1    2  501    0  0.24361008105E+02 -0.13066973962E+02  0.12976457515E+02  0.30538385256E+02  0.00000000000E+00 0. -1.
          2    1    1    2  502    0 -0.24361008105E+02  0.13066973962E+02 -0.94410044739E+02  0.98374087402E+02  0.00000000000E+00 0. -1.
</event>
<event>
 4    1  0.6210801E+003  0.4508896E+02  0.7546771E-02  0.1320995E+00
          2   -1    0    0  502    0  0.00000000000E+00  0.00000000000E+00  0.18040790488E+03  0.18040790488E+03  0.00000000000E+00 0. -1.
          2   -1    0    0  501    0 -0.00000000000E+00 -0.00000000000E+00 -0.45573378400E+03  0.45573378400E+03  0.00000000000E+00 0. -1.
          2    1    1    2  501    0 -0.36257562983E+02  0.26803043796E+02  0.17645080138E+03  0.18212056264E+03  0.00000000000E+00 0. -1.
          2    1    1    2  502    0  0.36257562983E+02 -0.26803043796E+02 -0.45177668049E+03  0.45402112623E+03  0.00000000000E+00 0. -1.
</event>
<event>
 4    1  0.6210801E+003  0.3784534E+02  0.7546771E-02  0.1361597E+00
          2   -1    0    0  502    0  0.00000000000E+00  0.00000000000E+00  0.69918116865E+03  0.69918116865E+03  0.00000000000E+00 0.  1.
          2   -1    0    0  501    0 -0.00000000000E+00 -0.00000000000E+00 -0.71684805635E+02  0.71684805635E+02  0.00000000000E+00 0.  1.
          2    1    1    2  501    0  0.11659097718E+02 -0.36004650730E+02  0.69363410427E+03  0.69466577578E+03  0.00000000000E+00 0.  1.
          2    1    1    2  502    0 -0.11659097718E+02  0.36004650730E+02 -0.66137741255E+02  0.76200198505E+02  0.00000000000E+00 0.  1.
</event>
<event>
 4    1  0.6210801E+003  0.2053510E+02  0.7546771E-02  0.1526007E+00
          2   -1    0    0  502    0  0.00000000000E+00  0.00000000000E+00  0.15935005422E+01  0.15935005422E+01  0.00000000000E+00 0. -1.
          2   -1    0    0  501    0 -0.00000000000E+00 -0.00000000000E+00 -0.52841318237E+03  0.52841318237E+03  0.00000000000E+00 0. -1.
          2    1    1    2  501    0  0.20481351655E+02 -0.14847156804E+01 -0.76174857607E+02  0.78894227151E+02  0.00000000000E+00 0. -1.
          2    1    1    2  502    0 -0.20481351655E+02  0.14847156804E+01 -0.45064482422E+03  0.45111245576E+03  0.00000000000E+00 0. -1.
</event>
<event>
 4    1  0.6210801E+003  0.2727742E+02  0.7546771E-02  0.1444841E+00
          2   -1    0    0  501    0  0.00000000000E+00  0.00000000000E+00  0.11547585240E+02  0.11547585240E+02  0.00000000000E+00 0. -1.
          2   -1    0    0  502    0 -0.00000000000E+00 -0.00000000000E+00 -0.97465044994E+02  0.97465044994E+02  0.00000000000E+00 0. -1.
          2    1    1    2  501    0  0.10113175923E+02 -0.25333405462E+02 -0.74689686425E+02  0.79514822630E+02  0.00000000000E+00 0. -1.
          2    1    1    2  502    0 -0.10113175923E+02  0.25333405462E+02 -0.11227773329E+02  0.29497807605E+02  0.00000000000E+00 0. -1.
</event>
<event>
 4    1  0.6210801E+003  0.2090507E+02  0.7546771E-02  0.1520625E+00
          2   -1    0    0  502    0  0.00000000000E+00  0.00000000000E+00  0.54370730882E+03  0.54370730882E+03  0.00000000000E+00 0.  1.
          2   -1    0    0  501    0 -0.00000000000E+00 -0.00000000000E+00 -0.15148700209E+02  0.15148700209E+02  0.00000000000E+00 0. -1.
          2    1    1    2  501    0 -0.19206922791E+02 -0.82532438829E+01  0.53619312885E+03  0.53660049697E+03  0.00000000000E+00 0.  1.
          2    1    1    2  502    0  0.19206922791E+02  0.82532438829E+01 -0.76345202434E+01  0.22255512060E+02  0.00000000000E+00 0. -1.
</event>
<event>
 4    1  0.9557770E+003  0.2326553E+02  0.7546771E-02  0.1489191E+00
          2   -1    0    0  501    0  0.00000000000E+00  0.00000000000E+00  0.62730071812E+03  0.62730071812E+03  0.00000000000E+00 0. -1.
          2   -1    0    0  502    0 -0.00000000000E+00 -0.00000000000E+00 -0.12526671043E+04  0.12526671043E+04  0.00000000000E+00 0.  1.
          2    1    1    2  501    0 -0.18226330702E+02 -0.14459789861E+02 -0.12523433024E+04  0.12525593924E+04  0.00000000000E+00 0.  1.
          2    1    1    2  502    0  0.18226330702E+02  0.14459789861E+02  0.62697691615E+03  0.62740843000E+03  0.00000000000E+00 0. -1.
</event>
<event>
 4    1  0.6210801E+003  0.2138641E+02  0.7546771E-02  0.1513819E+00
          2   -1    0    0  502    0  0.00000000000E+00  0.00000000000E+00  0.79179845729E+03  0.79179845729E+03  0.00000000000E+00 0. -1.
          2   -1    0    0  501    0 -0.00000000000E+00 -0.00000000000E+00 -0.11802397398E+01  0.11802397398E+01  0.00000000000E+00 0. -1.
          2    1    1    2  501    0 -0.17070329986E+02  0.12883408915E+02  0.67861727244E+03  0.67895418170E+03  0.00000000000E+00 0. -1.
          2    1    1    2  502    0  0.17070329986E+02 -0.12883408915E+02  0.11200094511E+03  0.11402451533E+03  0.00000000000E+00 0. -1.
</event>
<event>
 4    1  0.6210801E+003  0.2268562E+02  0.7546771E-02  0.1496484E+00
          2   -1    0    0  502    0  0.00000000000E+00  0.00000000000E+00  0.13940080714E+03  0.13940080714E+03  0.00000000000E+00 0.  1.
          2   -1    0    0  501    0 -0.00000000000E+00 -0.00000000000E+00 -0.24762238843E+02  0.24762238843E+02  0.00000000000E+00 0.  1.
          2    1    1    2  501    0 -0.12181384995E+02 -0.19137695742E+02  0.13303524132E+03  0.13495559630E+03  0.00000000000E+00 0.  1.
          2    1    1    2  502    0  0.12181384995E+02  0.19137695742E+02 -0.18396673025E+02  0.29207449685E+02  0.00000000000E+00 0.  1.
</event>
<event>
 4    1  0.6210801E+003  0.4753550E+02  0.7546771E-02  0.1309226E+00
          2   -1    0    0  501    0  0.00000000000E+00  0.00000000000E+00  0.11206381859E+02  0.11206381859E+02  0.00000000000E+00 0. -1.
          2   -1    0    0  502    0 -0.00000000000E+00 -0.00000000000E+00 -0.23630274721E+03  0.23630274721E+03  0.00000000000E+00 0. -1.
          2    1    1    2  501    0 -0.36020249582E+02 -0.31018798413E+02 -0.15994786576E+03  0.16686205079E+03  0.00000000000E+00 0. -1.
          2    1    1    2  502    0  0.36020249582E+02  0.31018798413E+02 -0.65148499599E+02  0.80647078279E+02  0.00000000000E+00 0. -1.
</event>
<event>
 4    1  0.6210801E+003  0.2703475E+02  0.7546771E-02  0.1447259E+00
          2   -1    0    0  502    0  0.00000000000E+00  0.00000000000E+00  0.56240935682E+03  0.56240935682E+03  0.00000000000E+00 0.  1.
          2   -1    0    0  501    0 -0.00000000000E+00 -0.00000000000E+00 -0.22146395832E+02  0.22146395832E+02  0.00000000000E+00 0.  1.
          2    1    1    2  501    0  0.27023136714E+02 -0.79249016543E+00  0.55370430713E+03  0.55436390367E+03  0.00000000000E+00 0.  1.
          2    1    1    2  502    0 -0.27023136714E+02  0.79249016543E+00 -0.13441346145E+02  0.30191848978E+02  0.00000000000E+00 0.  1.
</event>
<event>
 4    1  0.6210801E+003  0.2301784E+02  0.7546771E-02  0.1492274E+00
          2   -1    0    0  502    0  0.00000000000E+00  0.00000000000E+00  0.46463758658E+03  0.46463758658E+03  0.00000000000E+00 0. -1.
          2   -1    0    0  501    0 -0.00000000000E+00 -0.00000000000E+00 -0.11681590292E+03  0.11681590292E+03  0.00000000000E+00 0.  1.
          2    1    1    2  501    0 -0.22909230388E+02  0.22334518934E+01  0.46321515397E+03  0.46378669667E+03  0.00000000000E+00 0. -1.
          2    1    1    2  502    0  0.22909230388E+02 -0.22334518934E+01 -0.11539347031E+03  0.11766679283E+03  0.00000000000E+00 0.  1.
</event>
<event>
 4    1  0.6210801E+003  0.4772728E+02  0.7546771E-02  0.1308339E+00
          2   -1    0    0  501    0  0.00000000000E+00  0.00000000000E+00  0.68397038504E+03  0.68397038504E+03  0.00000000000E+00 0. -1.
          2   -1    0    0  502    0 -0.00000000000E+00 -0.00000000000E+00 -0.74831959079E+01  0.74831959079E+01  0.00000000000E+00 0. -1.
          2    1    1    2  501    0 -0.57827365628E+01  0.47375664590E+02  0.80694591709E+02  0.93752390735E+02  0.00000000000E+00 0. -1.
          2    1    1    2  502    0  0.57827365628E+01 -0.47375664590E+02  0.59579259743E+03  0.59770119022E+03  0.00000000000E+00 0. -1.
</event>
<event>
 4    1  0.6210801E+003  0.3877327E+02  0.7546771E-02  0.1355828E+00
          2   -1    0    0  502    0  0.00000000000E+00  0.00000000000E+00  0.19971664050E+01  0.19971664050E+01  0.00000000000E+00 0. -1.
          2   -1    0    0  501    0 -0.00000000000E+00 -0.00000000000E+00 -0.11601854420E+04  0.11601854420E+04  0.00000000000E+00 0. -1.
          2    1    1    2  501    0 -0.24865652807E+02 -0.29750054746E+02 -0.23473610069E+03  0.23791679935E+03  0.00000000000E+00 0. -1.
          2    1    1    2  502    0  0.24865652807E+02  0.29750054746E+02 -0.92345217493E+03  0.92426580907E+03  0.00000000000E+00 0. -1.
</event>
<event>
 4    1  0.6210801E+003  0.2077453E+02  0.7546771E-02  0.1522508E+00
          2   -1    0    0  502    0  0.00000000000E+00  0.00000000000E+00  0.14252857285E+01  0.14252857285E+01  0.00000000000E+00 0.  1.
          2   -1    0    0  501    0 -0.00000000000E+00 -0.00000000000E+00 -0.31223601755E+03  0.31223601755E+03  0.00000000000E+00 0.  1.
          2    1    1    2  501    0  0.15329819211E+02  0.14020622423E+02 -0.18266424880E+03  0.18384180428E+03  0.00000000000E+00 0.  1.
          2    1    1    2  502    0 -0.15329819211E+02 -0.14020622423E+02 -0.12814648302E+03  0.12981949900E+03  0.00000000000E+00 0.  1.
</event>
<event>
 4    1  0.6210801E+003  0.2348182E+02  0.7546771E-02  0.1486535E+00
          2   -1    0    0  502    0  0.00000000000E+00  0.00000000000E+00  0.10351215709E+01  0.10351215709E+01  0.00000000000E+00 0.  1.
          2   -1    0    0  501    0 -0.00000000000E+00 -0.00000000000E+00 -0.55273612842E+03  0.55273612842E+03  0.00000000000E+00 0.  1.
          2    1    1    2  501    0 -0.96807252952E+01  0.21393439323E+02 -0.22311653617E+03  0.22434880076E+03  0.00000000000E+00 0.  1.
          2    1    1    2  502    0  0.96807252952E+01 -0.21393439323E+02 -0.32858447068E+03  0.32942244923E+03  0.00000000000E+00 0.  1.
</event>
<event>
 4    1  0.6210801E+003  0.2311189E+02  0.7546771E-02  0.1491098E+00
          2   -1    0    0  502    0  0.00000000000E+00  0.00000000000E+00  0.89709774069E+01  0.89709774069E+01  0.00000000000E+00 0. -1.
          2   -1    0    0  501    0 -0.00000000000E+00 -0.00000000000E+00 -0.59739010002E+02  0.59739010002E+02  0.00000000000E+00 0. -1.
          2    1    1    2  501    0  0.22775128264E+02  0.39310071041E+01 -0.27351691779E+02  0.35808858226E+02  0.00000000000E+00 0. -1.
          2    1    1    2  502    0 -0.22775128264E+02 -0.39310071041E+01 -0.23416340816E+02  0.32901129182E+02  0.00000000000E+00 0. -1.
</event>
<event>
 4    1  0.6210801E+003  0.2300219E+02  0.7546771E-02  0.1492471E+00
          2   -1    0    0  501    0  0.00000000000E+00  0.00000000000E+00  0.35297825095E+03  0.35297825095E+03  0.00000000000E+00 0.  1.
          2   -1    0    0  502    0 -0.00000000000E+00 -0.00000000000E+00 -0.32879369438E+02  0.32879369438E+02  0.00000000000E+00 0. -1.
          2    1    1    2  501    0  0.13576717365E+02  0.18568079581E+02 -0.28430283606E+02  0.36570231879E+02  0.00000000000E+00 0. -1.
          2    1    1    2  502    0 -0.13576717365E+02 -0.18568079581E+02  0.34852916511E+03  0.34928738851E+03  0.00000000000E+00 0.  1.
</event>
<event>
 4    1  0.6210801E+003  0.2058630E+02  0.7546771E-02  0.1525254E+00
          2   -1    0    0  501    0  0.00000000000E+00  0.00000000000E+00  0.17829660390E+03  0.17829660390E+03  0.00000000000E+00 0. -1.
          2   -1    0    0  502    0 -0.00000000000E+00 -0.00000000000E+00 -0.82315721683E+01  0.82315721683E+01  0.00000000000E+00 0.  1.
          2    1    1    2  501    0 -0.70257136029E+01 -0.19350329462E+02  0.63779784435E+01  0.21551670723E+02  0.00000000000E+00 0.  1.
          2    1    1    2  502    0  0.70257136029E+01  0.19350329462E+02  0.16368705329E+03  0.16497650534E+03  0.00000000000E+00 0. -1.
</event>
<event>
 4    1  0.6210801E+003  0.2664375E+02  0.7546771E-02  0.1451220E+00
          2   -1    0    0  501    0  0.00000000000E+00  0.00000000000E+00  0.55054968813E+03  0.55054968813E+03  0.00000000000E+00 0. -1.
          2   -1    0    0  502    0 -0.00000000000E+00 -0.00000000000E+00 -0.22745096160E+02  0.22745096160E+02  0.00000000000E+00 0.  1.
          2    1    1    2  501    0  0.15906418008E+02  0.21374640711E+02 -0.14501540796E+02  0.30334536173E+02  0.00000000000E+00 0.  1.
          2    1    1    2  502    0 -0.15906418008E+02 -0.21374640711E+02  0.54230613276E+03  0.54296024812E+03  0.00000000000E+00 0. -1.
</event>
<event>
 4    1  0.6210801E+003  0.2469753E+02  0.7546771E-02  0.1472216E+00
          2   -1    0    0  501    0  0.00000000000E+00  0.00000000000E+00  0.31966120250E+01  0.31966120250E+01  0.00000000000E+00 0. -1.
          2   -1    0    0  502    0 -0.00000000000E+00 -0.00000000000E+00 -0.17164769439E+04  0.17164769439E+04  0.00000000000E+00 0. -1.
          2    1    1    2  501    0 -0.22723521689E+02 -0.96752139634E+01 -0.16672761712E+04  0.16674590847E+04  0.00000000000E+00 0. -1.
          2    1    1    2  502    0  0.22723521689E+02  0.96752139634E+01 -0.46004160722E+02  0.52214471241E+02  0.00000000000E+00 0. -1.
</event>
<event>
 4    1  0.6210801E+003  0.2076444E+02  0.7546771E-02  0.1522655E+00
          2   -1    0    0  501    0  0.00000000000E+00  0.00000000000E+00  0.22456505495E+02  0.22456505495E+02  0.00000000000E+00 0. -1.
          2   -1    0    0  502    0 -0.00000000000E+00 -0.00000000000E+00 -0.61009158896E+03  0.61009158896E+03  0.00000000000E+00 0.  1.
          2    1    1    2  501    0 -0.10458791238E+02  0.17938104317E+02 -0.60507516041E+03  0.60543134346E+03  0.00000000000E+00 0.  1.
          2    1    1    2  502    0  0.10458791238E+02 -0.17938104317E+02  0.17440076944E+02  0.27116750994E+02  0.00000000000E+00 0. -1.
</event>
<event>
 4    1  0.6210801E+003  0.2508033E+02  0.7546771E-02  0.1467907E+00
          2   -1    0    0  501    0  0.00000000000E+00  0.00000000000E+00  0.62832488500E+03  0.62832488500E+03  0.00000000000E+00 0. -1.
          2   -1    0    0  502    0 -0.00000000000E+00 -0.00000000000E+00 -0.33613681007E+01  0.33613681007E+01  0.00000000000E+00 0. -1.
          2    1    1    2  501    0 -0.12976434074E+02  0.21462414103E+02  0.47818878619E+02  0.53996927809E+02  0.00000000000E+00 0. -1.
          2    1    1    2  502    0  0.12976434074E+02 -0.21462414103E+02  0.57714463828E+03  0.57768932529E+03  0.00000000000E+00 0. -1.
</event>
<event>
 4    1  0.6210801E+003  0.4662683E+02  0.7546771E-02  0.1313499E+00
          2   -1    0    0  501    0  0.00000000000E+00  0.00000000000E+00  0.63757929284E+03  0.63757929284E+03  0.00000000000E+00 0. -1.
          2   -1    0    0  502    0 -0.00000000000E+00 -0.00000000000E+00 -0.30358433705E+02  0.30358433705E+02  0.00000000000E+00 0.  1.
          2    1    1    2  501    0  0.37860452618E+02  0.27214833080E+02 -0.11044201693E+02  0.47916963625E+02  0.00000000000E+00 0.  1.
          2    1    1    2  502    0 -0.37860452618E+02 -0.27214833080E+02  0.61826506082E+03  0.62002076292E+03  0.00000000000E+00 0. -1.
</event>
<event>
 4    1  0.6210801E+003  0.3597694E+02  0.7546771E-02  0.1373822E+00
          2   -1    0    0  501    0  0.00000000000E+00  0.00000000000E+00  0.10020245667E+04  0.10020245667E+04  0.00000000000E+00 0.  1.
          2   -1    0    0  502    0 -0.00000000000E+00 -0.00000000000E+00 -0.34394083472E+01  0.34394083472E+01  0.00000000000E+00 0.  1.
          2    1    1    2  501    0  0.35213470375E+02 -0.73723525948E+01  0.10202805508E+03  0.10818532295E+03  0.00000000000E+00 0.  1.
          2    1    1    2  502    0 -0.35213470375E+02  0.73723525948E+01  0.89655710330E+03  0.89727865213E+03  0.00000000000E+00 0.  1.
</event>
<event>
 4    1  0.6210801E+003  0.2321258E+02  0.7546771E-02  0.1489846E+00
          2   -1    0    0  501    0  0.00000000000E+00  0.00000000000E+00  0.15713114746E+03  0.15713114746E+03  0.00000000000E+00 0. -1.
          2   -1    0    0  502    0 -0.00000000000E+00 -0.00000000000E+00 -0.54692179539E+01  0.54692179539E+01  0.00000000000E+00 0.  1.
          2    1    1    2  501    0 -0.15876351181E+02 -0.16934142605E+02  0.26177111267E+02  0.34986638405E+02  0.00000000000E+00 0.  1.
          2    1    1    2  502    0  0.15876351181E+02  0.16934142605E+02  0.12548481824E+03  0.12761372701E+03  0.00000000000E+00 0. -1.
</event>
<event>
 4    1  0.6210801E+003  0.2177434E+02  0.7546771E-02  0.1508490E+00
          2   -1    0    0  501    0  0.00000000000E+00  0.00000000000E+00  0.39789739494E+03  0.39789739494E+03  0.00000000000E+00 0.  1.
          2   -1    0    0  502    0 -0.00000000000E+00 -0.00000000000E+00 -0.58021929932E+03  0.58021929932E+03  0.00000000000E+00 0. -1.
          2    1    1    2  501    0 -0.20917471332E+02  0.60482322519E+01 -0.57971686372E+03  0.58012564484E+03  0.00000000000E+00 0. -1.
          2    1    1    2  502    0  0.20917471332E+02 -0.60482322519E+01  0.39739495933E+03  0.39799104943E+03  0.00000000000E+00 0.  1.
</event>
<event>
 4    1  0.6210801E+003  0.3372065E+02  0.7546771E-02  0.1389787E+00
          2   -1    0    0  501    0  0.00000000000E+00  0.00000000000E+00  0.12942794183E+02  0.12942794183E+02  0.00000000000E+00 0. -1.
          2   -1    0    0  502    0 -0.00000000000E+00 -0.00000000000E+00 -0.31976065884E+03  0.31976065884E+03  0.00000000000E+00 0. -1.
          2    1    1    2  501    0 -0.85263576350E+01  0.32624890428E+02 -0.29507667445E+03  0.29699718190E+03  0.00000000000E+00 0. -1.
          2    1    1    2  502    0  0.85263576350E+01 -0.32624890428E+02 -0.11741190199E+02  0.35706271119E+02  0.00000000000E+00 0. -1.
</event>
<event>
 4    1  0.6210801E+003  0.2250243E+02  0.7546771E-02  0.1498843E+00
          2   -1    0    0  501    0  0.00000000000E+00  0.00000000000E+00  0.37407014838E+02  0.37407014838E+02  0.00000000000E+00 0. -1.
          2   -1    0    0  502    0 -0.00000000000E+00 -0.00000000000E+00 -0.22764935338E+03  0.22764935338E+03  0.00000000000E+00 0.  1.
          2    1    1    2  501    0 -0.27420164854E+01  0.22334739933E+02 -0.22364877812E+03  0.22477796871E+03  0.00000000000E+00 0.  1.
          2    1    1    2  502    0  0.27420164854E+01 -0.22334739933E+02  0.33406439574E+02  0.40278399513E+02  0.00000000000E+00 0. -1.
</event>
<event>
 4    1  0.6210801E+003  0.2414932E+02  0.7546771E-02  0.1478549E+00
          2   -1    0    0  502    0  0.00000000000E+00  0.00000000000E+00  0.24452268336E+03  0.24452268336E+03  0.00000000000E+00 0. -1.
          2   -1    0    0  501    0 -0.00000000000E+00 -0.00000000000E+00 -0.39213006425E+02  0.39213006425E+02  0.00000000000E+00 0. -1.
          2    1    1    2  501    0  0.24042565201E+02  0.22682422977E+01  0.24014066459E+03  0.24135187725E+03  0.00000000000E+00 0. -1.
          2    1    1    2  502    0 -0.24042565201E+02 -0.22682422977E+01 -0.34830987649E+02  0.42383812537E+02  0.00000000000E+00 0. -1.
</event>
<event>
 4    1  0.6210801E+003  0.2875139E+02  0.7546771E-02  0.1430766E+00
          2   -1    0    0  502    0  0.00000000000E+00  0.00000000000E+00  0.81577405440E+01  0.81577405440E+01  0.00000000000E+00 0. -1.
          2   -1    0    0  501    0 -0.00000000000E+00 -0.00000000000E+00 -0.60913690483E+03  0.60913690483E+03  0.00000000000E+00 0. -1.
          2    1    1    2  501    0 -0.28562317552E+02  0.32918778359E+01 -0.18681539017E+02  0.34287641267E+02  0.00000000000E+00 0. -1.
          2    1    1    2  502    0  0.28562317552E+02 -0.32918778359E+01 -0.58229762527E+03  0.58300700410E+03  0.00000000000E+00 0. -1.
</event>
<event>
 4    1  0.6210801E+003  0.7626836E+02  0.7546771E-02  0.1212786E+00
          2   -1    0    0  502    0  0.00000000000E+00  0.00000000000E+00  0.70095229607E+01  0.70095229607E+01  0.00000000000E+00 0. -1.
          2   -1    0    0  501    0 -0.00000000000E+00 -0.00000000000E+00 -0.10020580884E+04  0.10020580884E+04  0.00000000000E+00 0.  1.
          2    1    1    2  501    0 -0.76023344295E+02  0.61084472067E+01 -0.28836896629E+03  0.29828429849E+03  0.00000000000E+00 0. -1.
          2    1    1    2  502    0  0.76023344295E+02 -0.61084472067E+01 -0.70667959915E+03  0.71078331288E+03  0.00000000000E+00 0.  1.
</event>
<event>
 4    1  0.6210801E+003  0.2119041E+02  0.7546771E-02  0.1516564E+00
          2   -1    0    0  501    0  0.00000000000E+00  0.00000000000E+00  0.48668671138E+01  0.48668671138E+01  0.00000000000E+00 0.  1.
          2   -1    0    0  502    0 -0.00000000000E+00 -0.00000000000E+00 -0.14698969711E+04  0.14698969711E+04  0.00000000000E+00 0.  1.
          2    1    1    2  501    0 -0.82893156828E+00  0.21174189025E+02 -0.14463797490E+04  0.14465349674E+04  0.00000000000E+00 0.  1.
          2    1    1    2  502    0  0.82893156828E+00 -0.21174189025E+02 -0.18650354908E+02  0.28228870799E+02  0.00000000000E+00 0.  1.
</event>
<event>
 4    1  0.6210801E+003  0.2065193E+02  0.7546771E-02  0.1524293E+00
          2   -1    0    0  501    0  0.00000000000E+00  0.00000000000E+00  0.97902573861E+01  0.97902573861E+01  0.00000000000E+00 0.  1.
          2   -1    0    0  502    0 -0.00000000000E+00 -0.00000000000E+00 -0.12020996594E+03  0.12020996594E+03  0.00000000000E+00 0. -1.
          2    1    1    2  501    0 -0.20642965517E+02 -0.60827073484E+00 -0.10711240898E+03  0.10908515103E+03  0.00000000000E+00 0. -1.
          2    1    1    2  502    0  0.20642965517E+02  0.60827073484E+00 -0.33072995767E+01  0.20915072295E+02  0.00000000000E+00 0.  1.
</event>
<event>
 4    1  0.6210801E+003  0.2567254E+02  0.7546771E-02  0.1461418E+00
          2   -1    0    0  501    0  0.00000000000E+00  0.00000000000E+00  0.17837629022E+04  0.17837629022E+04  0.00000000000E+00 0. -1.
          2   -1    0    0  502    0 -0.00000000000E+00 -0.00000000000E+00 -0.29963153062E+03  0.29963153062E+03  0.00000000000E+00 0.  1.
          2    1    1    2  501    0  0.25511944489E+02 -0.28670327753E+01 -0.29898905239E+03  0.30008920780E+03  0.00000000000E+00 0.  1.
          2    1    1    2  502    0 -0.25511944489E+02  0.28670327753E+01  0.17831204240E+04  0.17833052250E+04  0.00000000000E+00 0. -1.
</event>
<event>
 4    1  0.6210801E+003  0.2108887E+02  0.7546771E-02  0.1518000E+00
          2   -1    0    0  502    0  0.00000000000E+00  0.00000000000E+00  0.24479605349E+03  0.24479605349E+03  0.00000000000E+00 0. -1.
          2   -1    0    0  501    0 -0.00000000000E+00 -0.00000000000E+00 -0.11469984574E+03  0.11469984574E+03  0.00000000000E+00 0. -1.
          2    1    1    2  501    0  0.21013169803E+02 -0.17852753432E+01  0.24336681913E+03  0.24427883488E+03  0.00000000000E+00 0. -1.
          2    1    1    2  502    0 -0.21013169803E+02  0.17852753432E+01 -0.11327061138E+03  0.11521706435E+03  0.00000000000E+00 0. -1.
</event>
<event>
 4    1  0.6210801E+003  0.3174891E+02  0.7546771E-02  0.1404984E+00
          2   -1    0    0  502    0  0.00000000000E+00  0.00000000000E+00  0.22662897431E+03  0.22662897431E+03  0.00000000000E+00 0. -1.
          2   -1    0    0  501    0 -0.00000000000E+00 -0.00000000000E+00 -0.69639570741E+02  0.69639570741E+02  0.00000000000E+00 0.  1.
          2    1    1    2  501    0 -0.27820970868E+02 -0.15296633203E+02  0.22182037723E+03  0.22408095225E+03  0.00000000000E+00 0. -1.
          2    1    1    2  502    0  0.27820970868E+02  0.15296633203E+02 -0.64830973665E+02  0.72187592797E+02  0.00000000000E+00 0.  1.
</event>
<event>
 4    1  0.6210801E+003  0.2043834E+02  0.7546771E-02  0.1527437E+00
          2   -1    0    0  501    0  0.00000000000E+00  0.00000000000E+00  0.11286256982E+01  0.11286256982E+01  0.00000000000E+00 0.  1.
          2   -1    0    0  502    0 -0.00000000000E+00 -0.00000000000E+00 -0.38967194368E+03  0.38967194368E+03  0.00000000000E+00 0. -1.
          2    1    1    2  501    0  0.15533602031E+02 -0.13282801999E+02 -0.23804237037E+03  0.23891817786E+03  0.00000000000E+00 0. -1.
          2    1    1    2  502    0 -0.15533602031E+02  0.13282801999E+02 -0.15050094760E+03  0.15188239151E+03  0.00000000000E+00 0.  1.
</event>
<event>
 4    1  0.6210801E+003  0.2293158E+02  0.7546771E-02  0.1493359E+00
          2   -1    0    0  501    0  0.00000000000E+00  0.00000000000E+00  0.73659246225E+03  0.73659246225E+03  0.00000000000E+00 0. -1.
          2   -1    0    0  502    0 -0.00000000000E+00 -0.00000000000E+00 -0.34972882923E+01  0.34972882923E+01  0.00000000000E+00 0. -1.
          2    1    1    2  501    0 -0.21130233005E+02  0.89090094466E+01  0.36425054020E+02  0.43042325175E+02  0.00000000000E+00 0. -1.
          2    1    1    2  502    0  0.21130233005E+02 -0.89090094466E+01  0.69667011994E+03  0.69704742536E+03  0.00000000000E+00 0. -1.
</event>
<event>
 4    1  0.6210801E+003  0.2704445E+02  0.7546771E-02  0.1447162E+00
          2   -1    0    0  502    0  0.00000000000E+00  0.00000000000E+00  0.69061229209E+02  0.69061229209E+02  0.00000000000E+00 0.  1.
          2   -1    0    0  501    0 -0.00000000000E+00 -0.00000000000E+00 -0.16679212767E+03  0.16679212767E+03  0.00000000000E+00 0.  1.
          2    1    1    2  501    0  0.65817731840E+01 -0.26231324118E+02  0.65255896717E+02  0.70638050367E+02  0.00000000000E+00 0.  1.
          2    1    1    2  502    0 -0.65817731840E+01  0.26231324118E+02 -0.16298679518E+03  0.16521530651E+03  0.00000000000E+00 0.  1.
</event>
<event>
 4    1  0.6210801E+003  0.3482424E+02  0.7546771E-02  0.1381803E+00
          2   -1    0    0  501    0  0.00000000000E+00  0.00000000000E+00  0.19698326923E+04  0.19698326923E+04  0.00000000000E+00 0. -1.
          2   -1    0    0  502    0 -0.00000000000E+00 -0.00000000000E+00 -0.14650849034E+02  0.14650849034E+02  0.00000000000E+00 0. -1.
          2    1    1    2  501    0  0.31860902435E+02  0.14057396284E+02  0.64206116461E+01  0.35411181118E+02  0.00000000000E+00 0. -1.
          2    1    1    2  502    0 -0.31860902435E+02 -0.14057396284E+02  0.19487612316E+04  0.19490723602E+04  0.00000000000E+00 0. -1.
</event>
<event>
 4    1  0.6210801E+003  0.2602212E+02  0.7546771E-02  0.1457686E+00
          2   -1    0    0  502    0  0.00000000000E+00  0.00000000000E+00  0.11403475536E+03  0.11403475536E+03  0.00000000000E+00 0.  1.
          2   -1    0    0  501    0 -0.00000000000E+00 -0.00000000000E+00 -0.15858856382E+02  0.15858856382E+02  0.00000000000E+00 0.  1.
          2    1    1    2  501    0 -0.19572019697E+02 -0.17148963720E+02  0.10045611301E+03  0.10377177628E+03  0.00000000000E+00 0.  1.
          2    1    1    2  502    0  0.19572019697E+02  0.17148963720E+02 -0.22802140336E+01  0.26121835459E+02  0.00000000000E+00 0.  1.
</event>
<event>
 4    1  0.6210801E+003  0.4296259E+02  0.7546771E-02  0.1331948E+00
          2   -1    0    0  502    0  0.00000000000E+00  0.00000000000E+00  0.20707642301E+03  0.20707642301E+03  0.00000000000E+00 0.  1.
          2   -1    0    0  501    0 -0.00000000000E+00 -0.00000000000E+00 -0.27542072752E+03  0.27542072752E+03  0.00000000000E+00 0.  1.
          2    1    1    2  501    0 -0.13547226156E+02  0.40770779828E+02  0.20314050941E+03  0.20763393362E+03  0.00000000000E+00 0.  1.
          2    1    1    2  502    0  0.13547226156E+02 -0.40770779828E+02 -0.27148481392E+03  0.27486321691E+03  0.00000000000E+00 0.  1.
</event>
<event>
 4    1  0.6210801E+003  0.2186765E+02  0.7546771E-02  0.1507229E+00
          2   -1    0    0  501    0  0.00000000000E+00  0.00000000000E+00  0.16995314337E+02  0.16995314337E+02  0.00000000000E+00 0.  1.
          2   -1    0    0  502    0 -0.00000000000E+00 -0.00000000000E+00 -0.38051965045E+03  0.38051965045E+03  0.00000000000E+00 0. -1.
          2    1    1    2  501    0 -0.11877078289E+02  0.18361078655E+02 -0.37303016456E+03  0.37367057399E+03  0.00000000000E+00 0. -1.
          2    1    1    2  502    0  0.11877078289E+02 -0.18361078655E+02  0.95058284434E+01  0.23844390796E+02  0.00000000000E+00 0.  1.
</event>
<event>
 4    1  0.6210801E+003  0.2243614E+02  0.7546771E-02  0.1499703E+00
          2   -1    0    0  502    0  0.00000000000E+00  0.00000000000E+00  0.34161950253E+03  0.34161950253E+03  0.00000000000E+00 0. -1.
          2   -1    0    0  501    0 -0.00000000000E+00 -0.00000000000E+00 -0.30566721775E+01  0.30566721775E+01  0.00000000000E+00 0. -1.
          2    1    1    2  501    0  0.66030287825E+01 -0.21442493862E+02  0.29330926848E+03  0.29416612230E+03  0.00000000000E+00 0. -1.
          2    1    1    2  502    0 -0.66030287825E+01  0.21442493862E+02  0.45253561869E+02  0.50510052405E+02  0.00000000000E+00 0. -1.
</event>
<event>
 4    1  0.6210801E+003  0.2405437E+02  0.7546771E-02  0.1479666E+00
          2   -1    0    0  502    0  0.00000000000E+00  0.00000000000E+00  0.38834045559E+02  0.38834045559E+02  0.00000000000E+00 0.  1.
          2   -1    0    0  501    0 -0.00000000000E+00 -0.00000000000E+00 -0.45470875706E+03  0.45470875706E+03  0.00000000000E+00 0. -1.
          2    1    1    2  501    0 -0.24048084158E+02  0.54999555471E+00  0.34757341787E+02  0.42269204569E+02  0.00000000000E+00 0.  1.
          2    1    1    2  502    0  0.24048084158E+02 -0.54999555471E+00 -0.45063205329E+03  0.45127359805E+03  0.00000000000E+00 0. -1.
</event>
<event>
 4    1  0.6210801E+003  0.4582956E+02  0.7546771E-02  0.1317343E+00
          2   -1    0    0  501    0  0.00000000000E+00  0.00000000000E+00  0.30778845572E+04  0.30778845572E+04  0.00000000000E+00 0. -1.
          2   -1    0    0  502    0 -0.00000000000E+00 -0.00000000000E+00 -0.70390298806E+00  0.70390298806E+00  0.00000000000E+00 0. -1.
          2    1    1    2  501    0 -0.34699363317E+02  0.29938319326E+02  0.18076282326E+04  0.18082091074E+04  0.00000000000E+00 0. -1.
          2    1    1    2  502    0  0.34699363317E+02 -0.29938319326E+02  0.12695524217E+04  0.12703793528E+04  0.00000000000E+00 0. -1.
</event>
<event>
 4    1  0.6210801E+003  0.2232656E+02  0.7546771E-02  0.1501132E+00
          2   -1    0    0  501    0  0.00000000000E+00  0.00000000000E+00  0.10469701694E+01  0.10469701694E+01  0.00000000000E+00 0.  1.
          2   -1    0    0  502    0 -0.00000000000E+00 -0.00000000000E+00 -0.13093577612E+04  0.13093577612E+04  0.00000000000E+00 0. -1.
          2    1    1    2  501    0 -0.21158913394E+02 -0.71257194951E+01 -0.11768316162E+04  0.11770433842E+04  0.00000000000E+00 0. -1.
          2    1    1    2  502    0  0.21158913394E+02  0.71257194951E+01 -0.13147917488E+03  0.13336134718E+03  0.00000000000E+00 0.  1.
</event>
<event>
 4    1  0.6210801E+003  0.2894564E+02  0.7546771E-02  0.1428985E+00
          2   -1    0    0  501    0  0.00000000000E+00  0.00000000000E+00  0.14964274813E+03  0.14964274813E+03  0.00000000000E+00 0. -1.
          2   -1    0    0  502    0 -0.00000000000E+00 -0.00000000000E+00 -0.31530547677E+03  0.31530547677E+03  0.00000000000E+00 0.  1.
          2    1    1    2  501    0 -0.20108431916E+02  0.20820687505E+02 -0.31323216473E+03  0.31456674822E+03  0.00000000000E+00 0.  1.
          2    1    1    2  502    0  0.20108431916E+02 -0.20820687505E+02  0.14756943609E+03  0.15038147669E+03  0.00000000000E+00 0. -1.
</event>
<event>
 4    1  0.6210801E+003  0.8629871E+02  0.7546771E-02  0.1189934E+00
          2   -1    0    0  502    0  0.00000000000E+00  0.00000000000E+00  0.92232248278E+03  0.92232248278E+03  0.00000000000E+00 0. -1.
          2   -1    0    0  501    0 -0.00000000000E+00 -0.00000000000E+00 -0.27733964930E+02  0.27733964930E+02  0.00000000000E+00 0.  1.
          2    1    1    2  501    0  0.11872927752E+02 -0.85478072806E+02  0.84723642143E+03  0.85162023294E+03  0.00000000000E+00 0. -1.
          2    1    1    2  502    0 -0.11872927752E+02  0.85478072806E+02  0.47352096420E+02  0.98436214776E+02  0.00000000000E+00 0.  1.
</event>
<event>
 4    1  0.6210801E+003  0.3211330E+02  0.7546771E-02  0.1402079E+00
          2   -1    0    0  501    0  0.00000000000E+00  0.00000000000E+00  0.54617033875E+01  0.54617033875E+01  0.00000000000E+00 0.  1.
          2   -1    0    0  502    0 -0.00000000000E+00 -0.00000000000E+00 -0.46754865455E+03  0.46754865455E+03  0.00000000000E+00 0. -1.
          2    1    1    2  501    0  0.31706799019E+02  0.50934275506E+01 -0.41365162663E+03  0.41489629105E+03  0.00000000000E+00 0. -1.
          2    1    1    2  502    0 -0.31706799019E+02 -0.50934275506E+01 -0.48435324529E+02  0.58114066890E+02  0.00000000000E+00 0.  1.
</event>
<event>
 4    1  0.6210801E+003  0.4373327E+02  0.7546771E-02  0.1327896E+00
          2   -1    0    0  501    0  0.00000000000E+00  0.00000000000E+00  0.28211864931E+02  0.28211864931E+02  0.00000000000E+00 0. -1.
          2   -1    0    0  502    0 -0.00000000000E+00 -0.00000000000E+00 -0.70103256362E+02  0.70103256362E+02  0.00000000000E+00 0.  1.
          2    1    1    2  501    0 -0.99969641589E+01 -0.42575344834E+02 -0.12024078085E+02  0.45356121239E+02  0.00000000000E+00 0.  1.
          2    1    1    2  502    0  0.99969641589E+01  0.42575344834E+02 -0.29867313346E+02  0.52959000053E+02  0.00000000000E+00 0. -1.
</event>
<event>
 4    1  0.6210801E+003  0.2052205E+02  0.7546771E-02  0.1526199E+00
          2   -1    0    0  502    0  0.00000000000E+00  0.00000000000E+00  0.10719582484E+04  0.10719582484E+04  0.00000000000E+00 0.  1.
          2   -1    0    0  501    0 -0.00000000000E+00 -0.00000000000E+00 -0.29601983655E+02  0.29601983655E+02  0.00000000000E+00 0. -1.
          2    1    1    2  501    0  0.81181231803E+01  0.18848090022E+02  0.10682910098E+04  0.10684881075E+04  0.00000000000E+00 0.  1.
          2    1    1    2  502    0 -0.81181231803E+01 -0.18848090022E+02 -0.25934745011E+02  0.33072124519E+02  0.00000000000E+00 0. -1.
</event>
<event>
 4    1  0.6210801E+003  0.2334240E+02  0.7546771E-02  0.1488243E+00
          2   -1    0    0  502    0  0.00000000000E+00  0.00000000000E+00  0.39131516583E+01  0.39131516583E+01  0.00000000000E+00 0.  1.
          2   -1    0    0  501    0 -0.00000000000E+00 -0.00000000000E+00 -0.75720135818E+03  0.75720135818E+03  0.00000000000E+00 0.  1.
          2    1    1    2  501    0  0.23294847289E+02  0.14892259997E+01 -0.32852764550E+02  0.40301015408E+02  0.00000000000E+00 0.  1.
          2    1    1    2  502    0 -0.23294847289E+02 -0.14892259997E+01 -0.72043544197E+03  0.72081349443E+03  0.00000000000E+00 0.  1.
</event>
<event>
 4    1  0.9396402E+003  0.2324575E+02  0.7546771E-02  0.1489435E+00
          2   -1    0    0  501    0  0.00000000000E+00  0.00000000000E+00  0.76829379389E+03  0.76829379389E+03  0.00000000000E+00 0.  1.
          2   -1    0    0  502    0 -0.00000000000E+00 -0.00000000000E+00 -0.68688175657E+03  0.68688175657E+03  0.00000000000E+00 0. -1.
          2    1    1    2  501    0 -0.23218534357E+02 -0.11246041585E+01 -0.68650915509E+03  0.68690260234E+03  0.00000000000E+00 0. -1.
          2    1    1    2  502    0  0.23218534357E+02  0.11246041585E+01  0.76792119241E+03  0.76827294812E+03  0.00000000000E+00 0.  1.
</event>
<event>
 4    1  0.1126370E+004  0.2382038E+02  0.7546771E-02  0.1482446E+00
          2   -1    0    0  502    0  0.00000000000E+00  0.00000000000E+00  0.15895681553E+04  0.15895681553E+04  0.00000000000E+00 0.  1.
          2   -1    0    0  501    0 -0.00000000000E+00 -0.00000000000E+00 -0.75288167667E+03  0.75288167667E+03  0.00000000000E+00 0. -1.
          2    1    1    2  501    0 -0.23818455423E+02  0.30273986106E+00  0.15892904698E+04  0.15894689704E+04  0.00000000000E+00 0.  1.
          2    1    1    2  502    0  0.23818455423E+02 -0.30273986106E+00 -0.75260399113E+03  0.75298086160E+03  0.00000000000E+00 0. -1.
</event>
<event>
 4    1  0.6210801E+003  0.6322866E+02  0.7546771E-02  0.1249240E+00
          2   -1    0    0  501    0  0.00000000000E+00  0.00000000000E+00  0.10981883995E+03  0.10981883995E+03  0.00000000000E+00 0.  1.
          2   -1    0    0  502    0 -0.00000000000E+00 -0.00000000000E+00 -0.83593812431E+03  0.83593812431E+03  0.00000000000E+00 0. -1.
          2    1    1    2  501    0  0.53817837569E+02 -0.33188906463E+02 -0.82552684985E+03  0.82794471010E+03  0.00000000000E+00 0. -1.
          2    1    1    2  502    0 -0.53817837569E+02  0.33188906463E+02  0.99407565491E+02  0.11781225416E+03  0.00000000000E+00 0.  1.
</event>
<event>
 4    1  0.6210801E+003  0.2037246E+02  0.7546771E-02  0.1528416E+00
          2   -1    0    0  502    0  0.00000000000E+00  0.00000000000E+00  0.25539321614E+01  0.25539321614E+01  0.00000000000E+00 0. -1.
          2   -1    0    0  501    0 -0.00000000000E+00 -0.00000000000E+00 -0.13225438197E+04  0.13225438197E+04  0.00000000000E+00 0.  1.
          2    1    1    2  501    0  0.16502221335E+02  0.11946295325E+02 -0.39485528656E+02  0.44431343152E+02  0.00000000000E+00 0. -1.
          2    1    1    2  502    0 -0.16502221335E+02 -0.11946295325E+02 -0.12805043589E+04  0.12806664088E+04  0.00000000000E+00 0.  1.
</event>
<event>
 4    1  0.6210801E+003  0.2841796E+02  0.7546771E-02  0.1433862E+00
          2   -1    0    0  501    0  0.00000000000E+00  0.00000000000E+00  0.36551238886E+02  0.36551238886E+02  0.00000000000E+00 0.  1.
          2   -1    0    0  502    0 -0.00000000000E+00 -0.00000000000E+00 -0.28016599565E+02  0.28016599565E+02  0.00000000000E+00 0.  1.
          2    1    1    2  501    0  0.10797950186E+02 -0.26286586390E+02 -0.10575533513E+02  0.30321976541E+02  0.00000000000E+00 0.  1.
          2    1    1    2  502    0 -0.10797950186E+02  0.26286586390E+02  0.19110172833E+02  0.34245861910E+02  0.00000000000E+00 0.  1.
</event>
<event>
 4    1  0.6210801E+003  0.2468825E+02  0.7546771E-02  0.1472321E+00
          2   -1    0    0  502    0  0.00000000000E+00  0.00000000000E+00  0.69543502288E+01  0.69543502288E+01  0.00000000000E+00 0. -1.
          2   -1    0    0  501    0 -0.00000000000E+00 -0.00000000000E+00 -0.11771760507E+03  0.11771760507E+03  0.00000000000E+00 0. -1.
          2    1    1    2  501    0 -0.16793057860E+02  0.18097036187E+02 -0.23874538452E+02  0.34343894615E+02  0.00000000000E+00 0. -1.
          2    1    1    2  502    0  0.16793057860E+02 -0.18097036187E+02 -0.86888716384E+02  0.90328060678E+02  0.00000000000E+00 0. -1.
</event>
<event>
 4    1  0.6210801E+003  0.2248764E+02  0.7546771E-02  0.1499034E+00
          2   -1    0    0  502    0  0.00000000000E+00  0.00000000000E+00  0.10987482588E+04  0.10987482588E+04  0.00000000000E+00 0. -1.
          2   -1    0    0  501    0 -0.00000000000E+00 -0.00000000000E+00 -0.12495524789E+03  0.12495524789E+03  0.00000000000E+00 0.  1.
          2    1    1    2  501    0  0.21052088375E+02  0.79059219406E+01  0.10976204076E+04  0.10978507427E+04  0.00000000000E+00 0. -1.
          2    1    1    2  502    0 -0.21052088375E+02 -0.79059219406E+01 -0.12382739672E+03  0.12585276399E+03  0.00000000000E+00 0.  1.
</event>
<event>
 4    1  0.6210801E+003  0.3748408E+02  0.7546771E-02  0.1363895E+00
          2   -1    0    0  501    0  0.00000000000E+00  0.00000000000E+00  0.16276273516E+02  0.16276273516E+02  0.00000000000E+00 0. -1.
          2   -1    0    0  502    0 -0.00000000000E+00 -0.00000000000E+00 -0.15424395528E+03  0.15424395528E+03  0.00000000000E+00 0.  1.
          2    1    1    2  501    0  0.39627884445E+01 -0.37274023946E+02 -0.12556031915E+03  0.13103606488E+03  0.00000000000E+00 0.  1.
          2    1    1    2  502    0 -0.39627884445E+01  0.37274023946E+02 -0.12407362615E+02  0.39484163919E+02  0.00000000000E+00 0. -1.
</event>
<event>
 4    1  0.6210801E+003  0.2642517E+02  0.7546771E-02  0.1453469E+00
          2   -1    0    0  501    0  0.00000000000E+00  0.00000000000E+00  0.51530694471E+03  0.51530694471E+03  0.00000000000E+00 0. -1.
          2   -1    0    0  502    0 -0.00000000000E+00 -0.00000000000E+00 -0.14801044696E+01  0.14801044696E+01  0.00000000000E+00 0. -1.
          2    1    1    2  501    0  0.11889752317E+02  0.23599225349E+02  0.18181900680E+03  0.18372925973E+03  0.00000000000E+00 0. -1.
          2    1    1    2  502    0 -0.11889752317E+02 -0.23599225349E+02  0.33200783343E+03  0.33305778944E+03  0.00000000000E+00 0. -1.
</event>
<event>
 4    1  0.6210801E+003  0.7282254E+02  0.7546771E-02  0.1221568E+00
          2   -1    0    0  501    0  0.00000000000E+00  0.00000000000E+00  0.58778934988E+03  0.58778934988E+03  0.00000000000E+00 0. -1.
          2   -1    0    0  502    0 -0.00000000000E+00 -0.00000000000E+00 -0.16586217543E+02  0.16586217543E+02  0.00000000000E+00 0.  1.
          2    1    1    2  501    0  0.66128807649E+02 -0.30497595867E+02  0.81530713500E+02  0.10931779269E+03  0.00000000000E+00 0.  1.
          2    1    1    2  502    0 -0.66128807649E+02  0.30497595867E+02  0.48967241884E+03  0.49505777473E+03  0.00000000000E+00 0. -1.
</event>
<event>
 4    1  0.6210801E+003  0.2115987E+02  0.7546771E-02  0.1516995E+00
          2   -1    0    0  502    0  0.00000000000E+00  0.00000000000E+00  0.11181568086E+02  0.11181568086E+02  0.00000000000E+00 0. -1.
          2   -1    0    0  501    0 -0.00000000000E+00 -0.00000000000E+00 -0.10862171601E+04  0.10862171601E+04  0.00000000000E+00 0.  1.
          2    1    1    2  501    0 -0.13750544675E+02 -0.16082987312E+02  0.97288005483E+00  0.21182220265E+02  0.00000000000E+00 0. -1.
          2    1    1    2  502    0  0.13750544675E+02  0.16082987312E+02 -0.10760084721E+04  0.10762165079E+04  0.00000000000E+00 0.  1.
</event>
<event>
 4    1  0.1031814E+004  0.2682659E+02  0.7546771E-02  0.1449358E+00
          2   -1    0    0  501    0  0.00000000000E+00  0.00000000000E+00  0.65610606668E+03  0.65610606668E+03  0.00000000000E+00 0. -1.
          2   -1    0    0  502    0 -0.00000000000E+00 -0.00000000000E+00 -0.19798136895E+04  0.19798136895E+04  0.00000000000E+00 0. -1.
          2    1    1    2  501    0  0.20336776942E+01 -0.26749397543E+02 -0.19794485447E+04  0.19796303209E+04  0.00000000000E+00 0. -1.
          2    1    1    2  502    0 -0.20336776942E+01  0.26749397543E+02  0.65574092195E+03  0.65628943526E+03  0.00000000000E+00 0. -1.
</event>
<event>
 4    1  0.6210801E+003  0.2351065E+02  0.7546771E-02  0.1486184E+00
          2   -1    0    0  501    0  0.00000000000E+00  0.00000000000E+00  0.23668398159E+02  0.23668398159E+02  0.00000000000E+00 0. -1.
          2   -1    0    0  502    0 -0.00000000000E+00 -0.00000000000E+00 -0.13261214052E+03  0.13261214052E+03  0.00000000000E+00 0. -1.
          2    1    1    2  501    0  0.20005090579E+02  0.12350991956E+02 -0.12539865346E+03  0.12758359197E+03  0.00000000000E+00 0. -1.
          2    1    1    2  502    0 -0.20005090579E+02 -0.12350991956E+02  0.16454911094E+02  0.28696946710E+02  0.00000000000E+00 0. -1.
</event>
<event>
 4    1  0.6210801E+003  0.3524289E+02  0.7546771E-02  0.1378864E+00
          2   -1    0    0  502    0  0.00000000000E+00  0.00000000000E+00  0.15425767782E+01  0.15425767782E+01  0.00000000000E+00 0.  1.
          2   -1    0    0  501    0 -0.00000000000E+00 -0.00000000000E+00 -0.15425533818E+04  0.15425533818E+04  0.00000000000E+00 0. -1.
          2    1    1    2  501    0  0.35175511814E+02  0.21782842760E+01 -0.23672074349E+03  0.23932983924E+03  0.00000000000E+00 0.  1.
          2    1    1    2  502    0 -0.35175511814E+02 -0.21782842760E+01 -0.13042900615E+04  0.13047661194E+04  0.00000000000E+00 0. -1.
</event>
<event>
 4    1  0.6210801E+003  0.2393843E+02  0.7546771E-02  0.1481039E+00
          2   -1    0    0  501    0  0.00000000000E+00  0.00000000000E+00  0.15130187703E+04  0.15130187703E+04  0.00000000000E+00 0.  1.
          2   -1    0    0  502    0 -0.00000000000E+00 -0.00000000000E+00 -0.23043144910E+01  0.23043144910E+01  0.00000000000E+00 0.  1.
          2    1    1    2  501    0  0.23794811892E+02  0.26182452607E+01  0.62754867351E+02  0.67165628543E+02  0.00000000000E+00 0.  1.
          2    1    1    2  502    0 -0.23794811892E+02 -0.26182452607E+01  0.14479595884E+04  0.14481574562E+04  0.00000000000E+00 0.  1.
</event>
<event>
 4    1  0.6210801E+003  0.2299840E+02  0.7546771E-02  0.1492518E+00
          2   -1    0    0  502    0  0.00000000000E+00  0.00000000000E+00  0.30264100979E+03  0.30264100979E+03  0.00000000000E+00 0.  1.
          2   -1    0    0  501    0 -0.00000000000E+00 -0.00000000000E+00 -0.81195555881E+03  0.81195555881E+03  0.00000000000E+00 0.  1.
          2    1    1    2  501    0 -0.21468240435E+02  0.82487140318E+01  0.30204090513E+03  0.30291522742E+03  0.00000000000E+00 0.  1.
          2    1    1    2  502    0  0.21468240435E+02 -0.82487140318E+01 -0.81135545415E+03  0.81168134118E+03  0.00000000000E+00 0.  1.
</event>
<event>
 4    1  0.6210801E+003  0.2889682E+02  0.7546771E-02  0.1429431E+00
          2   -1    0    0  502    0  0.00000000000E+00  0.00000000000E+00  0.11211421985E+01  0.11211421985E+01  0.00000000000E+00 0.  1.
          2   -1    0    0  501    0 -0.00000000000E+00 -0.00000000000E+00 -0.10041483780E+04  0.10041483780E+04  0.00000000000E+00 0.  1.
          2    1    1    2  501    0  0.24672457166E+02 -0.15043133838E+02 -0.24606952861E+03  0.24776044666E+03  0.00000000000E+00 0.  1.
          2    1    1    2  502    0 -0.24672457166E+02  0.15043133838E+02 -0.75695770715E+03  0.75750907350E+03  0.00000000000E+00 0.  1.
</event>
<event>
 4    1  0.6210801E+003  0.2391053E+02  0.7546771E-02  0.1481371E+00
          2   -1    0    0  501    0  0.00000000000E+00  0.00000000000E+00  0.73897655673E+00  0.73897655673E+00  0.00000000000E+00 0. -1.
          2   -1    0    0  502    0 -0.00000000000E+00 -0.00000000000E+00 -0.12514850067E+04  0.12514850067E+04  0.00000000000E+00 0. -1.
          2    1    1    2  501    0 -0.21278170739E+02  0.10906547001E+02 -0.10122524581E+04  0.10125348154E+04  0.00000000000E+00 0. -1.
          2    1    1    2  502    0  0.21278170739E+02 -0.10906547001E+02 -0.23849357206E+03  0.23968916794E+03  0.00000000000E+00 0. -1.
</event>
<event>
 4    1  0.6210801E+003  0.2673327E+02  0.7546771E-02  0.1450306E+00
          2   -1    0    0  502    0  0.00000000000E+00  0.00000000000E+00  0.42900517811E+01  0.42900517811E+01  0.00000000000E+00 0.  1.
          2   -1    0    0  501    0 -0.00000000000E+00 -0.00000000000E+00 -0.17165158920E+03  0.17165158920E+03  0.00000000000E+00 0. -1.
          2    1    1    2  501    0 -0.21640376652E+02  0.15695912039E+02 -0.98791303716E+02  0.10234446368E+03  0.00000000000E+00 0. -1.
          2    1    1    2  502    0  0.21640376652E+02 -0.15695912039E+02 -0.68570233702E+02  0.73597177299E+02  0.00000000000E+00 0.  1.
</event>
<event>
 4    1  0.6210801E+003  0.2989019E+02  0.7546771E-02  0.1420553E+00
          2   -1    0    0  502    0  0.00000000000E+00  0.00000000000E+00  0.34708757344E+03  0.34708757344E+03  0.00000000000E+00 0. -1.
          2   -1    0    0  501    0 -0.00000000000E+00 -0.00000000000E+00 -0.38140023430E+01  0.38140023430E+01  0.00000000000E+00 0. -1.
          2    1    1    2  501    0 -0.28817594583E+02 -0.79353428898E+01  0.27167501618E+03  0.27331435718E+03  0.00000000000E+00 0. -1.
          2    1    1    2  502    0  0.28817594583E+02  0.79353428898E+01  0.71598554917E+02  0.77587218603E+02  0.00000000000E+00 0. -1.
</event>
<event>
 4    1  0.6210801E+003  0.4286211E+02  0.7546771E-02  0.1332484E+00
          2   -1    0    0  502    0  0.00000000000E+00  0.00000000000E+00  0.14965544807E+01  0.14965544807E+01  0.00000000000E+00 0. -1.
          2   -1    0    0  501    0 -0.00000000000E+00 -0.00000000000E+00 -0.16227872781E+04  0.16227872781E+04  0.00000000000E+00 0. -1.
          2    1    1    2  501    0 -0.42333419225E+02 -0.67113595399E+01 -0.12114254282E+04  0.12121834551E+04  0.00000000000E+00 0. -1.
          2    1    1    2  502    0  0.42333419225E+02  0.67113595399E+01 -0.40986529543E+03  0.41210037749E+03  0.00000000000E+00 0. -1.
</event>
<event>
 4    1  0.6210801E+003  0.2165955E+02  0.7546771E-02  0.1510053E+00
          2   -1    0    0  501    0  0.00000000000E+00  0.00000000000E+00  0.10496173965E+04  0.10496173965E+04  0.00000000000E+00 0.  1.
          2   -1    0    0  502    0 -0.00000000000E+00 -0.00000000000E+00 -0.97782588241E+01  0.97782588241E+01  0.00000000000E+00 0. -1.
          2    1    1    2  501    0  0.13889222721E+02  0.16620037945E+02  0.24694458285E+01  0.21799869995E+02  0.00000000000E+00 0. -1.
          2    1    1    2  502    0 -0.13889222721E+02 -0.16620037945E+02  0.10373696918E+04  0.10375957853E+04  0.00000000000E+00 0.  1.
</event>
<event>
 4    1  0.6210801E+003  0.2332212E+02  0.7546771E-02  0.1488492E+00
          2   -1    0    0  502    0  0.00000000000E+00  0.00000000000E+00  0.65064925231E+03  0.65064925231E+03  0.00000000000E+00 0.  1.
          2   -1    0    0  501    0 -0.00000000000E+00 -0.00000000000E+00 -0.23335471144E+03  0.23335471144E+03  0.00000000000E+00 0. -1.
          2    1    1    2  501    0  0.20851970643E+02 -0.10445880479E+02  0.64985683110E+03  0.65027518946E+03  0.00000000000E+00 0.  1.
          2    1    1    2  502    0 -0.20851970643E+02  0.10445880479E+02 -0.23256229022E+03  0.23372877429E+03  0.00000000000E+00 0. -1.
</event>
<event>
 4    1  0.6210801E+003  0.8332346E+02  0.7546771E-02  0.1196335E+00
          2   -1    0    0  502    0  0.00000000000E+00  0.00000000000E+00  0.63282313358E+02  0.63282313358E+02  0.00000000000E+00 0.  1.
          2   -1    0    0  501    0 -0.00000000000E+00 -0.00000000000E+00 -0.11202287278E+03  0.11202287278E+03  0.00000000000E+00 0.  1.
          2    1    1    2  501    0 -0.82508028686E+02 -0.11628611480E+02 -0.36960798372E+02  0.91153167904E+02  0.00000000000E+00 0.  1.
          2    1    1    2  502    0  0.82508028686E+02  0.11628611480E+02 -0.11779761050E+02  0.84152018235E+02  0.00000000000E+00 0.  1.
</event>
<event>
 4    1  0.6210801E+003  0.2065856E+02  0.7546771E-02  0.1524196E+00
          2   -1    0    0  502    0  0.00000000000E+00  0.00000000000E+00  0.87987738057E+02  0.87987738057E+02  0.00000000000E+00 0. -1.
          2   -1    0    0  501    0 -0.00000000000E+00 -0.00000000000E+00 -0.10235536711E+02  0.10235536711E+02  0.00000000000E+00 0. -1.
          2    1    1    2  501    0  0.17572238501E+02  0.10862437269E+02  0.74498838439E+02  0.77310109547E+02  0.00000000000E+00 0. -1.
          2    1    1    2  502    0 -0.17572238501E+02 -0.10862437269E+02  0.32533629069E+01  0.20913165221E+02  0.00000000000E+00 0. -1.
</event>
<event>
 4    1  0.6210801E+003  0.3976176E+02  0.7546771E-02  0.1349888E+00
          2   -1    0    0  501    0  0.00000000000E+00  0.00000000000E+00  0.16258881877E+01  0.16258881877E+01  0.00000000000E+00 0.  1.
          2   -1    0    0  502    0 -0.00000000000E+00 -0.00000000000E+00 -0.16735604777E+04  0.16735604777E+04  0.00000000000E+00 0.  1.
          2    1    1    2  501    0  0.39704255987E+02  0.21375999923E+01 -0.13781232914E+04  0.13786967773E+04  0.00000000000E+00 0.  1.
          2    1    1    2  502    0 -0.39704255987E+02 -0.21375999923E+01 -0.29381129815E+03  0.29648958868E+03  0.00000000000E+00 0.  1.
</event>
<event>
 4    1  0.6210801E+003  0.2462488E+02  0.7546771E-02  0.1473044E+00
          2   -1    0    0  501    0  0.00000000000E+00  0.00000000000E+00  0.83770547380E+03  0.83770547380E+03  0.00000000000E+00 0. -1.
          2   -1    0    0  502    0 -0.00000000000E+00 -0.00000000000E+00 -0.59237752202E+01  0.59237752202E+01  0.00000000000E+00 0. -1.
          2    1    1    2  501    0 -0.38394926478E+01  0.24323714672E+02  0.20687775541E+02  0.32161605309E+02  0.00000000000E+00 0. -1.
          2    1    1    2  502    0  0.38394926478E+01 -0.24323714672E+02  0.81109392303E+03  0.81146764371E+03  0.00000000000E+00 0. -1.
</event>
<event>
 4    1  0.6210801E+003  0.3378314E+02  0.7546771E-02  0.1389326E+00
          2   -1    0    0  501    0  0.00000000000E+00  0.00000000000E+00  0.15442972388E+04  0.15442972388E+04  0.00000000000E+00 0. -1.
          2   -1    0    0  502    0 -0.00000000000E+00 -0.00000000000E+00 -0.36433758017E+01  0.36433758017E+01  0.00000000000E+00 0.  1.
          2    1    1    2  501    0  0.15661286655E+02 -0.29933669571E+02  0.79299032120E+02  0.86195341921E+02  0.00000000000E+00 0.  1.
          2    1    1    2  502    0 -0.15661286655E+02  0.29933669571E+02  0.14613548309E+04  0.14617452727E+04  0.00000000000E+00 0. -1.
</event>
<event>
 4    1  0.6210801E+003  0.2850750E+02  0.7546771E-02  0.1433026E+00
          2   -1    0    0  502    0  0.00000000000E+00  0.00000000000E+00  0.56310397774E+02  0.56310397774E+02  0.00000000000E+00 0. -1.
          2   -1    0    0  501    0 -0.00000000000E+00 -0.00000000000E+00 -0.88389961300E+02  0.88389961300E+02  0.00000000000E+00 0.  1.
          2    1    1    2  501    0  0.28223765313E+02  0.40120918193E+01  0.50140755151E+02  0.57678185966E+02  0.00000000000E+00 0. -1.
          2    1    1    2  502    0 -0.28223765313E+02 -0.40120918193E+01 -0.82220318677E+02  0.87022173108E+02  0.00000000000E+00 0.  1.
</event>
<event>
 4    1  0.6210801E+003  0.2053993E+02  0.7546771E-02  0.1525936E+00
          2   -1    0    0  501    0  0.00000000000E+00  0.00000000000E+00  0.13488597441E+02  0.13488597441E+02  0.00000000000E+00 0. -1.
          2   -1    0    0  502    0 -0.00000000000E+00 -0.00000000000E+00 -0.20559250620E+03  0.20559250620E+03  0.00000000000E+00 0. -1.
          2    1    1    2  501    0 -0.89149894282E+00  0.20520577067E+02 -0.19691654761E+03  0.19798488725E+03  0.00000000000E+00 0. -1.
          2    1    1    2  502    0  0.89149894282E+00 -0.20520577067E+02  0.48126388537E+01  0.21096216397E+02  0.00000000000E+00 0. -1.
</event>
<event>
 4    1  0.6210801E+003  0.2671434E+02  0.7546771E-02  0.1450499E+00
          2   -1    0    0  502    0  0.00000000000E+00  0.00000000000E+00  0.97790957961E+03  0.97790957961E+03  0.00000000000E+00 0.  1.
          2   -1    0    0  501    0 -0.00000000000E+00 -0.00000000000E+00 -0.12132986247E+01  0.12132986247E+01  0.00000000000E+00 0.  1.
          2    1    1    2  501    0 -0.16902845886E+02 -0.20686942446E+02  0.79740000066E+03  0.79784736437E+03  0.00000000000E+00 0.  1.
          2    1    1    2  502    0  0.16902845886E+02  0.20686942446E+02  0.17929628033E+03  0.18127551386E+03  0.00000000000E+00 0.  1.
</event>
<event>
 4    1  0.6210801E+003  0.2404458E+02  0.7546771E-02  0.1479782E+00
          2   -1    0    0  501    0  0.00000000000E+00  0.00000000000E+00  0.92219672189E+03  0.92219672189E+03  0.00000000000E+00 0.  1.
          2   -1    0    0  502    0 -0.00000000000E+00 -0.00000000000E+00 -0.65005182357E+00  0.65005182357E+00  0.00000000000E+00 0.  1.
          2    1    1    2  501    0  0.13028629710E+02 -0.20208822482E+02  0.37372718066E+03  0.37449986283E+03  0.00000000000E+00 0.  1.
          2    1    1    2  502    0 -0.13028629710E+02  0.20208822482E+02  0.54781948941E+03  0.54834691089E+03  0.00000000000E+00 0.  1.
</event>
<event>
 4    1  0.6210801E+003  0.2494299E+02  0.7546771E-02  0.1469442E+00
          2   -1    0    0  501    0  0.00000000000E+00  0.00000000000E+00  0.30728285081E+02  0.30728285081E+02  0.00000000000E+00 0. -1.
          2   -1    0    0  502    0 -0.00000000000E+00 -0.00000000000E+00 -0.52760668479E+03  0.52760668479E+03  0.00000000000E+00 0. -1.
          2    1    1    2  501    0  0.21402212903E+02 -0.12810066288E+02 -0.52219776092E+03  0.52279312737E+03  0.00000000000E+00 0. -1.
          2    1    1    2  502    0 -0.21402212903E+02  0.12810066288E+02  0.25319361217E+02  0.35541842494E+02  0.00000000000E+00 0. -1.
</event>
<event>
 4    1  0.6210801E+003  0.2148286E+02  0.7546771E-02  0.1512481E+00
          2   -1    0    0  501    0  0.00000000000E+00  0.00000000000E+00  0.22515945147E+00  0.22515945147E+00  0.00000000000E+00 0. -1.
          2   -1    0    0  502    0 -0.00000000000E+00 -0.00000000000E+00 -0.20539026747E+04  0.20539026747E+04  0.00000000000E+00 0. -1.
          2    1    1    2  501    0 -0.60144599248E+01 -0.20623766561E+02 -0.98048162677E+03  0.98071694893E+03  0.00000000000E+00 0. -1.
          2    1    1    2  502    0  0.60144599248E+01  0.20623766561E+02 -0.10731958885E+04  0.10734108853E+04  0.00000000000E+00 0. -1.
</event>
<event>
 4    1  0.6210801E+003  0.3377957E+02  0.7546771E-02  0.1389352E+00
          2   -1    0    0  502    0  0.00000000000E+00  0.00000000000E+00  0.10225037220E+04  0.10225037220E+04  0.00000000000E+00 0. -1.
          2   -1    0    0  501    0 -0.00000000000E+00 -0.00000000000E+00 -0.16910001357E+03  0.16910001357E+03  0.00000000000E+00 0.  1.
          2    1    1    2  501    0 -0.20819475900E+02 -0.26600923049E+02  0.10205345213E+04  0.10210934183E+04  0.00000000000E+00 0. -1.
          2    1    1    2  502    0  0.20819475900E+02  0.26600923049E+02 -0.16713081289E+03  0.17051031728E+03  0.00000000000E+00 0.  1.
</event>
<event>
 4    1  0.6210801E+003  0.2492448E+02  0.7546771E-02  0.1469650E+00
          2   -1    0    0  501    0  0.00000000000E+00  0.00000000000E+00  0.10689420682E+03  0.10689420682E+03  0.00000000000E+00 0.  1.
          2   -1    0    0  502    0 -0.00000000000E+00 -0.00000000000E+00 -0.14478669758E+03  0.14478669758E+03  0.00000000000E+00 0. -1.
          2    1    1    2  501    0  0.18879501982E+02  0.16272495188E+02 -0.14223526078E+03  0.14440255920E+03  0.00000000000E+00 0. -1.
          2    1    1    2  502    0 -0.18879501982E+02 -0.16272495188E+02  0.10434277001E+03  0.10727834520E+03  0.00000000000E+00 0.  1.
</event>
<event>
 4    1  0.6210801E+003  0.2024070E+02  0.7546771E-02  0.1530387E+00
          2   -1    0    0  501    0  0.00000000000E+00  0.00000000000E+00  0.13319125594E+04  0.13319125594E+04  0.00000000000E+00 0. -1.
          2   -1    0    0  502    0 -0.00000000000E+00 -0.00000000000E+00 -0.42827036264E+01  0.42827036264E+01  0.00000000000E+00 0.  1.
          2    1    1    2  501    0  0.14391144475E+02  0.14233090026E+02  0.20156328416E+02  0.28565074238E+02  0.00000000000E+00 0.  1.
          2    1    1    2  502    0 -0.14391144475E+02 -0.14233090026E+02  0.13074735274E+04  0.13076301888E+04  0.00000000000E+00 0. -1.
</event>
<event>
 4    1  0.6210801E+003  0.2187943E+02  0.7546771E-02  0.1507070E+00
          2   -1    0    0  502    0  0.00000000000E+00  0.00000000000E+00  0.59360024525E+03  0.59360024525E+03  0.00000000000E+00 0.  1.
          2   -1    0    0  501    0 -0.00000000000E+00 -0.00000000000E+00 -0.99467390894E+01  0.99467390894E+01  0.00000000000E+00 0.  1.
          2    1    1    2  501    0 -0.19358160181E+02  0.10196621424E+02  0.58110825923E+03  0.58152000688E+03  0.00000000000E+00 0.  1.
          2    1    1    2  502    0  0.19358160181E+02 -0.10196621424E+02  0.25452469288E+01  0.22026977460E+02  0.00000000000E+00 0.  1.
</event>
<event>
 4    1  0.6210801E+003  0.3576634E+02  0.7546771E-02  0.1375254E+00
          2   -1    0    0  502    0  0.00000000000E+00  0.00000000000E+00  0.14597666090E+01  0.14597666090E+01  0.00000000000E+00 0. -1.
          2   -1    0    0  501    0 -0.00000000000E+00 -0.00000000000E+00 -0.87838204380E+03  0.87838204380E+03  0.00000000000E+00 0. -1.
          2    1    1    2  501    0  0.29317455759E+02 -0.20487010891E+02 -0.41717519564E+03  0.41870559429E+03  0.00000000000E+00 0. -1.
          2    1    1    2  502    0 -0.29317455759E+02  0.20487010891E+02 -0.45974708155E+03  0.46113621612E+03  0.00000000000E+00 0. -1.
</event>
<event>
 4    1  0.6210801E+003  0.2175309E+02  0.7546771E-02  0.1508779E+00
          2   -1    0    0  501    0  0.00000000000E+00  0.00000000000E+00  0.19796861802E+01  0.19796861802E+01  0.00000000000E+00 0.  1.
          2   -1    0    0  502    0 -0.00000000000E+00 -0.00000000000E+00 -0.31030655037E+03  0.31030655037E+03  0.00000000000E+00 0.  1.
          2    1    1    2  501    0  0.20325176850E+02 -0.77513996790E+01 -0.22899969027E+03  0.23003055266E+03  0.00000000000E+00 0.  1.
          2    1    1    2  502    0 -0.20325176850E+02  0.77513996790E+01 -0.79327173917E+02  0.82255683893E+02  0.00000000000E+00 0.  1.
</event>
<event>
 4    1  0.6210801E+003  0.2590994E+02  0.7546771E-02  0.1458876E+00
          2   -1    0    0  502    0  0.00000000000E+00  0.00000000000E+00  0.64337515681E+03  0.64337515681E+03  0.00000000000E+00 0.  1.
          2   -1    0    0  501    0 -0.00000000000E+00 -0.00000000000E+00 -0.29896138500E+02  0.29896138500E+02  0.00000000000E+00 0.  1.
          2    1    1    2  501    0 -0.10878906042E+01 -0.25887087521E+02  0.63744831326E+03  0.63797466790E+03  0.00000000000E+00 0.  1.
          2    1    1    2  502    0  0.10878906042E+01  0.25887087521E+02 -0.23969294947E+02  0.35296627411E+02  0.00000000000E+00 0.  1.
</event>
<event>
 4    1  0.6210801E+003  0.1538771E+03  0.7546771E-02  0.1093708E+00
          2   -1    0    0  501    0  0.00000000000E+00  0.00000000000E+00  0.13027768939E+04  0.13027768939E+04  0.00000000000E+00 0.  1.
          2   -1    0    0  502    0 -0.00000000000E+00 -0.00000000000E+00 -0.51591119209E+02  0.51591119209E+02  0.00000000000E+00 0.  1.
          2    1    1    2  501    0  0.14845420359E+03  0.40490839816E+02  0.80593162842E+02  0.17370496990E+03  0.00000000000E+00 0.  1.
          2    1    1    2  502    0 -0.14845420359E+03 -0.40490839816E+02  0.11705926119E+04  0.11806630432E+04  0.00000000000E+00 0.  1.
</event>
<event>
 4    1  0.6210801E+003  0.2664628E+02  0.7546771E-02  0.1451194E+00
          2   -1    0    0  501    0  0.00000000000E+00  0.00000000000E+00  0.18654529519E+04  0.18654529519E+04  0.00000000000E+00 0.  1.
          2   -1    0    0  502    0 -0.00000000000E+00 -0.00000000000E+00 -0.56111442271E+00  0.56111442271E+00  0.00000000000E+00 0. -1.
          2    1    1    2  501    0  0.23917315229E+02  0.11746750326E+02  0.40327733064E+03  0.40415668932E+03  0.00000000000E+00 0. -1.
          2    1    1    2  502    0 -0.23917315229E+02 -0.11746750326E+02  0.14616145069E+04  0.14618573770E+04  0.00000000000E+00 0.  1.
</event>
<event>
 4    1  0.6210801E+003  0.2395429E+02  0.7546771E-02  0.1480851E+00
          2   -1    0    0  501    0  0.00000000000E+00  0.00000000000E+00  0.10137833314E+03  0.10137833314E+03  0.00000000000E+00 0. -1.
          2   -1    0    0  502    0 -0.00000000000E+00 -0.00000000000E+00 -0.19048414292E+02  0.19048414292E+02  0.00000000000E+00 0.  1.
          2    1    1    2  501    0  0.85315142678E+01  0.22383501988E+02 -0.93159387564E+01  0.25702035170E+02  0.00000000000E+00 0.  1.
          2    1    1    2  502    0 -0.85315142678E+01 -0.22383501988E+02  0.91645857600E+02  0.94724712257E+02  0.00000000000E+00 0. -1.
</event>
<event>
 4    1  0.6210801E+003  0.4897004E+02  0.7546771E-02  0.1302701E+00
          2   -1    0    0  501    0  0.00000000000E+00  0.00000000000E+00  0.80899240862E+01  0.80899240862E+01  0.00000000000E+00 0.  1.
          2   -1    0    0  502    0 -0.00000000000E+00 -0.00000000000E+00 -0.35334081471E+03  0.35334081471E+03  0.00000000000E+00 0.  1.
          2    1    1    2  501    0 -0.43708740240E+02 -0.22081909895E+02 -0.24515423571E+03  0.24999732800E+03  0.00000000000E+00 0.  1.
          2    1    1    2  502    0  0.43708740240E+02  0.22081909895E+02 -0.10009665491E+03  0.11143341080E+03  0.00000000000E+00 0.  1.
</event>
<event>
 4    1  0.6210801E+003  0.2093633E+02  0.7546771E-02  0.1520176E+00
          2   -1    0    0  502    0  0.00000000000E+00  0.00000000000E+00  0.79019825530E+01  0.79019825530E+01  0.00000000000E+00 0. -1.
          2   -1    0    0  501    0 -0.00000000000E+00 -0.00000000000E+00 -0.12159380204E+03  0.12159380204E+03  0.00000000000E+00 0.  1.
          2    1    1    2  501    0  0.38253532587E+01  0.20583890243E+02 -0.90989239447E+01  0.22828059095E+02  0.00000000000E+00 0. -1.
          2    1    1    2  502    0 -0.38253532587E+01 -0.20583890243E+02 -0.10459289555E+03  0.10666772550E+03  0.00000000000E+00 0.  1.
</event>
<event>
 4    1  0.6210801E+003  0.2525172E+02  0.7546771E-02  0.1466007E+00
          2   -1    0    0  501    0  0.00000000000E+00  0.00000000000E+00  0.25687087987E+01  0.25687087987E+01  0.00000000000E+00 0.  1.
          2   -1    0    0  502    0 -0.00000000000E+00 -0.00000000000E+00 -0.12774582882E+04  0.12774582882E+04  0.00000000000E+00 0. -1.
          2    1    1    2  501    0  0.97750048289E+01 -0.23283016989E+02 -0.12119183758E+04  0.12121814217E+04  0.00000000000E+00 0. -1.
          2    1    1    2  502    0 -0.97750048289E+01  0.23283016989E+02 -0.62971203573E+02  0.67845575235E+02  0.00000000000E+00 0.  1.
</event>
<event>
 4    1  0.6210801E+003  0.2356172E+02  0.7546771E-02  0.1485563E+00
          2   -1    0    0  502    0  0.00000000000E+00  0.00000000000E+00  0.31511106005E+01  0.31511106005E+01  0.00000000000E+00 0. -1.
          2   -1    0    0  501    0 -0.00000000000E+00 -0.00000000000E+00 -0.75902233630E+03  0.75902233630E+03  0.00000000000E+00 0. -1.
          2    1    1    2  501    0 -0.16719598208E+02 -0.16601494402E+02 -0.43992076637E+02  0.49904482639E+02  0.00000000000E+00 0. -1.
          2    1    1    2  502    0  0.16719598208E+02  0.16601494402E+02 -0.71187914906E+03  0.71226896426E+03  0.00000000000E+00 0. -1.
</event>
<event>
 4    1  0.6210801E+003  0.2078424E+02  0.7546771E-02  0.1522368E+00
          2   -1    0    0  502    0  0.00000000000E+00  0.00000000000E+00  0.11490300555E+04  0.11490300555E+04  0.00000000000E+00 0.  1.
          2   -1    0    0  501    0 -0.00000000000E+00 -0.00000000000E+00 -0.12803515656E+02  0.12803515656E+02  0.00000000000E+00 0.  1.
          2    1    1    2  501    0  0.19332069691E+02 -0.76325372086E+01  0.11404376394E+04  0.11406270179E+04  0.00000000000E+00 0.  1.
          2    1    1    2  502    0 -0.19332069691E+02  0.76325372086E+01 -0.42110995530E+01  0.21206553285E+02  0.00000000000E+00 0.  1.
</event>
<event>
 4    1  0.6210801E+003  0.3891992E+02  0.7546771E-02  0.1354934E+00
          2   -1    0    0  502    0  0.00000000000E+00  0.00000000000E+00  0.73418357746E+03  0.73418357746E+03  0.00000000000E+00 0.  1.
          2   -1    0    0  501    0 -0.00000000000E+00 -0.00000000000E+00 -0.28941942231E+02  0.28941942231E+02  0.00000000000E+00 0.  1.
          2    1    1    2  501    0  0.38035604984E+02  0.82494429364E+01  0.72033187822E+03  0.72138254437E+03  0.00000000000E+00 0.  1.
          2    1    1    2  502    0 -0.38035604984E+02 -0.82494429364E+01 -0.15090242984E+02  0.41742975320E+02  0.00000000000E+00 0.  1.
</event>
<event>
 4    1  0.6210801E+003  0.2291218E+02  0.7546771E-02  0.1493604E+00
          2   -1    0    0  501    0  0.00000000000E+00  0.00000000000E+00  0.72811409059E+03  0.72811409059E+03  0.00000000000E+00 0.  1.
          2   -1    0    0  502    0 -0.00000000000E+00 -0.00000000000E+00 -0.14703269223E+02  0.14703269223E+02  0.00000000000E+00 0.  1.
          2    1    1    2  501    0  0.12895460651E+02 -0.18938725180E+02 -0.54825149031E+01  0.23558993750E+02  0.00000000000E+00 0.  1.
          2    1    1    2  502    0 -0.12895460651E+02  0.18938725180E+02  0.71889333627E+03  0.71925836606E+03  0.00000000000E+00 0.  1.
</event>
<event>
 4    1  0.6210801E+003  0.2169087E+02  0.7546771E-02  0.1509625E+00
          2   -1    0    0  501    0  0.00000000000E+00  0.00000000000E+00  0.28913569992E+01  0.28913569992E+01  0.00000000000E+00 0. -1.
          2   -1    0    0  502    0 -0.00000000000E+00 -0.00000000000E+00 -0.20539369789E+03  0.20539369789E+03  0.00000000000E+00 0. -1.
          2    1    1    2  501    0  0.20943315371E+02  0.56454609972E+01 -0.14871835126E+03  0.15029185504E+03  0.00000000000E+00 0. -1.
          2    1    1    2  502    0 -0.20943315371E+02 -0.56454609972E+01 -0.53783989628E+02  0.57993199851E+02  0.00000000000E+00 0. -1.
</event>
<event>
 4    1  0.6210801E+003  0.2062034E+02  0.7546771E-02  0.1524755E+00
          2   -1    0    0  501    0  0.00000000000E+00  0.00000000000E+00  0.24550585704E+03  0.24550585704E+03  0.00000000000E+00 0. -1.
          2   -1    0    0  502    0 -0.00000000000E+00 -0.00000000000E+00 -0.61085387569E+01  0.61085387569E+01  0.00000000000E+00 0.  1.
          2    1    1    2  501    0  0.18811040318E+02  0.84464920515E+01  0.13209405120E+02  0.24488504435E+02  0.00000000000E+00 0.  1.
          2    1    1    2  502    0 -0.18811040318E+02 -0.84464920515E+01  0.22618791316E+03  0.22712589136E+03  0.00000000000E+00 0. -1.
</event>
<event>
 4    1  0.6210801E+003  0.2238230E+02  0.7546771E-02  0.1500404E+00
          2   -1    0    0  502    0  0.00000000000E+00  0.00000000000E+00  0.62724915065E+01  0.62724915065E+01  0.00000000000E+00 0. -1.
          2   -1    0    0  501    0 -0.00000000000E+00 -0.00000000000E+00 -0.19001839074E+03  0.19001839074E+03  0.00000000000E+00 0. -1.
          2    1    1    2  501    0 -0.22303855611E+02  0.18722235940E+01 -0.17147826290E+02  0.28196012888E+02  0.00000000000E+00 0. -1.
          2    1    1    2  502    0  0.22303855611E+02 -0.18722235940E+01 -0.16659807295E+03  0.16809486936E+03  0.00000000000E+00 0. -1.
</event>
<event>
 4    1  0.6210801E+003  0.5497089E+02  0.7546771E-02  0.1277949E+00
          2   -1    0    0  501    0  0.00000000000E+00  0.00000000000E+00  0.61383551958E+01  0.61383551958E+01  0.00000000000E+00 0.  1.
          2   -1    0    0  502    0 -0.00000000000E+00 -0.00000000000E+00 -0.85655760202E+03  0.85655760202E+03  0.00000000000E+00 0.  1.
          2    1    1    2  501    0  0.20972833380E+02  0.50812785300E+02 -0.70650643040E+03  0.70864175370E+03  0.00000000000E+00 0.  1.
          2    1    1    2  502    0 -0.20972833380E+02 -0.50812785300E+02 -0.14391281643E+03  0.15405420352E+03  0.00000000000E+00 0.  1.
</event>
<event>
 4    1  0.6210801E+003  0.2559577E+02  0.7546771E-02  0.1462248E+00
          2   -1    0    0  501    0  0.00000000000E+00  0.00000000000E+00  0.19674648667E+01  0.19674648667E+01  0.00000000000E+00 0. -1.
          2   -1    0    0  502    0 -0.00000000000E+00 -0.00000000000E+00 -0.94992449448E+03  0.94992449448E+03  0.00000000000E+00 0. -1.
          2    1    1    2  501    0 -0.14793365763E+02 -0.20887788948E+02 -0.85753835967E+03  0.85792026535E+03  0.00000000000E+00 0. -1.
          2    1    1    2  502    0  0.14793365763E+02  0.20887788948E+02 -0.90418669940E+02  0.93971693990E+02  0.00000000000E+00 0. -1.
</event>
<event>
 4    1  0.6210801E+003  0.4775830E+02  0.7546771E-02  0.1308196E+00
          2   -1    0    0  501    0  0.00000000000E+00  0.00000000000E+00  0.26077820799E+02  0.26077820799E+02  0.00000000000E+00 0.  1.
          2   -1    0    0  502    0 -0.00000000000E+00 -0.00000000000E+00 -0.23110940687E+03  0.23110940687E+03  0.00000000000E+00 0.  1.
          2    1    1    2  501    0 -0.47654892438E+02  0.31410196583E+01 -0.20389698061E+03  0.20941545664E+03  0.00000000000E+00 0.  1.
          2    1    1    2  502    0  0.47654892438E+02 -0.31410196583E+01 -0.11346054613E+01  0.47771771030E+02  0.00000000000E+00 0.  1.
</event>
<event>
 4    1  0.6210801E+003  0.2732183E+02  0.7546771E-02  0.1444402E+00
          2   -1    0    0  502    0  0.00000000000E+00  0.00000000000E+00  0.22486863128E+03  0.22486863128E+03  0.00000000000E+00 0. -1.
          2   -1    0    0  501    0 -0.00000000000E+00 -0.00000000000E+00 -0.99547731702E+01  0.99547731702E+01  0.00000000000E+00 0.  1.
          2    1    1    2  501    0 -0.25481275642E+02  0.98583449184E+01  0.20331321532E+03  0.20514079530E+03  0.00000000000E+00 0. -1.
          2    1    1    2  502    0  0.25481275642E+02 -0.98583449184E+01  0.11600642793E+02  0.29682609152E+02  0.00000000000E+00 0.  1.
</event>
<event>
 4    1  0.6210801E+003  0.5681359E+02  0.7546771E-02  0.1271061E+00
          2   -1    0    0  502    0  0.00000000000E+00  0.00000000000E+00  0.11948720482E+03  0.11948720482E+03  0.00000000000E+00 0.  1.
          2   -1    0    0  501    0 -0.00000000000E+00 -0.00000000000E+00 -0.65983451499E+03  0.65983451499E+03  0.00000000000E+00 0. -1.
          2    1    1    2  501    0 -0.46479981570E+02 -0.32671018503E+02  0.11142748984E+03  0.12507545574E+03  0.00000000000E+00 0.  1.
          2    1    1    2  502    0  0.46479981570E+02  0.32671018503E+02 -0.65177480001E+03  0.65424626408E+03  0.00000000000E+00 0. -1.
</event>
<event>
 4    1  0.6210801E+003  0.2357749E+02  0.7546771E-02  0.1485371E+00
          2   -1    0    0  501    0  0.00000000000E+00  0.00000000000E+00  0.21002679025E+03  0.21002679025E+03  0.00000000000E+00 0.  1.
          2   -1    0    0  502    0 -0.00000000000E+00 -0.00000000000E+00 -0.86858505904E+01  0.86858505904E+01  0.00000000000E+00 0. -1.
          2    1    1    2  501    0 -0.11670916101E+02  0.20486285976E+02  0.94857291270E+01  0.25414115227E+02  0.00000000000E+00 0. -1.
          2    1    1    2  502    0  0.11670916101E+02 -0.20486285976E+02  0.19185521053E+03  0.19329852561E+03  0.00000000000E+00 0.  1.
</event>
<event>
 4    1  0.6210801E+003  0.2425867E+02  0.7546771E-02  0.1477270E+00
          2   -1    0    0  501    0  0.00000000000E+00  0.00000000000E+00  0.84114705391E+00  0.84114705391E+00  0.00000000000E+00 0. -1.
          2   -1    0    0  502    0 -0.00000000000E+00 -0.00000000000E+00 -0.85281403020E+03  0.85281403020E+03  0.00000000000E+00 0. -1.
          2    1    1    2  501    0 -0.13105468739E+02 -0.20413959582E+02 -0.60688980793E+03  0.60737444960E+03  0.00000000000E+00 0. -1.
          2    1    1    2  502    0  0.13105468739E+02  0.20413959582E+02 -0.24508307521E+03  0.24628072765E+03  0.00000000000E+00 0. -1.
</event>
<event>
 4    1  0.6210801E+003  0.2384117E+02  0.7546771E-02  0.1482197E+00
          2   -1    0    0  501    0  0.00000000000E+00  0.00000000000E+00  0.26876300636E+00  0.26876300636E+00  0.00000000000E+00 0. -1.
          2   -1    0    0  502    0 -0.00000000000E+00 -0.00000000000E+00 -0.22490672268E+04  0.22490672268E+04  0.00000000000E+00 0. -1.
          2    1    1    2  501    0 -0.23375590438E+02 -0.46886358566E+01 -0.13991118073E+04  0.13993149219E+04  0.00000000000E+00 0. -1.
          2    1    1    2  502    0  0.23375590438E+02  0.46886358566E+01 -0.84968665659E+03  0.85002106792E+03  0.00000000000E+00 0. -1.
</event>
<event>
 4    1  0.6210801E+003  0.2805152E+02  0.7546771E-02  0.1437322E+00
          2   -1    0    0  502    0  0.00000000000E+00  0.00000000000E+00  0.33166582997E+03  0.33166582997E+03  0.00000000000E+00 0. -1.
          2   -1    0    0  501    0 -0.00000000000E+00 -0.00000000000E+00 -0.68456815232E+01  0.68456815232E+01  0.00000000000E+00 0. -1.
          2    1    1    2  501    0  0.26901568696E+02  0.79494146959E+01  0.29922763338E+03  0.30053962163E+03  0.00000000000E+00 0. -1.
          2    1    1    2  502    0 -0.26901568696E+02 -0.79494146959E+01  0.25592515071E+02  0.37971889866E+02  0.00000000000E+00 0. -1.
</event>
<event>
 4    1  0.7118300E+003  0.2118421E+02  0.7546771E-02  0.1516651E+00
          2   -1    0    0  501    0  0.00000000000E+00  0.00000000000E+00  0.60404620037E+03  0.60404620037E+03  0.00000000000E+00 0.  1.
          2   -1    0    0  502    0 -0.00000000000E+00 -0.00000000000E+00 -0.65505519637E+03  0.65505519637E+03  0.00000000000E+00 0. -1.
          2    1    1    2  501    0 -0.11401801969E+00 -0.21183902648E+02 -0.65469808771E+03  0.65504072911E+03  0.00000000000E+00 0. -1.
          2    1    1    2  502    0  0.11401801969E+00  0.21183902648E+02  0.60368909172E+03  0.60406066764E+03  0.00000000000E+00 0.  1.
</event>
<event>
 4    1  0.6210801E+003  0.2346996E+02  0.7546771E-02  0.1486680E+00
          2   -1    0    0  501    0  0.00000000000E+00  0.00000000000E+00  0.79977045186E+02  0.79977045186E+02  0.00000000000E+00 0. -1.
          2   -1    0    0  502    0 -0.00000000000E+00 -0.00000000000E+00 -0.14275150569E+03  0.14275150569E+03  0.00000000000E+00 0. -1.
          2    1    1    2  501    0 -0.15672794085E+02  0.17470053673E+02 -0.14003174569E+03  0.14198496065E+03  0.00000000000E+00 0. -1.
          2    1    1    2  502    0  0.15672794085E+02 -0.17470053673E+02  0.77257285182E+02  0.80743590231E+02  0.00000000000E+00 0. -1.
</event>
<event>
 4    1  0.6210801E+003  0.2044285E+02  0.7546771E-02  0.1527370E+00
          2   -1    0    0  502    0  0.00000000000E+00  0.00000000000E+00  0.71122751563E+02  0.71122751563E+02  0.00000000000E+00 0. -1.
          2   -1    0    0  501    0 -0.00000000000E+00 -0.00000000000E+00 -0.61031430585E+02  0.61031430585E+02  0.00000000000E+00 0. -1.
          2    1    1    2  501    0  0.15425392835E+02  0.13415191465E+02  0.67861429070E+02  0.70873716296E+02  0.00000000000E+00 0. -1.
          2    1    1    2  502    0 -0.15425392835E+02 -0.13415191465E+02 -0.57770108091E+02  0.61280465852E+02  0.00000000000E+00 0. -1.
</event>
<event>
 4    1  0.6210801E+003  0.4389341E+02  0.7546771E-02  0.1327066E+00
          2   -1    0    0  501    0  0.00000000000E+00  0.00000000000E+00  0.23319490161E+01  0.23319490161E+01  0.00000000000E+00 0.  1.
          2   -1    0    0  502    0 -0.00000000000E+00 -0.00000000000E+00 -0.20440772195E+04  0.20440772195E+04  0.00000000000E+00 0.  1.
          2    1    1    2  501    0 -0.94454395658E+00  0.43883250273E+02 -0.18106732216E+04  0.18112051643E+04  0.00000000000E+00 0.  1.
          2    1    1    2  502    0  0.94454395658E+00 -0.43883250273E+02 -0.23107204894E+03  0.23520400426E+03  0.00000000000E+00 0.  1.
</event>
<event>
 4    1  0.6210801E+003  0.3601878E+02  0.7546771E-02  0.1373539E+00
          2   -1    0    0  501    0  0.00000000000E+00  0.00000000000E+00  0.43437811676E+03  0.43437811676E+03  0.00000000000E+00 0.  1.
          2   -1    0    0  502    0 -0.00000000000E+00 -0.00000000000E+00 -0.40809588892E+01  0.40809588892E+01  0.00000000000E+00 0.  1.
          2    1    1    2  501    0  0.35429035234E+02  0.64912302920E+01  0.10162657163E+03  0.10782074322E+03  0.00000000000E+00 0.  1.
          2    1    1    2  502    0 -0.35429035234E+02 -0.64912302920E+01  0.32867058624E+03  0.33063833243E+03  0.00000000000E+00 0.  1.
</event>
<event>
 4    1  0.6210801E+003  0.2777826E+02  0.7546771E-02  0.1439943E+00
          2   -1    0    0  501    0  0.00000000000E+00  0.00000000000E+00  0.61975290943E+03  0.61975290943E+03  0.00000000000E+00 0.  1.
          2   -1    0    0  502    0 -0.00000000000E+00 -0.00000000000E+00 -0.17479702217E+01  0.17479702217E+01  0.00000000000E+00 0. -1.
          2    1    1    2  501    0 -0.45740346542E+01 -0.27399089308E+02  0.14232060702E+03  0.14500616218E+03  0.00000000000E+00 0. -1.
          2    1    1    2  502    0  0.45740346542E+01  0.27399089308E+02  0.47568433219E+03  0.47649471747E+03  0.00000000000E+00 0.  1.
</event>
<event>
 4    1  0.6210801E+003  0.2110550E+02  0.7546771E-02  0.1517764E+00
          2   -1    0    0  501    0  0.00000000000E+00  0.00000000000E+00  0.84898851907E+03  0.84898851907E+03  0.00000000000E+00 0.  1.
          2   -1    0    0  502    0 -0.00000000000E+00 -0.00000000000E+00 -0.12003120270E+02  0.12003120270E+02  0.00000000000E+00 0. -1.
          2    1    1    2  501    0 -0.13035714741E+02 -0.16598556765E+02 -0.24891951930E+01  0.21251777296E+02  0.00000000000E+00 0. -1.
          2    1    1    2  502    0  0.13035714741E+02  0.16598556765E+02  0.83947459399E+03  0.83973986204E+03  0.00000000000E+00 0.  1.
</event>
<event>
 4    1  0.6210801E+003  0.3409566E+02  0.7546771E-02  0.1387035E+00
          2   -1    0    0  502    0  0.00000000000E+00  0.00000000000E+00  0.50636024085E+03  0.50636024085E+03  0.00000000000E+00 0. -1.
          2   -1    0    0  501    0 -0.00000000000E+00 -0.00000000000E+00 -0.61048013042E+02  0.61048013042E+02  0.00000000000E+00 0.  1.
          2    1    1    2  501    0  0.24871024004E+02  0.23322652313E+02  0.50097451023E+03  0.50213342236E+03  0.00000000000E+00 0. -1.
          2    1    1    2  502    0 -0.24871024004E+02 -0.23322652313E+02 -0.55662282429E+02  0.65274831529E+02  0.00000000000E+00 0.  1.
</event>
<event>
 4    1  0.8157402E+003  0.3011430E+02  0.7546771E-02  0.1418606E+00
          2   -1    0    0  501    0  0.00000000000E+00  0.00000000000E+00  0.19209171062E+04  0.19209171062E+04  0.00000000000E+00 0. -1.
          2   -1    0    0  502    0 -0.00000000000E+00 -0.00000000000E+00 -0.38505286048E+03  0.38505286048E+03  0.00000000000E+00 0.  1.
          2    1    1    2  501    0  0.49030083959E+01 -0.29712480260E+02 -0.38434582149E+03  0.38552377550E+03  0.00000000000E+00 0.  1.
          2    1    1    2  502    0 -0.49030083959E+01  0.29712480260E+02  0.19202100672E+04  0.19204461912E+04  0.00000000000E+00 0. -1.
</event>
<event>
 4    1  0.6210801E+003  0.2262456E+02  0.7546771E-02  0.1497267E+00
          2   -1    0    0  501    0  0.00000000000E+00  0.00000000000E+00  0.19133646477E+03  0.19133646477E+03  0.00000000000E+00 0. -1.
          2   -1    0    0  502    0 -0.00000000000E+00 -0.00000000000E+00 -0.14722589168E+04  0.14722589168E+04  0.00000000000E+00 0. -1.
          2    1    1    2  501    0  0.34112723137E+01 -0.22365910685E+02 -0.14715028442E+04  0.14716767618E+04  0.00000000000E+00 0. -1.
          2    1    1    2  502    0 -0.34112723137E+01  0.22365910685E+02  0.19058039216E+03  0.19191861977E+03  0.00000000000E+00 0. -1.
</event>
<event>
 4    1  0.6210801E+003  0.2074002E+02  0.7546771E-02  0.1523009E+00
          2   -1    0    0  501    0  0.00000000000E+00  0.00000000000E+00  0.16542262055E+01  0.16542262055E+01  0.00000000000E+00 0.  1.
          2   -1    0    0  502    0 -0.00000000000E+00 -0.00000000000E+00 -0.15286734671E+04  0.15286734671E+04  0.00000000000E+00 0.  1.
          2    1    1    2  501    0 -0.16776679914E+02 -0.12193913758E+02 -0.14605643258E+04  0.14607115726E+04  0.00000000000E+00 0.  1.
          2    1    1    2  502    0  0.16776679914E+02  0.12193913758E+02 -0.66454915016E+02  0.69616120629E+02  0.00000000000E+00 0.  1.
</event>
<event>
 4    1  0.6210801E+003  0.4541357E+02  0.7546771E-02  0.1319384E+00
          2   -1    0    0  501    0  0.00000000000E+00  0.00000000000E+00  0.45970095167E+03  0.45970095167E+03  0.00000000000E+00 0. -1.
          2   -1    0    0  502    0 -0.00000000000E+00 -0.00000000000E+00 -0.45488712743E+01  0.45488712743E+01  0.00000000000E+00 0. -1.
          2    1    1    2  501    0  0.40913608848E+02  0.19709613687E+02  0.20036868151E+03  0.20545072595E+03  0.00000000000E+00 0. -1.
          2    1    1    2  502    0 -0.40913608848E+02 -0.19709613687E+02  0.25478339888E+03  0.25879909699E+03  0.00000000000E+00 0. -1.
</event>
<event>
 4    1  0.6210801E+003  0.4780015E+02  0.7546771E-02  0.1308003E+00
          2   -1    0    0  501    0  0.00000000000E+00  0.00000000000E+00  0.19299050120E+03  0.19299050120E+03  0.00000000000E+00 0.  1.
          2   -1    0    0  502    0 -0.00000000000E+00 -0.00000000000E+00 -0.13639484450E+02  0.13639484450E+02  0.00000000000E+00 0.  1.
          2    1    1    2  501    0  0.20524650502E+02 -0.43169348372E+02  0.52140678404E+02  0.70735452650E+02  0.00000000000E+00 0.  1.
          2    1    1    2  502    0 -0.20524650502E+02  0.43169348372E+02  0.12721033835E+03  0.13589453300E+03  0.00000000000E+00 0.  1.
</event>
<event>
 4    1  0.6210801E+003  0.2276740E+02  0.7546771E-02  0.1495440E+00
          2   -1    0    0  502    0  0.00000000000E+00  0.00000000000E+00  0.59467870683E+01  0.59467870683E+01  0.00000000000E+00 0.  1.
          2   -1    0    0  501    0 -0.00000000000E+00 -0.00000000000E+00 -0.13822207577E+03  0.13822207577E+03  0.00000000000E+00 0. -1.
          2    1    1    2  501    0  0.76764399038E+01  0.21434238196E+02 -0.22327076754E+02  0.31888127149E+02  0.00000000000E+00 0.  1.
          2    1    1    2  502    0 -0.76764399038E+01 -0.21434238196E+02 -0.10994821195E+03  0.11228073569E+03  0.00000000000E+00 0. -1.
</event>
<event>
 4    1  0.6210801E+003  0.3431311E+02  0.7546771E-02  0.1385458E+00
          2   -1    0    0  501    0  0.00000000000E+00  0.00000000000E+00  0.36106174496E+03  0.36106174496E+03  0.00000000000E+00 0.  1.
          2   -1    0    0  502    0 -0.00000000000E+00 -0.00000000000E+00 -0.24192655764E+03  0.24192655764E+03  0.00000000000E+00 0. -1.
          2    1    1    2  501    0  0.33752056518E+02 -0.61796787112E+01 -0.23988775573E+03  0.24232937316E+03  0.00000000000E+00 0. -1.
          2    1    1    2  502    0 -0.33752056518E+02  0.61796787112E+01  0.35902294304E+03  0.36065892943E+03  0.00000000000E+00 0.  1.
</event>
<event>
 4    1  0.6210801E+003  0.2111649E+02  0.7546771E-02  0.1517608E+00
          2   -1    0    0  501    0  0.00000000000E+00  0.00000000000E+00  0.83640799481E+02  0.83640799481E+02  0.00000000000E+00 0. -1.
          2   -1    0    0  502    0 -0.00000000000E+00 -0.00000000000E+00 -0.11904779317E+02  0.11904779317E+02  0.00000000000E+00 0.  1.
          2    1    1    2  501    0 -0.19198820712E+02  0.87926839709E+01  0.36862675042E+00  0.21119703923E+02  0.00000000000E+00 0.  1.
          2    1    1    2  502    0  0.19198820712E+02 -0.87926839709E+01  0.71367393414E+02  0.74425874875E+02  0.00000000000E+00 0. -1.
</event>
<event>
 4    1  0.6210801E+003  0.3967759E+02  0.7546771E-02  0.1350386E+00
          2   -1    0    0  501    0  0.00000000000E+00  0.00000000000E+00  0.51646852636E+03  0.51646852636E+03  0.00000000000E+00 0.  1.
          2   -1    0    0  502    0 -0.00000000000E+00 -0.00000000000E+00 -0.34162362116E+03  0.34162362116E+03  0.00000000000E+00 0.  1.
          2    1    1    2  501    0  0.79849902994E+01 -0.38865807297E+02 -0.33970519645E+03  0.34201451949E+03  0.00000000000E+00 0.  1.
          2    1    1    2  502    0 -0.79849902994E+01  0.38865807297E+02  0.51455010165E+03  0.51607762803E+03  0.00000000000E+00 0.  1.
</event>
<event>
 4    1  0.6210801E+003  0.4826369E+02  0.7546771E-02  0.1305881E+00
          2   -1    0    0  502    0  0.00000000000E+00  0.00000000000E+00  0.77479245445E+03  0.77479245445E+03  0.00000000000E+00 0.  1.
          2   -1    0    0  501    0 -0.00000000000E+00 -0.00000000000E+00 -0.69585200693E+01  0.69585200693E+01  0.00000000000E+00 0.  1.
          2    1    1    2  501    0  0.45983023659E+02 -0.14661018783E+02  0.67848910176E+03  0.68020353214E+03  0.00000000000E+00 0.  1.
          2    1    1    2  502    0 -0.45983023659E+02  0.14661018783E+02  0.89344832620E+02  0.10154744237E+03  0.00000000000E+00 0.  1.
</event>
<event>
 4    1  0.1115254E+004  0.3182444E+02  0.7546771E-02  0.1404378E+00
          2   -1    0    0  502    0  0.00000000000E+00  0.00000000000E+00  0.91685788218E+03  0.91685788218E+03  0.00000000000E+00 0.  1.
          2   -1    0    0  501    0 -0.00000000000E+00 -0.00000000000E+00 -0.23269365070E+04  0.23269365070E+04  0.00000000000E+00 0.  1.
          2    1    1    2  501    0 -0.30508882072E+02  0.90555451045E+01  0.91647286530E+03  0.91702524917E+03  0.00000000000E+00 0.  1.
          2    1    1    2  502    0  0.30508882072E+02 -0.90555451045E+01 -0.23265514901E+04  0.23267691400E+04  0.00000000000E+00 0.  1.
</event>
<event>
 4    1  0.6210801E+003  0.2826107E+02  0.7546771E-02  0.1435336E+00
          2   -1    0    0  501    0  0.00000000000E+00  0.00000000000E+00  0.12061488106E+04  0.12061488106E+04  0.00000000000E+00 0.  1.
          2   -1    0    0  502    0 -0.00000000000E+00 -0.00000000000E+00 -0.68701899776E+00  0.68701899776E+00  0.00000000000E+00 0.  1.
          2    1    1    2  501    0 -0.27674615696E+02 -0.57274752864E+01  0.48799594566E+03  0.48881359567E+03  0.00000000000E+00 0.  1.
          2    1    1    2  502    0  0.27674615696E+02  0.57274752864E+01  0.71746584594E+03  0.71802223393E+03  0.00000000000E+00 0.  1.
</event>
<event>
 4    1  0.6210801E+003  0.2273369E+02  0.7546771E-02  0.1495870E+00
          2   -1    0    0  501    0  0.00000000000E+00  0.00000000000E+00  0.14239820037E+01  0.14239820037E+01  0.00000000000E+00 0. -1.
          2   -1    0    0  502    0 -0.00000000000E+00 -0.00000000000E+00 -0.17356883799E+04  0.17356883799E+04  0.00000000000E+00 0. -1.
          2    1    1    2  501    0 -0.97290637651E+01  0.20546679800E+02 -0.16395591686E+04  0.16397167707E+04  0.00000000000E+00 0. -1.
          2    1    1    2  502    0  0.97290637651E+01 -0.20546679800E+02 -0.94705229333E+02  0.97395591253E+02  0.00000000000E+00 0. -1.
</event>
<event>
 4    1  0.6210801E+003  0.2203138E+02  0.7546771E-02  0.1505033E+00
          2   -1    0    0  501    0  0.00000000000E+00  0.00000000000E+00  0.72567878860E+03  0.72567878860E+03  0.00000000000E+00 0. -1.
          2   -1    0    0  502    0 -0.00000000000E+00 -0.00000000000E+00 -0.30090223125E+03  0.30090223125E+03  0.00000000000E+00 0.  1.
          2    1    1    2  501    0 -0.21267617931E+02  0.57506572176E+01 -0.30033142557E+03  0.30113841803E+03  0.00000000000E+00 0.  1.
          2    1    1    2  502    0  0.21267617931E+02 -0.57506572176E+01  0.72510798292E+03  0.72544260182E+03  0.00000000000E+00 0. -1.
</event>
<event>
 4    1  0.6210801E+003  0.2953548E+02  0.7546771E-02  0.1423677E+00
          2   -1    0    0  501    0  0.00000000000E+00  0.00000000000E+00  0.76166584505E+03  0.76166584505E+03  0.00000000000E+00 0.  1.
          2   -1    0    0  502    0 -0.00000000000E+00 -0.00000000000E+00 -0.14714795301E+03  0.14714795301E+03  0.00000000000E+00 0.  1.
          2    1    1    2  501    0 -0.29333474083E+02  0.34484698391E+01 -0.14537608298E+03  0.14834604864E+03  0.00000000000E+00 0.  1.
          2    1    1    2  502    0  0.29333474083E+02 -0.34484698391E+01  0.75989397501E+03  0.76046774942E+03  0.00000000000E+00 0.  1.
</event>
<event>
 4    1  0.6210801E+003  0.2443439E+02  0.7546771E-02  0.1475231E+00
          2   -1    0    0  502    0  0.00000000000E+00  0.00000000000E+00  0.11556854181E+04  0.11556854181E+04  0.00000000000E+00 0. -1.
          2   -1    0    0  501    0 -0.00000000000E+00 -0.00000000000E+00 -0.11284017860E+01  0.11284017860E+01  0.00000000000E+00 0.  1.
          2    1    1    2  501    0  0.15623701923E+02  0.18786676134E+02  0.10031741747E+04  0.10034717057E+04  0.00000000000E+00 0. -1.
          2    1    1    2  502    0 -0.15623701923E+02 -0.18786676134E+02  0.15138284155E+03  0.15334211417E+03  0.00000000000E+00 0.  1.
</event>
<event>
 4    1  0.6210801E+003  0.3135438E+02  0.7546771E-02  0.1408181E+00
          2   -1    0    0  502    0  0.00000000000E+00  0.00000000000E+00  0.14533724573E+03  0.14533724573E+03  0.00000000000E+00 0. -1.
          2   -1    0    0  501    0 -0.00000000000E+00 -0.00000000000E+00 -0.51403484445E+03  0.51403484445E+03  0.00000000000E+00 0. -1.
          2    1    1    2  501    0  0.68139727161E+01 -0.30605018955E+02  0.14316087201E+03  0.14655419709E+03  0.00000000000E+00 0. -1.
          2    1    1    2  502    0 -0.68139727161E+01  0.30605018955E+02 -0.51185847073E+03  0.51281789309E+03  0.00000000000E+00 0. -1.
</event>
<event>
 4    1  0.6210801E+003  0.2331203E+02  0.7546771E-02  0.1488617E+00
          2   -1    0    0  502    0  0.00000000000E+00  0.00000000000E+00  0.70641676819E+03  0.70641676819E+03  0.00000000000E+00 0. -1.
          2   -1    0    0  501    0 -0.00000000000E+00 -0.00000000000E+00 -0.18612038382E+01  0.18612038382E+01  0.00000000000E+00 0. -1.
          2    1    1    2  501    0  0.13253408207E+02  0.19178059530E+02  0.62352652493E+03  0.62396216078E+03  0.00000000000E+00 0. -1.
          2    1    1    2  502    0 -0.13253408207E+02 -0.19178059530E+02  0.81029039418E+02  0.84315811243E+02  0.00000000000E+00 0. -1.
</event>
<event>
 4    1  0.6210801E+003  0.3688918E+02  0.7546771E-02  0.1367747E+00
          2   -1    0    0  501    0  0.00000000000E+00  0.00000000000E+00  0.48045670785E+03  0.48045670785E+03  0.00000000000E+00 0. -1.
          2   -1    0    0  502    0 -0.00000000000E+00 -0.00000000000E+00 -0.83566182630E+03  0.83566182630E+03  0.00000000000E+00 0.  1.
          2    1    1    2  501    0  0.19061833177E+02 -0.31582559608E+02 -0.83454569153E+03  0.83536059448E+03  0.00000000000E+00 0.  1.
          2    1    1    2  502    0 -0.19061833177E+02  0.31582559608E+02  0.47934057308E+03  0.48075793967E+03  0.00000000000E+00 0. -1.
</event>
<event>
 4    1  0.6210801E+003  0.2770760E+02  0.7546771E-02  0.1440627E+00
          2   -1    0    0  501    0  0.00000000000E+00  0.00000000000E+00  0.47784940319E+03  0.47784940319E+03  0.00000000000E+00 0. -1.
          2   -1    0    0  502    0 -0.00000000000E+00 -0.00000000000E+00 -0.30856222899E+02  0.30856222899E+02  0.00000000000E+00 0. -1.
          2    1    1    2  501    0 -0.11187816330E+02 -0.25348444121E+02 -0.24145995730E+02  0.36752414388E+02  0.00000000000E+00 0. -1.
          2    1    1    2  502    0  0.11187816330E+02  0.25348444121E+02  0.47113917602E+03  0.47195321170E+03  0.00000000000E+00 0. -1.
</event>
<event>
 4    1  0.6210801E+003  0.2910869E+02  0.7546771E-02  0.1427503E+00
          2   -1    0    0  501    0  0.00000000000E+00  0.00000000000E+00  0.33917260035E+02  0.33917260035E+02  0.00000000000E+00 0.  1.
          2   -1    0    0  502    0 -0.00000000000E+00 -0.00000000000E+00 -0.97953081530E+02  0.97953081530E+02  0.00000000000E+00 0. -1.
          2    1    1    2  501    0  0.29086585272E+02 -0.11341574781E+01 -0.88927301289E+02  0.93570191143E+02  0.00000000000E+00 0. -1.
          2    1    1    2  502    0 -0.29086585272E+02  0.11341574781E+01  0.24891479794E+02  0.38300150422E+02  0.00000000000E+00 0.  1.
</event>
<event>
 4    1  0.6210801E+003  0.2313175E+02  0.7546771E-02  0.1490850E+00
          2   -1    0    0  501    0  0.00000000000E+00  0.00000000000E+00  0.32189229787E+02  0.32189229787E+02  0.00000000000E+00 0.  1.
          2   -1    0    0  502    0 -0.00000000000E+00 -0.00000000000E+00 -0.72867858245E+02  0.72867858245E+02  0.00000000000E+00 0. -1.
          2    1    1    2  501    0  0.84430256776E+01  0.21535859852E+02 -0.66489048937E+02  0.70397951467E+02  0.00000000000E+00 0. -1.
          2    1    1    2  502    0 -0.84430256776E+01 -0.21535859852E+02  0.25810420479E+02  0.34659136566E+02  0.00000000000E+00 0.  1.
</event>
<event>
 4    1  0.6210801E+003  0.3854144E+02  0.7546771E-02  0.1357251E+00
          2   -1    0    0  502    0  0.00000000000E+00  0.00000000000E+00  0.23159886461E+03  0.23159886461E+03  0.00000000000E+00 0. -1.
          2   -1    0    0  501    0 -0.00000000000E+00 -0.00000000000E+00 -0.34172203300E+02  0.34172203300E+02  0.00000000000E+00 0.  1.
          2    1    1    2  501    0  0.74624988123E+01  0.37812089242E+02  0.21848055278E+03  0.22185399461E+03  0.00000000000E+00 0. -1.
          2    1    1    2  502    0 -0.74624988123E+01 -0.37812089242E+02 -0.21053891469E+02  0.43917073302E+02  0.00000000000E+00 0.  1.
</event>
<event>
 4    1  0.6210801E+003  0.2115734E+02  0.7546771E-02  0.1517030E+00
          2   -1    0    0  501    0  0.00000000000E+00  0.00000000000E+00  0.95666225720E+03  0.95666225720E+03  0.00000000000E+00 0. -1.
          2   -1    0    0  502    0 -0.00000000000E+00 -0.00000000000E+00 -0.23674462718E+03  0.23674462718E+03  0.00000000000E+00 0.  1.
          2    1    1    2  501    0  0.11790254124E+02  0.17567668917E+02 -0.23615466157E+03  0.23710052143E+03  0.00000000000E+00 0.  1.
          2    1    1    2  502    0 -0.11790254124E+02 -0.17567668917E+02  0.95607229159E+03  0.95630636295E+03  0.00000000000E+00 0. -1.
</event>
<event>
 4    1  0.6210801E+003  0.2994452E+02  0.7546771E-02  0.1420079E+00
          2   -1    0    0  501    0  0.00000000000E+00  0.00000000000E+00  0.34704056818E+03  0.34704056818E+03  0.00000000000E+00 0.  1.
          2   -1    0    0  502    0 -0.00000000000E+00 -0.00000000000E+00 -0.96411949844E+01  0.96411949844E+01  0.00000000000E+00 0.  1.
          2    1    1    2  501    0  0.23687933393E+02 -0.18318194149E+02  0.16115865782E+02  0.34005816491E+02  0.00000000000E+00 0.  1.
          2    1    1    2  502    0 -0.23687933393E+02  0.18318194149E+02  0.32128350741E+03  0.32267594667E+03  0.00000000000E+00 0.  1.
</event>
<event>
 4    1  0.6210801E+003  0.2773456E+02  0.7546771E-02  0.1440366E+00
          2   -1    0    0  501    0  0.00000000000E+00  0.00000000000E+00  0.55018838020E+01  0.55018838020E+01  0.00000000000E+00 0. -1.
          2   -1    0    0  502    0 -0.00000000000E+00 -0.00000000000E+00 -0.33142358701E+03  0.33142358701E+03  0.00000000000E+00 0. -1.
          2    1    1    2  501    0  0.18801359644E+02 -0.20389084244E+02 -0.29105457960E+03  0.29237300523E+03  0.00000000000E+00 0. -1.
          2    1    1    2  502    0 -0.18801359644E+02  0.20389084244E+02 -0.34867123607E+02  0.44552465582E+02  0.00000000000E+00 0. -1.
</event>
<event>
 4    1  0.6210801E+003  0.2128709E+02  0.7546771E-02  0.1515205E+00
          2   -1    0    0  502    0  0.00000000000E+00  0.00000000000E+00  0.27923728145E+01  0.27923728145E+01  0.00000000000E+00 0. -1.
          2   -1    0    0  501    0 -0.00000000000E+00 -0.00000000000E+00 -0.80006688913E+03  0.80006688913E+03  0.00000000000E+00 0. -1.
          2    1    1    2  501    0  0.86472804643E+00  0.21269522364E+02 -0.40223399997E+02  0.45508924878E+02  0.00000000000E+00 0. -1.
          2    1    1    2  502    0 -0.86472804643E+00 -0.21269522364E+02 -0.75705111632E+03  0.75735033707E+03  0.00000000000E+00 0. -1.
</event>
<event>
 4    1  0.6210801E+003  0.2306425E+02  0.7546771E-02  0.1491693E+00
          2   -1    0    0  502    0  0.00000000000E+00  0.00000000000E+00  0.18182199991E+02  0.18182199991E+02  0.00000000000E+00 0. -1.
          2   -1    0    0  501    0 -0.00000000000E+00 -0.00000000000E+00 -0.11726415798E+04  0.11726415798E+04  0.00000000000E+00 0.  1.
          2    1    1    2  501    0  0.20801948451E+01  0.22970251178E+02  0.10707580821E+02  0.25428565371E+02  0.00000000000E+00 0. -1.
          2    1    1    2  502    0 -0.20801948451E+01 -0.22970251178E+02 -0.11651669607E+04  0.11653952145E+04  0.00000000000E+00 0.  1.
</event>
<event>
 4    1  0.6210801E+003  0.2002920E+02  0.7546771E-02  0.1533590E+00
          2   -1    0    0  501    0  0.00000000000E+00  0.00000000000E+00  0.57333534449E+00  0.57333534449E+00  0.00000000000E+00 0. -1.
          2   -1    0    0  502    0 -0.00000000000E+00 -0.00000000000E+00 -0.15193894494E+04  0.15193894494E+04  0.00000000000E+00 0. -1.
          2    1    1    2  501    0  0.13203074569E+02 -0.15061463062E+02 -0.13176086024E+04  0.13177608273E+04  0.00000000000E+00 0. -1.
          2    1    1    2  502    0 -0.13203074569E+02  0.15061463062E+02 -0.20120751158E+03  0.20220195737E+03  0.00000000000E+00 0. -1.
</event>
<event>
 4    1  0.6210801E+003  0.3676170E+02  0.7546771E-02  0.1368584E+00
          2   -1    0    0  501    0  0.00000000000E+00  0.00000000000E+00  0.20159333764E+02  0.20159333764E+02  0.00000000000E+00 0.  1.
          2   -1    0    0  502    0 -0.00000000000E+00 -0.00000000000E+00 -0.10363687311E+03  0.10363687311E+03  0.00000000000E+00 0. -1.
          2    1    1    2  501    0 -0.22588212865E+02  0.29003371908E+02 -0.78522814717E+02  0.86702107088E+02  0.00000000000E+00 0. -1.
          2    1    1    2  502    0  0.22588212865E+02 -0.29003371908E+02 -0.49547246245E+01  0.37094099782E+02  0.00000000000E+00 0.  1.
</event>
<event>
 4    1  0.6210801E+003  0.3696100E+02  0.7546771E-02  0.1367277E+00
          2   -1    0    0  501    0  0.00000000000E+00  0.00000000000E+00  0.13749274409E+02  0.13749274409E+02  0.00000000000E+00 0. -1.
          2   -1    0    0  502    0 -0.00000000000E+00 -0.00000000000E+00 -0.10883286266E+03  0.10883286266E+03  0.00000000000E+00 0. -1.
          2    1    1    2  501    0  0.16405541533E+02 -0.33120594117E+02 -0.29458464916E+02  0.47264328016E+02  0.00000000000E+00 0. -1.
          2    1    1    2  502    0 -0.16405541533E+02  0.33120594117E+02 -0.65625123331E+02  0.75317809048E+02  0.00000000000E+00 0. -1.
</event>
<event>
 4    1  0.6210801E+003  0.4138083E+02  0.7546771E-02  0.1340579E+00
          2   -1    0    0  502    0  0.00000000000E+00  0.00000000000E+00  0.48206887696E+02  0.48206887696E+02  0.00000000000E+00 0. -1.
          2   -1    0    0  501    0 -0.00000000000E+00 -0.00000000000E+00 -0.21435976484E+03  0.21435976484E+03  0.00000000000E+00 0.  1.
          2    1    1    2  501    0 -0.25589061152E+02  0.32520354004E+02  0.36837135656E+02  0.55401697073E+02  0.00000000000E+00 0. -1.
          2    1    1    2  502    0  0.25589061152E+02 -0.32520354004E+02 -0.20299001280E+03  0.20716495546E+03  0.00000000000E+00 0.  1.
</event>
<event>
 4    1  0.6210801E+003  0.2458207E+02  0.7546771E-02  0.1473533E+00
          2   -1    0    0  501    0  0.00000000000E+00  0.00000000000E+00  0.44642313908E+03  0.44642313908E+03  0.00000000000E+00 0. -1.
          2   -1    0    0  502    0 -0.00000000000E+00 -0.00000000000E+00 -0.21264662882E+01  0.21264662882E+01  0.00000000000E+00 0.  1.
          2    1    1    2  501    0 -0.70394046752E+00  0.24571990374E+02  0.86939994002E+02  0.90348441050E+02  0.00000000000E+00 0.  1.
          2    1    1    2  502    0  0.70394046752E+00 -0.24571990374E+02  0.35735667879E+03  0.35820116432E+03  0.00000000000E+00 0. -1.
</event>
<event>
 4    1  0.6210801E+003  0.3397901E+02  0.7546771E-02  0.1387887E+00
          2   -1    0    0  502    0  0.00000000000E+00  0.00000000000E+00  0.19501288520E+04  0.19501288520E+04  0.00000000000E+00 0. -1.
          2   -1    0    0  501    0 -0.00000000000E+00 -0.00000000000E+00 -0.47837204987E+02  0.47837204987E+02  0.00000000000E+00 0.  1.
          2    1    1    2  501    0  0.62459176390E+00  0.33973267687E+02  0.19439277276E+04  0.19442246741E+04  0.00000000000E+00 0. -1.
          2    1    1    2  502    0 -0.62459176390E+00 -0.33973267687E+02 -0.41636080595E+02  0.53741382933E+02  0.00000000000E+00 0.  1.
</event>
<event>
 4    1  0.6210801E+003  0.2283319E+02  0.7546771E-02  0.1494603E+00
          2   -1    0    0  502    0  0.00000000000E+00  0.00000000000E+00  0.20428714611E+03  0.20428714611E+03  0.00000000000E+00 0. -1.
          2   -1    0    0  501    0 -0.00000000000E+00 -0.00000000000E+00 -0.18607205680E+02  0.18607205680E+02  0.00000000000E+00 0.  1.
          2    1    1    2  501    0  0.20751475131E+02 -0.95252849877E+01  0.19636264869E+03  0.19768572173E+03  0.00000000000E+00 0. -1.
          2    1    1    2  502    0 -0.20751475131E+02  0.95252849877E+01 -0.10682708255E+02  0.25208630067E+02  0.00000000000E+00 0.  1.
</event>
<event>
 4    1  0.6210801E+003  0.3047459E+02  0.7546771E-02  0.1415516E+00
          2   -1    0    0  501    0  0.00000000000E+00  0.00000000000E+00  0.30961989661E+03  0.30961989661E+03  0.00000000000E+00 0. -1.
          2   -1    0    0  502    0 -0.00000000000E+00 -0.00000000000E+00 -0.30292705105E+03  0.30292705105E+03  0.00000000000E+00 0. -1.
          2    1    1    2  501    0 -0.25585109947E+02  0.16556041619E+02 -0.30140696854E+03  0.30294365986E+03  0.00000000000E+00 0. -1.
          2    1    1    2  502    0  0.25585109947E+02 -0.16556041619E+02  0.30809981410E+03  0.30960328780E+03  0.00000000000E+00 0. -1.
</event>
<event>
 4    1  0.6210801E+003  0.2356032E+02  0.7546771E-02  0.1485580E+00
          2   -1    0    0  502    0  0.00000000000E+00  0.00000000000E+00  0.77002033050E+00  0.77002033050E+00  0.00000000000E+00 0. -1.
          2   -1    0    0  501    0 -0.00000000000E+00 -0.00000000000E+00 -0.12161215836E+04  0.12161215836E+04  0.00000000000E+00 0. -1.
          2    1    1    2  501    0  0.18406445858E+01  0.23488305221E+02 -0.21939658969E+03  0.22065799787E+03  0.00000000000E+00 0. -1.
          2    1    1    2  502    0 -0.18406445858E+01 -0.23488305221E+02 -0.99595497359E+03  0.99623360608E+03  0.00000000000E+00 0. -1.
</event>
<event>
 4    1  0.6210801E+003  0.2523410E+02  0.7546771E-02  0.1466201E+00
          2   -1    0    0  502    0  0.00000000000E+00  0.00000000000E+00  0.32168062913E+01  0.32168062913E+01  0.00000000000E+00 0. -1.
          2   -1    0    0  501    0 -0.00000000000E+00 -0.00000000000E+00 -0.20819496897E+03  0.20819496897E+03  0.00000000000E+00 0.  1.
          2    1    1    2  501    0  0.14282937801E+02  0.20802827296E+02 -0.79037904317E+02  0.82968369000E+02  0.00000000000E+00 0.  1.
          2    1    1    2  502    0 -0.14282937801E+02 -0.20802827296E+02 -0.12594025836E+03  0.12844340626E+03  0.00000000000E+00 0. -1.
</event>
<event>
 4    1  0.6210801E+003  0.2237236E+02  0.7546771E-02  0.1500533E+00
          2   -1    0    0  502    0  0.00000000000E+00  0.00000000000E+00  0.59530188978E+03  0.59530188978E+03  0.00000000000E+00 0. -1.
          2   -1    0    0  501    0 -0.00000000000E+00 -0.00000000000E+00 -0.28842746262E+02  0.28842746262E+02  0.00000000000E+00 0. -1.
          2    1    1    2  501    0 -0.48618253332E+01  0.21837701469E+02  0.59071967752E+03  0.59114318060E+03  0.00000000000E+00 0. -1.
          2    1    1    2  502    0  0.48618253332E+01 -0.21837701469E+02 -0.24260534009E+02  0.33001455444E+02  0.00000000000E+00 0. -1.
</event>
<event>
 4    1  0.6210801E+003  0.6174918E+02  0.7546771E-02  0.1254003E+00
          2   -1    0    0  502    0  0.00000000000E+00  0.00000000000E+00  0.40469853089E+01  0.40469853089E+01  0.00000000000E+00 0.  1.
          2   -1    0    0  501    0 -0.00000000000E+00 -0.00000000000E+00 -0.14330467935E+04  0.14330467935E+04  0.00000000000E+00 0. -1.
          2    1    1    2  501    0 -0.34036578749E+02 -0.51521570809E+02 -0.29395751378E+03  0.30037306947E+03  0.00000000000E+00 0.  1.
          2    1    1    2  502    0  0.34036578749E+02  0.51521570809E+02 -0.11350422944E+04  0.11367207093E+04  0.00000000000E+00 0. -1.
</event>
<event>
 4    1  0.6210801E+003  0.8551919E+02  0.7546771E-02  0.1191583E+00
          2   -1    0    0  501    0  0.00000000000E+00  0.00000000000E+00  0.19559023593E+03  0.19559023593E+03  0.00000000000E+00 0.  1.
          2   -1    0    0  502    0 -0.00000000000E+00 -0.00000000000E+00 -0.61389356146E+03  0.61389356146E+03  0.00000000000E+00 0.  1.
          2    1    1    2  501    0 -0.69591183387E+02 -0.49705117012E+02 -0.60137355292E+03  0.60742380725E+03  0.00000000000E+00 0.  1.
          2    1    1    2  502    0  0.69591183387E+02  0.49705117012E+02  0.18307022739E+03  0.20205999015E+03  0.00000000000E+00 0.  1.
</event>
<event>
 4    1  0.6210801E+003  0.2285469E+02  0.7546771E-02  0.1494331E+00
          2   -1    0    0  502    0  0.00000000000E+00  0.00000000000E+00  0.38407036645E+02  0.38407036645E+02  0.00000000000E+00 0.  1.
          2   -1    0    0  501    0 -0.00000000000E+00 -0.00000000000E+00 -0.22778994635E+03  0.22778994635E+03  0.00000000000E+00 0.  1.
          2    1    1    2  501    0 -0.10082792057E+02  0.20510338484E+02  0.34372619882E+02  0.41277277986E+02  0.00000000000E+00 0.  1.
          2    1    1    2  502    0  0.10082792057E+02 -0.20510338484E+02 -0.22375552959E+03  0.22491970501E+03  0.00000000000E+00 0.  1.
</event>
<event>
 4    1  0.6210801E+003  0.4639782E+02  0.7546771E-02  0.1314594E+00
          2   -1    0    0  502    0  0.00000000000E+00  0.00000000000E+00  0.88026780797E+00  0.88026780797E+00  0.00000000000E+00 0. -1.
          2   -1    0    0  501    0 -0.00000000000E+00 -0.00000000000E+00 -0.29166510049E+04  0.29166510049E+04  0.00000000000E+00 0.  1.
          2    1    1    2  501    0 -0.32081048300E+02 -0.33519603913E+02 -0.20441457997E+04  0.20446722984E+04  0.00000000000E+00 0.  1.
          2    1    1    2  502    0  0.32081048300E+02  0.33519603913E+02 -0.87162493743E+03  0.87285897432E+03  0.00000000000E+00 0. -1.
</event>
<event>
 4    1  0.6210801E+003  0.3989699E+02  0.7546771E-02  0.1349090E+00
          2   -1    0    0  501    0  0.00000000000E+00  0.00000000000E+00  0.38337509692E+03  0.38337509692E+03  0.00000000000E+00 0.  1.
          2   -1    0    0  502    0 -0.00000000000E+00 -0.00000000000E+00 -0.12360509606E+02  0.12360509606E+02  0.00000000000E+00 0. -1.
          2    1    1    2  501    0 -0.21153866706E+02 -0.33827263781E+02  0.24261147212E+02  0.46694465578E+02  0.00000000000E+00 0. -1.
          2    1    1    2  502    0  0.21153866706E+02  0.33827263781E+02  0.34675344010E+03  0.34904114094E+03  0.00000000000E+00 0.  1.
</event>
<event>
 4    1  0.6210801E+003  0.2789119E+02  0.7546771E-02  0.1438856E+00
          2   -1    0    0  501    0  0.00000000000E+00  0.00000000000E+00  0.76978047305E+02  0.76978047305E+02  0.00000000000E+00 0.  1.
          2   -1    0    0  502    0 -0.00000000000E+00 -0.00000000000E+00 -0.15336579917E+03  0.15336579917E+03  0.00000000000E+00 0. -1.
          2    1    1    2  501    0 -0.21461476589E+02  0.17813580583E+02 -0.14950663582E+03  0.15208600456E+03  0.00000000000E+00 0. -1.
          2    1    1    2  502    0  0.21461476589E+02 -0.17813580583E+02  0.73118883951E+02  0.78257841913E+02  0.00000000000E+00 0.  1.
</event>
<event>
 4    1  0.6210801E+003  0.2757852E+02  0.7546771E-02  0.1441882E+00
          2   -1    0    0  501    0  0.00000000000E+00  0.00000000000E+00  0.12806904191E+03  0.12806904191E+03  0.00000000000E+00 0.  1.
          2   -1    0    0  502    0 -0.00000000000E+00 -0.00000000000E+00 -0.13780645737E+03  0.13780645737E+03  0.00000000000E+00 0. -1.
          2    1    1    2  501    0 -0.23145229206E+02  0.14995774965E+02 -0.13491042734E+03  0.13770039327E+03  0.00000000000E+00 0. -1.
          2    1    1    2  502    0  0.23145229206E+02 -0.14995774965E+02  0.12517301187E+03  0.12817510601E+03  0.00000000000E+00 0.  1.
</event>
<event>
 4    1  0.6210801E+003  0.2475589E+02  0.7546771E-02  0.1471553E+00
          2   -1    0    0  501    0  0.00000000000E+00  0.00000000000E+00  0.25157557389E+03  0.25157557389E+03  0.00000000000E+00 0.  1.
          2   -1    0    0  502    0 -0.00000000000E+00 -0.00000000000E+00 -0.36181515350E+02  0.36181515350E+02  0.00000000000E+00 0. -1.
          2    1    1    2  501    0  0.16429984453E+02 -0.18517823862E+02 -0.31253524202E+02  0.39870251626E+02  0.00000000000E+00 0. -1.
          2    1    1    2  502    0 -0.16429984453E+02  0.18517823862E+02  0.24664758275E+03  0.24788683762E+03  0.00000000000E+00 0.  1.
</event>
<event>
 4    1  0.6210801E+003  0.2049188E+02  0.7546771E-02  0.1526645E+00
          2   -1    0    0  502    0  0.00000000000E+00  0.00000000000E+00  0.12417691703E+04  0.12417691703E+04  0.00000000000E+00 0. -1.
          2   -1    0    0  501    0 -0.00000000000E+00 -0.00000000000E+00 -0.57193540538E+02  0.57193540538E+02  0.00000000000E+00 0.  1.
          2    1    1    2  501    0 -0.31719853957E+01 -0.20244888652E+02  0.12398462748E+04  0.12400156056E+04  0.00000000000E+00 0. -1.
          2    1    1    2  502    0  0.31719853957E+01  0.20244888652E+02 -0.55270645058E+02  0.58947105213E+02  0.00000000000E+00 0.  1.
</event>
<event>
 4    1  0.6210801E+003  0.2568067E+02  0.7546771E-02  0.1461331E+00
          2   -1    0    0  502    0  0.00000000000E+00  0.00000000000E+00  0.37331233040E+03  0.37331233040E+03  0.00000000000E+00 0. -1.
          2   -1    0    0  501    0 -0.00000000000E+00 -0.00000000000E+00 -0.60263985346E+02  0.60263985346E+02  0.00000000000E+00 0.  1.
          2    1    1    2  501    0  0.24806909021E+02  0.66418529095E+01  0.37011117678E+03  0.37100105138E+03  0.00000000000E+00 0. -1.
          2    1    1    2  502    0 -0.24806909021E+02 -0.66418529095E+01 -0.57062831731E+02  0.62575264365E+02  0.00000000000E+00 0.  1.
</event>
<event>
 4    1  0.6210801E+003  0.3434796E+02  0.7546771E-02  0.1385206E+00
          2   -1    0    0  502    0  0.00000000000E+00  0.00000000000E+00  0.21265648149E+02  0.21265648149E+02  0.00000000000E+00 0. -1.
          2   -1    0    0  501    0 -0.00000000000E+00 -0.00000000000E+00 -0.57602674725E+02  0.57602674725E+02  0.00000000000E+00 0. -1.
          2    1    1    2  501    0 -0.34206991035E+02  0.31087286206E+01 -0.25741458615E+02  0.42923246859E+02  0.00000000000E+00 0. -1.
          2    1    1    2  502    0  0.34206991035E+02 -0.31087286206E+01 -0.10595567960E+02  0.35945076015E+02  0.00000000000E+00 0. -1.
</event>
<event>
 4    1  0.6210801E+003  0.3758208E+02  0.7546771E-02  0.1363268E+00
          2   -1    0    0  502    0  0.00000000000E+00  0.00000000000E+00  0.91690751293E+01  0.91690751293E+01  0.00000000000E+00 0. -1.
          2   -1    0    0  501    0 -0.00000000000E+00 -0.00000000000E+00 -0.25507550483E+03  0.25507550483E+03  0.00000000000E+00 0. -1.
          2    1    1    2  501    0  0.36796447576E+02 -0.76442076733E+01 -0.39800426552E+02  0.54740171893E+02  0.00000000000E+00 0. -1.
          2    1    1    2  502    0 -0.36796447576E+02  0.76442076733E+01 -0.20610600315E+03  0.20950440807E+03  0.00000000000E+00 0. -1.
</event>
<event>
 4    1  0.6210801E+003  0.3518367E+02  0.7546771E-02  0.1379277E+00
          2   -1    0    0  501    0  0.00000000000E+00  0.00000000000E+00  0.14317394695E+04  0.14317394695E+04  0.00000000000E+00 0. -1.
          2   -1    0    0  502    0 -0.00000000000E+00 -0.00000000000E+00 -0.30587555853E+03  0.30587555853E+03  0.00000000000E+00 0.  1.
          2    1    1    2  501    0  0.35082272783E+02 -0.26692695074E+01 -0.30464677782E+03  0.30667173019E+03  0.00000000000E+00 0.  1.
          2    1    1    2  502    0 -0.35082272783E+02  0.26692695074E+01  0.14305106888E+04  0.14309432978E+04  0.00000000000E+00 0. -1.
</event>
<event>
 4    1  0.6210801E+003  0.4561110E+02  0.7546771E-02  0.1318412E+00
          2   -1    0    0  501    0  0.00000000000E+00  0.00000000000E+00  0.65643928732E+03  0.65643928732E+03  0.00000000000E+00 0.  1.
          2   -1    0    0  502    0 -0.00000000000E+00 -0.00000000000E+00 -0.64888456285E+02  0.64888456285E+02  0.00000000000E+00 0.  1.
          2    1    1    2  501    0 -0.27733170205E+02  0.36211094130E+02 -0.55970727257E+02  0.72201761595E+02  0.00000000000E+00 0.  1.
          2    1    1    2  502    0  0.27733170205E+02 -0.36211094130E+02  0.64752155829E+03  0.64912598201E+03  0.00000000000E+00 0.  1.
</event>
<event>
 4    1  0.6210801E+003  0.4743792E+02  0.7546771E-02  0.1309680E+00
          2   -1    0    0  501    0  0.00000000000E+00  0.00000000000E+00  0.10711135002E+02  0.10711135002E+02  0.00000000000E+00 0. -1.
          2   -1    0    0  502    0 -0.00000000000E+00 -0.00000000000E+00 -0.21046648299E+03  0.21046648299E+03  0.00000000000E+00 0. -1.
          2    1    1    2  501    0 -0.20973714175E+02  0.42549495652E+02 -0.95231776502E+02  0.10639289225E+03  0.00000000000E+00 0. -1.
          2    1    1    2  502    0  0.20973714175E+02 -0.42549495652E+02 -0.10452357149E+03  0.11478472574E+03  0.00000000000E+00 0. -1.
</event>
<event>
 4    1  0.1099944E+004  0.3210645E+02  0.7546771E-02  0.1402133E+00
          2   -1    0    0  501    0  0.00000000000E+00  0.00000000000E+00  0.19514796576E+04  0.19514796576E+04  0.00000000000E+00 0. -1.
          2   -1    0    0  502    0 -0.00000000000E+00 -0.00000000000E+00 -0.16990534097E+04  0.16990534097E+04  0.00000000000E+00 0. -1.
          2    1    1    2  501    0  0.31480592767E+02  0.63084302911E+01 -0.16987696547E+04  0.16990730307E+04  0.00000000000E+00 0. -1.
          2    1    1    2  502    0 -0.31480592767E+02 -0.63084302911E+01  0.19511959026E+04  0.19514600366E+04  0.00000000000E+00 0. -1.
</event>
<event>
 4    1  0.6210801E+003  0.2272609E+02  0.7546771E-02  0.1495967E+00
          2   -1    0    0  502    0  0.00000000000E+00  0.00000000000E+00  0.12755187717E+01  0.12755187717E+01  0.00000000000E+00 0.  1.
          2   -1    0    0  501    0 -0.00000000000E+00 -0.00000000000E+00 -0.91639544247E+03  0.91639544247E+03  0.00000000000E+00 0.  1.
          2    1    1    2  501    0 -0.19828905111E+02  0.11103586247E+02 -0.11476804350E+03  0.11699649103E+03  0.00000000000E+00 0.  1.
          2    1    1    2  502    0  0.19828905111E+02 -0.11103586247E+02 -0.80035188020E+03  0.80067447021E+03  0.00000000000E+00 0.  1.
</event>
<event>
 4    1  0.6210801E+003  0.2490349E+02  0.7546771E-02  0.1469886E+00
          2   -1    0    0  502    0  0.00000000000E+00  0.00000000000E+00  0.45412154163E+03  0.45412154163E+03  0.00000000000E+00 0. -1.
          2   -1    0    0  501    0 -0.00000000000E+00 -0.00000000000E+00 -0.77033166830E+01  0.77033166830E+01  0.00000000000E+00 0. -1.
          2    1    1    2  501    0 -0.19629995710E+02 -0.15324729274E+02  0.43265515186E+03  0.43337127788E+03  0.00000000000E+00 0. -1.
          2    1    1    2  502    0  0.19629995710E+02  0.15324729274E+02  0.13763073091E+02  0.28453580439E+02  0.00000000000E+00 0. -1.
</event>
<event>
 4    1  0.6210801E+003  0.2456630E+02  0.7546771E-02  0.1473714E+00
          2   -1    0    0  501    0  0.00000000000E+00  0.00000000000E+00  0.15398625588E+02  0.15398625588E+02  0.00000000000E+00 0.  1.
          2   -1    0    0  502    0 -0.00000000000E+00 -0.00000000000E+00 -0.50184536236E+03  0.50184536236E+03  0.00000000000E+00 0. -1.
          2    1    1    2  501    0 -0.19036968309E+02  0.15527297900E+02 -0.49154145505E+03  0.49215496053E+03  0.00000000000E+00 0. -1.
          2    1    1    2  502    0  0.19036968309E+02 -0.15527297900E+02  0.50947182769E+01  0.25089027418E+02  0.00000000000E+00 0.  1.
</event>
<event>
 4    1  0.6210801E+003  0.2129128E+02  0.7546771E-02  0.1515146E+00
          2   -1    0    0  501    0  0.00000000000E+00  0.00000000000E+00  0.14063296185E+04  0.14063296185E+04  0.00000000000E+00 0. -1.
          2   -1    0    0  502    0 -0.00000000000E+00 -0.00000000000E+00 -0.32192292975E+01  0.32192292975E+01  0.00000000000E+00 0.  1.
          2    1    1    2  501    0 -0.19961603751E+02  0.74062862921E+01  0.32995792761E+02  0.39268830399E+02  0.00000000000E+00 0.  1.
          2    1    1    2  502    0  0.19961603751E+02 -0.74062862921E+01  0.13701145964E+04  0.13702800174E+04  0.00000000000E+00 0. -1.
</event>
<event>
 4    1  0.6210801E+003  0.2245023E+02  0.7546771E-02  0.1499519E+00
          2   -1    0    0  502    0  0.00000000000E+00  0.00000000000E+00  0.14864937797E+03  0.14864937797E+03  0.00000000000E+00 0.  1.
          2   -1    0    0  501    0 -0.00000000000E+00 -0.00000000000E+00 -0.40187963734E+01  0.40187963734E+01  0.00000000000E+00 0.  1.
          2    1    1    2  501    0 -0.20001519878E+02  0.10195684499E+02  0.10249486546E+03  0.10492478366E+03  0.00000000000E+00 0.  1.
          2    1    1    2  502    0  0.20001519878E+02 -0.10195684499E+02  0.42135716133E+02  0.47743390682E+02  0.00000000000E+00 0.  1.
</event>
<event>
 4    1  0.6210801E+003  0.3518337E+02  0.7546771E-02  0.1379279E+00
          2   -1    0    0  501    0  0.00000000000E+00  0.00000000000E+00  0.30004733334E+03  0.30004733334E+03  0.00000000000E+00 0. -1.
          2   -1    0    0  502    0 -0.00000000000E+00 -0.00000000000E+00 -0.56099417727E+01  0.56099417727E+01  0.00000000000E+00 0. -1.
          2    1    1    2  501    0  0.26256806082E+02  0.23419002153E+02  0.68605523201E+02  0.77101150064E+02  0.00000000000E+00 0. -1.
          2    1    1    2  502    0 -0.26256806082E+02 -0.23419002153E+02  0.22583186837E+03  0.22855612505E+03  0.00000000000E+00 0. -1.
</event>
<event>
 4    1  0.6210801E+003  0.4357374E+02  0.7546771E-02  0.1328727E+00
          2   -1    0    0  501    0  0.00000000000E+00  0.00000000000E+00  0.34766463216E+03  0.34766463216E+03  0.00000000000E+00 0.  1.
          2   -1    0    0  502    0 -0.00000000000E+00 -0.00000000000E+00 -0.18688092378E+02  0.18688092378E+02  0.00000000000E+00 0.  1.
          2    1    1    2  501    0  0.42394824204E+02 -0.10067256109E+02  0.10383659055E+02  0.44793873914E+02  0.00000000000E+00 0.  1.
          2    1    1    2  502    0 -0.42394824204E+02  0.10067256109E+02  0.31859288073E+03  0.32155885062E+03  0.00000000000E+00 0.  1.
</event>
<event>
 4    1  0.6210801E+003  0.2096253E+02  0.7546771E-02  0.1519800E+00
          2   -1    0    0  501    0  0.00000000000E+00  0.00000000000E+00  0.76977852033E+02  0.76977852033E+02  0.00000000000E+00 0.  1.
          2   -1    0    0  502    0 -0.00000000000E+00 -0.00000000000E+00 -0.14061258114E+04  0.14061258114E+04  0.00000000000E+00 0. -1.
          2    1    1    2  501    0  0.20622233898E+02  0.37617919014E+01 -0.14046190297E+04  0.14047754433E+04  0.00000000000E+00 0. -1.
          2    1    1    2  502    0 -0.20622233898E+02 -0.37617919014E+01  0.75471070323E+02  0.78328220105E+02  0.00000000000E+00 0.  1.
</event>
<event>
 4    1  0.6210801E+003  0.2651472E+02  0.7546771E-02  0.1452545E+00
          2   -1    0    0  501    0  0.00000000000E+00  0.00000000000E+00  0.55960532327E+03  0.55960532327E+03  0.00000000000E+00 0. -1.
          2   -1    0    0  502    0 -0.00000000000E+00 -0.00000000000E+00 -0.40044444784E+02  0.40044444784E+02  0.00000000000E+00 0. -1.
          2    1    1    2  501    0  0.25513633395E+02  0.72169783674E+01 -0.35303830666E+02  0.44151905117E+02  0.00000000000E+00 0. -1.
          2    1    1    2  502    0 -0.25513633395E+02 -0.72169783674E+01  0.55486470915E+03  0.55549786294E+03  0.00000000000E+00 0. -1.
</event>
<event>
 4    1  0.6210801E+003  0.2499094E+02  0.7546771E-02  0.1468905E+00
          2   -1    0    0  502    0  0.00000000000E+00  0.00000000000E+00  0.95938348179E+03  0.95938348179E+03  0.00000000000E+00 0. -1.
          2   -1    0    0  501    0 -0.00000000000E+00 -0.00000000000E+00 -0.11873301903E+03  0.11873301903E+03  0.00000000000E+00 0. -1.
          2    1    1    2  501    0 -0.21575670587E+02  0.12611005401E+02  0.95790367980E+03  0.95822962112E+03  0.00000000000E+00 0. -1.
          2    1    1    2  502    0  0.21575670587E+02 -0.12611005401E+02 -0.11725321704E+03  0.11988687970E+03  0.00000000000E+00 0. -1.
</event>
<event>
 4    1  0.6210801E+003  0.2004419E+02  0.7546771E-02  0.1533361E+00
          2   -1    0    0  501    0  0.00000000000E+00  0.00000000000E+00  0.19906088147E+02  0.19906088147E+02  0.00000000000E+00 0.  1.
          2   -1    0    0  502    0 -0.00000000000E+00 -0.00000000000E+00 -0.55434334933E+02  0.55434334933E+02  0.00000000000E+00 0. -1.
          2    1    1    2  501    0 -0.19640485861E+02  0.40026131094E+01 -0.47803773440E+02  0.51835994749E+02  0.00000000000E+00 0. -1.
          2    1    1    2  502    0  0.19640485861E+02 -0.40026131094E+01  0.12275526654E+02  0.23504428331E+02  0.00000000000E+00 0.  1.
</event>
<event>
 4    1  0.6210801E+003  0.2564741E+02  0.7546771E-02  0.1461690E+00
          2   -1    0    0  501    0  0.00000000000E+00  0.00000000000E+00  0.11749355792E+03  0.11749355792E+03  0.00000000000E+00 0.  1.
          2   -1    0    0  502    0 -0.00000000000E+00 -0.00000000000E+00 -0.13832231275E+02  0.13832231275E+02  0.00000000000E+00 0. -1.
          2    1    1    2  501    0  0.17006295381E+02 -0.19198320746E+02  0.11698897903E+01  0.25674077279E+02  0.00000000000E+00 0. -1.
          2    1    1    2  502    0 -0.17006295381E+02  0.19198320746E+02  0.10249143685E+03  0.10565171192E+03  0.00000000000E+00 0.  1.
</event>
<event>
 4    1  0.6210801E+003  0.2385302E+02  0.7546771E-02  0.1482056E+00
          2   -1    0    0  502    0  0.00000000000E+00  0.00000000000E+00  0.78622746609E+01  0.78622746609E+01  0.00000000000E+00 0. -1.
          2   -1    0    0  501    0 -0.00000000000E+00 -0.00000000000E+00 -0.29777708840E+03  0.29777708840E+03  0.00000000000E+00 0.  1.
          2    1    1    2  501    0 -0.76088904495E+01 -0.22606887015E+02 -0.11997514995E+02  0.26700316860E+02  0.00000000000E+00 0. -1.
          2    1    1    2  502    0  0.76088904495E+01  0.22606887015E+02 -0.27791729874E+03  0.27893904620E+03  0.00000000000E+00 0.  1.
</event>
<event>
 4    1  0.6210801E+003  0.3180785E+02  0.7546771E-02  0.1404511E+00
          2   -1    0    0  501    0  0.00000000000E+00  0.00000000000E+00  0.23600092038E+04  0.23600092038E+04  0.00000000000E+00 0.  1.
          2   -1    0    0  502    0 -0.00000000000E+00 -0.00000000000E+00 -0.37197856949E+02  0.37197856949E+02  0.00000000000E+00 0. -1.
          2    1    1    2  501    0 -0.19955387904E+02 -0.24769374402E+02 -0.30270950024E+02  0.43909791961E+02  0.00000000000E+00 0. -1.
          2    1    1    2  502    0  0.19955387904E+02  0.24769374402E+02  0.23530822969E+04  0.23532972688E+04  0.00000000000E+00 0.  1.
</event>
<event>
 4    1  0.6210801E+003  0.2338322E+02  0.7546771E-02  0.1487741E+00
          2   -1    0    0  502    0  0.00000000000E+00  0.00000000000E+00  0.10365799188E+02  0.10365799188E+02  0.00000000000E+00 0. -1.
          2   -1    0    0  501    0 -0.00000000000E+00 -0.00000000000E+00 -0.31405014162E+03  0.31405014162E+03  0.00000000000E+00 0. -1.
          2    1    1    2  501    0 -0.12261533200E+02  0.19910549031E+02 -0.38822200086E+01  0.23703307603E+02  0.00000000000E+00 0. -1.
          2    1    1    2  502    0  0.12261533200E+02 -0.19910549031E+02 -0.29980212242E+03  0.30071263320E+03  0.00000000000E+00 0. -1.
</event>
<event>
 4    1  0.6210801E+003  0.3549028E+02  0.7546771E-02  0.1377149E+00
          2   -1    0    0  501    0  0.00000000000E+00  0.00000000000E+00  0.11802636187E+03  0.11802636187E+03  0.00000000000E+00 0.  1.
          2   -1    0    0  502    0 -0.00000000000E+00 -0.00000000000E+00 -0.23026952998E+04  0.23026952998E+04  0.00000000000E+00 0.  1.
          2    1    1    2  501    0 -0.98714894680E+01 -0.34089790381E+02 -0.22998873307E+04  0.23001611452E+04  0.00000000000E+00 0.  1.
          2    1    1    2  502    0  0.98714894680E+01  0.34089790381E+02  0.11521839273E+03  0.12056051649E+03  0.00000000000E+00 0.  1.
</event>
<event>
 4    1  0.6210801E+003  0.2760376E+02  0.7546771E-02  0.1441636E+00
          2   -1    0    0  502    0  0.00000000000E+00  0.00000000000E+00  0.64981078003E+01  0.64981078003E+01  0.00000000000E+00 0. -1.
          2   -1    0    0  501    0 -0.00000000000E+00 -0.00000000000E+00 -0.29198577228E+03  0.29198577228E+03  0.00000000000E+00 0. -1.
          2    1    1    2  501    0 -0.54319370872E+01 -0.27064024914E+02 -0.27295233501E+02  0.38820061269E+02  0.00000000000E+00 0. -1.
          2    1    1    2  502    0  0.54319370872E+01  0.27064024914E+02 -0.25819243098E+03  0.25966381881E+03  0.00000000000E+00 0. -1.
</event>
<event>
 4    1  0.6210801E+003  0.2246071E+02  0.7546771E-02  0.1499383E+00
          2   -1    0    0  502    0  0.00000000000E+00  0.00000000000E+00  0.19355799881E+01  0.19355799881E+01  0.00000000000E+00 0.  1.
          2   -1    0    0  501    0 -0.00000000000E+00 -0.00000000000E+00 -0.13153153858E+04  0.13153153858E+04  0.00000000000E+00 0.  1.
          2    1    1    2  501    0 -0.11871935665E+01 -0.22429309548E+02 -0.66918587592E+02  0.70587397746E+02  0.00000000000E+00 0.  1.
          2    1    1    2  502    0  0.11871935665E+01  0.22429309548E+02 -0.12464612182E+04  0.12466635680E+04  0.00000000000E+00 0.  1.
</event>
<event>
 4    1  0.6210801E+003  0.9214121E+02  0.7546771E-02  0.1178170E+00
          2   -1    0    0  501    0  0.00000000000E+00  0.00000000000E+00  0.15398474933E+04  0.15398474933E+04  0.00000000000E+00 0.  1.
          2   -1    0    0  502    0 -0.00000000000E+00 -0.00000000000E+00 -0.58038441674E+01  0.58038441674E+01  0.00000000000E+00 0. -1.
          2    1    1    2  501    0 -0.83870743927E+02  0.38153645019E+02  0.59417778873E+03  0.60127967448E+03  0.00000000000E+00 0.  1.
          2    1    1    2  502    0  0.83870743927E+02 -0.38153645019E+02  0.93986586039E+03  0.94437166298E+03  0.00000000000E+00 0. -1.
</event>
<event>
 4    1  0.6210801E+003  0.2486000E+02  0.7546771E-02  0.1470376E+00
          2   -1    0    0  502    0  0.00000000000E+00  0.00000000000E+00  0.44885331606E+02  0.44885331606E+02  0.00000000000E+00 0. -1.
          2   -1    0    0  501    0 -0.00000000000E+00 -0.00000000000E+00 -0.12438901048E+04  0.12438901048E+04  0.00000000000E+00 0.  1.
          2    1    1    2  501    0  0.14012050428E+02 -0.20534896484E+02  0.41308982969E+02  0.48212566876E+02  0.00000000000E+00 0. -1.
          2    1    1    2  502    0 -0.14012050428E+02  0.20534896484E+02 -0.12403137561E+04  0.12405628695E+04  0.00000000000E+00 0.  1.
</event>
<event>
 4    1  0.6210801E+003  0.2463390E+02  0.7546771E-02  0.1472941E+00
          2   -1    0    0  501    0  0.00000000000E+00  0.00000000000E+00  0.10644124717E+04  0.10644124717E+04  0.00000000000E+00 0.  1.
          2   -1    0    0  502    0 -0.00000000000E+00 -0.00000000000E+00 -0.70227494339E+01  0.70227494339E+01  0.00000000000E+00 0.  1.
          2    1    1    2  501    0  0.16376568742E+02 -0.18402099319E+02  0.15182233079E+02  0.28936645701E+02  0.00000000000E+00 0.  1.
          2    1    1    2  502    0 -0.16376568742E+02  0.18402099319E+02  0.10422074892E+04  0.10424985754E+04  0.00000000000E+00 0.  1.
</event>
<event>
 4    1  0.6210801E+003  0.2066218E+02  0.7546771E-02  0.1524143E+00
          2   -1    0    0  502    0  0.00000000000E+00  0.00000000000E+00  0.16302384913E+03  0.16302384913E+03  0.00000000000E+00 0. -1.
          2   -1    0    0  501    0 -0.00000000000E+00 -0.00000000000E+00 -0.40177207858E+01  0.40177207858E+01  0.00000000000E+00 0. -1.
          2    1    1    2  501    0 -0.59968340171E+01 -0.19772803283E+02  0.12878664886E+03  0.13043361029E+03  0.00000000000E+00 0. -1.
          2    1    1    2  502    0  0.59968340171E+01  0.19772803283E+02  0.30219479483E+02  0.36607959628E+02  0.00000000000E+00 0. -1.
</event>
<event>
 4    1  0.6210801E+003  0.2185485E+02  0.7546771E-02  0.1507401E+00
          2   -1    0    0  502    0  0.00000000000E+00  0.00000000000E+00  0.23564113790E+01  0.23564113790E+01  0.00000000000E+00 0.  1.
          2   -1    0    0  501    0 -0.00000000000E+00 -0.00000000000E+00 -0.87547059102E+03  0.87547059102E+03  0.00000000000E+00 0. -1.
          2    1    1    2  501    0  0.85523739313E+01 -0.20111969114E+02 -0.51794309998E+02  0.56216411747E+02  0.00000000000E+00 0.  1.
          2    1    1    2  502    0 -0.85523739313E+01  0.20111969114E+02 -0.82131986965E+03  0.82161059066E+03  0.00000000000E+00 0. -1.
</event>
<event>
 4    1  0.6210801E+003  0.2812838E+02  0.7546771E-02  0.1436591E+00
          2   -1    0    0  501    0  0.00000000000E+00  0.00000000000E+00  0.23490310113E+03  0.23490310113E+03  0.00000000000E+00 0. -1.
          2   -1    0    0  502    0 -0.00000000000E+00 -0.00000000000E+00 -0.47044694131E+03  0.47044694131E+03  0.00000000000E+00 0. -1.
          2    1    1    2  501    0 -0.17896148673E+01 -0.28071393172E+02 -0.46918216353E+03  0.47002458277E+03  0.00000000000E+00 0. -1.
          2    1    1    2  502    0  0.17896148673E+01  0.28071393172E+02  0.23363832334E+03  0.23532545967E+03  0.00000000000E+00 0. -1.
</event>
<event>
 4    1  0.6210801E+003  0.2110525E+02  0.7546771E-02  0.1517767E+00
          2   -1    0    0  502    0  0.00000000000E+00  0.00000000000E+00  0.72392444875E+02  0.72392444875E+02  0.00000000000E+00 0.  1.
          2   -1    0    0  501    0 -0.00000000000E+00 -0.00000000000E+00 -0.29903048110E+03  0.29903048110E+03  0.00000000000E+00 0. -1.
          2    1    1    2  501    0  0.20096874295E+02  0.64456987357E+01  0.70471865167E+02  0.73564360724E+02  0.00000000000E+00 0.  1.
          2    1    1    2  502    0 -0.20096874295E+02 -0.64456987357E+01 -0.29710990139E+03  0.29785856525E+03  0.00000000000E+00 0. -1.
</event>
<event>
 4    1  0.6210801E+003  0.2774087E+02  0.7546771E-02  0.1440305E+00
          2   -1    0    0  502    0  0.00000000000E+00  0.00000000000E+00  0.76318376180E+02  0.76318376180E+02  0.00000000000E+00 0.  1.
          2   -1    0    0  501    0 -0.00000000000E+00 -0.00000000000E+00 -0.17276485099E+03  0.17276485099E+03  0.00000000000E+00 0.  1.
          2    1    1    2  501    0 -0.23955124733E+02  0.13989556934E+02  0.72629276747E+02  0.77746816945E+02  0.00000000000E+00 0.  1.
          2    1    1    2  502    0  0.23955124733E+02 -0.13989556934E+02 -0.16907575155E+03  0.17133641022E+03  0.00000000000E+00 0.  1.
</event>
<event>
 4    1  0.6210801E+003  0.2269283E+02  0.7546771E-02  0.1496392E+00
          2   -1    0    0  501    0  0.00000000000E+00  0.00000000000E+00  0.43339371712E+03  0.43339371712E+03  0.00000000000E+00 0.  1.
          2   -1    0    0  502    0 -0.00000000000E+00 -0.00000000000E+00 -0.59572808596E+01  0.59572808596E+01  0.00000000000E+00 0. -1.
          2    1    1    2  501    0  0.19474674455E+02 -0.11649107599E+02  0.17167664561E+02  0.28455111307E+02  0.00000000000E+00 0. -1.
          2    1    1    2  502    0 -0.19474674455E+02  0.11649107599E+02  0.41026877170E+03  0.41089588667E+03  0.00000000000E+00 0.  1.
</event>
<event>
 4    1  0.6210801E+003  0.2249040E+02  0.7546771E-02  0.1498998E+00
          2   -1    0    0  502    0  0.00000000000E+00  0.00000000000E+00  0.13239890534E+04  0.13239890534E+04  0.00000000000E+00 0. -1.
          2   -1    0    0  501    0 -0.00000000000E+00 -0.00000000000E+00 -0.13089732689E+02  0.13089732689E+02  0.00000000000E+00 0.  1.
          2    1    1    2  501    0  0.28797268044E+01  0.22305273017E+02  0.13141607114E+04  0.13143531464E+04  0.00000000000E+00 0. -1.
          2    1    1    2  502    0 -0.28797268044E+01 -0.22305273017E+02 -0.32613906859E+01  0.22725639706E+02  0.00000000000E+00 0.  1.
</event>
<event>
 4    1  0.6210801E+003  0.2091926E+02  0.7546771E-02  0.1520421E+00
          2   -1    0    0  501    0  0.00000000000E+00  0.00000000000E+00  0.60266871431E+02  0.60266871431E+02  0.00000000000E+00 0. -1.
          2   -1    0    0  502    0 -0.00000000000E+00 -0.00000000000E+00 -0.23547530190E+03  0.23547530190E+03  0.00000000000E+00 0.  1.
          2    1    1    2  501    0  0.16414317247E+02  0.12968647484E+02 -0.23317751613E+03  0.23411400996E+03  0.00000000000E+00 0.  1.
          2    1    1    2  502    0 -0.16414317247E+02 -0.12968647484E+02  0.57969085663E+02  0.61628163374E+02  0.00000000000E+00 0. -1.
</event>
<event>
 4    1  0.6210801E+003  0.2717134E+02  0.7546771E-02  0.1445894E+00
          2   -1    0    0  501    0  0.00000000000E+00  0.00000000000E+00  0.16667554277E+03  0.16667554277E+03  0.00000000000E+00 0.  1.
          2   -1    0    0  502    0 -0.00000000000E+00 -0.00000000000E+00 -0.43684603916E+03  0.43684603916E+03  0.00000000000E+00 0. -1.
          2    1    1    2  501    0 -0.27026570502E+02 -0.28011344322E+01 -0.43531227056E+03  0.43615943733E+03  0.00000000000E+00 0. -1.
          2    1    1    2  502    0  0.27026570502E+02  0.28011344322E+01  0.16514177417E+03  0.16736214460E+03  0.00000000000E+00 0.  1.
</event>
<event>
 4    1  0.6210801E+003  0.2340405E+02  0.7546771E-02  0.1487486E+00
          2   -1    0    0  502    0  0.00000000000E+00  0.00000000000E+00  0.10672009084E+04  0.10672009084E+04  0.00000000000E+00 0.  1.
          2   -1    0    0  501    0 -0.00000000000E+00 -0.00000000000E+00 -0.45582787437E+01  0.45582787437E+01  0.00000000000E+00 0. -1.
          2    1    1    2  501    0 -0.11890216046E+02  0.20158681768E+02  0.10361303762E+04  0.10363946672E+04  0.00000000000E+00 0.  1.
          2    1    1    2  502    0  0.11890216046E+02 -0.20158681768E+02  0.26512253443E+02  0.35364519944E+02  0.00000000000E+00 0. -1.
</event>
<event>
 4    1  0.6210801E+003  0.3371110E+02  0.7546771E-02  0.1389858E+00
          2   -1    0    0  501    0  0.00000000000E+00  0.00000000000E+00  0.74100399745E+00  0.74100399745E+00  0.00000000000E+00 0. -1.
          2   -1    0    0  502    0 -0.00000000000E+00 -0.00000000000E+00 -0.19896447602E+04  0.19896447602E+04  0.00000000000E+00 0. -1.
          2    1    1    2  501    0 -0.62435501647E+01  0.33127877200E+02 -0.14708840674E+04  0.14712703279E+04  0.00000000000E+00 0. -1.
          2    1    1    2  502    0  0.62435501647E+01 -0.33127877200E+02 -0.51801968886E+03  0.51911543631E+03  0.00000000000E+00 0. -1.
</event>
<event>
 4    1  0.8204527E+003  0.3403464E+02  0.7546771E-02  0.1387480E+00
          2   -1    0    0  501    0  0.00000000000E+00  0.00000000000E+00  0.59537354245E+03  0.59537354245E+03  0.00000000000E+00 0. -1.
          2   -1    0    0  502    0 -0.00000000000E+00 -0.00000000000E+00 -0.10699246630E+04  0.10699246630E+04  0.00000000000E+00 0.  1.
          2    1    1    2  501    0 -0.27173526875E+02 -0.20492827589E+02 -0.10691672563E+04  0.10697088289E+04  0.00000000000E+00 0.  1.
          2    1    1    2  502    0  0.27173526875E+02  0.20492827589E+02  0.59461613579E+03  0.59558937658E+03  0.00000000000E+00 0. -1.
</event>
<event>
 4    1  0.6210801E+003  0.2350883E+02  0.7546771E-02  0.1486206E+00
          2   -1    0    0  501    0  0.00000000000E+00  0.00000000000E+00  0.97340134441E+00  0.97340134441E+00  0.00000000000E+00 0. -1.
          2   -1    0    0  502    0 -0.00000000000E+00 -0.00000000000E+00 -0.64364829060E+03  0.64364829060E+03  0.00000000000E+00 0. -1.
          2    1    1    2  501    0 -0.16858369517E+02 -0.16384769798E+02 -0.43200429352E+03  0.43264347322E+03  0.00000000000E+00 0. -1.
          2    1    1    2  502    0  0.16858369517E+02  0.16384769798E+02 -0.21067059574E+03  0.21197821873E+03  0.00000000000E+00 0. -1.
</event>
<event>
 4    1  0.6210801E+003  0.2273997E+02  0.7546771E-02  0.1495789E+00
          2   -1    0    0  501    0  0.00000000000E+00  0.00000000000E+00  0.16273658077E+03  0.16273658077E+03  0.00000000000E+00 0. -1.
          2   -1    0    0  502    0 -0.00000000000E+00 -0.00000000000E+00 -0.44097855986E+01  0.44097855986E+01  0.00000000000E+00 0. -1.
          2    1    1    2  501    0  0.44433161170E+01  0.22301639303E+02  0.34985777163E+02  0.41726619530E+02  0.00000000000E+00 0. -1.
          2    1    1    2  502    0 -0.44433161170E+01 -0.22301639303E+02  0.12334101801E+03  0.12541974684E+03  0.00000000000E+00 0. -1.
</event>
<event>
 4    1  0.6210801E+003  0.3894286E+02  0.7546771E-02  0.1354794E+00
          2   -1    0    0  502    0  0.00000000000E+00  0.00000000000E+00  0.26394967721E+04  0.26394967721E+04  0.00000000000E+00 0.  1.
          2   -1    0    0  501    0 -0.00000000000E+00 -0.00000000000E+00 -0.62721006409E+00  0.62721006409E+00  0.00000000000E+00 0.  1.
          2    1    1    2  501    0  0.37762506295E+02 -0.95152279238E+01  0.17018997629E+04  0.17023452497E+04  0.00000000000E+00 0.  1.
          2    1    1    2  502    0 -0.37762506295E+02  0.95152279238E+01  0.93696979919E+03  0.93777873245E+03  0.00000000000E+00 0.  1.
</event>
<event>
 4    1  0.6210801E+003  0.2285039E+02  0.7546771E-02  0.1494385E+00
          2   -1    0    0  502    0  0.00000000000E+00  0.00000000000E+00  0.66793216558E+02  0.66793216558E+02  0.00000000000E+00 0.  1.
          2   -1    0    0  501    0 -0.00000000000E+00 -0.00000000000E+00 -0.83401548028E+01  0.83401548028E+01  0.00000000000E+00 0. -1.
          2    1    1    2  501    0 -0.14493790852E+02  0.17665513311E+02  0.38632868006E+02  0.44884728184E+02  0.00000000000E+00 0.  1.
          2    1    1    2  502    0  0.14493790852E+02 -0.17665513311E+02  0.19820193749E+02  0.30248643177E+02  0.00000000000E+00 0. -1.
</event>
<event>
 4    1  0.6210801E+003  0.2698847E+02  0.7546771E-02  0.1447724E+00
          2   -1    0    0  501    0  0.00000000000E+00  0.00000000000E+00  0.12288609139E+04  0.12288609139E+04  0.00000000000E+00 0.  1.
          2   -1    0    0  502    0 -0.00000000000E+00 -0.00000000000E+00 -0.10030967221E+01  0.10030967221E+01  0.00000000000E+00 0. -1.
          2    1    1    2  501    0  0.15934138546E+02  0.21782577956E+02  0.22061072710E+03  0.22225541700E+03  0.00000000000E+00 0. -1.
          2    1    1    2  502    0 -0.15934138546E+02 -0.21782577956E+02  0.10072470901E+04  0.10076085936E+04  0.00000000000E+00 0.  1.
</event>
<event>
 4    1  0.6210801E+003  0.2365754E+02  0.7546771E-02  0.1484402E+00
          2   -1    0    0  501    0  0.00000000000E+00  0.00000000000E+00  0.15472577815E+04  0.15472577815E+04  0.00000000000E+00 0.  1.
          2   -1    0    0  502    0 -0.00000000000E+00 -0.00000000000E+00 -0.40303855267E+00  0.40303855267E+00  0.00000000000E+00 0.  1.
          2    1    1    2  501    0  0.10656106548E+02 -0.21121709460E+02  0.52566941309E+03  0.52620149285E+03  0.00000000000E+00 0.  1.
          2    1    1    2  502    0 -0.10656106548E+02  0.21121709460E+02  0.10211853299E+04  0.10214593272E+04  0.00000000000E+00 0.  1.
</event>
<event>
 4    1  0.6210801E+003  0.2305753E+02  0.7546771E-02  0.1491777E+00
          2   -1    0    0  502    0  0.00000000000E+00  0.00000000000E+00  0.39776089502E+01  0.39776089502E+01  0.00000000000E+00 0. -1.
          2   -1    0    0  501    0 -0.00000000000E+00 -0.00000000000E+00 -0.47032106888E+03  0.47032106888E+03  0.00000000000E+00 0. -1.
          2    1    1    2  501    0  0.33040751972E+01 -0.22819568583E+02 -0.32530233056E+02  0.39873119841E+02  0.00000000000E+00 0. -1.
          2    1    1    2  502    0 -0.33040751972E+01  0.22819568583E+02 -0.43381322688E+03  0.43442555799E+03  0.00000000000E+00 0. -1.
</event>
<event>
 4    1  0.6210801E+003  0.2021958E+02  0.7546771E-02  0.1530705E+00
          2   -1    0    0  502    0  0.00000000000E+00  0.00000000000E+00  0.12809963022E+01  0.12809963022E+01  0.00000000000E+00 0.  1.
          2   -1    0    0  501    0 -0.00000000000E+00 -0.00000000000E+00 -0.41775976077E+03  0.41775976077E+03  0.00000000000E+00 0.  1.
          2    1    1    2  501    0  0.28028834305E-01  0.20219564477E+02 -0.10644585498E+03  0.10834921142E+03  0.00000000000E+00 0.  1.
          2    1    1    2  502    0 -0.28028834305E-01 -0.20219564477E+02 -0.31003290949E+03  0.31069154565E+03  0.00000000000E+00 0.  1.
</event>
<event>
 4    1  0.6210801E+003  0.2722685E+02  0.7546771E-02  0.1445343E+00
          2   -1    0    0  502    0  0.00000000000E+00  0.00000000000E+00  0.75238379500E+03  0.75238379500E+03  0.00000000000E+00 0.  1.
          2   -1    0    0  501    0 -0.00000000000E+00 -0.00000000000E+00 -0.16113342176E+01  0.16113342176E+01  0.00000000000E+00 0. -1.
          2    1    1    2  501    0 -0.26827827966E+02 -0.46442330156E+01  0.61037934527E+03  0.61098628985E+03  0.00000000000E+00 0.  1.
          2    1    1    2  502    0  0.26827827966E+02  0.46442330156E+01  0.14039311551E+03  0.14300883936E+03  0.00000000000E+00 0. -1.
</event>
<event>
 4    1  0.6210801E+003  0.2545640E+02  0.7546771E-02  0.1463762E+00
          2   -1    0    0  502    0  0.00000000000E+00  0.00000000000E+00  0.27134137871E+01  0.27134137871E+01  0.00000000000E+00 0. -1.
          2   -1    0    0  501    0 -0.00000000000E+00 -0.00000000000E+00 -0.61796768153E+03  0.61796768153E+03  0.00000000000E+00 0. -1.
          2    1    1    2  501    0 -0.19944170148E+02  0.15819561281E+02 -0.64542487255E+02  0.69381273432E+02  0.00000000000E+00 0. -1.
          2    1    1    2  502    0  0.19944170148E+02 -0.15819561281E+02 -0.55071178049E+03  0.55129982188E+03  0.00000000000E+00 0. -1.
</event>
<event>
 4    1  0.6210801E+003  0.2307920E+02  0.7546771E-02  0.1491506E+00
          2   -1    0    0  501    0  0.00000000000E+00  0.00000000000E+00  0.15045712255E+01  0.15045712255E+01  0.00000000000E+00 0. -1.
          2   -1    0    0  502    0 -0.00000000000E+00 -0.00000000000E+00 -0.63228330754E+03  0.63228330754E+03  0.00000000000E+00 0. -1.
          2    1    1    2  501    0  0.15833928166E+02 -0.16790953860E+02 -0.52561490598E+03  0.52612135369E+03  0.00000000000E+00 0. -1.
          2    1    1    2  502    0 -0.15833928166E+02  0.16790953860E+02 -0.10516383033E+03  0.10766652508E+03  0.00000000000E+00 0. -1.
</event>
<event>
 4    1  0.6210801E+003  0.6040499E+02  0.7546771E-02  0.1258463E+00
          2   -1    0    0  502    0  0.00000000000E+00  0.00000000000E+00  0.23847038744E+01  0.23847038744E+01  0.00000000000E+00 0.  1.
          2   -1    0    0  501    0 -0.00000000000E+00 -0.00000000000E+00 -0.16396436908E+04  0.16396436908E+04  0.00000000000E+00 0.  1.
          2    1    1    2  501    0  0.21055965259E+02  0.56616330428E+02 -0.60638806381E+03  0.60938924053E+03  0.00000000000E+00 0.  1.
          2    1    1    2  502    0 -0.21055965259E+02 -0.56616330428E+02 -0.10308709232E+04  0.10326391542E+04  0.00000000000E+00 0.  1.
</event>
<event>
 4    1  0.6210801E+003  0.3919765E+02  0.7546771E-02  0.1353253E+00
          2   -1    0    0  502    0  0.00000000000E+00  0.00000000000E+00  0.24476708836E+04  0.24476708836E+04  0.00000000000E+00 0. -1.
          2   -1    0    0  501    0 -0.00000000000E+00 -0.00000000000E+00 -0.17744494164E+02  0.17744494164E+02  0.00000000000E+00 0. -1.
          2    1    1    2  501    0  0.36342751756E+01  0.39028804036E+02  0.24256707013E+04  0.24259873880E+04  0.00000000000E+00 0. -1.
          2    1    1    2  502    0 -0.36342751756E+01 -0.39028804036E+02  0.42556881902E+01  0.39427989836E+02  0.00000000000E+00 0. -1.
</event>
<event>
 4    1  0.1069561E+004  0.2276796E+02  0.7546771E-02  0.1495433E+00
          2   -1    0    0  501    0  0.00000000000E+00  0.00000000000E+00  0.79684777603E+03  0.79684777603E+03  0.00000000000E+00 0. -1.
          2   -1    0    0  502    0 -0.00000000000E+00 -0.00000000000E+00 -0.11550931905E+04  0.11550931905E+04  0.00000000000E+00 0. -1.
          2    1    1    2  501    0 -0.22560579949E+02 -0.30659567304E+01 -0.11548183228E+04  0.11550427432E+04  0.00000000000E+00 0. -1.
          2    1    1    2  502    0  0.22560579949E+02  0.30659567304E+01  0.79657290841E+03  0.79689822328E+03  0.00000000000E+00 0. -1.
</event>
<event>
 4    1  0.6210801E+003  0.3282579E+02  0.7546771E-02  0.1396529E+00
          2   -1    0    0  502    0  0.00000000000E+00  0.00000000000E+00  0.75532068122E+01  0.75532068122E+01  0.00000000000E+00 0.  1.
          2   -1    0    0  501    0 -0.00000000000E+00 -0.00000000000E+00 -0.24974192099E+03  0.24974192099E+03  0.00000000000E+00 0. -1.
          2    1    1    2  501    0 -0.13152867290E+02  0.30075479670E+02 -0.36854796830E+02  0.49353910125E+02  0.00000000000E+00 0.  1.
          2    1    1    2  502    0  0.13152867290E+02 -0.30075479670E+02 -0.20533391735E+03  0.20794121767E+03  0.00000000000E+00 0. -1.
</event>
<event>
 4    1  0.6210801E+003  0.2094466E+02  0.7546771E-02  0.1520056E+00
          2   -1    0    0  501    0  0.00000000000E+00  0.00000000000E+00  0.12076665196E+04  0.12076665196E+04  0.00000000000E+00 0. -1.
          2   -1    0    0  502    0 -0.00000000000E+00 -0.00000000000E+00 -0.37331245755E+03  0.37331245755E+03  0.00000000000E+00 0. -1.
          2    1    1    2  501    0 -0.13854823341E+02  0.15707406957E+02 -0.37292777819E+03  0.37351547024E+03  0.00000000000E+00 0. -1.
          2    1    1    2  502    0  0.13854823341E+02 -0.15707406957E+02  0.12072818402E+04  0.12074635069E+04  0.00000000000E+00 0. -1.
</event>
<event>
 4    1  0.6210801E+003  0.3787035E+02  0.7546771E-02  0.1361439E+00
          2   -1    0    0  502    0  0.00000000000E+00  0.00000000000E+00  0.14025862928E+01  0.14025862928E+01  0.00000000000E+00 0.  1.
          2   -1    0    0  501    0 -0.00000000000E+00 -0.00000000000E+00 -0.25196733330E+04  0.25196733330E+04  0.00000000000E+00 0. -1.
          2    1    1    2  501    0 -0.27899029356E+02 -0.25608734118E+02 -0.28746731822E+03  0.28995106854E+03  0.00000000000E+00 0.  1.
          2    1    1    2  502    0  0.27899029356E+02  0.25608734118E+02 -0.22308034285E+04  0.22311248508E+04  0.00000000000E+00 0. -1.
</event>
<event>
 4    1  0.6210801E+003  0.2903938E+02  0.7546771E-02  0.1428132E+00
          2   -1    0    0  501    0  0.00000000000E+00  0.00000000000E+00  0.19185741348E+04  0.19185741348E+04  0.00000000000E+00 0. -1.
          2   -1    0    0  502    0 -0.00000000000E+00 -0.00000000000E+00 -0.86172721212E+02  0.86172721212E+02  0.00000000000E+00 0. -1.
          2    1    1    2  501    0  0.26502022830E+02  0.11871332447E+02 -0.83613070081E+02  0.88512322512E+02  0.00000000000E+00 0. -1.
          2    1    1    2  502    0 -0.26502022830E+02 -0.11871332447E+02  0.19160144837E+04  0.19162345335E+04  0.00000000000E+00 0. -1.
</event>
<event>
 4    1  0.6210801E+003  0.4366830E+02  0.7546771E-02  0.1328234E+00
          2   -1    0    0  501    0  0.00000000000E+00  0.00000000000E+00  0.94791099959E+03  0.94791099959E+03  0.00000000000E+00 0.  1.
          2   -1    0    0  502    0 -0.00000000000E+00 -0.00000000000E+00 -0.45643778276E+01  0.45643778276E+01  0.00000000000E+00 0. -1.
          2    1    1    2  501    0 -0.15436516864E+02 -0.40848921411E+02  0.11552551198E+03  0.12350329692E+03  0.00000000000E+00 0. -1.
          2    1    1    2  502    0  0.15436516864E+02  0.40848921411E+02  0.82782110978E+03  0.82897208049E+03  0.00000000000E+00 0.  1.
</event>
<event>
 4    1  0.6210801E+003  0.2447346E+02  0.7546771E-02  0.1474781E+00
          2   -1    0    0  502    0  0.00000000000E+00  0.00000000000E+00  0.96675463873E+02  0.96675463873E+02  0.00000000000E+00 0. -1.
          2   -1    0    0  501    0 -0.00000000000E+00 -0.00000000000E+00 -0.24274579950E+02  0.24274579950E+02  0.00000000000E+00 0. -1.
          2    1    1    2  501    0  0.19441312313E+02 -0.14865586337E+02  0.88390604893E+02  0.91716134431E+02  0.00000000000E+00 0. -1.
          2    1    1    2  502    0 -0.19441312313E+02  0.14865586337E+02 -0.15989720970E+02  0.29233909392E+02  0.00000000000E+00 0. -1.
</event>
<event>
 4    1  0.6210801E+003  0.3040874E+02  0.7546771E-02  0.1416077E+00
          2   -1    0    0  501    0  0.00000000000E+00  0.00000000000E+00  0.81452075587E+03  0.81452075587E+03  0.00000000000E+00 0. -1.
          2   -1    0    0  502    0 -0.00000000000E+00 -0.00000000000E+00 -0.65280679114E+01  0.65280679114E+01  0.00000000000E+00 0. -1.
          2    1    1    2  501    0 -0.29464666113E+02 -0.75182921921E+01  0.30871463967E+02  0.43332880750E+02  0.00000000000E+00 0. -1.
          2    1    1    2  502    0  0.29464666113E+02  0.75182921921E+01  0.77712122399E+03  0.77771594303E+03  0.00000000000E+00 0. -1.
</event>
<event>
 4    1  0.6210801E+003  0.2710982E+02  0.7546771E-02  0.1446508E+00
          2   -1    0    0  502    0  0.00000000000E+00  0.00000000000E+00  0.44373873885E+02  0.44373873885E+02  0.00000000000E+00 0.  1.
          2   -1    0    0  501    0 -0.00000000000E+00 -0.00000000000E+00 -0.68935931086E+03  0.68935931086E+03  0.00000000000E+00 0. -1.
          2    1    1    2  501    0  0.12202218014E+02  0.24208435990E+02  0.39939922316E+02  0.48271522580E+02  0.00000000000E+00 0.  1.
          2    1    1    2  502    0 -0.12202218014E+02 -0.24208435990E+02 -0.68492535929E+03  0.68546166217E+03  0.00000000000E+00 0. -1.
</event>
<event>
 4    1  0.6210801E+003  0.2446125E+02  0.7546771E-02  0.1474921E+00
          2   -1    0    0  502    0  0.00000000000E+00  0.00000000000E+00  0.12390266640E+03  0.12390266640E+03  0.00000000000E+00 0.  1.
          2   -1    0    0  501    0 -0.00000000000E+00 -0.00000000000E+00 -0.27803250685E+03  0.27803250685E+03  0.00000000000E+00 0.  1.
          2    1    1    2  501    0  0.19961497573E+02 -0.14138298805E+02  0.12214969260E+03  0.12457487821E+03  0.00000000000E+00 0.  1.
          2    1    1    2  502    0 -0.19961497573E+02  0.14138298805E+02 -0.27627953305E+03  0.27736029503E+03  0.00000000000E+00 0.  1.
</event>
<event>
 4    1  0.6210801E+003  0.2023289E+02  0.7546771E-02  0.1530505E+00
          2   -1    0    0  502    0  0.00000000000E+00  0.00000000000E+00  0.13430182311E+02  0.13430182311E+02  0.00000000000E+00 0. -1.
          2   -1    0    0  501    0 -0.00000000000E+00 -0.00000000000E+00 -0.70699253854E+03  0.70699253854E+03  0.00000000000E+00 0.  1.
          2    1    1    2  501    0 -0.19125115163E+02 -0.66030107997E+01  0.55795425162E+01  0.20988117502E+02  0.00000000000E+00 0. -1.
          2    1    1    2  502    0  0.19125115163E+02  0.66030107997E+01 -0.69914189874E+03  0.69943460335E+03  0.00000000000E+00 0.  1.
</event>
<event>
 4    1  0.6210801E+003  0.2022745E+02  0.7546771E-02  0.1530587E+00
          2   -1    0    0  501    0  0.00000000000E+00  0.00000000000E+00  0.10152816443E+03  0.10152816443E+03  0.00000000000E+00 0.  1.
          2   -1    0    0  502    0 -0.00000000000E+00 -0.00000000000E+00 -0.14669447136E+02  0.14669447136E+02  0.00000000000E+00 0.  1.
          2    1    1    2  501    0 -0.19721524015E+02 -0.44957040569E+01 -0.60497194733E+01  0.21112767942E+02  0.00000000000E+00 0.  1.
          2    1    1    2  502    0  0.19721524015E+02  0.44957040569E+01  0.92908436766E+02  0.95084843623E+02  0.00000000000E+00 0.  1.
</event>
<event>
 4    1  0.6210801E+003  0.2034816E+02  0.7546771E-02  0.1528778E+00
          2   -1    0    0  501    0  0.00000000000E+00  0.00000000000E+00  0.68443389458E+01  0.68443389458E+01  0.00000000000E+00 0. -1.
          2   -1    0    0  502    0 -0.00000000000E+00 -0.00000000000E+00 -0.36738866778E+03  0.36738866778E+03  0.00000000000E+00 0.  1.
          2    1    1    2  501    0  0.16734442182E+02  0.11576106094E+02 -0.35129071852E+03  0.35187954858E+03  0.00000000000E+00 0.  1.
          2    1    1    2  502    0 -0.16734442182E+02 -0.11576106094E+02 -0.92536103144E+01  0.22353458151E+02  0.00000000000E+00 0. -1.
</event>
<event>
 4    1  0.6210801E+003  0.2553746E+02  0.7546771E-02  0.1462880E+00
          2   -1    0    0  501    0  0.00000000000E+00  0.00000000000E+00  0.62258786307E+02  0.62258786307E+02  0.00000000000E+00 0.  1.
          2   -1    0    0  502    0 -0.00000000000E+00 -0.00000000000E+00 -0.80577834069E+03  0.80577834069E+03  0.00000000000E+00 0. -1.
          2    1    1    2  501    0  0.24528839397E+02  0.71061895277E+01 -0.80294801859E+03  0.80335402062E+03  0.00000000000E+00 0. -1.
          2    1    1    2  502    0 -0.24528839397E+02 -0.71061895277E+01  0.59428464210E+02  0.64683106373E+02  0.00000000000E+00 0.  1.
</event>
<event>
 4    1  0.6210801E+003  0.2100694E+02  0.7546771E-02  0.1519166E+00
          2   -1    0    0  501    0  0.00000000000E+00  0.00000000000E+00  0.15976357044E+01  0.15976357044E+01  0.00000000000E+00 0.  1.
          2   -1    0    0  502    0 -0.00000000000E+00 -0.00000000000E+00 -0.52773543182E+03  0.52773543182E+03  0.00000000000E+00 0.  1.
          2    1    1    2  501    0 -0.15114100696E+02 -0.14589562516E+02 -0.44578520409E+03  0.44627988927E+03  0.00000000000E+00 0.  1.
          2    1    1    2  502    0  0.15114100696E+02  0.14589562516E+02 -0.80352592024E+02  0.83053178261E+02  0.00000000000E+00 0.  1.
</event>
<event>
 4    1  0.6210801E+003  0.2002128E+02  0.7546771E-02  0.1533711E+00
          2   -1    0    0  501    0  0.00000000000E+00  0.00000000000E+00  0.40593544568E+03  0.40593544568E+03  0.00000000000E+00 0. -1.
          2   -1    0    0  502    0 -0.00000000000E+00 -0.00000000000E+00 -0.30143610376E+03  0.30143610376E+03  0.00000000000E+00 0. -1.
          2    1    1    2  501    0  0.97714339555E+01  0.17474863238E+02 -0.30085630768E+03  0.30152175649E+03  0.00000000000E+00 0. -1.
          2    1    1    2  502    0 -0.97714339555E+01 -0.17474863238E+02  0.40535564961E+03  0.40584979295E+03  0.00000000000E+00 0. -1.
</event>
<event>
 4    1  0.6210801E+003  0.3734160E+02  0.7546771E-02  0.1364810E+00
          2   -1    0    0  502    0  0.00000000000E+00  0.00000000000E+00  0.40330564306E+03  0.40330564306E+03  0.00000000000E+00 0.  1.
          2   -1    0    0  501    0 -0.00000000000E+00 -0.00000000000E+00 -0.63353640684E+01  0.63353640684E+01  0.00000000000E+00 0.  1.
          2    1    1    2  501    0 -0.35525649233E+02 -0.11503197728E+02  0.33653282538E+03  0.33859819532E+03  0.00000000000E+00 0.  1.
          2    1    1    2  502    0  0.35525649233E+02  0.11503197728E+02  0.60437453605E+02  0.71042811809E+02  0.00000000000E+00 0.  1.
</event>
<event>
 4    1  0.6210801E+003  0.3483561E+02  0.7546771E-02  0.1381723E+00
          2   -1    0    0  502    0  0.00000000000E+00  0.00000000000E+00  0.49846113837E+02  0.49846113837E+02  0.00000000000E+00 0.  1.
          2   -1    0    0  501    0 -0.00000000000E+00 -0.00000000000E+00 -0.41002603047E+03  0.41002603047E+03  0.00000000000E+00 0.  1.
          2    1    1    2  501    0 -0.28466287009E+02 -0.20079596709E+02  0.42915427568E+02  0.55274348693E+02  0.00000000000E+00 0.  1.
          2    1    1    2  502    0  0.28466287009E+02  0.20079596709E+02 -0.40309534420E+03  0.40459779561E+03  0.00000000000E+00 0.  1.
</event>
<event>
 4    1  0.6210801E+003  0.2950619E+02  0.7546771E-02  0.1423937E+00
          2   -1    0    0  501    0  0.00000000000E+00  0.00000000000E+00  0.11109719314E+04  0.11109719314E+04  0.00000000000E+00 0. -1.
          2   -1    0    0  502    0 -0.00000000000E+00 -0.00000000000E+00 -0.31802085933E+01  0.31802085933E+01  0.00000000000E+00 0.  1.
          2    1    1    2  501    0 -0.12353026890E+02  0.26795861482E+02  0.70302270010E+02  0.76243194021E+02  0.00000000000E+00 0.  1.
          2    1    1    2  502    0  0.12353026890E+02 -0.26795861482E+02  0.10374894527E+04  0.10379089459E+04  0.00000000000E+00 0. -1.
</event>
<event>
 4    1  0.6210801E+003  0.5695710E+02  0.7546771E-02  0.1270537E+00
          2   -1    0    0  501    0  0.00000000000E+00  0.00000000000E+00  0.47230701314E+02  0.47230701314E+02  0.00000000000E+00 0.  1.
          2   -1    0    0  502    0 -0.00000000000E+00 -0.00000000000E+00 -0.60771698251E+03  0.60771698251E+03  0.00000000000E+00 0.  1.
          2    1    1    2  501    0  0.33354927146E+02  0.46168826528E+02 -0.58865607973E+03  0.59140518421E+03  0.00000000000E+00 0.  1.
          2    1    1    2  502    0 -0.33354927146E+02 -0.46168826528E+02  0.28169798533E+02  0.63542499615E+02  0.00000000000E+00 0.  1.
</event>
<event>
 4    1  0.6210801E+003  0.5266922E+02  0.7546771E-02  0.1286997E+00
          2   -1    0    0  501    0  0.00000000000E+00  0.00000000000E+00  0.31458425302E+03  0.31458425302E+03  0.00000000000E+00 0.  1.
          2   -1    0    0  502    0 -0.00000000000E+00 -0.00000000000E+00 -0.18491956137E+03  0.18491956137E+03  0.00000000000E+00 0.  1.
          2    1    1    2  501    0 -0.40832023026E+02  0.33268494643E+02 -0.17889194826E+03  0.18648425132E+03  0.00000000000E+00 0.  1.
          2    1    1    2  502    0  0.40832023026E+02 -0.33268494643E+02  0.30855663990E+03  0.31301956307E+03  0.00000000000E+00 0.  1.
</event>
<event>
 4    1  0.6210801E+003  0.2053420E+02  0.7546771E-02  0.1526020E+00
          2   -1    0    0  501    0  0.00000000000E+00  0.00000000000E+00  0.70873895479E+03  0.70873895479E+03  0.00000000000E+00 0.  1.
          2   -1    0    0  502    0 -0.00000000000E+00 -0.00000000000E+00 -0.11308509084E+02  0.11308509084E+02  0.00000000000E+00 0.  1.
          2    1    1    2  501    0  0.20093723288E+02 -0.42303351818E+01 -0.17102329236E+01  0.20605299027E+02  0.00000000000E+00 0.  1.
          2    1    1    2  502    0 -0.20093723288E+02  0.42303351818E+01  0.69914067863E+03  0.69944216485E+03  0.00000000000E+00 0.  1.
</event>
<event>
 4    1  0.6210801E+003  0.2698395E+02  0.7546771E-02  0.1447769E+00
          2   -1    0    0  502    0  0.00000000000E+00  0.00000000000E+00  0.38750739159E+02  0.38750739159E+02  0.00000000000E+00 0.  1.
          2   -1    0    0  501    0 -0.00000000000E+00 -0.00000000000E+00 -0.70163822064E+03  0.70163822064E+03  0.00000000000E+00 0.  1.
          2    1    1    2  501    0  0.86493741308E+01 -0.25560158643E+02  0.33760114040E+02  0.43218962074E+02  0.00000000000E+00 0.  1.
          2    1    1    2  502    0 -0.86493741308E+01  0.25560158643E+02 -0.69664759552E+03  0.69716999772E+03  0.00000000000E+00 0.  1.
</event>
<event>
 4    1  0.6210801E+003  0.3707184E+02  0.7546771E-02  0.1366555E+00
          2   -1    0    0  501    0  0.00000000000E+00  0.00000000000E+00  0.26020762968E+03  0.26020762968E+03  0.00000000000E+00 0.  1.
          2   -1    0    0  502    0 -0.00000000000E+00 -0.00000000000E+00 -0.61550731355E+02  0.61550731355E+02  0.00000000000E+00 0.  1.
          2    1    1    2  501    0 -0.29043445707E+02  0.23039082712E+02 -0.54493466843E+02  0.65907958543E+02  0.00000000000E+00 0.  1.
          2    1    1    2  502    0  0.29043445707E+02 -0.23039082712E+02  0.25315036517E+03  0.25585040249E+03  0.00000000000E+00 0.  1.
</event>
<event>
 4    1  0.6210801E+003  0.3246782E+02  0.7546771E-02  0.1399296E+00
          2   -1    0    0  501    0  0.00000000000E+00  0.00000000000E+00  0.15570981314E+04  0.15570981314E+04  0.00000000000E+00 0. -1.
          2   -1    0    0  502    0 -0.00000000000E+00 -0.00000000000E+00 -0.16296355878E+01  0.16296355878E+01  0.00000000000E+00 0.  1.
          2    1    1    2  501    0 -0.25687644913E+02 -0.19857089102E+02  0.18185550613E+03  0.18473111324E+03  0.00000000000E+00 0.  1.
          2    1    1    2  502    0  0.25687644913E+02  0.19857089102E+02  0.13736129897E+04  0.13739966538E+04  0.00000000000E+00 0. -1.
</event>
<event>
 4    1  0.6210801E+003  0.2592112E+02  0.7546771E-02  0.1458757E+00
          2   -1    0    0  501    0  0.00000000000E+00  0.00000000000E+00  0.15866012110E+01  0.15866012110E+01  0.00000000000E+00 0. -1.
          2   -1    0    0  502    0 -0.00000000000E+00 -0.00000000000E+00 -0.75396693135E+03  0.75396693135E+03  0.00000000000E+00 0.  1.
          2    1    1    2  501    0  0.30670065396E+01  0.25739033301E+02 -0.62630065064E+03  0.62683682833E+03  0.00000000000E+00 0.  1.
          2    1    1    2  502    0 -0.30670065396E+01 -0.25739033301E+02 -0.12607967950E+03  0.12871670423E+03  0.00000000000E+00 0. -1.
</event>
<event>
 4    1  0.6210801E+003  0.2622848E+02  0.7546771E-02  0.1455516E+00
          2   -1    0    0  502    0  0.00000000000E+00  0.00000000000E+00  0.48103068980E+00  0.48103068980E+00  0.00000000000E+00 0. -1.
          2   -1    0    0  501    0 -0.00000000000E+00 -0.00000000000E+00 -0.21428504727E+04  0.21428504727E+04  0.00000000000E+00 0. -1.
          2    1    1    2  501    0  0.23686052496E+02 -0.11265167762E+02 -0.45313253609E+03  0.45389098730E+03  0.00000000000E+00 0. -1.
          2    1    1    2  502    0 -0.23686052496E+02  0.11265167762E+02 -0.16892369059E+04  0.16894405161E+04  0.00000000000E+00 0. -1.
</event>
<event>
 4    1  0.6210801E+003  0.2052254E+02  0.7546771E-02  0.1526192E+00
          2   -1    0    0  502    0  0.00000000000E+00  0.00000000000E+00  0.50298578658E+00  0.50298578658E+00  0.00000000000E+00 0. -1.
          2   -1    0    0  501    0 -0.00000000000E+00 -0.00000000000E+00 -0.14772461498E+04  0.14772461498E+04  0.00000000000E+00 0.  1.
          2    1    1    2  501    0  0.18925289899E+02  0.79377714925E+01 -0.25207719247E+03  0.25291122114E+03  0.00000000000E+00 0. -1.
          2    1    1    2  502    0 -0.18925289899E+02 -0.79377714925E+01 -0.12246659715E+04  0.12248379144E+04  0.00000000000E+00 0.  1.
</event>
<event>
 4    1  0.6210801E+003  0.4772981E+02  0.7546771E-02  0.1308327E+00
          2   -1    0    0  501    0  0.00000000000E+00  0.00000000000E+00  0.10170567122E+04  0.10170567122E+04  0.00000000000E+00 0. -1.
          2   -1    0    0  502    0 -0.00000000000E+00 -0.00000000000E+00 -0.34870798844E+01  0.34870798844E+01  0.00000000000E+00 0.  1.
          2    1    1    2  501    0  0.30846384160E+02  0.36423008393E+02  0.20162300891E+03  0.20719549386E+03  0.00000000000E+00 0.  1.
          2    1    1    2  502    0 -0.30846384160E+02 -0.36423008393E+02  0.81194662336E+03  0.81334829818E+03  0.00000000000E+00 0. -1.
</event>
<event>
 4    1  0.6210801E+003  0.5057821E+02  0.7546771E-02  0.1295685E+00
          2   -1    0    0  502    0  0.00000000000E+00  0.00000000000E+00  0.10891826791E+03  0.10891826791E+03  0.00000000000E+00 0. -1.
          2   -1    0    0  501    0 -0.00000000000E+00 -0.00000000000E+00 -0.69756635087E+03  0.69756635087E+03  0.00000000000E+00 0.  1.
          2    1    1    2  501    0  0.48551042374E+02  0.14175741786E+02  0.10207159690E+03  0.11391561028E+03  0.00000000000E+00 0. -1.
          2    1    1    2  502    0 -0.48551042374E+02 -0.14175741786E+02 -0.69071967987E+03  0.69256900850E+03  0.00000000000E+00 0.  1.
</event>
<event>
 4    1  0.6210801E+003  0.4123619E+02  0.7546771E-02  0.1341390E+00
          2   -1    0    0  501    0  0.00000000000E+00  0.00000000000E+00  0.27612535008E+01  0.27612535008E+01  0.00000000000E+00 0. -1.
          2   -1    0    0  502    0 -0.00000000000E+00 -0.00000000000E+00 -0.15373322805E+04  0.15373322805E+04  0.00000000000E+00 0.  1.
          2    1    1    2  501    0 -0.26852753933E+02  0.31294614305E+02 -0.13634756733E+04  0.13640990928E+04  0.00000000000E+00 0.  1.
          2    1    1    2  502    0  0.26852753933E+02 -0.31294614305E+02 -0.17109535368E+03  0.17599444119E+03  0.00000000000E+00 0. -1.
</event>
<event>
 4    1  0.6210801E+003  0.2641246E+02  0.7546771E-02  0.1453601E+00
          2   -1    0    0  502    0  0.00000000000E+00  0.00000000000E+00  0.23368338198E+02  0.23368338198E+02  0.00000000000E+00 0. -1.
          2   -1    0    0  501    0 -0.00000000000E+00 -0.00000000000E+00 -0.38834422155E+02  0.38834422155E+02  0.00000000000E+00 0. -1.
          2    1    1    2  501    0 -0.46183372118E+00 -0.26408425090E+02  0.72238196702E+01  0.27382508591E+02  0.00000000000E+00 0. -1.
          2    1    1    2  502    0  0.46183372118E+00  0.26408425090E+02 -0.22689903627E+02  0.34820251761E+02  0.00000000000E+00 0. -1.
</event>
<event>
 4    1  0.6210801E+003  0.2374109E+02  0.7546771E-02  0.1483396E+00
          2   -1    0    0  502    0  0.00000000000E+00  0.00000000000E+00  0.10178467608E+03  0.10178467608E+03  0.00000000000E+00 0.  1.
          2   -1    0    0  501    0 -0.00000000000E+00 -0.00000000000E+00 -0.10973944370E+02  0.10973944370E+02  0.00000000000E+00 0.  1.
          2    1    1    2  501    0  0.19502909744E+02 -0.13537939014E+02  0.85087338232E+02  0.88337389641E+02  0.00000000000E+00 0.  1.
          2    1    1    2  502    0 -0.19502909744E+02  0.13537939014E+02  0.57233934746E+01  0.24421230806E+02  0.00000000000E+00 0.  1.
</event>
<event>
 4    1  0.6210801E+003  0.2558877E+02  0.7546771E-02  0.1462323E+00
          2   -1    0    0  502    0  0.00000000000E+00  0.00000000000E+00  0.61283754885E+03  0.61283754885E+03  0.00000000000E+00 0.  1.
          2   -1    0    0  501    0 -0.00000000000E+00 -0.00000000000E+00 -0.52777633088E+03  0.52777633088E+03  0.00000000000E+00 0. -1.
          2    1    1    2  501    0  0.14974024145E+02 -0.20750025405E+02  0.61225998229E+03  0.61279447685E+03  0.00000000000E+00 0.  1.
          2    1    1    2  502    0 -0.14974024145E+02  0.20750025405E+02 -0.52719876432E+03  0.52781940288E+03  0.00000000000E+00 0. -1.
</event>
<event>
 4    1  0.6210801E+003  0.3502720E+02  0.7546771E-02  0.1380372E+00
          2   -1    0    0  501    0  0.00000000000E+00  0.00000000000E+00  0.96672727559E+01  0.96672727559E+01  0.00000000000E+00 0.  1.
          2   -1    0    0  502    0 -0.00000000000E+00 -0.00000000000E+00 -0.72339203053E+03  0.72339203053E+03  0.00000000000E+00 0.  1.
          2    1    1    2  501    0 -0.30411780452E+02  0.17378970412E+02 -0.68969030082E+03  0.69057918883E+03  0.00000000000E+00 0.  1.
          2    1    1    2  502    0  0.30411780452E+02 -0.17378970412E+02 -0.24034456952E+02  0.42480114452E+02  0.00000000000E+00 0.  1.
</event>
<event>
 4    1  0.6210801E+003  0.2563691E+02  0.7546771E-02  0.1461803E+00
          2   -1    0    0  502    0  0.00000000000E+00  0.00000000000E+00  0.16148339519E+03  0.16148339519E+03  0.00000000000E+00 0. -1.
          2   -1    0    0  501    0 -0.00000000000E+00 -0.00000000000E+00 -0.54935489987E+02  0.54935489987E+02  0.00000000000E+00 0. -1.
          2    1    1    2  501    0  0.24778352694E+02  0.65790882705E+01  0.15739772914E+03  0.15947192952E+03  0.00000000000E+00 0. -1.
          2    1    1    2  502    0 -0.24778352694E+02 -0.65790882705E+01 -0.50849823938E+02  0.56946955662E+02  0.00000000000E+00 0. -1.
</event>
<event>
 4    1  0.6210801E+003  0.3576793E+02  0.7546771E-02  0.1375243E+00
          2   -1    0    0  501    0  0.00000000000E+00  0.00000000000E+00  0.21516358934E+03  0.21516358934E+03  0.00000000000E+00 0. -1.
          2   -1    0    0  502    0 -0.00000000000E+00 -0.00000000000E+00 -0.97634484974E+02  0.97634484974E+02  0.00000000000E+00 0. -1.
          2    1    1    2  501    0 -0.35767785556E+02 -0.10150201063E+00 -0.92797351224E+02  0.99451964186E+02  0.00000000000E+00 0. -1.
          2    1    1    2  502    0  0.35767785556E+02  0.10150201063E+00  0.21032645559E+03  0.21334611013E+03  0.00000000000E+00 0. -1.
</event>
<event>
 4    1  0.6210801E+003  0.2166244E+02  0.7546771E-02  0.1510013E+00
          2   -1    0    0  501    0  0.00000000000E+00  0.00000000000E+00  0.37959108539E+03  0.37959108539E+03  0.00000000000E+00 0. -1.
          2   -1    0    0  502    0 -0.00000000000E+00 -0.00000000000E+00 -0.64994106541E+02  0.64994106541E+02  0.00000000000E+00 0. -1.
          2    1    1    2  501    0 -0.27299610026E+01  0.21489736322E+02 -0.62869884416E+02  0.66497246716E+02  0.00000000000E+00 0. -1.
          2    1    1    2  502    0  0.27299610026E+01 -0.21489736322E+02  0.37746686326E+03  0.37808794521E+03  0.00000000000E+00 0. -1.
</event>
<event>
 4    1  0.6210801E+003  0.2690769E+02  0.7546771E-02  0.1448538E+00
          2   -1    0    0  502    0  0.00000000000E+00  0.00000000000E+00  0.27484025773E+02  0.27484025773E+02  0.00000000000E+00 0. -1.
          2   -1    0    0  501    0 -0.00000000000E+00 -0.00000000000E+00 -0.83680300167E+02  0.83680300167E+02  0.00000000000E+00 0.  1.
          2    1    1    2  501    0  0.21450802126E+02  0.16244597002E+02  0.17910648775E+02  0.32323601024E+02  0.00000000000E+00 0. -1.
          2    1    1    2  502    0 -0.21450802126E+02 -0.16244597002E+02 -0.74106923169E+02  0.78840724916E+02  0.00000000000E+00 0.  1.
</event>
<event>
 4    1  0.6210801E+003  0.2067934E+02  0.7546771E-02  0.1523893E+00
          2   -1    0    0  501    0  0.00000000000E+00  0.00000000000E+00  0.89884918792E+01  0.89884918792E+01  0.00000000000E+00 0.  1.
          2   -1    0    0  502    0 -0.00000000000E+00 -0.00000000000E+00 -0.10420245233E+04  0.10420245233E+04  0.00000000000E+00 0. -1.
          2    1    1    2  501    0  0.16899278535E+02  0.11918454620E+02 -0.10298878124E+04  0.10300954040E+04  0.00000000000E+00 0. -1.
          2    1    1    2  502    0 -0.16899278535E+02 -0.11918454620E+02 -0.31482190310E+01  0.20917611207E+02  0.00000000000E+00 0.  1.
</event>
<event>
 4    1  0.6210801E+003  0.3970193E+02  0.7546771E-02  0.1350241E+00
          2   -1    0    0  501    0  0.00000000000E+00  0.00000000000E+00  0.26034149972E+03  0.26034149972E+03  0.00000000000E+00 0. -1.
          2   -1    0    0  502    0 -0.00000000000E+00 -0.00000000000E+00 -0.27792226984E+03  0.27792226984E+03  0.00000000000E+00 0.  1.
          2    1    1    2  501    0 -0.19349822540E+02 -0.34667383794E+02 -0.27497461624E+03  0.27782599358E+03  0.00000000000E+00 0.  1.
          2    1    1    2  502    0  0.19349822540E+02  0.34667383794E+02  0.25739384613E+03  0.26043777598E+03  0.00000000000E+00 0. -1.
</event>
<event>
 4    1  0.6210801E+003  0.4599576E+02  0.7546771E-02  0.1316534E+00
          2   -1    0    0  501    0  0.00000000000E+00  0.00000000000E+00  0.43111796635E+03  0.43111796635E+03  0.00000000000E+00 0. -1.
          2   -1    0    0  502    0 -0.00000000000E+00 -0.00000000000E+00 -0.12322092956E+04  0.12322092956E+04  0.00000000000E+00 0. -1.
          2    1    1    2  501    0  0.43413839782E+02 -0.15193683919E+02 -0.12305515966E+04  0.12314109149E+04  0.00000000000E+00 0. -1.
          2    1    1    2  502    0 -0.43413839782E+02  0.15193683919E+02  0.42946026739E+03  0.43191634698E+03  0.00000000000E+00 0. -1.
</event>
<event>
 4    1  0.6210801E+003  0.5241012E+02  0.7546771E-02  0.1288048E+00
          2   -1    0    0  501    0  0.00000000000E+00  0.00000000000E+00  0.71014265713E+01  0.71014265713E+01  0.00000000000E+00 0.  1.
          2   -1    0    0  502    0 -0.00000000000E+00 -0.00000000000E+00 -0.78414152632E+03  0.78414152632E+03  0.00000000000E+00 0. -1.
          2    1    1    2  501    0 -0.49145292639E+02  0.18208817909E+02 -0.67014132062E+03  0.67218763039E+03  0.00000000000E+00 0. -1.
          2    1    1    2  502    0  0.49145292639E+02 -0.18208817909E+02 -0.10689877913E+03  0.11905532251E+03  0.00000000000E+00 0.  1.
</event>
<event>
 4    1  0.6210801E+003  0.2001171E+02  0.7546771E-02  0.1533857E+00
          2   -1    0    0  502    0  0.00000000000E+00  0.00000000000E+00  0.17774332385E+01  0.17774332385E+01  0.00000000000E+00 0.  1.
          2   -1    0    0  501    0 -0.00000000000E+00 -0.00000000000E+00 -0.95583675246E+03  0.95583675246E+03  0.00000000000E+00 0.  1.
          2    1    1    2  501    0  0.13693325420E+02  0.14593192718E+02 -0.58440844922E+02  0.61772168409E+02  0.00000000000E+00 0.  1.
          2    1    1    2  502    0 -0.13693325420E+02 -0.14593192718E+02 -0.89561847430E+03  0.89584201729E+03  0.00000000000E+00 0.  1.
</event>
<event>
 4    1  0.6210801E+003  0.2836498E+02  0.7546771E-02  0.1434358E+00
          2   -1    0    0  501    0  0.00000000000E+00  0.00000000000E+00  0.22599833926E+04  0.22599833926E+04  0.00000000000E+00 0.  1.
          2   -1    0    0  502    0 -0.00000000000E+00 -0.00000000000E+00 -0.42569338214E+00  0.42569338214E+00  0.00000000000E+00 0.  1.
          2    1    1    2  501    0 -0.15342306646E+02  0.23857612141E+02  0.67250156135E+03  0.67309948897E+03  0.00000000000E+00 0.  1.
          2    1    1    2  502    0  0.15342306646E+02 -0.23857612141E+02  0.15870561379E+04  0.15873095970E+04  0.00000000000E+00 0.  1.
</event>
<event>
 4    1  0.6210801E+003  0.4604068E+02  0.7546771E-02  0.1316316E+00
          2   -1    0    0  501    0  0.00000000000E+00  0.00000000000E+00  0.76522736988E+03  0.76522736988E+03  0.00000000000E+00 0.  1.
          2   -1    0    0  502    0 -0.00000000000E+00 -0.00000000000E+00 -0.92457207736E+03  0.92457207736E+03  0.00000000000E+00 0.  1.
          2    1    1    2  501    0 -0.19546913772E+01  0.45999168540E+02 -0.92330543781E+03  0.92445263578E+03  0.00000000000E+00 0.  1.
          2    1    1    2  502    0  0.19546913772E+01 -0.45999168540E+02  0.76396073033E+03  0.76534681146E+03  0.00000000000E+00 0.  1.
</event>
<event>
 4    1  0.6210801E+003  0.3162543E+02  0.7546771E-02  0.1405978E+00
          2   -1    0    0  502    0  0.00000000000E+00  0.00000000000E+00  0.34433162075E+02  0.34433162075E+02  0.00000000000E+00 0.  1.
          2   -1    0    0  501    0 -0.00000000000E+00 -0.00000000000E+00 -0.54607893125E+02  0.54607893125E+02  0.00000000000E+00 0.  1.
          2    1    1    2  501    0 -0.19960356253E+02  0.24530634396E+02  0.20372193903E+02  0.37619066044E+02  0.00000000000E+00 0.  1.
          2    1    1    2  502    0  0.19960356253E+02 -0.24530634396E+02 -0.40546924953E+02  0.51421989156E+02  0.00000000000E+00 0.  1.
</event>
<event>
 4    1  0.6210801E+003  0.2713437E+02  0.7546771E-02  0.1446263E+00
          2   -1    0    0  501    0  0.00000000000E+00  0.00000000000E+00  0.14985144254E+03  0.14985144254E+03  0.00000000000E+00 0.  1.
          2   -1    0    0  502    0 -0.00000000000E+00 -0.00000000000E+00 -0.14910975988E+03  0.14910975988E+03  0.00000000000E+00 0. -1.
          2    1    1    2  501    0  0.24448075549E+02 -0.11771387662E+02 -0.14662634110E+03  0.14911592091E+03  0.00000000000E+00 0. -1.
          2    1    1    2  502    0 -0.24448075549E+02  0.11771387662E+02  0.14736802375E+03  0.14984528151E+03  0.00000000000E+00 0.  1.
</event>
<event>
 4    1  0.6210801E+003  0.2422325E+02  0.7546771E-02  0.1477684E+00
          2   -1    0    0  501    0  0.00000000000E+00  0.00000000000E+00  0.12299424914E+01  0.12299424914E+01  0.00000000000E+00 0. -1.
          2   -1    0    0  502    0 -0.00000000000E+00 -0.00000000000E+00 -0.18758133870E+04  0.18758133870E+04  0.00000000000E+00 0.  1.
          2    1    1    2  501    0 -0.23867607734E+02  0.41355956296E+01 -0.17477279850E+04  0.17478958423E+04  0.00000000000E+00 0.  1.
          2    1    1    2  502    0  0.23867607734E+02 -0.41355956296E+01 -0.12685545952E+03  0.12914748724E+03  0.00000000000E+00 0. -1.
</event>
<event>
 4    1  0.6210801E+003  0.2316932E+02  0.7546771E-02  0.1490383E+00
          2   -1    0    0  501    0  0.00000000000E+00  0.00000000000E+00  0.30038444789E+02  0.30038444789E+02  0.00000000000E+00 0.  1.
          2   -1    0    0  502    0 -0.00000000000E+00 -0.00000000000E+00 -0.39953388479E+02  0.39953388479E+02  0.00000000000E+00 0.  1.
          2    1    1    2  501    0 -0.11472146245E+02 -0.20129754782E+02 -0.30974851107E+02  0.38681501627E+02  0.00000000000E+00 0.  1.
          2    1    1    2  502    0  0.11472146245E+02  0.20129754782E+02  0.21059907416E+02  0.31310331640E+02  0.00000000000E+00 0.  1.
</event>
<event>
 4    1  0.6210801E+003  0.2084397E+02  0.7546771E-02  0.1521504E+00
          2   -1    0    0  502    0  0.00000000000E+00  0.00000000000E+00  0.41968321238E+03  0.41968321238E+03  0.00000000000E+00 0.  1.
          2   -1    0    0  501    0 -0.00000000000E+00 -0.00000000000E+00 -0.17509450520E+02  0.17509450520E+02  0.00000000000E+00 0. -1.
          2    1    1    2  501    0  0.62331635224E+01  0.19890166812E+02  0.41312257313E+03  0.41364807687E+03  0.00000000000E+00 0.  1.
          2    1    1    2  502    0 -0.62331635224E+01 -0.19890166812E+02 -0.10948811271E+02  0.23544586035E+02  0.00000000000E+00 0. -1.
</event>
<event>
 4    1  0.6210801E+003  0.4808483E+02  0.7546771E-02  0.1306696E+00
          2   -1    0    0  502    0  0.00000000000E+00  0.00000000000E+00  0.28408494347E+03  0.28408494347E+03  0.00000000000E+00 0. -1.
          2   -1    0    0  501    0 -0.00000000000E+00 -0.00000000000E+00 -0.18261275944E+02  0.18261275944E+02  0.00000000000E+00 0. -1.
          2    1    1    2  501    0  0.47529691403E+02  0.72855722503E+01  0.24546281844E+03  0.25012825983E+03  0.00000000000E+00 0. -1.
          2    1    1    2  502    0 -0.47529691403E+02 -0.72855722503E+01  0.20360849085E+02  0.52217959586E+02  0.00000000000E+00 0. -1.
</event>
<event>
 4    1  0.6210801E+003  0.9828349E+02  0.7546771E-02  0.1166816E+00
          2   -1    0    0  502    0  0.00000000000E+00  0.00000000000E+00  0.51795404626E+03  0.51795404626E+03  0.00000000000E+00 0. -1.
          2   -1    0    0  501    0 -0.00000000000E+00 -0.00000000000E+00 -0.26880471364E+02  0.26880471364E+02  0.00000000000E+00 0. -1.
          2    1    1    2  501    0 -0.96307163251E+02  0.19610554058E+02  0.39628032102E+03  0.40828634113E+03  0.00000000000E+00 0. -1.
          2    1    1    2  502    0  0.96307163251E+02 -0.19610554058E+02  0.94793253873E+02  0.13654817649E+03  0.00000000000E+00 0. -1.
</event>
<event>
 4    1  0.6210801E+003  0.4400928E+02  0.7546771E-02  0.1326468E+00
          2   -1    0    0  502    0  0.00000000000E+00  0.00000000000E+00  0.65452195197E+01  0.65452195197E+01  0.00000000000E+00 0.  1.
          2   -1    0    0  501    0 -0.00000000000E+00 -0.00000000000E+00 -0.31579095110E+03  0.31579095110E+03  0.00000000000E+00 0.  1.
          2    1    1    2  501    0  0.17360968796E+01  0.43975026168E+02 -0.19505835044E+03  0.19996143887E+03  0.00000000000E+00 0.  1.
          2    1    1    2  502    0 -0.17360968796E+01 -0.43975026168E+02 -0.11418738113E+03  0.12237473174E+03  0.00000000000E+00 0.  1.
</event>
<event>
 4    1  0.6210801E+003  0.2131686E+02  0.7546771E-02  0.1514789E+00
          2   -1    0    0  502    0  0.00000000000E+00  0.00000000000E+00  0.74727178525E+02  0.74727178525E+02  0.00000000000E+00 0.  1.
          2   -1    0    0  501    0 -0.00000000000E+00 -0.00000000000E+00 -0.69020940271E+03  0.69020940271E+03  0.00000000000E+00 0. -1.
          2    1    1    2  501    0 -0.71135668277E+01 -0.20094920892E+02  0.73038634709E+02  0.76085812336E+02  0.00000000000E+00 0.  1.
          2    1    1    2  502    0  0.71135668277E+01  0.20094920892E+02 -0.68852085889E+03  0.68885076889E+03  0.00000000000E+00 0. -1.
</event>
<event>
 4    1  0.6210801E+003  0.2660482E+02  0.7546771E-02  0.1451619E+00
          2   -1    0    0  501    0  0.00000000000E+00  0.00000000000E+00  0.21919610237E+02  0.21919610237E+02  0.00000000000E+00 0.  1.
          2   -1    0    0  502    0 -0.00000000000E+00 -0.00000000000E+00 -0.55811874580E+03  0.55811874580E+03  0.00000000000E+00 0. -1.
          2    1    1    2  501    0  0.70636897029E+01  0.25649961826E+02 -0.54960382753E+03  0.55024738390E+03  0.00000000000E+00 0. -1.
          2    1    1    2  502    0 -0.70636897029E+01 -0.25649961826E+02  0.13404691970E+02  0.29790972134E+02  0.00000000000E+00 0.  1.
</event>
<event>
 4    1  0.6210801E+003  0.2213727E+02  0.7546771E-02  0.1503625E+00
          2   -1    0    0  502    0  0.00000000000E+00  0.00000000000E+00  0.15352811983E+02  0.15352811983E+02  0.00000000000E+00 0.  1.
          2   -1    0    0  501    0 -0.00000000000E+00 -0.00000000000E+00 -0.27747553823E+03  0.27747553823E+03  0.00000000000E+00 0. -1.
          2    1    1    2  501    0  0.21038526479E+02 -0.68875949854E+01  0.66741162138E+01  0.23121470289E+02  0.00000000000E+00 0.  1.
          2    1    1    2  502    0 -0.21038526479E+02  0.68875949854E+01 -0.26879684246E+03  0.26970687992E+03  0.00000000000E+00 0. -1.
</event>
<event>
 4    1  0.6210801E+003  0.4964898E+02  0.7546771E-02  0.1299702E+00
          2   -1    0    0  502    0  0.00000000000E+00  0.00000000000E+00  0.80617961269E+03  0.80617961269E+03  0.00000000000E+00 0. -1.
          2   -1    0    0  501    0 -0.00000000000E+00 -0.00000000000E+00 -0.56989449491E+01  0.56989449491E+01  0.00000000000E+00 0. -1.
          2    1    1    2  501    0 -0.42706869271E+02  0.25320827498E+02  0.67659811315E+03  0.67841729615E+03  0.00000000000E+00 0. -1.
          2    1    1    2  502    0  0.42706869271E+02 -0.25320827498E+02  0.12388255459E+03  0.13346126150E+03  0.00000000000E+00 0. -1.
</event>
<event>
 4    1  0.6210801E+003  0.2068216E+02  0.7546771E-02  0.1523852E+00
          2   -1    0    0  501    0  0.00000000000E+00  0.00000000000E+00  0.20255684252E+03  0.20255684252E+03  0.00000000000E+00 0. -1.
          2   -1    0    0  502    0 -0.00000000000E+00 -0.00000000000E+00 -0.55991752878E+01  0.55991752878E+01  0.00000000000E+00 0. -1.
          2    1    1    2  501    0  0.70081519390E+01  0.19458608978E+02  0.16339966337E+02  0.26358037804E+02  0.00000000000E+00 0. -1.
          2    1    1    2  502    0 -0.70081519390E+01 -0.19458608978E+02  0.18061770090E+03  0.18179798001E+03  0.00000000000E+00 0. -1.
</event>
<event>
 4    1  0.6210801E+003  0.2259095E+02  0.7546771E-02  0.1497699E+00
          2   -1    0    0  502    0  0.00000000000E+00  0.00000000000E+00  0.15197227494E+01  0.15197227494E+01  0.00000000000E+00 0. -1.
          2   -1    0    0  501    0 -0.00000000000E+00 -0.00000000000E+00 -0.73160139315E+03  0.73160139315E+03  0.00000000000E+00 0. -1.
          2    1    1    2  501    0 -0.20412634538E+02  0.96786117911E+01 -0.95430260387E+02  0.98067761127E+02  0.00000000000E+00 0. -1.
          2    1    1    2  502    0  0.20412634538E+02 -0.96786117911E+01 -0.63465141001E+03  0.63505335477E+03  0.00000000000E+00 0. -1.
</event>
<event>
 4    1  0.6210801E+003  0.2036173E+02  0.7546771E-02  0.1528576E+00
          2   -1    0    0  502    0  0.00000000000E+00  0.00000000000E+00  0.55748576852E+02  0.55748576852E+02  0.00000000000E+00 0.  1.
          2   -1    0    0  501    0 -0.00000000000E+00 -0.00000000000E+00 -0.22675606187E+03  0.22675606187E+03  0.00000000000E+00 0. -1.
          2    1    1    2  501    0  0.19087931225E+02  0.70887822028E+01  0.53412927367E+02  0.57162406891E+02  0.00000000000E+00 0.  1.
          2    1    1    2  502    0 -0.19087931225E+02 -0.70887822028E+01 -0.22442041239E+03  0.22534223183E+03  0.00000000000E+00 0. -1.
</event>
<event>
 4    1  0.6210801E+003  0.2983121E+02  0.7546771E-02  0.1421069E+00
          2   -1    0    0  501    0  0.00000000000E+00  0.00000000000E+00  0.59224091767E+02  0.59224091767E+02  0.00000000000E+00 0.  1.
          2   -1    0    0  502    0 -0.00000000000E+00 -0.00000000000E+00 -0.37239175695E+02  0.37239175695E+02  0.00000000000E+00 0. -1.
          2    1    1    2  501    0 -0.27586224050E+02 -0.11353469961E+02 -0.26258487119E+02  0.39741781330E+02  0.00000000000E+00 0. -1.
          2    1    1    2  502    0  0.27586224050E+02  0.11353469961E+02  0.48243403192E+02  0.56721486132E+02  0.00000000000E+00 0.  1.
</event>
<event>
 4    1  0.6210801E+003  0.2070576E+02  0.7546771E-02  0.1523508E+00
          2   -1    0    0  501    0  0.00000000000E+00  0.00000000000E+00  0.22829828484E+03  0.22829828484E+03  0.00000000000E+00 0. -1.
          2   -1    0    0  502    0 -0.00000000000E+00 -0.00000000000E+00 -0.49423542474E+01  0.49423542474E+01  0.00000000000E+00 0.  1.
          2    1    1    2  501    0 -0.48580297859E+01 -0.20127791759E+02  0.19848584224E+02  0.28682655913E+02  0.00000000000E+00 0.  1.
          2    1    1    2  502    0  0.48580297859E+01  0.20127791759E+02  0.20350734637E+03  0.20455798318E+03  0.00000000000E+00 0. -1.
</event>
<event>
 4    1  0.6210801E+003  0.3546536E+02  0.7546771E-02  0.1377321E+00
          2   -1    0    0  501    0  0.00000000000E+00  0.00000000000E+00  0.73442340035E+01  0.73442340035E+01  0.00000000000E+00 0. -1.
          2   -1    0    0  502    0 -0.00000000000E+00 -0.00000000000E+00 -0.19506365544E+03  0.19506365544E+03  0.00000000000E+00 0. -1.
          2    1    1    2  501    0  0.14916563329E+02 -0.32175885190E+02 -0.12921128934E+03  0.13399010688E+03  0.00000000000E+00 0. -1.
          2    1    1    2  502    0 -0.14916563329E+02  0.32175885190E+02 -0.58508132101E+02  0.68417782566E+02  0.00000000000E+00 0. -1.
</event>
<event>
 4    1  0.6210801E+003  0.3212717E+02  0.7546771E-02  0.1401969E+00
          2   -1    0    0  502    0  0.00000000000E+00  0.00000000000E+00  0.29965620648E+01  0.29965620648E+01  0.00000000000E+00 0.  1.
          2   -1    0    0  501    0 -0.00000000000E+00 -0.00000000000E+00 -0.53470898493E+03  0.53470898493E+03  0.00000000000E+00 0.  1.
          2    1    1    2  501    0 -0.67255060891E+01  0.31415325291E+02 -0.10548277095E+03  0.11026681306E+03  0.00000000000E+00 0.  1.
          2    1    1    2  502    0  0.67255060891E+01 -0.31415325291E+02 -0.42622965192E+03  0.42743873394E+03  0.00000000000E+00 0.  1.
</event>
<event>
 4    1  0.6210801E+003  0.2767153E+02  0.7546771E-02  0.1440977E+00
          2   -1    0    0  502    0  0.00000000000E+00  0.00000000000E+00  0.87809984472E+03  0.87809984472E+03  0.00000000000E+00 0.  1.
          2   -1    0    0  501    0 -0.00000000000E+00 -0.00000000000E+00 -0.77079093220E+02  0.77079093220E+02  0.00000000000E+00 0.  1.
          2    1    1    2  501    0  0.17999658352E+02 -0.21017277616E+02  0.87539062515E+03  0.87582787136E+03  0.00000000000E+00 0.  1.
          2    1    1    2  502    0 -0.17999658352E+02  0.21017277616E+02 -0.74369873652E+02  0.79351066572E+02  0.00000000000E+00 0.  1.
</event>
<event>
 4    1  0.6210801E+003  0.3975651E+02  0.7546771E-02  0.1349919E+00
          2   -1    0    0  502    0  0.00000000000E+00  0.00000000000E+00  0.12131746782E+04  0.12131746782E+04  0.00000000000E+00 0. -1.
          2   -1    0    0  501    0 -0.00000000000E+00 -0.00000000000E+00 -0.22914239677E+01  0.22914239677E+01  0.00000000000E+00 0. -1.
          2    1    1    2  501    0  0.28889444751E+02  0.27312638708E+02  0.10046186251E+04  0.10054049742E+04  0.00000000000E+00 0. -1.
          2    1    1    2  502    0 -0.28889444751E+02 -0.27312638708E+02  0.20626462912E+03  0.21006112795E+03  0.00000000000E+00 0. -1.
</event>
<event>
 4    1  0.6210801E+003  0.1031826E+03  0.7546771E-02  0.1158404E+00
          2   -1    0    0  502    0  0.00000000000E+00  0.00000000000E+00  0.19772871489E+02  0.19772871489E+02  0.00000000000E+00 0.  1.
          2   -1    0    0  501    0 -0.00000000000E+00 -0.00000000000E+00 -0.10643826458E+04  0.10643826458E+04  0.00000000000E+00 0. -1.
          2    1    1    2  501    0  0.59123197001E+02 -0.84564211547E+02 -0.14125776416E+03  0.17492974085E+03  0.00000000000E+00 0.  1.
          2    1    1    2  502    0 -0.59123197001E+02  0.84564211547E+02 -0.90335201019E+03  0.90922577648E+03  0.00000000000E+00 0. -1.
</event>
<event>
 4    1  0.6210801E+003  0.2227367E+02  0.7546771E-02  0.1501826E+00
          2   -1    0    0  501    0  0.00000000000E+00  0.00000000000E+00  0.12446388161E+04  0.12446388161E+04  0.00000000000E+00 0.  1.
          2   -1    0    0  502    0 -0.00000000000E+00 -0.00000000000E+00 -0.14167592281E+02  0.14167592281E+02  0.00000000000E+00 0. -1.
          2    1    1    2  501    0  0.17449815812E+02 -0.13842695220E+02 -0.52503516818E+01  0.22884109675E+02  0.00000000000E+00 0. -1.
          2    1    1    2  502    0 -0.17449815812E+02  0.13842695220E+02  0.12357215755E+04  0.12359222987E+04  0.00000000000E+00 0.  1.
</event>
<event>
 4    1  0.6210801E+003  0.8171189E+02  0.7546771E-02  0.1199928E+00
          2   -1    0    0  502    0  0.00000000000E+00  0.00000000000E+00  0.90311426482E+03  0.90311426482E+03  0.00000000000E+00 0. -1.
          2   -1    0    0  501    0 -0.00000000000E+00 -0.00000000000E+00 -0.78295681854E+02  0.78295681854E+02  0.00000000000E+00 0.  1.
          2    1    1    2  501    0  0.44668537477E+01 -0.81589710384E+02  0.87937233721E+03  0.88316054094E+03  0.00000000000E+00 0. -1.
          2    1    1    2  502    0 -0.44668537477E+01  0.81589710384E+02 -0.54553754251E+02  0.98249405727E+02  0.00000000000E+00 0.  1.
</event>
<event>
 4    1  0.6210801E+003  0.2143486E+02  0.7546771E-02  0.1513146E+00
          2   -1    0    0  501    0  0.00000000000E+00  0.00000000000E+00  0.48371377425E+01  0.48371377425E+01  0.00000000000E+00 0. -1.
          2   -1    0    0  502    0 -0.00000000000E+00 -0.00000000000E+00 -0.24487130521E+03  0.24487130521E+03  0.00000000000E+00 0. -1.
          2    1    1    2  501    0 -0.13848236082E+02 -0.16360911955E+02 -0.21769940976E+03  0.21875211105E+03  0.00000000000E+00 0. -1.
          2    1    1    2  502    0  0.13848236082E+02  0.16360911955E+02 -0.22334757712E+02  0.30956331899E+02  0.00000000000E+00 0. -1.
</event>
<event>
 4    1  0.6210801E+003  0.2025087E+02  0.7546771E-02  0.1530235E+00
          2   -1    0    0  501    0  0.00000000000E+00  0.00000000000E+00  0.28863430295E+02  0.28863430295E+02  0.00000000000E+00 0.  1.
          2   -1    0    0  502    0 -0.00000000000E+00 -0.00000000000E+00 -0.57498019436E+02  0.57498019436E+02  0.00000000000E+00 0.  1.
          2    1    1    2  501    0 -0.46043235750E+00 -0.20245633717E+02 -0.51784933142E+02  0.55603749721E+02  0.00000000000E+00 0.  1.
          2    1    1    2  502    0  0.46043235750E+00  0.20245633717E+02  0.23150344001E+02  0.30757700010E+02  0.00000000000E+00 0.  1.
</event>
<event>
 4    1  0.6210801E+003  0.2615408E+02  0.7546771E-02  0.1456296E+00
          2   -1    0    0  501    0  0.00000000000E+00  0.00000000000E+00  0.40660767574E+02  0.40660767574E+02  0.00000000000E+00 0.  1.
          2   -1    0    0  502    0 -0.00000000000E+00 -0.00000000000E+00 -0.18318347662E+02  0.18318347662E+02  0.00000000000E+00 0.  1.
          2    1    1    2  501    0  0.20895785412E+02  0.15729020675E+02  0.27456893458E+01  0.26297808832E+02  0.00000000000E+00 0.  1.
          2    1    1    2  502    0 -0.20895785412E+02 -0.15729020675E+02  0.19596730566E+02  0.32681306404E+02  0.00000000000E+00 0.  1.
</event>
<event>
 4    1  0.6210801E+003  0.2445187E+02  0.7546771E-02  0.1475030E+00
          2   -1    0    0  502    0  0.00000000000E+00  0.00000000000E+00  0.11856628620E+02  0.11856628620E+02  0.00000000000E+00 0.  1.
          2   -1    0    0  501    0 -0.00000000000E+00 -0.00000000000E+00 -0.66989882877E+03  0.66989882877E+03  0.00000000000E+00 0.  1.
          2    1    1    2  501    0  0.24451834833E+02 -0.41947050667E-01 -0.12242277641E+01  0.24482498236E+02  0.00000000000E+00 0.  1.
          2    1    1    2  502    0 -0.24451834833E+02  0.41947050667E-01 -0.65681797238E+03  0.65727295915E+03  0.00000000000E+00 0.  1.
</event>
<event>
 4    1  0.6210801E+003  0.5803777E+02  0.7546771E-02  0.1266649E+00
          2   -1    0    0  501    0  0.00000000000E+00  0.00000000000E+00  0.56472627404E+02  0.56472627404E+02  0.00000000000E+00 0.  1.
          2   -1    0    0  502    0 -0.00000000000E+00 -0.00000000000E+00 -0.77043871592E+03  0.77043871592E+03  0.00000000000E+00 0. -1.
          2    1    1    2  501    0 -0.16155194824E+02 -0.55743989861E+02 -0.75411176799E+03  0.75634181516E+03  0.00000000000E+00 0. -1.
          2    1    1    2  502    0  0.16155194824E+02  0.55743989861E+02  0.40145679477E+02  0.70569528170E+02  0.00000000000E+00 0.  1.
</event>
<event>
 4    1  0.6210801E+003  0.3311577E+02  0.7546771E-02  0.1394317E+00
          2   -1    0    0  502    0  0.00000000000E+00  0.00000000000E+00  0.45210755099E+01  0.45210755099E+01  0.00000000000E+00 0.  1.
          2   -1    0    0  501    0 -0.00000000000E+00 -0.00000000000E+00 -0.59496881844E+03  0.59496881844E+03  0.00000000000E+00 0.  1.
          2    1    1    2  501    0 -0.70623806056E+01 -0.32353928699E+02 -0.64535781050E+02  0.72536342324E+02  0.00000000000E+00 0.  1.
          2    1    1    2  502    0  0.70623806056E+01  0.32353928699E+02 -0.52591196188E+03  0.52695355163E+03  0.00000000000E+00 0.  1.
</event>
<event>
 4    1  0.6210801E+003  0.2234250E+02  0.7546771E-02  0.1500924E+00
          2   -1    0    0  502    0  0.00000000000E+00  0.00000000000E+00  0.16369293133E+03  0.16369293133E+03  0.00000000000E+00 0. -1.
          2   -1    0    0  501    0 -0.00000000000E+00 -0.00000000000E+00 -0.63294252437E+01  0.63294252437E+01  0.00000000000E+00 0. -1.
          2    1    1    2  501    0  0.20403927159E+02 -0.91031248421E+01  0.13987783729E+03  0.14165096714E+03  0.00000000000E+00 0. -1.
          2    1    1    2  502    0 -0.20403927159E+02  0.91031248421E+01  0.17485668796E+02  0.28371389438E+02  0.00000000000E+00 0. -1.
</event>
<event>
 4    1  0.6210801E+003  0.2785231E+02  0.7546771E-02  0.1439229E+00
          2   -1    0    0  502    0  0.00000000000E+00  0.00000000000E+00  0.54186406547E+02  0.54186406547E+02  0.00000000000E+00 0.  1.
          2   -1    0    0  501    0 -0.00000000000E+00 -0.00000000000E+00 -0.33505285734E+02  0.33505285734E+02  0.00000000000E+00 0. -1.
          2    1    1    2  501    0  0.88793506658E-01 -0.27852167498E+02  0.43522160830E+02  0.51671361526E+02  0.00000000000E+00 0.  1.
          2    1    1    2  502    0 -0.88793506658E-01  0.27852167498E+02 -0.22841040018E+02  0.36020330755E+02  0.00000000000E+00 0. -1.
</event>
<event>
 4    1  0.6210801E+003  0.2117441E+02  0.7546771E-02  0.1516789E+00
          2   -1    0    0  502    0  0.00000000000E+00  0.00000000000E+00  0.15061449746E+04  0.15061449746E+04  0.00000000000E+00 0. -1.
          2   -1    0    0  501    0 -0.00000000000E+00 -0.00000000000E+00 -0.17432300154E+01  0.17432300154E+01  0.00000000000E+00 0.  1.
          2    1    1    2  501    0 -0.19287484092E+02  0.87377772827E+01  0.14387596247E+04  0.14389154296E+04  0.00000000000E+00 0. -1.
          2    1    1    2  502    0  0.19287484092E+02 -0.87377772827E+01  0.65642119922E+02  0.68972775080E+02  0.00000000000E+00 0.  1.
</event>
<event>
 4    1  0.6210801E+003  0.2319978E+02  0.7546771E-02  0.1490005E+00
          2   -1    0    0  502    0  0.00000000000E+00  0.00000000000E+00  0.17480037934E+03  0.17480037934E+03  0.00000000000E+00 0. -1.
          2   -1    0    0  501    0 -0.00000000000E+00 -0.00000000000E+00 -0.29618620121E+02  0.29618620121E+02  0.00000000000E+00 0.  1.
          2    1    1    2  501    0 -0.91059291975E+01  0.21338037651E+02  0.16934184196E+03  0.17092363568E+03  0.00000000000E+00 0. -1.
          2    1    1    2  502    0  0.91059291975E+01 -0.21338037651E+02 -0.24160082733E+02  0.33495363784E+02  0.00000000000E+00 0.  1.
</event>
<event>
 4    1  0.6210801E+003  0.3581947E+02  0.7546771E-02  0.1374892E+00
          2   -1    0    0  502    0  0.00000000000E+00  0.00000000000E+00  0.63578436310E+02  0.63578436310E+02  0.00000000000E+00 0. -1.
          2   -1    0    0  501    0 -0.00000000000E+00 -0.00000000000E+00 -0.35538314758E+02  0.35538314758E+02  0.00000000000E+00 0.  1.
          2    1    1    2  501    0 -0.34801282958E+02  0.84796763178E+01  0.46598905446E+02  0.58774928283E+02  0.00000000000E+00 0. -1.
          2    1    1    2  502    0  0.34801282958E+02 -0.84796763178E+01 -0.18558783895E+02  0.40341822785E+02  0.00000000000E+00 0.  1.
</event>
<event>
 4    1  0.6210801E+003  0.2916110E+02  0.7546771E-02  0.1427029E+00
          2   -1    0    0  501    0  0.00000000000E+00  0.00000000000E+00  0.38440987134E+00  0.38440987134E+00  0.00000000000E+00 0.  1.
          2   -1    0    0  502    0 -0.00000000000E+00 -0.00000000000E+00 -0.22542262286E+04  0.22542262286E+04  0.00000000000E+00 0.  1.
          2    1    1    2  501    0  0.21617413766E+02 -0.19571850474E+02 -0.12809466362E+04  0.12812785234E+04  0.00000000000E+00 0.  1.
          2    1    1    2  502    0 -0.21617413766E+02  0.19571850474E+02 -0.97289518257E+03  0.97333211504E+03  0.00000000000E+00 0.  1.
</event>
<event>
 4    1  0.6210801E+003  0.2273365E+02  0.7546771E-02  0.1495870E+00
          2   -1    0    0  502    0  0.00000000000E+00  0.00000000000E+00  0.47209996668E+01  0.47209996668E+01  0.00000000000E+00 0. -1.
          2   -1    0    0  501    0 -0.00000000000E+00 -0.00000000000E+00 -0.19961586130E+03  0.19961586130E+03  0.00000000000E+00 0.  1.
          2    1    1    2  501    0 -0.72000827045E+01  0.21563339416E+02 -0.28790165650E+02  0.36683680784E+02  0.00000000000E+00 0. -1.
          2    1    1    2  502    0  0.72000827045E+01 -0.21563339416E+02 -0.16610469598E+03  0.16765318018E+03  0.00000000000E+00 0.  1.
</event>
<event>
 4    1  0.6210801E+003  0.2278120E+02  0.7546771E-02  0.1495264E+00
          2   -1    0    0  501    0  0.00000000000E+00  0.00000000000E+00  0.24986500994E+01  0.24986500994E+01  0.00000000000E+00 0. -1.
          2   -1    0    0  502    0 -0.00000000000E+00 -0.00000000000E+00 -0.23446077290E+03  0.23446077290E+03  0.00000000000E+00 0. -1.
          2    1    1    2  501    0 -0.22592941595E+02  0.29227076597E+01 -0.15600446638E+03  0.15765905227E+03  0.00000000000E+00 0. -1.
          2    1    1    2  502    0  0.22592941595E+02 -0.29227076597E+01 -0.75957656413E+02  0.79300370728E+02  0.00000000000E+00 0. -1.
</event>
<event>
 4    1  0.6210801E+003  0.2351288E+02  0.7546771E-02  0.1486156E+00
          2   -1    0    0  501    0  0.00000000000E+00  0.00000000000E+00  0.79538439165E+03  0.79538439165E+03  0.00000000000E+00 0. -1.
          2   -1    0    0  502    0 -0.00000000000E+00 -0.00000000000E+00 -0.35985187401E+01  0.35985187401E+01  0.00000000000E+00 0. -1.
          2    1    1    2  501    0 -0.22663235129E+02 -0.62636398590E+01  0.37052002127E+02  0.43882869920E+02  0.00000000000E+00 0. -1.
          2    1    1    2  502    0  0.22663235129E+02  0.62636398590E+01  0.75473387078E+03  0.75510004047E+03  0.00000000000E+00 0. -1.
</event>
<event>
 4    1  0.6210801E+003  0.7291761E+02  0.7546771E-02  0.1221319E+00
          2   -1    0    0  501    0  0.00000000000E+00  0.00000000000E+00  0.38083553752E+02  0.38083553752E+02  0.00000000000E+00 0.  1.
          2   -1    0    0  502    0 -0.00000000000E+00 -0.00000000000E+00 -0.47154467584E+03  0.47154467584E+03  0.00000000000E+00 0. -1.
          2    1    1    2  501    0 -0.25898652168E+02  0.68163316765E+02 -0.43051992019E+03  0.43665132499E+03  0.00000000000E+00 0. -1.
          2    1    1    2  502    0  0.25898652168E+02 -0.68163316765E+02 -0.29412018995E+01  0.72976904601E+02  0.00000000000E+00 0.  1.
</event>
<event>
 4    1  0.6210801E+003  0.2766426E+02  0.7546771E-02  0.1441047E+00
          2   -1    0    0  502    0  0.00000000000E+00  0.00000000000E+00  0.20683697621E+03  0.20683697621E+03  0.00000000000E+00 0. -1.
          2   -1    0    0  501    0 -0.00000000000E+00 -0.00000000000E+00 -0.22893462970E+02  0.22893462970E+02  0.00000000000E+00 0. -1.
          2    1    1    2  501    0  0.17782304812E+02 -0.21191994907E+02  0.19714583002E+03  0.19907734503E+03  0.00000000000E+00 0. -1.
          2    1    1    2  502    0 -0.17782304812E+02  0.21191994907E+02 -0.13202316776E+02  0.30653094148E+02  0.00000000000E+00 0. -1.
</event>
<event>
 4    1  0.6210801E+003  0.2491112E+02  0.7546771E-02  0.1469800E+00
          2   -1    0    0  502    0  0.00000000000E+00  0.00000000000E+00  0.36915310245E+03  0.36915310245E+03  0.00000000000E+00 0. -1.
          2   -1    0    0  501    0 -0.00000000000E+00 -0.00000000000E+00 -0.65897557809E+01  0.65897557809E+01  0.00000000000E+00 0. -1.
          2    1    1    2  501    0 -0.17895800975E+02 -0.17329281469E+02  0.34342897133E+03  0.34433126788E+03  0.00000000000E+00 0. -1.
          2    1    1    2  502    0  0.17895800975E+02  0.17329281469E+02  0.19134375331E+02  0.31411590346E+02  0.00000000000E+00 0. -1.
</event>
<event>
 4    1  0.6210801E+003  0.2167469E+02  0.7546771E-02  0.1509846E+00
          2   -1    0    0  502    0  0.00000000000E+00  0.00000000000E+00  0.16477682331E+03  0.16477682331E+03  0.00000000000E+00 0. -1.
          2   -1    0    0  501    0 -0.00000000000E+00 -0.00000000000E+00 -0.88125575695E+03  0.88125575695E+03  0.00000000000E+00 0.  1.
          2    1    1    2  501    0 -0.21605574390E+02  0.17295021135E+01  0.16393009427E+03  0.16535678949E+03  0.00000000000E+00 0. -1.
          2    1    1    2  502    0  0.21605574390E+02 -0.17295021135E+01 -0.88040902791E+03  0.88067579077E+03  0.00000000000E+00 0.  1.
</event>
<event>
 4    1  0.6210801E+003  0.2243243E+02  0.7546771E-02  0.1499751E+00
          2   -1    0    0  502    0  0.00000000000E+00  0.00000000000E+00  0.10028530467E+02  0.10028530467E+02  0.00000000000E+00 0. -1.
          2   -1    0    0  501    0 -0.00000000000E+00 -0.00000000000E+00 -0.57364587713E+02  0.57364587713E+02  0.00000000000E+00 0.  1.
          2    1    1    2  501    0 -0.13345715440E+01 -0.22392693613E+02 -0.11741382499E+02  0.25319436633E+02  0.00000000000E+00 0. -1.
          2    1    1    2  502    0  0.13345715440E+01  0.22392693613E+02 -0.35594674748E+02  0.42073681546E+02  0.00000000000E+00 0.  1.
</event>
<event>
 4    1  0.6210801E+003  0.9446300E+02  0.7546771E-02  0.1173764E+00
          2   -1    0    0  502    0  0.00000000000E+00  0.00000000000E+00  0.31706639217E+03  0.31706639217E+03  0.00000000000E+00 0. -1.
          2   -1    0    0  501    0 -0.00000000000E+00 -0.00000000000E+00 -0.62566967810E+03  0.62566967810E+03  0.00000000000E+00 0.  1.
          2    1    1    2  501    0  0.54821260700E+02 -0.76927805224E+02  0.30634314061E+03  0.32057663302E+03  0.00000000000E+00 0. -1.
          2    1    1    2  502    0 -0.54821260700E+02  0.76927805224E+02 -0.61494642654E+03  0.62215943725E+03  0.00000000000E+00 0.  1.
</event>
<event>
 4    1  0.6210801E+003  0.2399912E+02  0.7546771E-02  0.1480319E+00
          2   -1    0    0  502    0  0.00000000000E+00  0.00000000000E+00  0.47751972219E+02  0.47751972219E+02  0.00000000000E+00 0. -1.
          2   -1    0    0  501    0 -0.00000000000E+00 -0.00000000000E+00 -0.13666001096E+03  0.13666001096E+03  0.00000000000E+00 0. -1.
          2    1    1    2  501    0 -0.22113374499E+02 -0.93250468062E+01  0.43589001920E+02  0.49759008411E+02  0.00000000000E+00 0. -1.
          2    1    1    2  502    0  0.22113374499E+02  0.93250468062E+01 -0.13249704066E+03  0.13465297476E+03  0.00000000000E+00 0. -1.
</event>
<event>
 4    1  0.6210801E+003  0.3256844E+02  0.7546771E-02  0.1398514E+00
          2   -1    0    0  501    0  0.00000000000E+00  0.00000000000E+00  0.91810453931E+03  0.91810453931E+03  0.00000000000E+00 0. -1.
          2   -1    0    0  502    0 -0.00000000000E+00 -0.00000000000E+00 -0.14123225653E+02  0.14123225653E+02  0.00000000000E+00 0. -1.
          2    1    1    2  501    0  0.10824412015E+02  0.30717017744E+02  0.53481661984E+01  0.33004635376E+02  0.00000000000E+00 0. -1.
          2    1    1    2  502    0 -0.10824412015E+02 -0.30717017744E+02  0.89863314746E+03  0.89922312959E+03  0.00000000000E+00 0. -1.
</event>
<event>
 4    1  0.6210801E+003  0.2520169E+02  0.7546771E-02  0.1466560E+00
          2   -1    0    0  502    0  0.00000000000E+00  0.00000000000E+00  0.73679469239E+03  0.73679469239E+03  0.00000000000E+00 0. -1.
          2   -1    0    0  501    0 -0.00000000000E+00 -0.00000000000E+00 -0.81269661665E+01  0.81269661665E+01  0.00000000000E+00 0.  1.
          2    1    1    2  501    0  0.23804984629E+02 -0.82733093733E+01  0.71648805055E+03  0.71693113443E+03  0.00000000000E+00 0. -1.
          2    1    1    2  502    0 -0.23804984629E+02  0.82733093733E+01  0.12179675676E+02  0.27990524124E+02  0.00000000000E+00 0.  1.
</event>
<event>
 4    1  0.6210801E+003  0.2363527E+02  0.7546771E-02  0.1484671E+00
          2   -1    0    0  501    0  0.00000000000E+00  0.00000000000E+00  0.12099991876E+03  0.12099991876E+03  0.00000000000E+00 0. -1.
          2   -1    0    0  502    0 -0.00000000000E+00 -0.00000000000E+00 -0.76346190655E+02  0.76346190655E+02  0.00000000000E+00 0. -1.
          2    1    1    2  501    0  0.34557834124E+01  0.23381264634E+02 -0.73316230444E+02  0.77031783190E+02  0.00000000000E+00 0. -1.
          2    1    1    2  502    0 -0.34557834124E+01 -0.23381264634E+02  0.11796995855E+03  0.12031432622E+03  0.00000000000E+00 0. -1.
</event>
<event>
 4    1  0.6210801E+003  0.2524613E+02  0.7546771E-02  0.1466069E+00
          2   -1    0    0  501    0  0.00000000000E+00  0.00000000000E+00  0.21622740911E+01  0.21622740911E+01  0.00000000000E+00 0. -1.
          2   -1    0    0  502    0 -0.00000000000E+00 -0.00000000000E+00 -0.13766393469E+04  0.13766393469E+04  0.00000000000E+00 0. -1.
          2    1    1    2  501    0 -0.14597831803E+02  0.20597825680E+02 -0.12983911934E+04  0.12986366151E+04  0.00000000000E+00 0. -1.
          2    1    1    2  502    0  0.14597831803E+02 -0.20597825680E+02 -0.76085879458E+02  0.80165005888E+02  0.00000000000E+00 0. -1.
</event>
<event>
 4    1  0.6210801E+003  0.2749959E+02  0.7546771E-02  0.1442653E+00
          2   -1    0    0  502    0  0.00000000000E+00  0.00000000000E+00  0.60813821675E+00  0.60813821675E+00  0.00000000000E+00 0. -1.
          2   -1    0    0  501    0 -0.00000000000E+00 -0.00000000000E+00 -0.16391437794E+04  0.16391437794E+04  0.00000000000E+00 0. -1.
          2    1    1    2  501    0 -0.27209693631E+02 -0.39824866484E+01 -0.41647214542E+03  0.41737905498E+03  0.00000000000E+00 0. -1.
          2    1    1    2  502    0  0.27209693631E+02  0.39824866484E+01 -0.12220634958E+04  0.12223728627E+04  0.00000000000E+00 0. -1.
</event>
<event>
 4    1  0.6210801E+003  0.2059689E+02  0.7546771E-02  0.1525099E+00
          2   -1    0    0  502    0  0.00000000000E+00  0.00000000000E+00  0.13831483985E+02  0.13831483985E+02  0.00000000000E+00 0.  1.
          2   -1    0    0  501    0 -0.00000000000E+00 -0.00000000000E+00 -0.76649556488E+02  0.76649556488E+02  0.00000000000E+00 0. -1.
          2    1    1    2  501    0  0.14931434190E+02  0.14187467730E+02  0.36296816335E+01  0.20914266813E+02  0.00000000000E+00 0.  1.
          2    1    1    2  502    0 -0.14931434190E+02 -0.14187467730E+02 -0.66447754137E+02  0.69566773660E+02  0.00000000000E+00 0. -1.
</event>
<event>
 4    1  0.6210801E+003  0.2140666E+02  0.7546771E-02  0.1513537E+00
          2   -1    0    0  502    0  0.00000000000E+00  0.00000000000E+00  0.16608368940E+01  0.16608368940E+01  0.00000000000E+00 0.  1.
          2   -1    0    0  501    0 -0.00000000000E+00 -0.00000000000E+00 -0.40329620719E+03  0.40329620719E+03  0.00000000000E+00 0.  1.
          2    1    1    2  501    0 -0.13384364458E+02 -0.16706398254E+02 -0.87022323932E+02  0.89616571107E+02  0.00000000000E+00 0.  1.
          2    1    1    2  502    0  0.13384364458E+02  0.16706398254E+02 -0.31461304637E+03  0.31534047298E+03  0.00000000000E+00 0.  1.
</event>
<event>
 4    1  0.6210801E+003  0.2587269E+02  0.7546771E-02  0.1459273E+00
          2   -1    0    0  501    0  0.00000000000E+00  0.00000000000E+00  0.99134463150E+03  0.99134463150E+03  0.00000000000E+00 0. -1.
          2   -1    0    0  502    0 -0.00000000000E+00 -0.00000000000E+00 -0.23647956233E+01  0.23647956233E+01  0.00000000000E+00 0. -1.
          2    1    1    2  501    0 -0.47361535981E+01  0.25435507644E+02  0.74519432327E+02  0.78883090674E+02  0.00000000000E+00 0. -1.
          2    1    1    2  502    0  0.47361535981E+01 -0.25435507644E+02  0.91446040355E+03  0.91482633645E+03  0.00000000000E+00 0. -1.
</event>
<event>
 4    1  0.6210801E+003  0.2502695E+02  0.7546771E-02  0.1468502E+00
          2   -1    0    0  502    0  0.00000000000E+00  0.00000000000E+00  0.15262171026E+03  0.15262171026E+03  0.00000000000E+00 0. -1.
          2   -1    0    0  501    0 -0.00000000000E+00 -0.00000000000E+00 -0.53282849008E+02  0.53282849008E+02  0.00000000000E+00 0.  1.
          2    1    1    2  501    0  0.24806295446E+02 -0.33160062149E+01  0.14857750701E+03  0.15067058034E+03  0.00000000000E+00 0. -1.
          2    1    1    2  502    0 -0.24806295446E+02  0.33160062149E+01 -0.49238645763E+02  0.55233978922E+02  0.00000000000E+00 0.  1.
</event>
<event>
 4    1  0.6210801E+003  0.2797058E+02  0.7546771E-02  0.1438095E+00
          2   -1    0    0  501    0  0.00000000000E+00  0.00000000000E+00  0.11931915062E+01  0.11931915062E+01  0.00000000000E+00 0. -1.
          2   -1    0    0  502    0 -0.00000000000E+00 -0.00000000000E+00 -0.88185909540E+03  0.88185909540E+03  0.00000000000E+00 0. -1.
          2    1    1    2  501    0 -0.26618169607E+02 -0.85922330465E+01 -0.66393807859E+03  0.66452699390E+03  0.00000000000E+00 0. -1.
          2    1    1    2  502    0  0.26618169607E+02  0.85922330465E+01 -0.21672782531E+03  0.21852529301E+03  0.00000000000E+00 0. -1.
</event>
<event>
 4    1  0.6210801E+003  0.3060626E+02  0.7546771E-02  0.1414400E+00
          2   -1    0    0  502    0  0.00000000000E+00  0.00000000000E+00  0.72477723663E+03  0.72477723663E+03  0.00000000000E+00 0. -1.
          2   -1    0    0  501    0 -0.00000000000E+00 -0.00000000000E+00 -0.83559553500E+01  0.83559553500E+01  0.00000000000E+00 0.  1.
          2    1    1    2  501    0  0.18567401201E+02  0.24330938720E+02  0.69523770245E+03  0.69591106176E+03  0.00000000000E+00 0. -1.
          2    1    1    2  502    0 -0.18567401201E+02 -0.24330938720E+02  0.21183578829E+02  0.37222130223E+02  0.00000000000E+00 0.  1.
</event>
<event>
 4    1  0.6210801E+003  0.6066004E+02  0.7546771E-02  0.1257606E+00
          2   -1    0    0  502    0  0.00000000000E+00  0.00000000000E+00  0.16552937049E+01  0.16552937049E+01  0.00000000000E+00 0.  1.
          2   -1    0    0  501    0 -0.00000000000E+00 -0.00000000000E+00 -0.43914753463E+04  0.43914753463E+04  0.00000000000E+00 0. -1.
          2    1    1    2  501    0  0.22224702032E+02 -0.56442033631E+02 -0.65135959742E+03  0.65417808408E+03  0.00000000000E+00 0.  1.
          2    1    1    2  502    0 -0.22224702032E+02  0.56442033631E+02 -0.37384604552E+04  0.37389525559E+04  0.00000000000E+00 0. -1.
</event>
<event>
 4    1  0.6210801E+003  0.2490471E+02  0.7546771E-02  0.1469872E+00
          2   -1    0    0  502    0  0.00000000000E+00  0.00000000000E+00  0.33306509045E+03  0.33306509045E+03  0.00000000000E+00 0.  1.
          2   -1    0    0  501    0 -0.00000000000E+00 -0.00000000000E+00 -0.79041071339E+03  0.79041071339E+03  0.00000000000E+00 0. -1.
          2    1    1    2  501    0  0.24668415941E+02  0.34225550697E+01  0.33240296415E+03  0.33333462947E+03  0.00000000000E+00 0.  1.
          2    1    1    2  502    0 -0.24668415941E+02 -0.34225550697E+01 -0.78974858709E+03  0.79014117437E+03  0.00000000000E+00 0. -1.
</event>
<event>
 4    1  0.6210801E+003  0.3634309E+02  0.7546771E-02  0.1371359E+00
          2   -1    0    0  501    0  0.00000000000E+00  0.00000000000E+00  0.85946070968E+01  0.85946070968E+01  0.00000000000E+00 0. -1.
          2   -1    0    0  502    0 -0.00000000000E+00 -0.00000000000E+00 -0.11637795096E+04  0.11637795096E+04  0.00000000000E+00 0. -1.
          2    1    1    2  501    0 -0.35477584371E+02 -0.78842344125E+01 -0.11237059730E+04  0.11242935266E+04  0.00000000000E+00 0. -1.
          2    1    1    2  502    0  0.35477584371E+02  0.78842344125E+01 -0.31478929544E+02  0.48080590162E+02  0.00000000000E+00 0. -1.
</event>
<event>
 4    1  0.6210801E+003  0.2806284E+02  0.7546771E-02  0.1437214E+00
          2   -1    0    0  502    0  0.00000000000E+00  0.00000000000E+00  0.28686515535E+03  0.28686515535E+03  0.00000000000E+00 0.  1.
          2   -1    0    0  501    0 -0.00000000000E+00 -0.00000000000E+00 -0.20629745007E+02  0.20629745007E+02  0.00000000000E+00 0. -1.
          2    1    1    2  501    0 -0.78036177608E+01 -0.26956014808E+02  0.27627024338E+03  0.27769186261E+03  0.00000000000E+00 0.  1.
          2    1    1    2  502    0  0.78036177608E+01  0.26956014808E+02 -0.10034833039E+02  0.29803037741E+02  0.00000000000E+00 0. -1.
</event>
<event>
 4    1  0.6210801E+003  0.3378984E+02  0.7546771E-02  0.1389276E+00
          2   -1    0    0  502    0  0.00000000000E+00  0.00000000000E+00  0.12305978024E+01  0.12305978024E+01  0.00000000000E+00 0.  1.
          2   -1    0    0  501    0 -0.00000000000E+00 -0.00000000000E+00 -0.14463120000E+04  0.14463120000E+04  0.00000000000E+00 0.  1.
          2    1    1    2  501    0  0.33552395716E+02 -0.39987706568E+01 -0.11559000203E+04  0.11563937955E+04  0.00000000000E+00 0.  1.
          2    1    1    2  502    0 -0.33552395716E+02  0.39987706568E+01 -0.28918138195E+03  0.29114880232E+03  0.00000000000E+00 0.  1.
</event>
<event>
 4    1  0.6210801E+003  0.2845724E+02  0.7546771E-02  0.1433495E+00
          2   -1    0    0  501    0  0.00000000000E+00  0.00000000000E+00  0.17666697602E+04  0.17666697602E+04  0.00000000000E+00 0.  1.
          2   -1    0    0  502    0 -0.00000000000E+00 -0.00000000000E+00 -0.17536617045E+01  0.17536617045E+01  0.00000000000E+00 0. -1.
          2    1    1    2  501    0  0.14722983235E+02  0.24352581895E+02  0.12254365235E+03  0.12580445625E+03  0.00000000000E+00 0. -1.
          2    1    1    2  502    0 -0.14722983235E+02 -0.24352581895E+02  0.16423724462E+04  0.16426189657E+04  0.00000000000E+00 0.  1.
</event>
<event>
 4    1  0.6210801E+003  0.2687258E+02  0.7546771E-02  0.1448892E+00
          2   -1    0    0  502    0  0.00000000000E+00  0.00000000000E+00  0.13121083366E+03  0.13121083366E+03  0.00000000000E+00 0.  1.
          2   -1    0    0  501    0 -0.00000000000E+00 -0.00000000000E+00 -0.58544763748E+02  0.58544763748E+02  0.00000000000E+00 0. -1.
          2    1    1    2  501    0 -0.48107615149E+01  0.26438461668E+02  0.12664119135E+03  0.12946090927E+03  0.00000000000E+00 0.  1.
          2    1    1    2  502    0  0.48107615149E+01 -0.26438461668E+02 -0.53975121447E+02  0.60294688132E+02  0.00000000000E+00 0. -1.
</event>
<event>
 4    1  0.6210801E+003  0.2007957E+02  0.7546771E-02  0.1532823E+00
          2   -1    0    0  501    0  0.00000000000E+00  0.00000000000E+00  0.15872379042E+02  0.15872379042E+02  0.00000000000E+00 0.  1.
          2   -1    0    0  502    0 -0.00000000000E+00 -0.00000000000E+00 -0.29608926319E+02  0.29608926319E+02  0.00000000000E+00 0.  1.
          2    1    1    2  501    0  0.16681062797E+02 -0.11177267835E+02 -0.15440177683E+02  0.25329592559E+02  0.00000000000E+00 0.  1.
          2    1    1    2  502    0 -0.16681062797E+02  0.11177267835E+02  0.17036304068E+01  0.20151712802E+02  0.00000000000E+00 0.  1.
</event>
<event>
 4    1  0.6210801E+003  0.2162377E+02  0.7546771E-02  0.1510542E+00
          2   -1    0    0  502    0  0.00000000000E+00  0.00000000000E+00  0.15531130504E+00  0.15531130504E+00  0.00000000000E+00 0.  1.
          2   -1    0    0  501    0 -0.00000000000E+00 -0.00000000000E+00 -0.30221693399E+04  0.30221693399E+04  0.00000000000E+00 0.  1.
          2    1    1    2  501    0 -0.55177045498E+01 -0.20907951040E+02 -0.16043165940E+04  0.16044623153E+04  0.00000000000E+00 0.  1.
          2    1    1    2  502    0  0.55177045498E+01  0.20907951040E+02 -0.14176974347E+04  0.14178623360E+04  0.00000000000E+00 0.  1.
</event>
<event>
 4    1  0.6210801E+003  0.3484701E+02  0.7546771E-02  0.1381642E+00
          2   -1    0    0  502    0  0.00000000000E+00  0.00000000000E+00  0.20678178170E+03  0.20678178170E+03  0.00000000000E+00 0.  1.
          2   -1    0    0  501    0 -0.00000000000E+00 -0.00000000000E+00 -0.14469101411E+03  0.14469101411E+03  0.00000000000E+00 0.  1.
          2    1    1    2  501    0 -0.87699936595E+01  0.33725383493E+02  0.20317861634E+03  0.20614525078E+03  0.00000000000E+00 0.  1.
          2    1    1    2  502    0  0.87699936595E+01 -0.33725383493E+02 -0.14108784875E+03  0.14532754503E+03  0.00000000000E+00 0.  1.
</event>
<event>
 4    1  0.6210801E+003  0.2399015E+02  0.7546771E-02  0.1480426E+00
          2   -1    0    0  502    0  0.00000000000E+00  0.00000000000E+00  0.73096670334E+02  0.73096670334E+02  0.00000000000E+00 0. -1.
          2   -1    0    0  501    0 -0.00000000000E+00 -0.00000000000E+00 -0.44105734642E+03  0.44105734642E+03  0.00000000000E+00 0. -1.
          2    1    1    2  501    0 -0.15662414758E+02 -0.18171844737E+02  0.70791740424E+02  0.74746221908E+02  0.00000000000E+00 0. -1.
          2    1    1    2  502    0  0.15662414758E+02  0.18171844737E+02 -0.43875241651E+03  0.43940779484E+03  0.00000000000E+00 0. -1.
</event>
<event>
 4    1  0.6210801E+003  0.2052620E+02  0.7546771E-02  0.1526138E+00
          2   -1    0    0  502    0  0.00000000000E+00  0.00000000000E+00  0.32793108781E+03  0.32793108781E+03  0.00000000000E+00 0.  1.
          2   -1    0    0  501    0 -0.00000000000E+00 -0.00000000000E+00 -0.35194086501E+03  0.35194086501E+03  0.00000000000E+00 0.  1.
          2    1    1    2  501    0 -0.43859952245E+01  0.20052127717E+02  0.32731003468E+03  0.32795302039E+03  0.00000000000E+00 0.  1.
          2    1    1    2  502    0  0.43859952245E+01 -0.20052127717E+02 -0.35131981188E+03  0.35191893242E+03  0.00000000000E+00 0.  1.
</event>
<event>
 4    1  0.6210801E+003  0.2050708E+02  0.7546771E-02  0.1526420E+00
          2   -1    0    0  502    0  0.00000000000E+00  0.00000000000E+00  0.24832789641E+01  0.24832789641E+01  0.00000000000E+00 0. -1.
          2   -1    0    0  501    0 -0.00000000000E+00 -0.00000000000E+00 -0.11094911340E+04  0.11094911340E+04  0.00000000000E+00 0.  1.
          2    1    1    2  501    0  0.19395045622E+02 -0.66612660900E+01 -0.41704624959E+02  0.46473820626E+02  0.00000000000E+00 0. -1.
          2    1    1    2  502    0 -0.19395045622E+02  0.66612660900E+01 -0.10653032301E+04  0.10655005924E+04  0.00000000000E+00 0.  1.
</event>
<event>
 4    1  0.6210801E+003  0.2617437E+02  0.7546771E-02  0.1456083E+00
          2   -1    0    0  502    0  0.00000000000E+00  0.00000000000E+00  0.21537479752E+03  0.21537479752E+03  0.00000000000E+00 0. -1.
          2   -1    0    0  501    0 -0.00000000000E+00 -0.00000000000E+00 -0.21779345298E+03  0.21779345298E+03  0.00000000000E+00 0.  1.
          2    1    1    2  501    0  0.20594701690E+02 -0.16154127899E+02  0.21378733356E+03  0.21538366135E+03  0.00000000000E+00 0. -1.
          2    1    1    2  502    0 -0.20594701690E+02  0.16154127899E+02 -0.21620598902E+03  0.21778458916E+03  0.00000000000E+00 0.  1.
</event>
<event>
 4    1  0.6210801E+003  0.2643417E+02  0.7546771E-02  0.1453376E+00
          2   -1    0    0  502    0  0.00000000000E+00  0.00000000000E+00  0.19170897086E+03  0.19170897086E+03  0.00000000000E+00 0. -1.
          2   -1    0    0  501    0 -0.00000000000E+00 -0.00000000000E+00 -0.58892588367E+02  0.58892588367E+02  0.00000000000E+00 0.  1.
          2    1    1    2  501    0 -0.22236374155E+01  0.26340481752E+02  0.18776954007E+03  0.18962111096E+03  0.00000000000E+00 0. -1.
          2    1    1    2  502    0  0.22236374155E+01 -0.26340481752E+02 -0.54953157583E+02  0.60980448265E+02  0.00000000000E+00 0.  1.
</event>
<event>
 4    1  0.6210801E+003  0.2040874E+02  0.7546771E-02  0.1527876E+00
          2   -1    0    0  502    0  0.00000000000E+00  0.00000000000E+00  0.14556981064E+03  0.14556981064E+03  0.00000000000E+00 0.  1.
          2   -1    0    0  501    0 -0.00000000000E+00 -0.00000000000E+00 -0.38359257381E+01  0.38359257381E+01  0.00000000000E+00 0. -1.
          2    1    1    2  501    0 -0.20354211192E+02 -0.14908748857E+01  0.10852211188E+03  0.11042447821E+03  0.00000000000E+00 0.  1.
          2    1    1    2  502    0  0.20354211192E+02  0.14908748857E+01  0.33211773031E+02  0.38981258176E+02  0.00000000000E+00 0. -1.
</event>
<event>
 4    1  0.6210801E+003  0.1164042E+03  0.7546771E-02  0.1138073E+00
          2   -1    0    0  501    0  0.00000000000E+00  0.00000000000E+00  0.14866641795E+02  0.14866641795E+02  0.00000000000E+00 0.  1.
          2   -1    0    0  502    0 -0.00000000000E+00 -0.00000000000E+00 -0.13485648100E+04  0.13485648100E+04  0.00000000000E+00 0.  1.
          2    1    1    2  501    0  0.56922066729E+02  0.10153732180E+03 -0.10549758179E+04  0.10613783142E+04  0.00000000000E+00 0.  1.
          2    1    1    2  502    0 -0.56922066729E+02 -0.10153732180E+03 -0.27872235031E+03  0.30205313765E+03  0.00000000000E+00 0.  1.
</event>
<event>
 4    1  0.6210801E+003  0.2327525E+02  0.7546771E-02  0.1489070E+00
          2   -1    0    0  502    0  0.00000000000E+00  0.00000000000E+00  0.12532830976E+03  0.12532830976E+03  0.00000000000E+00 0. -1.
          2   -1    0    0  501    0 -0.00000000000E+00 -0.00000000000E+00 -0.14782292120E+02  0.14782292120E+02  0.00000000000E+00 0.  1.
          2    1    1    2  501    0  0.23116978446E+02 -0.27097409758E+01  0.11420222761E+03  0.11654992999E+03  0.00000000000E+00 0. -1.
          2    1    1    2  502    0 -0.23116978446E+02  0.27097409758E+01 -0.36562099713E+01  0.23560671892E+02  0.00000000000E+00 0.  1.
</event>
<event>
 4    1  0.6210801E+003  0.2390930E+02  0.7546771E-02  0.1481385E+00
          2   -1    0    0  501    0  0.00000000000E+00  0.00000000000E+00  0.58494358200E+00  0.58494358200E+00  0.00000000000E+00 0. -1.
          2   -1    0    0  502    0 -0.00000000000E+00 -0.00000000000E+00 -0.11735597492E+04  0.11735597492E+04  0.00000000000E+00 0.  1.
          2    1    1    2  501    0  0.75171363977E+01 -0.22696852656E+02 -0.82657806093E+03  0.82692378444E+03  0.00000000000E+00 0.  1.
          2    1    1    2  502    0 -0.75171363977E+01  0.22696852656E+02 -0.34639674471E+03  0.34722090836E+03  0.00000000000E+00 0. -1.
</event>
<event>
 4    1  0.6210801E+003  0.4045415E+02  0.7546771E-02  0.1345845E+00
          2   -1    0    0  501    0  0.00000000000E+00  0.00000000000E+00  0.15172127816E+04  0.15172127816E+04  0.00000000000E+00 0.  1.
          2   -1    0    0  502    0 -0.00000000000E+00 -0.00000000000E+00 -0.90633637256E+01  0.90633637256E+01  0.00000000000E+00 0. -1.
          2    1    1    2  501    0  0.21004543311E+02  0.34573796821E+02  0.37785925491E+02  0.55356250158E+02  0.00000000000E+00 0. -1.
          2    1    1    2  502    0 -0.21004543311E+02 -0.34573796821E+02  0.14703634924E+04  0.14709198951E+04  0.00000000000E+00 0.  1.
</event>
<event>
 4    1  0.6210801E+003  0.2033793E+02  0.7546771E-02  0.1528931E+00
          2   -1    0    0  501    0  0.00000000000E+00  0.00000000000E+00  0.30241936102E+03  0.30241936102E+03  0.00000000000E+00 0.  1.
          2   -1    0    0  502    0 -0.00000000000E+00 -0.00000000000E+00 -0.10716069091E+02  0.10716069091E+02  0.00000000000E+00 0.  1.
          2    1    1    2  501    0 -0.12922988296E+02 -0.15704381099E+02 -0.38339306819E+00  0.20341538842E+02  0.00000000000E+00 0.  1.
          2    1    1    2  502    0  0.12922988296E+02  0.15704381099E+02  0.29208668499E+03  0.29279389126E+03  0.00000000000E+00 0.  1.
</event>
<event>
 4    1  0.6210801E+003  0.2083494E+02  0.7546771E-02  0.1521635E+00
          2   -1    0    0  502    0  0.00000000000E+00  0.00000000000E+00  0.40459509156E+03  0.40459509156E+03  0.00000000000E+00 0.  1.
          2   -1    0    0  501    0 -0.00000000000E+00 -0.00000000000E+00 -0.98766138713E+02  0.98766138713E+02  0.00000000000E+00 0.  1.
          2    1    1    2  501    0  0.37765204268E+01 -0.20489812499E+02  0.40322433707E+03  0.40376225744E+03  0.00000000000E+00 0.  1.
          2    1    1    2  502    0 -0.37765204268E+01  0.20489812499E+02 -0.97395384222E+02  0.99598972839E+02  0.00000000000E+00 0.  1.
</event>
<event>
 4    1  0.6210801E+003  0.2353421E+02  0.7546771E-02  0.1485897E+00
          2   -1    0    0  501    0  0.00000000000E+00  0.00000000000E+00  0.70686551867E+03  0.70686551867E+03  0.00000000000E+00 0. -1.
          2   -1    0    0  502    0 -0.00000000000E+00 -0.00000000000E+00 -0.93114292670E+00  0.93114292670E+00  0.00000000000E+00 0. -1.
          2    1    1    2  501    0  0.21472738603E+02 -0.96322590301E+01  0.49386838550E+03  0.49442880287E+03  0.00000000000E+00 0. -1.
          2    1    1    2  502    0 -0.21472738603E+02  0.96322590301E+01  0.21206599024E+03  0.21336785872E+03  0.00000000000E+00 0. -1.
</event>
<event>
 4    1  0.6210801E+003  0.3482360E+02  0.7546771E-02  0.1381808E+00
          2   -1    0    0  502    0  0.00000000000E+00  0.00000000000E+00  0.22766435677E+03  0.22766435677E+03  0.00000000000E+00 0. -1.
          2   -1    0    0  501    0 -0.00000000000E+00 -0.00000000000E+00 -0.33077467200E+03  0.33077467200E+03  0.00000000000E+00 0.  1.
          2    1    1    2  501    0  0.34480038221E+02  0.48795225890E+01  0.22540702831E+03  0.22808115044E+03  0.00000000000E+00 0. -1.
          2    1    1    2  502    0 -0.34480038221E+02 -0.48795225890E+01 -0.32851734353E+03  0.33035787833E+03  0.00000000000E+00 0.  1.
</event>
<event>
 4    1  0.6210801E+003  0.2833503E+02  0.7546771E-02  0.1434639E+00
          2   -1    0    0  501    0  0.00000000000E+00  0.00000000000E+00  0.64638235651E+01  0.64638235651E+01  0.00000000000E+00 0.  1.
          2   -1    0    0  502    0 -0.00000000000E+00 -0.00000000000E+00 -0.18663191188E+03  0.18663191188E+03  0.00000000000E+00 0. -1.
          2    1    1    2  501    0 -0.60039283111E+00  0.28328673043E+02 -0.14592037016E+03  0.14864598419E+03  0.00000000000E+00 0. -1.
          2    1    1    2  502    0  0.60039283111E+00 -0.28328673043E+02 -0.34247718156E+02  0.44449751257E+02  0.00000000000E+00 0.  1.
</event>
<event>
 4    1  0.6210801E+003  0.2222070E+02  0.7546771E-02  0.1502523E+00
          2   -1    0    0  502    0  0.00000000000E+00  0.00000000000E+00  0.41152235243E+01  0.41152235243E+01  0.00000000000E+00 0.  1.
          2   -1    0    0  501    0 -0.00000000000E+00 -0.00000000000E+00 -0.14643107512E+04  0.14643107512E+04  0.00000000000E+00 0.  1.
          2    1    1    2  501    0  0.20656086068E+02 -0.81905919269E+01 -0.26607796843E+02  0.34666043048E+02  0.00000000000E+00 0.  1.
          2    1    1    2  502    0 -0.20656086068E+02  0.81905919269E+01 -0.14335877308E+04  0.14337599316E+04  0.00000000000E+00 0.  1.
</event>
<event>
 4    1  0.6210801E+003  0.6004632E+02  0.7546771E-02  0.1259675E+00
          2   -1    0    0  501    0  0.00000000000E+00  0.00000000000E+00  0.26010475714E+01  0.26010475714E+01  0.00000000000E+00 0. -1.
          2   -1    0    0  502    0 -0.00000000000E+00 -0.00000000000E+00 -0.27886856071E+04  0.27886856071E+04  0.00000000000E+00 0. -1.
          2    1    1    2  501    0  0.56574290897E+02 -0.20122369963E+02 -0.23827901720E+04  0.23835466355E+04  0.00000000000E+00 0. -1.
          2    1    1    2  502    0 -0.56574290897E+02  0.20122369963E+02 -0.40329438751E+03  0.40774001908E+03  0.00000000000E+00 0. -1.
</event>
<event>
 4    1  0.6210801E+003  0.5027395E+02  0.7546771E-02  0.1296989E+00
          2   -1    0    0  502    0  0.00000000000E+00  0.00000000000E+00  0.22437299792E+04  0.22437299792E+04  0.00000000000E+00 0. -1.
          2   -1    0    0  501    0 -0.00000000000E+00 -0.00000000000E+00 -0.27457779729E+02  0.27457779729E+02  0.00000000000E+00 0. -1.
          2    1    1    2  501    0  0.33111285206E+02 -0.37830046393E+02  0.22201920983E+04  0.22207612260E+04  0.00000000000E+00 0. -1.
          2    1    1    2  502    0 -0.33111285206E+02  0.37830046393E+02 -0.39198988000E+01  0.50426532944E+02  0.00000000000E+00 0. -1.
</event>
<event>
 4    1  0.6210801E+003  0.5219137E+02  0.7546771E-02  0.1288941E+00
          2   -1    0    0  501    0  0.00000000000E+00  0.00000000000E+00  0.11545371964E+04  0.11545371964E+04  0.00000000000E+00 0. -1.
          2   -1    0    0  502    0 -0.00000000000E+00 -0.00000000000E+00 -0.56201057774E+03  0.56201057774E+03  0.00000000000E+00 0. -1.
          2    1    1    2  501    0 -0.16661180112E+02  0.49460535875E+02 -0.56020715533E+03  0.56263309218E+03  0.00000000000E+00 0. -1.
          2    1    1    2  502    0  0.16661180112E+02 -0.49460535875E+02  0.11527337740E+04  0.11539146820E+04  0.00000000000E+00 0. -1.
</event>
<event>
 4    1  0.6210801E+003  0.2406580E+02  0.7546771E-02  0.1479532E+00
          2   -1    0    0  502    0  0.00000000000E+00  0.00000000000E+00  0.10495473219E+01  0.10495473219E+01  0.00000000000E+00 0.  1.
          2   -1    0    0  501    0 -0.00000000000E+00 -0.00000000000E+00 -0.18757145360E+04  0.18757145360E+04  0.00000000000E+00 0.  1.
          2    1    1    2  501    0  0.22119398906E+02  0.94813015438E+01 -0.14897582217E+03  0.15090711871E+03  0.00000000000E+00 0.  1.
          2    1    1    2  502    0 -0.22119398906E+02 -0.94813015438E+01 -0.17256891665E+04  0.17258569647E+04  0.00000000000E+00 0.  1.
</event>
<event>
 4    1  0.6210801E+003  0.2310326E+02  0.7546771E-02  0.1491206E+00
          2   -1    0    0  501    0  0.00000000000E+00  0.00000000000E+00  0.17573339698E+03  0.17573339698E+03  0.00000000000E+00 0.  1.
          2   -1    0    0  502    0 -0.00000000000E+00 -0.00000000000E+00 -0.54624037476E+03  0.54624037476E+03  0.00000000000E+00 0. -1.
          2    1    1    2  501    0 -0.13816236899E+02 -0.18516804821E+02 -0.54523535475E+03  0.54572461236E+03  0.00000000000E+00 0. -1.
          2    1    1    2  502    0  0.13816236899E+02  0.18516804821E+02  0.17472837698E+03  0.17624915938E+03  0.00000000000E+00 0.  1.
</event>
<event>
 4    1  0.6210801E+003  0.4671873E+02  0.7546771E-02  0.1313062E+00
          2   -1    0    0  501    0  0.00000000000E+00  0.00000000000E+00  0.21866409549E+03  0.21866409549E+03  0.00000000000E+00 0.  1.
          2   -1    0    0  502    0 -0.00000000000E+00 -0.00000000000E+00 -0.35281911482E+03  0.35281911482E+03  0.00000000000E+00 0. -1.
          2    1    1    2  501    0  0.44786037285E+02  0.13298526046E+02 -0.34874811772E+03  0.35186345298E+03  0.00000000000E+00 0. -1.
          2    1    1    2  502    0 -0.44786037285E+02 -0.13298526046E+02  0.21459309839E+03  0.21961975732E+03  0.00000000000E+00 0.  1.
</event>
<event>
 4    1  0.1539343E+004  0.2966805E+02  0.7546771E-02  0.1422503E+00
          2   -1    0    0  501    0  0.00000000000E+00  0.00000000000E+00  0.12109071291E+04  0.12109071291E+04  0.00000000000E+00 0. -1.
          2   -1    0    0  502    0 -0.00000000000E+00 -0.00000000000E+00 -0.16619095613E+04  0.16619095613E+04  0.00000000000E+00 0. -1.
          2    1    1    2  501    0 -0.25440829004E+02  0.15262939322E+02 -0.16615953982E+04  0.16618602410E+04  0.00000000000E+00 0. -1.
          2    1    1    2  502    0  0.25440829004E+02 -0.15262939322E+02  0.12105929660E+04  0.12109564494E+04  0.00000000000E+00 0. -1.
</event>
<event>
 4    1  0.6210801E+003  0.4555903E+02  0.7546771E-02  0.1318667E+00
          2   -1    0    0  501    0  0.00000000000E+00  0.00000000000E+00  0.99163289572E+02  0.99163289572E+02  0.00000000000E+00 0. -1.
          2   -1    0    0  502    0 -0.00000000000E+00 -0.00000000000E+00 -0.27258463436E+03  0.27258463436E+03  0.00000000000E+00 0. -1.
          2    1    1    2  501    0 -0.44928328560E+02 -0.75545287357E+01 -0.26530560677E+03  0.26918894962E+03  0.00000000000E+00 0. -1.
          2    1    1    2  502    0  0.44928328560E+02  0.75545287357E+01  0.91884261986E+02  0.10255897431E+03  0.00000000000E+00 0. -1.
</event>
<event>
 4    1  0.6210801E+003  0.2286226E+02  0.7546771E-02  0.1494235E+00
          2   -1    0    0  502    0  0.00000000000E+00  0.00000000000E+00  0.30449857054E+00  0.30449857054E+00  0.00000000000E+00 0.  1.
          2   -1    0    0  501    0 -0.00000000000E+00 -0.00000000000E+00 -0.17401246229E+04  0.17401246229E+04  0.00000000000E+00 0.  1.
          2    1    1    2  501    0 -0.19402936331E+02 -0.12091689137E+02 -0.76859275272E+03  0.76893270344E+03  0.00000000000E+00 0.  1.
          2    1    1    2  502    0  0.19402936331E+02  0.12091689137E+02 -0.97122737164E+03  0.97149641806E+03  0.00000000000E+00 0.  1.
</event>
<event>
 4    1  0.6210801E+003  0.2254896E+02  0.7546771E-02  0.1498241E+00
          2   -1    0    0  502    0  0.00000000000E+00  0.00000000000E+00  0.94702028357E+02  0.94702028357E+02  0.00000000000E+00 0.  1.
          2   -1    0    0  501    0 -0.00000000000E+00 -0.00000000000E+00 -0.18140868744E+02  0.18140868744E+02  0.00000000000E+00 0. -1.
          2    1    1    2  501    0  0.87268685651E+01  0.20791766818E+02  0.85622111479E+02  0.88541525718E+02  0.00000000000E+00 0.  1.
          2    1    1    2  502    0 -0.87268685651E+01 -0.20791766818E+02 -0.90609518666E+01  0.24301371383E+02  0.00000000000E+00 0. -1.
</event>
<event>
 4    1  0.6210801E+003  0.2299882E+02  0.7546771E-02  0.1492513E+00
          2   -1    0    0  502    0  0.00000000000E+00  0.00000000000E+00  0.98981945892E+02  0.98981945892E+02  0.00000000000E+00 0.  1.
          2   -1    0    0  501    0 -0.00000000000E+00 -0.00000000000E+00 -0.15083091906E+04  0.15083091906E+04  0.00000000000E+00 0.  1.
          2    1    1    2  501    0 -0.18506776186E+02  0.13654485895E+02  0.97557045493E+02  0.10023134677E+03  0.00000000000E+00 0.  1.
          2    1    1    2  502    0  0.18506776186E+02 -0.13654485895E+02 -0.15068842902E+04  0.15070597897E+04  0.00000000000E+00 0.  1.
</event>
<event>
 4    1  0.6210801E+003  0.2705841E+02  0.7546771E-02  0.1447022E+00
          2   -1    0    0  502    0  0.00000000000E+00  0.00000000000E+00  0.43326060512E+03  0.43326060512E+03  0.00000000000E+00 0.  1.
          2   -1    0    0  501    0 -0.00000000000E+00 -0.00000000000E+00 -0.31108403655E+02  0.31108403655E+02  0.00000000000E+00 0. -1.
          2    1    1    2  501    0 -0.25437282485E+02  0.92250997570E+01  0.42686615982E+03  0.42772289652E+03  0.00000000000E+00 0.  1.
          2    1    1    2  502    0  0.25437282485E+02 -0.92250997570E+01 -0.24713958357E+02  0.36646112255E+02  0.00000000000E+00 0. -1.
</event>
<event>
 4    1  0.6210801E+003  0.3144218E+02  0.7546771E-02  0.1407465E+00
          2   -1    0    0  501    0  0.00000000000E+00  0.00000000000E+00  0.97479572884E+03  0.97479572884E+03  0.00000000000E+00 0. -1.
          2   -1    0    0  502    0 -0.00000000000E+00 -0.00000000000E+00 -0.56213871687E+01  0.56213871687E+01  0.00000000000E+00 0.  1.
          2    1    1    2  501    0  0.16589977945E+02 -0.26709235597E+02  0.40796281097E+02  0.51506768348E+02  0.00000000000E+00 0.  1.
          2    1    1    2  502    0 -0.16589977945E+02  0.26709235597E+02  0.92837806058E+03  0.92891034766E+03  0.00000000000E+00 0. -1.
</event>
<event>
 4    1  0.6210801E+003  0.2636400E+02  0.7546771E-02  0.1454104E+00
          2   -1    0    0  501    0  0.00000000000E+00  0.00000000000E+00  0.58687297804E+00  0.58687297804E+00  0.00000000000E+00 0.  1.
          2   -1    0    0  502    0 -0.00000000000E+00 -0.00000000000E+00 -0.21532089450E+04  0.21532089450E+04  0.00000000000E+00 0.  1.
          2    1    1    2  501    0  0.25282719890E+02  0.74729176047E+01 -0.17986860425E+04  0.17988792455E+04  0.00000000000E+00 0.  1.
          2    1    1    2  502    0 -0.25282719890E+02 -0.74729176047E+01 -0.35393602952E+03  0.35491657247E+03  0.00000000000E+00 0.  1.
</event>
<event>
 4    1  0.6210801E+003  0.2109798E+02  0.7546771E-02  0.1517870E+00
          2   -1    0    0  501    0  0.00000000000E+00  0.00000000000E+00  0.11749798552E+04  0.11749798552E+04  0.00000000000E+00 0. -1.
          2   -1    0    0  502    0 -0.00000000000E+00 -0.00000000000E+00 -0.15613553970E+02  0.15613553970E+02  0.00000000000E+00 0. -1.
          2    1    1    2  501    0  0.66605287059E+01  0.20019045276E+02 -0.83472802930E+01  0.22689246455E+02  0.00000000000E+00 0. -1.
          2    1    1    2  502    0 -0.66605287059E+01 -0.20019045276E+02  0.11677135815E+04  0.11679041627E+04  0.00000000000E+00 0. -1.
</event>
<event>
 4    1  0.6210801E+003  0.2391450E+02  0.7546771E-02  0.1481323E+00
          2   -1    0    0  501    0  0.00000000000E+00  0.00000000000E+00  0.20403606002E+02  0.20403606002E+02  0.00000000000E+00 0. -1.
          2   -1    0    0  502    0 -0.00000000000E+00 -0.00000000000E+00 -0.47072735206E+03  0.47072735206E+03  0.00000000000E+00 0. -1.
          2    1    1    2  501    0  0.23830969981E+02 -0.19970929602E+01 -0.46330403376E+03  0.46392082429E+03  0.00000000000E+00 0. -1.
          2    1    1    2  502    0 -0.23830969981E+02  0.19970929602E+01  0.12980287709E+02  0.27210133766E+02  0.00000000000E+00 0. -1.
</event>
<event>
 4    1  0.6210801E+003  0.2749070E+02  0.7546771E-02  0.1442740E+00
          2   -1    0    0  501    0  0.00000000000E+00  0.00000000000E+00  0.26792645604E+03  0.26792645604E+03  0.00000000000E+00 0.  1.
          2   -1    0    0  502    0 -0.00000000000E+00 -0.00000000000E+00 -0.14660538354E+04  0.14660538354E+04  0.00000000000E+00 0. -1.
          2    1    1    2  501    0  0.21411218649E+02 -0.17242337663E+02 -0.14652193874E+04  0.14654772574E+04  0.00000000000E+00 0. -1.
          2    1    1    2  502    0 -0.21411218649E+02  0.17242337663E+02  0.26709200811E+03  0.26850303404E+03  0.00000000000E+00 0.  1.
</event>
<event>
 4    1  0.6210801E+003  0.3048427E+02  0.7546771E-02  0.1415434E+00
          2   -1    0    0  502    0  0.00000000000E+00  0.00000000000E+00  0.15713333587E+02  0.15713333587E+02  0.00000000000E+00 0. -1.
          2   -1    0    0  501    0 -0.00000000000E+00 -0.00000000000E+00 -0.12161779798E+04  0.12161779798E+04  0.00000000000E+00 0. -1.
          2    1    1    2  501    0 -0.16936130618E+02  0.25346762829E+02  0.55060701150E+00  0.30489245224E+02  0.00000000000E+00 0. -1.
          2    1    1    2  502    0  0.16936130618E+02 -0.25346762829E+02 -0.12010152532E+04  0.12014020681E+04  0.00000000000E+00 0. -1.
</event>
<event>
 4    1  0.6210801E+003  0.2287484E+02  0.7546771E-02  0.1494076E+00
          2   -1    0    0  502    0  0.00000000000E+00  0.00000000000E+00  0.36098669928E+03  0.36098669928E+03  0.00000000000E+00 0.  1.
          2   -1    0    0  501    0 -0.00000000000E+00 -0.00000000000E+00 -0.42859226982E+02  0.42859226982E+02  0.00000000000E+00 0.  1.
          2    1    1    2  501    0 -0.29083746125E+00  0.22872994347E+02  0.35754275654E+03  0.35827375177E+03  0.00000000000E+00 0.  1.
          2    1    1    2  502    0  0.29083746125E+00 -0.22872994347E+02 -0.39415284235E+02  0.45572174494E+02  0.00000000000E+00 0.  1.
</event>
<event>
 4    1  0.6210801E+003  0.4145412E+02  0.7546771E-02  0.1340169E+00
          2   -1    0    0  501    0  0.00000000000E+00  0.00000000000E+00  0.52035038309E+03  0.52035038309E+03  0.00000000000E+00 0.  1.
          2   -1    0    0  502    0 -0.00000000000E+00 -0.00000000000E+00 -0.21407631840E+02  0.21407631840E+02  0.00000000000E+00 0. -1.
          2    1    1    2  501    0 -0.37502113355E+02  0.17664525773E+02  0.36078866316E+00  0.41455688938E+02  0.00000000000E+00 0. -1.
          2    1    1    2  502    0  0.37502113355E+02 -0.17664525773E+02  0.49858196259E+03  0.50030232599E+03  0.00000000000E+00 0.  1.
</event>
<event>
 4    1  0.6210801E+003  0.2163527E+02  0.7546771E-02  0.1510385E+00
          2   -1    0    0  502    0  0.00000000000E+00  0.00000000000E+00  0.12360760875E+03  0.12360760875E+03  0.00000000000E+00 0.  1.
          2   -1    0    0  501    0 -0.00000000000E+00 -0.00000000000E+00 -0.10397768493E+02  0.10397768493E+02  0.00000000000E+00 0.  1.
          2    1    1    2  501    0  0.57240828864E+01 -0.20864317549E+02  0.11003092359E+03  0.11213781262E+03  0.00000000000E+00 0.  1.
          2    1    1    2  502    0 -0.57240828864E+01  0.20864317549E+02  0.31789166672E+01  0.21867564630E+02  0.00000000000E+00 0.  1.
</event>
<event>
 4    1  0.6210801E+003  0.4392846E+02  0.7546771E-02  0.1326885E+00
          2   -1    0    0  501    0  0.00000000000E+00  0.00000000000E+00  0.15030943494E+03  0.15030943494E+03  0.00000000000E+00 0. -1.
          2   -1    0    0  502    0 -0.00000000000E+00 -0.00000000000E+00 -0.87028509635E+02  0.87028509635E+02  0.00000000000E+00 0.  1.
          2    1    1    2  501    0 -0.41606403388E+02 -0.14093132005E+02 -0.77926562850E+02  0.89455342882E+02  0.00000000000E+00 0.  1.
          2    1    1    2  502    0  0.41606403388E+02  0.14093132005E+02  0.14120748815E+03  0.14788260169E+03  0.00000000000E+00 0. -1.
</event>
<event>
 4    1  0.6210801E+003  0.2226304E+02  0.7546771E-02  0.1501965E+00
          2   -1    0    0  501    0  0.00000000000E+00  0.00000000000E+00  0.21927754531E+01  0.21927754531E+01  0.00000000000E+00 0.  1.
          2   -1    0    0  502    0 -0.00000000000E+00 -0.00000000000E+00 -0.22762792416E+03  0.22762792416E+03  0.00000000000E+00 0. -1.
          2    1    1    2  501    0  0.74765762253E+01  0.20970065336E+02 -0.12233184808E+03  0.12434115926E+03  0.00000000000E+00 0. -1.
          2    1    1    2  502    0 -0.74765762253E+01 -0.20970065336E+02 -0.10310330063E+03  0.10547954035E+03  0.00000000000E+00 0.  1.
</event>
<event>
 4    1  0.6210801E+003  0.2740307E+02  0.7546771E-02  0.1443601E+00
          2   -1    0    0  501    0  0.00000000000E+00  0.00000000000E+00  0.26932491523E+03  0.26932491523E+03  0.00000000000E+00 0. -1.
          2   -1    0    0  502    0 -0.00000000000E+00 -0.00000000000E+00 -0.35681669358E+02  0.35681669358E+02  0.00000000000E+00 0. -1.
          2    1    1    2  501    0  0.11692302081E+02  0.24783426888E+02 -0.29602140587E+02  0.40338751884E+02  0.00000000000E+00 0. -1.
          2    1    1    2  502    0 -0.11692302081E+02 -0.24783426888E+02  0.26324538646E+03  0.26466783270E+03  0.00000000000E+00 0. -1.
</event>
<event>
 4    1  0.6210801E+003  0.3857464E+02  0.7546771E-02  0.1357047E+00
          2   -1    0    0  501    0  0.00000000000E+00  0.00000000000E+00  0.18117913049E+04  0.18117913049E+04  0.00000000000E+00 0. -1.
          2   -1    0    0  502    0 -0.00000000000E+00 -0.00000000000E+00 -0.30953281847E+02  0.30953281847E+02  0.00000000000E+00 0. -1.
          2    1    1    2  501    0 -0.36207197307E+02 -0.13305709546E+02 -0.18647647852E+02  0.42845511010E+02  0.00000000000E+00 0. -1.
          2    1    1    2  502    0  0.36207197307E+02  0.13305709546E+02  0.17994856709E+04  0.17998990757E+04  0.00000000000E+00 0. -1.
</event>
<event>
 4    1  0.6210801E+003  0.2420873E+02  0.7546771E-02  0.1477853E+00
          2   -1    0    0  501    0  0.00000000000E+00  0.00000000000E+00  0.48722154408E+00  0.48722154408E+00  0.00000000000E+00 0. -1.
          2   -1    0    0  502    0 -0.00000000000E+00 -0.00000000000E+00 -0.17785258611E+04  0.17785258611E+04  0.00000000000E+00 0. -1.
          2    1    1    2  501    0 -0.10679777607E+02  0.21725677457E+02 -0.13950789058E+04  0.13952889364E+04  0.00000000000E+00 0. -1.
          2    1    1    2  502    0  0.10679777607E+02 -0.21725677457E+02 -0.38295973372E+03  0.38372414618E+03  0.00000000000E+00 0. -1.
</event>
<event>
 4    1  0.6210801E+003  0.2372509E+02  0.7546771E-02  0.1483588E+00
          2   -1    0    0  502    0  0.00000000000E+00  0.00000000000E+00  0.30899958441E+01  0.30899958441E+01  0.00000000000E+00 0.  1.
          2   -1    0    0  501    0 -0.00000000000E+00 -0.00000000000E+00 -0.29508493138E+03  0.29508493138E+03  0.00000000000E+00 0.  1.
          2    1    1    2  501    0  0.21660130306E+02 -0.96808509499E+01 -0.53770379661E+02  0.58771879746E+02  0.00000000000E+00 0.  1.
          2    1    1    2  502    0 -0.21660130306E+02  0.96808509499E+01 -0.23822455587E+03  0.23940304748E+03  0.00000000000E+00 0.  1.
</event>
<event>
 4    1  0.6210801E+003  0.2094902E+02  0.7546771E-02  0.1519994E+00
          2   -1    0    0  501    0  0.00000000000E+00  0.00000000000E+00  0.16289596022E+03  0.16289596022E+03  0.00000000000E+00 0. -1.
          2   -1    0    0  502    0 -0.00000000000E+00 -0.00000000000E+00 -0.22851768541E+03  0.22851768541E+03  0.00000000000E+00 0. -1.
          2    1    1    2  501    0 -0.16796926973E+02 -0.12518972141E+02 -0.22736061717E+03  0.22832369929E+03  0.00000000000E+00 0. -1.
          2    1    1    2  502    0  0.16796926973E+02  0.12518972141E+02  0.16173889197E+03  0.16308994634E+03  0.00000000000E+00 0. -1.
</event>
<event>
 4    1  0.6210801E+003  0.2087838E+02  0.7546771E-02  0.1521008E+00
          2   -1    0    0  501    0  0.00000000000E+00  0.00000000000E+00  0.90505644772E+00  0.90505644772E+00  0.00000000000E+00 0.  1.
          2   -1    0    0  502    0 -0.00000000000E+00 -0.00000000000E+00 -0.58954922320E+03  0.58954922320E+03  0.00000000000E+00 0.  1.
          2    1    1    2  501    0  0.20458590302E+02 -0.41656538318E+01 -0.42063163551E+03  0.42114947392E+03  0.00000000000E+00 0.  1.
          2    1    1    2  502    0 -0.20458590302E+02  0.41656538318E+01 -0.16801253124E+03  0.16930480573E+03  0.00000000000E+00 0.  1.
</event>
<event>
 4    1  0.6210801E+003  0.4644247E+02  0.7546771E-02  0.1314380E+00
          2   -1    0    0  501    0  0.00000000000E+00  0.00000000000E+00  0.92017176419E+02  0.92017176419E+02  0.00000000000E+00 0.  1.
          2   -1    0    0  502    0 -0.00000000000E+00 -0.00000000000E+00 -0.14514633356E+04  0.14514633356E+04  0.00000000000E+00 0.  1.
          2    1    1    2  501    0  0.42805250443E+02  0.18017027143E+02 -0.14452064119E+04  0.14459524459E+04  0.00000000000E+00 0.  1.
          2    1    1    2  502    0 -0.42805250443E+02 -0.18017027143E+02  0.85760252738E+02  0.97528066126E+02  0.00000000000E+00 0.  1.
</event>
<event>
 4    1  0.6210801E+003  0.2312672E+02  0.7546771E-02  0.1490913E+00
          2   -1    0    0  502    0  0.00000000000E+00  0.00000000000E+00  0.71577029681E+03  0.71577029681E+03  0.00000000000E+00 0. -1.
          2   -1    0    0  501    0 -0.00000000000E+00 -0.00000000000E+00 -0.12109450764E+02  0.12109450764E+02  0.00000000000E+00 0.  1.
          2    1    1    2  501    0  0.19201500786E+02  0.12889830479E+02  0.70436280892E+03  0.70474237275E+03  0.00000000000E+00 0. -1.
          2    1    1    2  502    0 -0.19201500786E+02 -0.12889830479E+02 -0.70196286498E+00  0.23137374831E+02  0.00000000000E+00 0.  1.
</event>
<event>
 4    1  0.6210801E+003  0.3245825E+02  0.7546771E-02  0.1399371E+00
          2   -1    0    0  501    0  0.00000000000E+00  0.00000000000E+00  0.32526000415E+03  0.32526000415E+03  0.00000000000E+00 0.  1.
          2   -1    0    0  502    0 -0.00000000000E+00 -0.00000000000E+00 -0.91706690829E+03  0.91706690829E+03  0.00000000000E+00 0. -1.
          2    1    1    2  501    0 -0.26911520405E+02  0.18146851062E+02 -0.91596896865E+03  0.91654388311E+03  0.00000000000E+00 0. -1.
          2    1    1    2  502    0  0.26911520405E+02 -0.18146851062E+02  0.32416206451E+03  0.32578302933E+03  0.00000000000E+00 0.  1.
</event>
<event>
 4    1  0.1039024E+004  0.3435713E+02  0.7546771E-02  0.1385140E+00
          2   -1    0    0  502    0  0.00000000000E+00  0.00000000000E+00  0.12080710061E+04  0.12080710061E+04  0.00000000000E+00 0. -1.
          2   -1    0    0  501    0 -0.00000000000E+00 -0.00000000000E+00 -0.23264356237E+04  0.23264356237E+04  0.00000000000E+00 0.  1.
          2    1    1    2  501    0 -0.14888351572E+02 -0.30963680000E+02  0.12076998430E+04  0.12081884470E+04  0.00000000000E+00 0. -1.
          2    1    1    2  502    0  0.14888351572E+02  0.30963680000E+02 -0.23260644607E+04  0.23263181828E+04  0.00000000000E+00 0.  1.
</event>
<event>
 4    1  0.6210801E+003  0.5005227E+02  0.7546771E-02  0.1297946E+00
          2   -1    0    0  501    0  0.00000000000E+00  0.00000000000E+00  0.15118104492E+03  0.15118104492E+03  0.00000000000E+00 0.  1.
          2   -1    0    0  502    0 -0.00000000000E+00 -0.00000000000E+00 -0.18461763983E+02  0.18461763983E+02  0.00000000000E+00 0.  1.
          2    1    1    2  501    0 -0.35730462090E+02  0.35050878788E+02  0.93504071226E+02  0.10605772655E+03  0.00000000000E+00 0.  1.
          2    1    1    2  502    0  0.35730462090E+02 -0.35050878788E+02  0.39215209708E+02  0.63585082350E+02  0.00000000000E+00 0.  1.
</event>
<event>
 4    1  0.6210801E+003  0.2035408E+02  0.7546771E-02  0.1528690E+00
          2   -1    0    0  501    0  0.00000000000E+00  0.00000000000E+00  0.86182994932E+02  0.86182994932E+02  0.00000000000E+00 0.  1.
          2   -1    0    0  502    0 -0.00000000000E+00 -0.00000000000E+00 -0.12558306722E+03  0.12558306722E+03  0.00000000000E+00 0.  1.
          2    1    1    2  501    0 -0.10574689806E+02  0.17391509714E+02 -0.12353679356E+03  0.12520234837E+03  0.00000000000E+00 0.  1.
          2    1    1    2  502    0  0.10574689806E+02 -0.17391509714E+02  0.84136721279E+02  0.86563713773E+02  0.00000000000E+00 0.  1.
</event>
<event>
 4    1  0.6210801E+003  0.2354926E+02  0.7546771E-02  0.1485714E+00
          2   -1    0    0  502    0  0.00000000000E+00  0.00000000000E+00  0.57877172333E+02  0.57877172333E+02  0.00000000000E+00 0.  1.
          2   -1    0    0  501    0 -0.00000000000E+00 -0.00000000000E+00 -0.17542455516E+03  0.17542455516E+03  0.00000000000E+00 0.  1.
          2    1    1    2  501    0  0.23443547939E+02 -0.22288242335E+01  0.54646667317E+02  0.59504838848E+02  0.00000000000E+00 0.  1.
          2    1    1    2  502    0 -0.23443547939E+02  0.22288242335E+01 -0.17219405015E+03  0.17379688865E+03  0.00000000000E+00 0.  1.
</event>
<event>
 4    1  0.6210801E+003  0.2327616E+02  0.7546771E-02  0.1489059E+00
          2   -1    0    0  502    0  0.00000000000E+00  0.00000000000E+00  0.33210341636E+02  0.33210341636E+02  0.00000000000E+00 0.  1.
          2   -1    0    0  501    0 -0.00000000000E+00 -0.00000000000E+00 -0.10948952520E+03  0.10948952520E+03  0.00000000000E+00 0. -1.
          2    1    1    2  501    0 -0.11297678524E+02 -0.20350484420E+02  0.27680604953E+02  0.36166222456E+02  0.00000000000E+00 0.  1.
          2    1    1    2  502    0  0.11297678524E+02  0.20350484420E+02 -0.10395978852E+03  0.10653364438E+03  0.00000000000E+00 0. -1.
</event>
<event>
 4    1  0.6210801E+003  0.2158587E+02  0.7546771E-02  0.1511062E+00
          2   -1    0    0  502    0  0.00000000000E+00  0.00000000000E+00  0.40225359195E+02  0.40225359195E+02  0.00000000000E+00 0. -1.
          2   -1    0    0  501    0 -0.00000000000E+00 -0.00000000000E+00 -0.50683114528E+03  0.50683114528E+03  0.00000000000E+00 0. -1.
          2    1    1    2  501    0  0.16596629761E+02 -0.13802230460E+02  0.37081587845E+02  0.42906804148E+02  0.00000000000E+00 0. -1.
          2    1    1    2  502    0 -0.16596629761E+02  0.13802230460E+02 -0.50368737392E+03  0.50414970032E+03  0.00000000000E+00 0. -1.
</event>
<event>
 4    1  0.6210801E+003  0.2067873E+02  0.7546771E-02  0.1523902E+00
          2   -1    0    0  501    0  0.00000000000E+00  0.00000000000E+00  0.24779978377E+01  0.24779978377E+01  0.00000000000E+00 0.  1.
          2   -1    0    0  502    0 -0.00000000000E+00 -0.00000000000E+00 -0.42472557495E+03  0.42472557495E+03  0.00000000000E+00 0. -1.
          2    1    1    2  501    0 -0.19112880756E+02 -0.78935088400E+01 -0.37570920610E+03  0.37627784580E+03  0.00000000000E+00 0. -1.
          2    1    1    2  502    0  0.19112880756E+02  0.78935088400E+01 -0.46538371009E+02  0.50925726983E+02  0.00000000000E+00 0.  1.
</event>
<event>
 4    1  0.6210801E+003  0.2125608E+02  0.7546771E-02  0.1515640E+00
          2   -1    0    0  502    0  0.00000000000E+00  0.00000000000E+00  0.86977043517E+02  0.86977043517E+02  0.00000000000E+00 0. -1.
          2   -1    0    0  501    0 -0.00000000000E+00 -0.00000000000E+00 -0.14749078988E+02  0.14749078988E+02  0.00000000000E+00 0. -1.
          2    1    1    2  501    0 -0.19970462478E+02  0.72802099672E+01  0.77051449331E+02  0.79929635760E+02  0.00000000000E+00 0. -1.
          2    1    1    2  502    0  0.19970462478E+02 -0.72802099672E+01 -0.48234848025E+01  0.21796486744E+02  0.00000000000E+00 0. -1.
</event>
<event>
 4    1  0.6210801E+003  0.5368914E+02  0.7546771E-02  0.1282924E+00
          2   -1    0    0  501    0  0.00000000000E+00  0.00000000000E+00  0.10955358107E+02  0.10955358107E+02  0.00000000000E+00 0.  1.
          2   -1    0    0  502    0 -0.00000000000E+00 -0.00000000000E+00 -0.27878656391E+03  0.27878656391E+03  0.00000000000E+00 0.  1.
          2    1    1    2  501    0 -0.27220623244E+02  0.46277011061E+02 -0.16826311012E+03  0.17662105851E+03  0.00000000000E+00 0.  1.
          2    1    1    2  502    0  0.27220623244E+02 -0.46277011061E+02 -0.99568095687E+02  0.11312086351E+03  0.00000000000E+00 0.  1.
</event>
<event>
 4    1  0.6210801E+003  0.2826475E+02  0.7546771E-02  0.1435301E+00
          2   -1    0    0  501    0  0.00000000000E+00  0.00000000000E+00  0.35842393551E+03  0.35842393551E+03  0.00000000000E+00 0.  1.
          2   -1    0    0  502    0 -0.00000000000E+00 -0.00000000000E+00 -0.12194553497E+02  0.12194553497E+02  0.00000000000E+00 0. -1.
          2    1    1    2  501    0  0.19325757813E+02 -0.20625492532E+02  0.55946631229E+01  0.28813123966E+02  0.00000000000E+00 0. -1.
          2    1    1    2  502    0 -0.19325757813E+02  0.20625492532E+02  0.34063471889E+03  0.34180536504E+03  0.00000000000E+00 0.  1.
</event>
<event>
 4    1  0.6210801E+003  0.2048164E+02  0.7546771E-02  0.1526796E+00
          2   -1    0    0  502    0  0.00000000000E+00  0.00000000000E+00  0.11548013885E+04  0.11548013885E+04  0.00000000000E+00 0. -1.
          2   -1    0    0  501    0 -0.00000000000E+00 -0.00000000000E+00 -0.44890411350E+02  0.44890411350E+02  0.00000000000E+00 0. -1.
          2    1    1    2  501    0 -0.15024709558E+02 -0.13919611754E+02  0.11523694115E+04  0.11525514123E+04  0.00000000000E+00 0. -1.
          2    1    1    2  502    0  0.15024709558E+02  0.13919611754E+02 -0.42458434350E+02  0.47140387526E+02  0.00000000000E+00 0. -1.
</event>
<event>
 4    1  0.6210801E+003  0.2782355E+02  0.7546771E-02  0.1439506E+00
          2   -1    0    0  502    0  0.00000000000E+00  0.00000000000E+00  0.34408012181E+02  0.34408012181E+02  0.00000000000E+00 0. -1.
          2   -1    0    0  501    0 -0.00000000000E+00 -0.00000000000E+00 -0.25708740882E+02  0.25708740882E+02  0.00000000000E+00 0. -1.
          2    1    1    2  501    0  0.27369051300E+02  0.50085083959E+01  0.14970301102E+02  0.31595253449E+02  0.00000000000E+00 0. -1.
          2    1    1    2  502    0 -0.27369051300E+02 -0.50085083959E+01 -0.62710298034E+01  0.28521499614E+02  0.00000000000E+00 0. -1.
</event>
<event>
 4    1  0.6210801E+003  0.2000558E+02  0.7546771E-02  0.1533950E+00
          2   -1    0    0  502    0  0.00000000000E+00  0.00000000000E+00  0.56053686310E+03  0.56053686310E+03  0.00000000000E+00 0. -1.
          2   -1    0    0  501    0 -0.00000000000E+00 -0.00000000000E+00 -0.86232512191E+01  0.86232512191E+01  0.00000000000E+00 0.  1.
          2    1    1    2  501    0  0.72795790274E+00 -0.19992328866E+02  0.54850081318E+03  0.54886552560E+03  0.00000000000E+00 0. -1.
          2    1    1    2  502    0 -0.72795790274E+00  0.19992328866E+02  0.34127987016E+01  0.20294588717E+02  0.00000000000E+00 0.  1.
</event>
<event>
 4    1  0.6210801E+003  0.3454380E+02  0.7546771E-02  0.1383799E+00
          2   -1    0    0  501    0  0.00000000000E+00  0.00000000000E+00  0.21948929056E+04  0.21948929056E+04  0.00000000000E+00 0.  1.
          2   -1    0    0  502    0 -0.00000000000E+00 -0.00000000000E+00 -0.17155215104E+01  0.17155215104E+01  0.00000000000E+00 0. -1.
          2    1    1    2  501    0  0.25399434047E+02  0.23412451403E+02  0.18884586768E+03  0.19197925896E+03  0.00000000000E+00 0. -1.
          2    1    1    2  502    0 -0.25399434047E+02 -0.23412451403E+02  0.20043315164E+04  0.20046291681E+04  0.00000000000E+00 0.  1.
</event>
<event>
 4    1  0.6210801E+003  0.3340189E+02  0.7546771E-02  0.1392160E+00
          2   -1    0    0  502    0  0.00000000000E+00  0.00000000000E+00  0.46919431858E+02  0.46919431858E+02  0.00000000000E+00 0. -1.
          2   -1    0    0  501    0 -0.00000000000E+00 -0.00000000000E+00 -0.23462105886E+04  0.23462105886E+04  0.00000000000E+00 0. -1.
          2    1    1    2  501    0  0.57383635696E+01 -0.32905280597E+02  0.40840416123E+02  0.52760078627E+02  0.00000000000E+00 0. -1.
          2    1    1    2  502    0 -0.57383635696E+01  0.32905280597E+02 -0.23401315729E+04  0.23403699419E+04  0.00000000000E+00 0. -1.
</event>
<event>
 4    1  0.6210801E+003  0.2392243E+02  0.7546771E-02  0.1481229E+00
          2   -1    0    0  501    0  0.00000000000E+00  0.00000000000E+00  0.11724745621E+03  0.11724745621E+03  0.00000000000E+00 0. -1.
          2   -1    0    0  502    0 -0.00000000000E+00 -0.00000000000E+00 -0.12561435870E+03  0.12561435870E+03  0.00000000000E+00 0. -1.
          2    1    1    2  501    0 -0.23233086783E+02 -0.57014483932E+01 -0.12323177087E+03  0.12553227548E+03  0.00000000000E+00 0. -1.
          2    1    1    2  502    0  0.23233086783E+02  0.57014483932E+01  0.11486486838E+03  0.11732953943E+03  0.00000000000E+00 0. -1.
</event>
<event>
 4    1  0.6210801E+003  0.2280027E+02  0.7546771E-02  0.1495022E+00
          2   -1    0    0  501    0  0.00000000000E+00  0.00000000000E+00  0.15903276667E+03  0.15903276667E+03  0.00000000000E+00 0. -1.
          2   -1    0    0  502    0 -0.00000000000E+00 -0.00000000000E+00 -0.65647775385E+02  0.65647775385E+02  0.00000000000E+00 0.  1.
          2    1    1    2  501    0 -0.16734544034E+02 -0.15485712293E+02 -0.62815151741E+02  0.66825111579E+02  0.00000000000E+00 0.  1.
          2    1    1    2  502    0  0.16734544034E+02  0.15485712293E+02  0.15620014303E+03  0.15785543048E+03  0.00000000000E+00 0. -1.
</event>
<event>
 4    1  0.6210801E+003  0.2102612E+02  0.7546771E-02  0.1518892E+00
          2   -1    0    0  502    0  0.00000000000E+00  0.00000000000E+00  0.10758858674E+02  0.10758858674E+02  0.00000000000E+00 0.  1.
          2   -1    0    0  501    0 -0.00000000000E+00 -0.00000000000E+00 -0.20325248525E+03  0.20325248525E+03  0.00000000000E+00 0. -1.
          2    1    1    2  501    0 -0.17816081809E+02 -0.11166245493E+02 -0.66791229080E+00  0.21036727793E+02  0.00000000000E+00 0.  1.
          2    1    1    2  502    0  0.17816081809E+02  0.11166245493E+02 -0.19182571429E+03  0.19297461613E+03  0.00000000000E+00 0. -1.
</event>
<event>
 4    1  0.6210801E+003  0.2806600E+02  0.7546771E-02  0.1437184E+00
          2   -1    0    0  501    0  0.00000000000E+00  0.00000000000E+00  0.49697377863E+00  0.49697377863E+00  0.00000000000E+00 0. -1.
          2   -1    0    0  502    0 -0.00000000000E+00 -0.00000000000E+00 -0.17796690971E+04  0.17796690971E+04  0.00000000000E+00 0. -1.
          2    1    1    2  501    0  0.28049529768E+02 -0.96134547838E+00 -0.11839715753E+04  0.11843041802E+04  0.00000000000E+00 0. -1.
          2    1    1    2  502    0 -0.28049529768E+02  0.96134547838E+00 -0.59520054802E+03  0.59586189060E+03  0.00000000000E+00 0. -1.
</event>
<event>
 4    1  0.6210801E+003  0.3195496E+02  0.7546771E-02  0.1403335E+00
          2   -1    0    0  501    0  0.00000000000E+00  0.00000000000E+00  0.10550472911E+04  0.10550472911E+04  0.00000000000E+00 0. -1.
          2   -1    0    0  502    0 -0.00000000000E+00 -0.00000000000E+00 -0.31458351486E+02  0.31458351486E+02  0.00000000000E+00 0.  1.
          2    1    1    2  501    0  0.30404632100E+02 -0.98324774908E+01 -0.23036256292E+02  0.39392745153E+02  0.00000000000E+00 0.  1.
          2    1    1    2  502    0 -0.30404632100E+02  0.98324774908E+01  0.10466251959E+04  0.10471128974E+04  0.00000000000E+00 0. -1.
</event>
<event>
 4    1  0.6210801E+003  0.3425612E+02  0.7546771E-02  0.1385870E+00
          2   -1    0    0  501    0  0.00000000000E+00  0.00000000000E+00  0.83334934519E+02  0.83334934519E+02  0.00000000000E+00 0. -1.
          2   -1    0    0  502    0 -0.00000000000E+00 -0.00000000000E+00 -0.14106776099E+02  0.14106776099E+02  0.00000000000E+00 0.  1.
          2    1    1    2  501    0 -0.11335678291E+02 -0.32326217457E+02  0.36675881670E+02  0.50185677575E+02  0.00000000000E+00 0.  1.
          2    1    1    2  502    0  0.11335678291E+02  0.32326217457E+02  0.32552276749E+02  0.47256033043E+02  0.00000000000E+00 0. -1.
</event>
<event>
 4    1  0.6210801E+003  0.2747669E+02  0.7546771E-02  0.1442878E+00
          2   -1    0    0  501    0  0.00000000000E+00  0.00000000000E+00  0.76173185028E+03  0.76173185028E+03  0.00000000000E+00 0. -1.
          2   -1    0    0  502    0 -0.00000000000E+00 -0.00000000000E+00 -0.10757976715E+02  0.10757976715E+02  0.00000000000E+00 0.  1.
          2    1    1    2  501    0 -0.26518509032E+02  0.71928532268E+01  0.74640238683E+01  0.28472444770E+02  0.00000000000E+00 0.  1.
          2    1    1    2  502    0  0.26518509032E+02 -0.71928532268E+01  0.74350984969E+03  0.74401738222E+03  0.00000000000E+00 0. -1.
</event>
<event>
 4    1  0.6210801E+003  0.2169022E+02  0.7546771E-02  0.1509634E+00
          2   -1    0    0  501    0  0.00000000000E+00  0.00000000000E+00  0.16721641226E+03  0.16721641226E+03  0.00000000000E+00 0.  1.
          2   -1    0    0  502    0 -0.00000000000E+00 -0.00000000000E+00 -0.36807967083E+03  0.36807967083E+03  0.00000000000E+00 0.  1.
          2    1    1    2  501    0 -0.91278595184E+01  0.19676069309E+02 -0.36705478983E+03  0.36769509686E+03  0.00000000000E+00 0.  1.
          2    1    1    2  502    0  0.91278595184E+01 -0.19676069309E+02  0.16619153126E+03  0.16760098623E+03  0.00000000000E+00 0.  1.
</event>
<event>
 4    1  0.6210801E+003  0.4021197E+02  0.7546771E-02  0.1347248E+00
          2   -1    0    0  502    0  0.00000000000E+00  0.00000000000E+00  0.27103073384E+03  0.27103073384E+03  0.00000000000E+00 0. -1.
          2   -1    0    0  501    0 -0.00000000000E+00 -0.00000000000E+00 -0.86809364142E+03  0.86809364142E+03  0.00000000000E+00 0. -1.
          2    1    1    2  501    0 -0.23751164918E+02  0.32448189387E+02  0.26907015217E+03  0.27205835701E+03  0.00000000000E+00 0. -1.
          2    1    1    2  502    0  0.23751164918E+02 -0.32448189387E+02 -0.86613305974E+03  0.86706601825E+03  0.00000000000E+00 0. -1.
</event>
<event>
 4    1  0.6210801E+003  0.2443518E+02  0.7546771E-02  0.1475222E+00
          2   -1    0    0  501    0  0.00000000000E+00  0.00000000000E+00  0.44920660034E+03  0.44920660034E+03  0.00000000000E+00 0. -1.
          2   -1    0    0  502    0 -0.00000000000E+00 -0.00000000000E+00 -0.78541669032E+02  0.78541669032E+02  0.00000000000E+00 0.  1.
          2    1    1    2  501    0  0.73185346064E+01 -0.23313457716E+02 -0.76299331299E+02  0.80116578909E+02  0.00000000000E+00 0.  1.
          2    1    1    2  502    0 -0.73185346064E+01  0.23313457716E+02  0.44696426261E+03  0.44763169047E+03  0.00000000000E+00 0. -1.
</event>
<event>
 4    1  0.6210801E+003  0.3340790E+02  0.7546771E-02  0.1392115E+00
          2   -1    0    0  502    0  0.00000000000E+00  0.00000000000E+00  0.14725488975E+02  0.14725488975E+02  0.00000000000E+00 0. -1.
          2   -1    0    0  501    0 -0.00000000000E+00 -0.00000000000E+00 -0.10762575232E+04  0.10762575232E+04  0.00000000000E+00 0. -1.
          2    1    1    2  501    0 -0.72632491099E+01  0.32608787803E+02 -0.48326123946E+01  0.33755621342E+02  0.00000000000E+00 0. -1.
          2    1    1    2  502    0  0.72632491099E+01 -0.32608787803E+02 -0.10566994219E+04  0.10572273909E+04  0.00000000000E+00 0. -1.
</event>
<event>
 4    1  0.6210801E+003  0.2341025E+02  0.7546771E-02  0.1487410E+00
          2   -1    0    0  502    0  0.00000000000E+00  0.00000000000E+00  0.29859202225E+01  0.29859202225E+01  0.00000000000E+00 0. -1.
          2   -1    0    0  501    0 -0.00000000000E+00 -0.00000000000E+00 -0.25568902661E+03  0.25568902661E+03  0.00000000000E+00 0. -1.
          2    1    1    2  501    0  0.17660466814E+02 -0.15367098849E+02 -0.57647949676E+02  0.62219980046E+02  0.00000000000E+00 0. -1.
          2    1    1    2  502    0 -0.17660466814E+02  0.15367098849E+02 -0.19505515671E+03  0.19645496679E+03  0.00000000000E+00 0. -1.
</event>
<event>
 4    1  0.6210801E+003  0.2818645E+02  0.7546771E-02  0.1436041E+00
          2   -1    0    0  502    0  0.00000000000E+00  0.00000000000E+00  0.57019490086E+02  0.57019490086E+02  0.00000000000E+00 0. -1.
          2   -1    0    0  501    0 -0.00000000000E+00 -0.00000000000E+00 -0.54429598515E+02  0.54429598515E+02  0.00000000000E+00 0. -1.
          2    1    1    2  501    0 -0.90905468523E+01 -0.26680295832E+02  0.49360727217E+02  0.56841513167E+02  0.00000000000E+00 0. -1.
          2    1    1    2  502    0  0.90905468523E+01  0.26680295832E+02 -0.46770835646E+02  0.54607575434E+02  0.00000000000E+00 0. -1.
</event>
<event>
 4    1  0.6210801E+003  0.7015924E+02  0.7546771E-02  0.1228744E+00
          2   -1    0    0  502    0  0.00000000000E+00  0.00000000000E+00  0.23069359189E+02  0.23069359189E+02  0.00000000000E+00 0.  1.
          2   -1    0    0  501    0 -0.00000000000E+00 -0.00000000000E+00 -0.11656109155E+04  0.11656109155E+04  0.00000000000E+00 0.  1.
          2    1    1    2  501    0 -0.50633908045E+02  0.48564661352E+02 -0.34076250965E+02  0.77996857988E+02  0.00000000000E+00 0.  1.
          2    1    1    2  502    0  0.50633908045E+02 -0.48564661352E+02 -0.11084653053E+04  0.11106834167E+04  0.00000000000E+00 0.  1.
</event>
<event>
 4    1  0.6210801E+003  0.3010613E+02  0.7546771E-02  0.1418676E+00
          2   -1    0    0  501    0  0.00000000000E+00  0.00000000000E+00  0.21563354940E+03  0.21563354940E+03  0.00000000000E+00 0. -1.
          2   -1    0    0  502    0 -0.00000000000E+00 -0.00000000000E+00 -0.18572611122E+04  0.18572611122E+04  0.00000000000E+00 0. -1.
          2    1    1    2  501    0  0.26899213815E+02 -0.13520776055E+02 -0.18560876104E+04  0.18563317582E+04  0.00000000000E+00 0. -1.
          2    1    1    2  502    0 -0.26899213815E+02  0.13520776055E+02  0.21446004762E+03  0.21656290337E+03  0.00000000000E+00 0. -1.
</event>
<event>
 4    1  0.6210801E+003  0.4541333E+02  0.7546771E-02  0.1319385E+00
          2   -1    0    0  502    0  0.00000000000E+00  0.00000000000E+00  0.10139657874E+03  0.10139657874E+03  0.00000000000E+00 0. -1.
          2   -1    0    0  501    0 -0.00000000000E+00 -0.00000000000E+00 -0.40049690221E+03  0.40049690221E+03  0.00000000000E+00 0. -1.
          2    1    1    2  501    0 -0.41267781858E+02  0.18956282714E+02  0.94941257131E+02  0.10524358783E+03  0.00000000000E+00 0. -1.
          2    1    1    2  502    0  0.41267781858E+02 -0.18956282714E+02 -0.39404158060E+03  0.39664989312E+03  0.00000000000E+00 0. -1.
</event>
<event>
 4    1  0.6210801E+003  0.2082379E+02  0.7546771E-02  0.1521796E+00
          2   -1    0    0  502    0  0.00000000000E+00  0.00000000000E+00  0.13643286454E+04  0.13643286454E+04  0.00000000000E+00 0. -1.
          2   -1    0    0  501    0 -0.00000000000E+00 -0.00000000000E+00 -0.69653887124E+02  0.69653887124E+02  0.00000000000E+00 0. -1.
          2    1    1    2  501    0  0.19002619305E+02  0.85164941501E+01  0.13626909417E+04  0.13628500405E+04  0.00000000000E+00 0. -1.
          2    1    1    2  502    0 -0.19002619305E+02 -0.85164941501E+01 -0.68016183443E+02  0.71132492036E+02  0.00000000000E+00 0. -1.
</event>
<event>
 4    1  0.6210801E+003  0.2806448E+02  0.7546771E-02  0.1437199E+00
          2   -1    0    0  501    0  0.00000000000E+00  0.00000000000E+00  0.16972410281E+03  0.16972410281E+03  0.00000000000E+00 0.  1.
          2   -1    0    0  502    0 -0.00000000000E+00 -0.00000000000E+00 -0.77286494386E+02  0.77286494386E+02  0.00000000000E+00 0.  1.
          2    1    1    2  501    0 -0.47350796051E+01 -0.27662136845E+02 -0.73521248300E+02  0.78695544634E+02  0.00000000000E+00 0.  1.
          2    1    1    2  502    0  0.47350796051E+01  0.27662136845E+02  0.16595885672E+03  0.16831505256E+03  0.00000000000E+00 0.  1.
</event>
<event>
 4    1  0.6210801E+003  0.2652540E+02  0.7546771E-02  0.1452435E+00
          2   -1    0    0  502    0  0.00000000000E+00  0.00000000000E+00  0.32547432862E+01  0.32547432862E+01  0.00000000000E+00 0.  1.
          2   -1    0    0  501    0 -0.00000000000E+00 -0.00000000000E+00 -0.22205154036E+03  0.22205154036E+03  0.00000000000E+00 0.  1.
          2    1    1    2  501    0 -0.18487600318E+02 -0.19021183222E+02 -0.91073261828E+02  0.94857449875E+02  0.00000000000E+00 0.  1.
          2    1    1    2  502    0  0.18487600318E+02  0.19021183222E+02 -0.12772353525E+03  0.13044883377E+03  0.00000000000E+00 0.  1.
</event>
<event>
 4    1  0.6210801E+003  0.2409843E+02  0.7546771E-02  0.1479147E+00
          2   -1    0    0  502    0  0.00000000000E+00  0.00000000000E+00  0.41379543086E+01  0.41379543086E+01  0.00000000000E+00 0.  1.
          2   -1    0    0  501    0 -0.00000000000E+00 -0.00000000000E+00 -0.41103093779E+03  0.41103093779E+03  0.00000000000E+00 0.  1.
          2    1    1    2  501    0  0.14182688781E+02 -0.19482953088E+02 -0.34988440459E+02  0.42484409938E+02  0.00000000000E+00 0.  1.
          2    1    1    2  502    0 -0.14182688781E+02  0.19482953088E+02 -0.37190454302E+03  0.37268448216E+03  0.00000000000E+00 0.  1.
</event>
<event>
 4    1  0.6210801E+003  0.2227929E+02  0.7546771E-02  0.1501752E+00
          2   -1    0    0  502    0  0.00000000000E+00  0.00000000000E+00  0.54865836415E+03  0.54865836415E+03  0.00000000000E+00 0.  1.
          2   -1    0    0  501    0 -0.00000000000E+00 -0.00000000000E+00 -0.27306985165E+01  0.27306985165E+01  0.00000000000E+00 0. -1.
          2    1    1    2  501    0 -0.18810804258E+02  0.11938184679E+02  0.49840980682E+03  0.49890750861E+03  0.00000000000E+00 0.  1.
          2    1    1    2  502    0  0.18810804258E+02 -0.11938184679E+02  0.47517858816E+02  0.52481554062E+02  0.00000000000E+00 0. -1.
</event>
<event>
 4    1  0.6210801E+003  0.3135393E+02  0.7546771E-02  0.1408185E+00
          2   -1    0    0  501    0  0.00000000000E+00  0.00000000000E+00  0.28564338404E+02  0.28564338404E+02  0.00000000000E+00 0.  1.
          2   -1    0    0  502    0 -0.00000000000E+00 -0.00000000000E+00 -0.13248514186E+03  0.13248514186E+03  0.00000000000E+00 0.  1.
          2    1    1    2  501    0  0.12177167308E+02 -0.28892651399E+02 -0.12124106758E+03  0.12522964975E+03  0.00000000000E+00 0.  1.
          2    1    1    2  502    0 -0.12177167308E+02  0.28892651399E+02  0.17320264125E+02  0.35819830512E+02  0.00000000000E+00 0.  1.
</event>
<event>
 4    1  0.6210801E+003  0.2182594E+02  0.7546771E-02  0.1507792E+00
          2   -1    0    0  501    0  0.00000000000E+00  0.00000000000E+00  0.11693318743E+02  0.11693318743E+02  0.00000000000E+00 0. -1.
          2   -1    0    0  502    0 -0.00000000000E+00 -0.00000000000E+00 -0.57611915258E+02  0.57611915258E+02  0.00000000000E+00 0. -1.
          2    1    1    2  501    0 -0.17846184818E+01 -0.21752856938E+02 -0.41712596335E+02  0.47077726592E+02  0.00000000000E+00 0. -1.
          2    1    1    2  502    0  0.17846184818E+01  0.21752856938E+02 -0.42060001798E+01  0.22227507409E+02  0.00000000000E+00 0. -1.
</event>
<event>
 4    1  0.6210801E+003  0.2758489E+02  0.7546771E-02  0.1441820E+00
          2   -1    0    0  501    0  0.00000000000E+00  0.00000000000E+00  0.27886602297E+03  0.27886602297E+03  0.00000000000E+00 0. -1.
          2   -1    0    0  502    0 -0.00000000000E+00 -0.00000000000E+00 -0.50605885539E+01  0.50605885539E+01  0.00000000000E+00 0. -1.
          2    1    1    2  501    0 -0.15546622002E+02 -0.22786596168E+02  0.40534329636E+02  0.49030177438E+02  0.00000000000E+00 0. -1.
          2    1    1    2  502    0  0.15546622002E+02  0.22786596168E+02  0.23327110478E+03  0.23489643408E+03  0.00000000000E+00 0. -1.
</event>
<event>
 4    1  0.6210801E+003  0.2024531E+02  0.7546771E-02  0.1530318E+00
          2   -1    0    0  502    0  0.00000000000E+00  0.00000000000E+00  0.66084656155E+03  0.66084656155E+03  0.00000000000E+00 0.  1.
          2   -1    0    0  501    0 -0.00000000000E+00 -0.00000000000E+00 -0.31626276878E+01  0.31626276878E+01  0.00000000000E+00 0.  1.
          2    1    1    2  501    0  0.20241920636E+02 -0.37068004770E+00  0.62651694684E+03  0.62684396578E+03  0.00000000000E+00 0.  1.
          2    1    1    2  502    0 -0.20241920636E+02  0.37068004770E+00  0.31166987020E+02  0.37165223457E+02  0.00000000000E+00 0.  1.
</event>
<event>
 4    1  0.6210801E+003  0.2539734E+02  0.7546771E-02  0.1464407E+00
          2   -1    0    0  502    0  0.00000000000E+00  0.00000000000E+00  0.68731285595E+03  0.68731285595E+03  0.00000000000E+00 0. -1.
          2   -1    0    0  501    0 -0.00000000000E+00 -0.00000000000E+00 -0.22963929658E+03  0.22963929658E+03  0.00000000000E+00 0.  1.
          2    1    1    2  501    0 -0.11965240651E+02 -0.22402181249E+02  0.68637506346E+03  0.68684478046E+03  0.00000000000E+00 0. -1.
          2    1    1    2  502    0  0.11965240651E+02  0.22402181249E+02 -0.22870150409E+03  0.23010737207E+03  0.00000000000E+00 0.  1.
</event>
<event>
 4    1  0.6210801E+003  0.3487945E+02  0.7546771E-02  0.1381413E+00
          2   -1    0    0  502    0  0.00000000000E+00  0.00000000000E+00  0.20456856407E+04  0.20456856407E+04  0.00000000000E+00 0. -1.
          2   -1    0    0  501    0 -0.00000000000E+00 -0.00000000000E+00 -0.39326331544E+01  0.39326331544E+01  0.00000000000E+00 0.  1.
          2    1    1    2  501    0 -0.94783160434E+01  0.33566909562E+02  0.19650240681E+04  0.19653336012E+04  0.00000000000E+00 0. -1.
          2    1    1    2  502    0  0.94783160434E+01 -0.33566909562E+02  0.76728939499E+02  0.84284672683E+02  0.00000000000E+00 0.  1.
</event>
<event>
 4    1  0.6210801E+003  0.3495480E+02  0.7546771E-02  0.1380881E+00
          2   -1    0    0  501    0  0.00000000000E+00  0.00000000000E+00  0.26288449004E+02  0.26288449004E+02  0.00000000000E+00 0.  1.
          2   -1    0    0  502    0 -0.00000000000E+00 -0.00000000000E+00 -0.22745404041E+03  0.22745404041E+03  0.00000000000E+00 0. -1.
          2    1    1    2  501    0 -0.34353006645E+02  0.64582229882E+01 -0.21375161079E+03  0.21659083274E+03  0.00000000000E+00 0. -1.
          2    1    1    2  502    0  0.34353006645E+02 -0.64582229882E+01  0.12586019387E+02  0.37151656675E+02  0.00000000000E+00 0.  1.
</event>
<event>
 4    1  0.6210801E+003  0.2177648E+02  0.7546771E-02  0.1508461E+00
          2   -1    0    0  502    0  0.00000000000E+00  0.00000000000E+00  0.13466263149E+01  0.13466263149E+01  0.00000000000E+00 0.  1.
          2   -1    0    0  501    0 -0.00000000000E+00 -0.00000000000E+00 -0.93764287616E+03  0.93764287616E+03  0.00000000000E+00 0. -1.
          2    1    1    2  501    0  0.21651966625E+02  0.23253554505E+01 -0.97149168788E+02  0.99559911274E+02  0.00000000000E+00 0.  1.
          2    1    1    2  502    0 -0.21651966625E+02 -0.23253554505E+01 -0.83914708106E+03  0.83942959120E+03  0.00000000000E+00 0. -1.
</event>
<event>
 4    1  0.6210801E+003  0.2544642E+02  0.7546771E-02  0.1463871E+00
          2   -1    0    0  501    0  0.00000000000E+00  0.00000000000E+00  0.15676287457E+03  0.15676287457E+03  0.00000000000E+00 0.  1.
          2   -1    0    0  502    0 -0.00000000000E+00 -0.00000000000E+00 -0.59881487044E+02  0.59881487044E+02  0.00000000000E+00 0. -1.
          2    1    1    2  501    0 -0.23967025430E+02  0.85499719177E+01 -0.56078754093E+02  0.61582034624E+02  0.00000000000E+00 0. -1.
          2    1    1    2  502    0  0.23967025430E+02 -0.85499719177E+01  0.15296014161E+03  0.15506232699E+03  0.00000000000E+00 0.  1.
</event>
<event>
 4    1  0.6210801E+003  0.3026769E+02  0.7546771E-02  0.1417284E+00
          2   -1    0    0  502    0  0.00000000000E+00  0.00000000000E+00  0.15206860966E+01  0.15206860966E+01  0.00000000000E+00 0. -1.
          2   -1    0    0  501    0 -0.00000000000E+00 -0.00000000000E+00 -0.87277446744E+03  0.87277446744E+03  0.00000000000E+00 0. -1.
          2    1    1    2  501    0  0.28328028816E+02 -0.10660944400E+02 -0.67891565593E+03  0.67959002408E+03  0.00000000000E+00 0. -1.
          2    1    1    2  502    0 -0.28328028816E+02  0.10660944400E+02 -0.19233812541E+03  0.19470512946E+03  0.00000000000E+00 0. -1.
</event>
<event>
 4    1  0.6210801E+003  0.2942174E+02  0.7546771E-02  0.1424689E+00
          2   -1    0    0  502    0  0.00000000000E+00  0.00000000000E+00  0.83463116923E+03  0.83463116923E+03  0.00000000000E+00 0.  1.
          2   -1    0    0  501    0 -0.00000000000E+00 -0.00000000000E+00 -0.21396246597E+01  0.21396246597E+01  0.00000000000E+00 0.  1.
          2    1    1    2  501    0  0.20829479826E+02  0.20779114720E+02  0.71657096465E+03  0.71717472503E+03  0.00000000000E+00 0.  1.
          2    1    1    2  502    0 -0.20829479826E+02 -0.20779114720E+02  0.11592057992E+03  0.11959606887E+03  0.00000000000E+00 0.  1.
</event>
<event>
 4    1  0.6210801E+003  0.5198172E+02  0.7546771E-02  0.1289802E+00
          2   -1    0    0  501    0  0.00000000000E+00  0.00000000000E+00  0.15598962970E+04  0.15598962970E+04  0.00000000000E+00 0. -1.
          2   -1    0    0  502    0 -0.00000000000E+00 -0.00000000000E+00 -0.11117700684E+02  0.11117700684E+02  0.00000000000E+00 0. -1.
          2    1    1    2  501    0 -0.51966735937E+02 -0.12480918851E+01  0.52666215026E+02  0.73998848521E+02  0.00000000000E+00 0. -1.
          2    1    1    2  502    0  0.51966735937E+02  0.12480918851E+01  0.14961123813E+04  0.14970151491E+04  0.00000000000E+00 0. -1.
</event>
<event>
 4    1  0.6210801E+003  0.2181090E+02  0.7546771E-02  0.1507995E+00
          2   -1    0    0  501    0  0.00000000000E+00  0.00000000000E+00  0.15323532084E+04  0.15323532084E+04  0.00000000000E+00 0.  1.
          2   -1    0    0  502    0 -0.00000000000E+00 -0.00000000000E+00 -0.15715784644E+02  0.15715784644E+02  0.00000000000E+00 0. -1.
          2    1    1    2  501    0  0.20972343563E+02  0.59896781077E+01 -0.80325618011E+01  0.23243009432E+02  0.00000000000E+00 0. -1.
          2    1    1    2  502    0 -0.20972343563E+02 -0.59896781077E+01  0.15246699856E+04  0.15248259836E+04  0.00000000000E+00 0.  1.
</event>
<event>
 4    1  0.6210801E+003  0.1126221E+03  0.7546771E-02  0.1143569E+00
          2   -1    0    0  502    0  0.00000000000E+00  0.00000000000E+00  0.13619084041E+03  0.13619084041E+03  0.00000000000E+00 0.  1.
          2   -1    0    0  501    0 -0.00000000000E+00 -0.00000000000E+00 -0.13174634259E+03  0.13174634259E+03  0.00000000000E+00 0.  1.
          2    1    1    2  501    0 -0.22010415951E+02  0.11045034481E+03  0.74750556898E+02  0.13517167911E+03  0.00000000000E+00 0.  1.
          2    1    1    2  502    0  0.22010415951E+02 -0.11045034481E+03 -0.70306059083E+02  0.13276550389E+03  0.00000000000E+00 0.  1.
</event>
<event>
 4    1  0.6210801E+003  0.2507591E+02  0.7546771E-02  0.1467956E+00
          2   -1    0    0  502    0  0.00000000000E+00  0.00000000000E+00  0.20103892174E+02  0.20103892174E+02  0.00000000000E+00 0. -1.
          2   -1    0    0  501    0 -0.00000000000E+00 -0.00000000000E+00 -0.18004803599E+03  0.18004803599E+03  0.00000000000E+00 0. -1.
          2    1    1    2  501    0 -0.52844720826E+01  0.24512767978E+02  0.10997030710E+02  0.27381309749E+02  0.00000000000E+00 0. -1.
          2    1    1    2  502    0  0.52844720826E+01 -0.24512767978E+02 -0.17094117453E+03  0.17277061842E+03  0.00000000000E+00 0. -1.
</event>
<event>
 4    1  0.6210801E+003  0.2410525E+02  0.7546771E-02  0.1479067E+00
          2   -1    0    0  502    0  0.00000000000E+00  0.00000000000E+00  0.62312834162E+02  0.62312834162E+02  0.00000000000E+00 0. -1.
          2   -1    0    0  501    0 -0.00000000000E+00 -0.00000000000E+00 -0.27578716245E+03  0.27578716245E+03  0.00000000000E+00 0. -1.
          2    1    1    2  501    0  0.22020272237E+02 -0.98066673623E+01  0.59430293301E+02  0.64132853328E+02  0.00000000000E+00 0. -1.
          2    1    1    2  502    0 -0.22020272237E+02  0.98066673623E+01 -0.27290462159E+03  0.27396714328E+03  0.00000000000E+00 0. -1.
</event>
<event>
 4    1  0.9006286E+003  0.3301231E+02  0.7546771E-02  0.1395103E+00
          2   -1    0    0  501    0  0.00000000000E+00  0.00000000000E+00  0.58910991597E+03  0.58910991597E+03  0.00000000000E+00 0.  1.
          2   -1    0    0  502    0 -0.00000000000E+00 -0.00000000000E+00 -0.15720095280E+04  0.15720095280E+04  0.00000000000E+00 0. -1.
          2    1    1    2  501    0 -0.21639718469E+02 -0.24930608153E+02 -0.15713735429E+04  0.15717202754E+04  0.00000000000E+00 0. -1.
          2    1    1    2  502    0  0.21639718469E+02  0.24930608153E+02  0.58847393088E+03  0.58939916861E+03  0.00000000000E+00 0.  1.
</event>
<event>
 4    1  0.6210801E+003  0.2284630E+02  0.7546771E-02  0.1494437E+00
          2   -1    0    0  502    0  0.00000000000E+00  0.00000000000E+00  0.35426291629E+02  0.35426291629E+02  0.00000000000E+00 0.  1.
          2   -1    0    0  501    0 -0.00000000000E+00 -0.00000000000E+00 -0.35143038730E+02  0.35143038730E+02  0.00000000000E+00 0.  1.
          2    1    1    2  501    0 -0.22690032833E+02 -0.26675389156E+01  0.27031138044E+02  0.35392594957E+02  0.00000000000E+00 0.  1.
          2    1    1    2  502    0  0.22690032833E+02  0.26675389156E+01 -0.26747885145E+02  0.35176735402E+02  0.00000000000E+00 0.  1.
</event>
<event>
 4    1  0.6210801E+003  0.3447652E+02  0.7546771E-02  0.1384281E+00
          2   -1    0    0  502    0  0.00000000000E+00  0.00000000000E+00  0.12107620441E+01  0.12107620441E+01  0.00000000000E+00 0. -1.
          2   -1    0    0  501    0 -0.00000000000E+00 -0.00000000000E+00 -0.10833528977E+04  0.10833528977E+04  0.00000000000E+00 0. -1.
          2    1    1    2  501    0 -0.31347385307E+02 -0.14351716594E+02 -0.37497649927E+03  0.37655810354E+03  0.00000000000E+00 0. -1.
          2    1    1    2  502    0  0.31347385307E+02  0.14351716594E+02 -0.70716563635E+03  0.70800555617E+03  0.00000000000E+00 0. -1.
</event>
<event>
 4    1  0.6210801E+003  0.2749592E+02  0.7546771E-02  0.1442689E+00
          2   -1    0    0  502    0  0.00000000000E+00  0.00000000000E+00  0.26663006420E+03  0.26663006420E+03  0.00000000000E+00 0.  1.
          2   -1    0    0  501    0 -0.00000000000E+00 -0.00000000000E+00 -0.93673063862E+03  0.93673063862E+03  0.00000000000E+00 0.  1.
          2    1    1    2  501    0  0.12540867852E+02 -0.24469418381E+02  0.26571873007E+03  0.26713754755E+03  0.00000000000E+00 0.  1.
          2    1    1    2  502    0 -0.12540867852E+02  0.24469418381E+02 -0.93581930449E+03  0.93622315526E+03  0.00000000000E+00 0.  1.
</event>
<event>
 4    1  0.6210801E+003  0.2076937E+02  0.7546771E-02  0.1522583E+00
          2   -1    0    0  502    0  0.00000000000E+00  0.00000000000E+00  0.59841605054E+03  0.59841605054E+03  0.00000000000E+00 0. -1.
          2   -1    0    0  501    0 -0.00000000000E+00 -0.00000000000E+00 -0.79662514082E+00  0.79662514082E+00  0.00000000000E+00 0. -1.
          2    1    1    2  501    0  0.13736335533E+02  0.15578186811E+02  0.39121440669E+03  0.39176533642E+03  0.00000000000E+00 0. -1.
          2    1    1    2  502    0 -0.13736335533E+02 -0.15578186811E+02  0.20640501870E+03  0.20744733926E+03  0.00000000000E+00 0. -1.
</event>
<event>
 4    1  0.6210801E+003  0.3579569E+02  0.7546771E-02  0.1375054E+00
          2   -1    0    0  501    0  0.00000000000E+00  0.00000000000E+00  0.36994212920E+02  0.36994212920E+02  0.00000000000E+00 0.  1.
          2   -1    0    0  502    0 -0.00000000000E+00 -0.00000000000E+00 -0.10146958052E+04  0.10146958052E+04  0.00000000000E+00 0. -1.
          2    1    1    2  501    0  0.33475174077E+01  0.35638818031E+02 -0.10056431920E+04  0.10062800609E+04  0.00000000000E+00 0. -1.
          2    1    1    2  502    0 -0.33475174077E+01 -0.35638818031E+02  0.27941599733E+02  0.45409957268E+02  0.00000000000E+00 0.  1.
</event>
<event>
 4    1  0.6210801E+003  0.2588946E+02  0.7546771E-02  0.1459094E+00
          2   -1    0    0  501    0  0.00000000000E+00  0.00000000000E+00  0.28053385264E+03  0.28053385264E+03  0.00000000000E+00 0.  1.
          2   -1    0    0  502    0 -0.00000000000E+00 -0.00000000000E+00 -0.15610408003E+02  0.15610408003E+02  0.00000000000E+00 0.  1.
          2    1    1    2  501    0  0.21208154126E+02  0.14848517717E+02 -0.38085165289E+01  0.26168092746E+02  0.00000000000E+00 0.  1.
          2    1    1    2  502    0 -0.21208154126E+02 -0.14848517717E+02  0.26873196117E+03  0.26997616790E+03  0.00000000000E+00 0.  1.
</event>
<event>
 4    1  0.6210801E+003  0.2355381E+02  0.7546771E-02  0.1485659E+00
          2   -1    0    0  501    0  0.00000000000E+00  0.00000000000E+00  0.62044982218E+02  0.62044982218E+02  0.00000000000E+00 0. -1.
          2   -1    0    0  502    0 -0.00000000000E+00 -0.00000000000E+00 -0.11393578706E+04  0.11393578706E+04  0.00000000000E+00 0.  1.
          2    1    1    2  501    0 -0.20917050697E+02 -0.10828611137E+02 -0.11369960948E+04  0.11372400368E+04  0.00000000000E+00 0.  1.
          2    1    1    2  502    0  0.20917050697E+02  0.10828611137E+02  0.59683206399E+02  0.64162815984E+02  0.00000000000E+00 0. -1.
</event>
<event>
 4    1  0.6210801E+003  0.2314256E+02  0.7546771E-02  0.1490716E+00
          2   -1    0    0  502    0  0.00000000000E+00  0.00000000000E+00  0.62314696413E+03  0.62314696413E+03  0.00000000000E+00 0.  1.
          2   -1    0    0  501    0 -0.00000000000E+00 -0.00000000000E+00 -0.56146141517E+03  0.56146141517E+03  0.00000000000E+00 0.  1.
          2    1    1    2  501    0 -0.10618732427E+02  0.20562597004E+02  0.62269344738E+03  0.62312334837E+03  0.00000000000E+00 0.  1.
          2    1    1    2  502    0  0.10618732427E+02 -0.20562597004E+02 -0.56100789842E+03  0.56148503094E+03  0.00000000000E+00 0.  1.
</event>
<event>
 4    1  0.6210801E+003  0.2489472E+02  0.7546771E-02  0.1469985E+00
          2   -1    0    0  502    0  0.00000000000E+00  0.00000000000E+00  0.12102712733E+03  0.12102712733E+03  0.00000000000E+00 0.  1.
          2   -1    0    0  501    0 -0.00000000000E+00 -0.00000000000E+00 -0.22740507184E+03  0.22740507184E+03  0.00000000000E+00 0. -1.
          2    1    1    2  501    0 -0.15853588916E+02 -0.19194034180E+02  0.11905445119E+03  0.12162939438E+03  0.00000000000E+00 0.  1.
          2    1    1    2  502    0  0.15853588916E+02  0.19194034180E+02 -0.22543239570E+03  0.22680280479E+03  0.00000000000E+00 0. -1.
</event>
<event>
 4    1  0.6210801E+003  0.2197137E+02  0.7546771E-02  0.1505835E+00
          2   -1    0    0  501    0  0.00000000000E+00  0.00000000000E+00  0.42466507507E+03  0.42466507507E+03  0.00000000000E+00 0.  1.
          2   -1    0    0  502    0 -0.00000000000E+00 -0.00000000000E+00 -0.20418523141E+02  0.20418523141E+02  0.00000000000E+00 0. -1.
          2    1    1    2  501    0  0.94119906301E+01  0.19853346181E+02 -0.14135051068E+02  0.26125477812E+02  0.00000000000E+00 0. -1.
          2    1    1    2  502    0 -0.94119906301E+01 -0.19853346181E+02  0.41838160300E+03  0.41895812040E+03  0.00000000000E+00 0.  1.
</event>
<event>
 4    1  0.6210801E+003  0.2544725E+02  0.7546771E-02  0.1463862E+00
          2   -1    0    0  502    0  0.00000000000E+00  0.00000000000E+00  0.38609134387E+03  0.38609134387E+03  0.00000000000E+00 0. -1.
          2   -1    0    0  501    0 -0.00000000000E+00 -0.00000000000E+00 -0.38232118427E+01  0.38232118427E+01  0.00000000000E+00 0.  1.
          2    1    1    2  501    0 -0.76059230303E+01  0.24283997450E+02  0.33719654122E+03  0.33815539329E+03  0.00000000000E+00 0. -1.
          2    1    1    2  502    0  0.76059230303E+01 -0.24283997450E+02  0.45071590807E+02  0.51759162427E+02  0.00000000000E+00 0.  1.
</event>
<event>
 4    1  0.6210801E+003  0.2483762E+02  0.7546771E-02  0.1470628E+00
          2   -1    0    0  501    0  0.00000000000E+00  0.00000000000E+00  0.10714503528E+04  0.10714503528E+04  0.00000000000E+00 0.  1.
          2   -1    0    0  502    0 -0.00000000000E+00 -0.00000000000E+00 -0.34192838379E+03  0.34192838379E+03  0.00000000000E+00 0. -1.
          2    1    1    2  501    0 -0.20679694850E+02 -0.13757087961E+02 -0.34133314096E+03  0.34223562112E+03  0.00000000000E+00 0. -1.
          2    1    1    2  502    0  0.20679694850E+02  0.13757087961E+02  0.10708551100E+04  0.10711431155E+04  0.00000000000E+00 0.  1.
</event>
<event>
 4    1  0.6210801E+003  0.2759710E+02  0.7546771E-02  0.1441701E+00
          2   -1    0    0  501    0  0.00000000000E+00  0.00000000000E+00  0.20760095490E+01  0.20760095490E+01  0.00000000000E+00 0.  1.
          2   -1    0    0  502    0 -0.00000000000E+00 -0.00000000000E+00 -0.13524144723E+04  0.13524144723E+04  0.00000000000E+00 0. -1.
          2    1    1    2  501    0  0.10052223253E+02 -0.25701218683E+02 -0.12533077527E+04  0.12536115518E+04  0.00000000000E+00 0. -1.
          2    1    1    2  502    0 -0.10052223253E+02  0.25701218683E+02 -0.97030710020E+02  0.10087893002E+03  0.00000000000E+00 0.  1.
</event>
<event>
 4    1  0.6210801E+003  0.5201066E+02  0.7546771E-02  0.1289683E+00
          2   -1    0    0  502    0  0.00000000000E+00  0.00000000000E+00  0.26451939669E+04  0.26451939669E+04  0.00000000000E+00 0. -1.
          2   -1    0    0  501    0 -0.00000000000E+00 -0.00000000000E+00 -0.14441865779E+04  0.14441865779E+04  0.00000000000E+00 0.  1.
          2    1    1    2  501    0  0.34664760088E+02 -0.38774521387E+02  0.26444699005E+04  0.26449813163E+04  0.00000000000E+00 0. -1.
          2    1    1    2  502    0 -0.34664760088E+02  0.38774521387E+02 -0.14434625115E+04  0.14443992285E+04  0.00000000000E+00 0.  1.
</event>
<event>
 4    1  0.6210801E+003  0.2395309E+02  0.7546771E-02  0.1480865E+00
          2   -1    0    0  501    0  0.00000000000E+00  0.00000000000E+00  0.91106527796E+03  0.91106527796E+03  0.00000000000E+00 0. -1.
          2   -1    0    0  502    0 -0.00000000000E+00 -0.00000000000E+00 -0.33927958003E+01  0.33927958003E+01  0.00000000000E+00 0.  1.
          2    1    1    2  501    0 -0.19513924633E+02 -0.13890909999E+02  0.41218063749E+02  0.47672627517E+02  0.00000000000E+00 0.  1.
          2    1    1    2  502    0  0.19513924633E+02  0.13890909999E+02  0.86645441841E+03  0.86678544624E+03  0.00000000000E+00 0. -1.
</event>
<event>
 4    1  0.6210801E+003  0.2006677E+02  0.7546771E-02  0.1533017E+00
          2   -1    0    0  502    0  0.00000000000E+00  0.00000000000E+00  0.31826727939E+03  0.31826727939E+03  0.00000000000E+00 0.  1.
          2   -1    0    0  501    0 -0.00000000000E+00 -0.00000000000E+00 -0.66779480390E+02  0.66779480390E+02  0.00000000000E+00 0. -1.
          2    1    1    2  501    0 -0.17244446218E+02  0.10261783709E+02  0.31643477477E+03  0.31707040513E+03  0.00000000000E+00 0.  1.
          2    1    1    2  502    0  0.17244446218E+02 -0.10261783709E+02 -0.64946975765E+02  0.67976354648E+02  0.00000000000E+00 0. -1.
</event>
<event>
 4    1  0.6210801E+003  0.2989751E+02  0.7546771E-02  0.1420489E+00
          2   -1    0    0  502    0  0.00000000000E+00  0.00000000000E+00  0.15914663525E+03  0.15914663525E+03  0.00000000000E+00 0. -1.
          2   -1    0    0  501    0 -0.00000000000E+00 -0.00000000000E+00 -0.37578413437E+02  0.37578413437E+02  0.00000000000E+00 0. -1.
          2    1    1    2  501    0 -0.26286813098E+02  0.14243056503E+02  0.15149851003E+03  0.15442039937E+03  0.00000000000E+00 0. -1.
          2    1    1    2  502    0  0.26286813098E+02 -0.14243056503E+02 -0.29930288213E+02  0.42304649318E+02  0.00000000000E+00 0. -1.
</event>
<event>
 4    1  0.6210801E+003  0.4116685E+02  0.7546771E-02  0.1341781E+00
          2   -1    0    0  501    0  0.00000000000E+00  0.00000000000E+00  0.32845101076E+03  0.32845101076E+03  0.00000000000E+00 0. -1.
          2   -1    0    0  502    0 -0.00000000000E+00 -0.00000000000E+00 -0.89455896424E+02  0.89455896424E+02  0.00000000000E+00 0. -1.
          2    1    1    2  501    0 -0.41164340149E+02 -0.45444110589E+00 -0.83340317458E+02  0.92953310488E+02  0.00000000000E+00 0. -1.
          2    1    1    2  502    0  0.41164340149E+02  0.45444110589E+00  0.32233543179E+03  0.32495359670E+03  0.00000000000E+00 0. -1.
</event>
<event>
 4    1  0.6210801E+003  0.2629382E+02  0.7546771E-02  0.1454834E+00
          2   -1    0    0  502    0  0.00000000000E+00  0.00000000000E+00  0.20400779643E+01  0.20400779643E+01  0.00000000000E+00 0. -1.
          2   -1    0    0  501    0 -0.00000000000E+00 -0.00000000000E+00 -0.18713476476E+04  0.18713476476E+04  0.00000000000E+00 0.  1.
          2    1    1    2  501    0  0.26266135670E+02 -0.12063728958E+01 -0.87007905188E+02  0.90894118533E+02  0.00000000000E+00 0. -1.
          2    1    1    2  502    0 -0.26266135670E+02  0.12063728958E+01 -0.17822996644E+04  0.17824936070E+04  0.00000000000E+00 0.  1.
</event>
<event>
 4    1  0.6210801E+003  0.2288466E+02  0.7546771E-02  0.1493952E+00
          2   -1    0    0  502    0  0.00000000000E+00  0.00000000000E+00  0.24849998340E+03  0.24849998340E+03  0.00000000000E+00 0. -1.
          2   -1    0    0  501    0 -0.00000000000E+00 -0.00000000000E+00 -0.45735831616E+03  0.45735831616E+03  0.00000000000E+00 0.  1.
          2    1    1    2  501    0  0.87129746696E+01  0.21161089946E+02  0.24768590791E+03  0.24874086241E+03  0.00000000000E+00 0. -1.
          2    1    1    2  502    0 -0.87129746696E+01 -0.21161089946E+02 -0.45654424067E+03  0.45711743715E+03  0.00000000000E+00 0.  1.
</event>
<event>
 4    1  0.6210801E+003  0.4033556E+02  0.7546771E-02  0.1346531E+00
          2   -1    0    0  502    0  0.00000000000E+00  0.00000000000E+00  0.85254302140E+01  0.85254302140E+01  0.00000000000E+00 0. -1.
          2   -1    0    0  501    0 -0.00000000000E+00 -0.00000000000E+00 -0.44694214842E+03  0.44694214842E+03  0.00000000000E+00 0. -1.
          2    1    1    2  501    0 -0.38614917636E+02 -0.11655282054E+02 -0.46818398018E+02  0.61797409790E+02  0.00000000000E+00 0. -1.
          2    1    1    2  502    0  0.38614917636E+02  0.11655282054E+02 -0.39159832019E+03  0.39367016885E+03  0.00000000000E+00 0. -1.
</event>
<event>
 4    1  0.6210801E+003  0.2183739E+02  0.7546771E-02  0.1507637E+00
          2   -1    0    0  501    0  0.00000000000E+00  0.00000000000E+00  0.21034820536E+02  0.21034820536E+02  0.00000000000E+00 0.  1.
          2   -1    0    0  502    0 -0.00000000000E+00 -0.00000000000E+00 -0.44774328893E+02  0.44774328893E+02  0.00000000000E+00 0.  1.
          2    1    1    2  501    0 -0.26833530419E+00  0.21835745122E+02 -0.34989051019E+02  0.41244459750E+02  0.00000000000E+00 0.  1.
          2    1    1    2  502    0  0.26833530419E+00 -0.21835745122E+02  0.11249542663E+02  0.24564689678E+02  0.00000000000E+00 0.  1.
</event>
<event>
 4    1  0.6210801E+003  0.2976347E+02  0.7546771E-02  0.1421663E+00
          2   -1    0    0  502    0  0.00000000000E+00  0.00000000000E+00  0.14602453794E+04  0.14602453794E+04  0.00000000000E+00 0. -1.
          2   -1    0    0  501    0 -0.00000000000E+00 -0.00000000000E+00 -0.12693203624E+01  0.12693203624E+01  0.00000000000E+00 0.  1.
          2    1    1    2  501    0  0.17560127946E+02  0.24031353290E+02  0.12574892867E+04  0.12578414726E+04  0.00000000000E+00 0. -1.
          2    1    1    2  502    0 -0.17560127946E+02 -0.24031353290E+02  0.20148677232E+03  0.20367322714E+03  0.00000000000E+00 0.  1.
</event>
<event>
 4    1  0.6210801E+003  0.2462460E+02  0.7546771E-02  0.1473047E+00
          2   -1    0    0  501    0  0.00000000000E+00  0.00000000000E+00  0.16736011836E+02  0.16736011836E+02  0.00000000000E+00 0.  1.
          2   -1    0    0  502    0 -0.00000000000E+00 -0.00000000000E+00 -0.66438157842E+03  0.66438157842E+03  0.00000000000E+00 0.  1.
          2    1    1    2  501    0 -0.14169727764E+02 -0.20139253008E+02 -0.65496535800E+03  0.65542809741E+03  0.00000000000E+00 0.  1.
          2    1    1    2  502    0  0.14169727764E+02  0.20139253008E+02  0.73197914107E+01  0.25689492851E+02  0.00000000000E+00 0.  1.
</event>
<event>
 4    1  0.6210801E+003  0.2390148E+02  0.7546771E-02  0.1481478E+00
          2   -1    0    0  501    0  0.00000000000E+00  0.00000000000E+00  0.57657070663E+03  0.57657070663E+03  0.00000000000E+00 0. -1.
          2   -1    0    0  502    0 -0.00000000000E+00 -0.00000000000E+00 -0.10433710699E+02  0.10433710699E+02  0.00000000000E+00 0. -1.
          2    1    1    2  501    0 -0.17585327089E+02 -0.16187554519E+02  0.38498976862E+01  0.24209551056E+02  0.00000000000E+00 0. -1.
          2    1    1    2  502    0  0.17585327089E+02  0.16187554519E+02  0.56228709824E+03  0.56279486627E+03  0.00000000000E+00 0. -1.
</event>
<event>
 4    1  0.6210801E+003  0.3904708E+02  0.7546771E-02  0.1354162E+00
          2   -1    0    0  501    0  0.00000000000E+00  0.00000000000E+00  0.23721200198E+04  0.23721200198E+04  0.00000000000E+00 0.  1.
          2   -1    0    0  502    0 -0.00000000000E+00 -0.00000000000E+00 -0.22521582371E+03  0.22521582371E+03  0.00000000000E+00 0.  1.
          2    1    1    2  501    0 -0.32101277867E+02  0.22230221709E+02 -0.22336135303E+03  0.22674869090E+03  0.00000000000E+00 0.  1.
          2    1    1    2  502    0  0.32101277867E+02 -0.22230221709E+02  0.23702655491E+04  0.23705871526E+04  0.00000000000E+00 0.  1.
</event>
<event>
 4    1  0.6210801E+003  0.2640998E+02  0.7546771E-02  0.1453627E+00
          2   -1    0    0  501    0  0.00000000000E+00  0.00000000000E+00  0.10450450303E+04  0.10450450303E+04  0.00000000000E+00 0. -1.
          2   -1    0    0  502    0 -0.00000000000E+00 -0.00000000000E+00 -0.13791158089E+01  0.13791158089E+01  0.00000000000E+00 0. -1.
          2    1    1    2  501    0 -0.25636053086E+02  0.63466510162E+01  0.14597508949E+03  0.14834491547E+03  0.00000000000E+00 0. -1.
          2    1    1    2  502    0  0.25636053086E+02 -0.63466510162E+01  0.89769082497E+03  0.89807923060E+03  0.00000000000E+00 0. -1.
</event>
<event>
 4    1  0.6210801E+003  0.3039688E+02  0.7546771E-02  0.1416178E+00
          2   -1    0    0  502    0  0.00000000000E+00  0.00000000000E+00  0.38999862581E+03  0.38999862581E+03  0.00000000000E+00 0. -1.
          2   -1    0    0  501    0 -0.00000000000E+00 -0.00000000000E+00 -0.18012770223E+03  0.18012770223E+03  0.00000000000E+00 0. -1.
          2    1    1    2  501    0  0.29200887614E+02  0.84426695401E+01  0.38811774724E+03  0.38930624992E+03  0.00000000000E+00 0. -1.
          2    1    1    2  502    0 -0.29200887614E+02 -0.84426695401E+01 -0.17824682366E+03  0.18082007812E+03  0.00000000000E+00 0. -1.
</event>
<event>
 4    1  0.6210801E+003  0.2978509E+02  0.7546771E-02  0.1421473E+00
          2   -1    0    0  502    0  0.00000000000E+00  0.00000000000E+00  0.10658665161E+03  0.10658665161E+03  0.00000000000E+00 0.  1.
          2   -1    0    0  501    0 -0.00000000000E+00 -0.00000000000E+00 -0.97076579968E+02  0.97076579968E+02  0.00000000000E+00 0.  1.
          2    1    1    2  501    0  0.91677036519E+01 -0.28339102798E+02  0.10212334605E+03  0.10637823718E+03  0.00000000000E+00 0.  1.
          2    1    1    2  502    0 -0.91677036519E+01  0.28339102798E+02 -0.92613274408E+02  0.97284994394E+02  0.00000000000E+00 0.  1.
</event>
<event>
 4    1  0.6210801E+003  0.3644062E+02  0.7546771E-02  0.1370708E+00
          2   -1    0    0  501    0  0.00000000000E+00  0.00000000000E+00  0.57452338508E+01  0.57452338508E+01  0.00000000000E+00 0.  1.
          2   -1    0    0  502    0 -0.00000000000E+00 -0.00000000000E+00 -0.23357546083E+03  0.23357546083E+03  0.00000000000E+00 0.  1.
          2    1    1    2  501    0 -0.26778701850E+01 -0.36342097461E+02 -0.12614884997E+03  0.13130670731E+03  0.00000000000E+00 0.  1.
          2    1    1    2  502    0  0.26778701850E+01  0.36342097461E+02 -0.10168137701E+03  0.10801398737E+03  0.00000000000E+00 0.  1.
</event>
<event>
 4    1  0.6210801E+003  0.2336338E+02  0.7546771E-02  0.1487985E+00
          2   -1    0    0  501    0  0.00000000000E+00  0.00000000000E+00  0.20376261145E+02  0.20376261145E+02  0.00000000000E+00 0.  1.
          2   -1    0    0  502    0 -0.00000000000E+00 -0.00000000000E+00 -0.11796681463E+04  0.11796681463E+04  0.00000000000E+00 0. -1.
          2    1    1    2  501    0 -0.23075792473E+02  0.36544781679E+01 -0.11728162461E+04  0.11730489310E+04  0.00000000000E+00 0. -1.
          2    1    1    2  502    0  0.23075792473E+02 -0.36544781679E+01  0.13524360951E+02  0.26995476437E+02  0.00000000000E+00 0.  1.
</event>
<event>
 4    1  0.6210801E+003  0.2452910E+02  0.7546771E-02  0.1474141E+00
          2   -1    0    0  501    0  0.00000000000E+00  0.00000000000E+00  0.71935438819E+03  0.71935438819E+03  0.00000000000E+00 0.  1.
          2   -1    0    0  502    0 -0.00000000000E+00 -0.00000000000E+00 -0.96360924978E+00  0.96360924978E+00  0.00000000000E+00 0.  1.
          2    1    1    2  501    0 -0.23799963781E+02 -0.59362098397E+01  0.22834285857E+03  0.22965656517E+03  0.00000000000E+00 0.  1.
          2    1    1    2  502    0  0.23799963781E+02  0.59362098397E+01  0.49004792036E+03  0.49066143227E+03  0.00000000000E+00 0.  1.
</event>
<event>
 4    1  0.6210801E+003  0.3197407E+02  0.7546771E-02  0.1403183E+00
          2   -1    0    0  501    0  0.00000000000E+00  0.00000000000E+00  0.63836642315E+03  0.63836642315E+03  0.00000000000E+00 0.  1.
          2   -1    0    0  502    0 -0.00000000000E+00 -0.00000000000E+00 -0.16598864134E+01  0.16598864134E+01  0.00000000000E+00 0.  1.
          2    1    1    2  501    0 -0.25348269153E+02 -0.19488625413E+02  0.25833279136E+03  0.26030399989E+03  0.00000000000E+00 0.  1.
          2    1    1    2  502    0  0.25348269153E+02  0.19488625413E+02  0.37837374538E+03  0.37972230967E+03  0.00000000000E+00 0.  1.
</event>
<event>
 4    1  0.6210801E+003  0.2562225E+02  0.7546771E-02  0.1461961E+00
          2   -1    0    0  502    0  0.00000000000E+00  0.00000000000E+00  0.15940646995E+04  0.15940646995E+04  0.00000000000E+00 0. -1.
          2   -1    0    0  501    0 -0.00000000000E+00 -0.00000000000E+00 -0.98901052367E+00  0.98901052367E+00  0.00000000000E+00 0.  1.
          2    1    1    2  501    0 -0.13545712292E+02  0.21748865770E+02  0.14057898396E+04  0.14060233186E+04  0.00000000000E+00 0. -1.
          2    1    1    2  502    0  0.13545712292E+02 -0.21748865770E+02  0.18728584940E+03  0.18903039139E+03  0.00000000000E+00 0.  1.
</event>
<event>
 4    1  0.6210801E+003  0.2276975E+02  0.7546771E-02  0.1495410E+00
          2   -1    0    0  501    0  0.00000000000E+00  0.00000000000E+00  0.10720108085E+01  0.10720108085E+01  0.00000000000E+00 0.  1.
          2   -1    0    0  502    0 -0.00000000000E+00 -0.00000000000E+00 -0.71125034158E+03  0.71125034158E+03  0.00000000000E+00 0.  1.
          2    1    1    2  501    0  0.21932208900E+02  0.61188077210E+01 -0.55657123893E+03  0.55703680812E+03  0.00000000000E+00 0.  1.
          2    1    1    2  502    0 -0.21932208900E+02 -0.61188077210E+01 -0.15360709184E+03  0.15528554427E+03  0.00000000000E+00 0.  1.
</event>
<event>
 4    1  0.6210801E+003  0.2080298E+02  0.7546771E-02  0.1522096E+00
          2   -1    0    0  501    0  0.00000000000E+00  0.00000000000E+00  0.65228161900E+01  0.65228161900E+01  0.00000000000E+00 0.  1.
          2   -1    0    0  502    0 -0.00000000000E+00 -0.00000000000E+00 -0.11094231175E+03  0.11094231175E+03  0.00000000000E+00 0.  1.
          2    1    1    2  501    0 -0.62037726484E+01  0.19856418836E+02 -0.89447098935E+02  0.91834349085E+02  0.00000000000E+00 0.  1.
          2    1    1    2  502    0  0.62037726484E+01 -0.19856418836E+02 -0.14972396629E+02  0.25630778858E+02  0.00000000000E+00 0.  1.
</event>
<event>
 4    1  0.6210801E+003  0.3894853E+02  0.7546771E-02  0.1354760E+00
          2   -1    0    0  501    0  0.00000000000E+00  0.00000000000E+00  0.91372118121E+03  0.91372118121E+03  0.00000000000E+00 0. -1.
          2   -1    0    0  502    0 -0.00000000000E+00 -0.00000000000E+00 -0.88960728800E+02  0.88960728800E+02  0.00000000000E+00 0. -1.
          2    1    1    2  501    0 -0.23453031108E+02  0.31095716582E+02 -0.84260554438E+02  0.92826878069E+02  0.00000000000E+00 0. -1.
          2    1    1    2  502    0  0.23453031108E+02 -0.31095716582E+02  0.90902100685E+03  0.90985503194E+03  0.00000000000E+00 0. -1.
</event>
<event>
 4    1  0.6210801E+003  0.2132869E+02  0.7546771E-02  0.1514623E+00
          2   -1    0    0  501    0  0.00000000000E+00  0.00000000000E+00  0.10322523085E+04  0.10322523085E+04  0.00000000000E+00 0.  1.
          2   -1    0    0  502    0 -0.00000000000E+00 -0.00000000000E+00 -0.15806306407E+02  0.15806306407E+02  0.00000000000E+00 0.  1.
          2    1    1    2  501    0  0.35673209011E+01 -0.21028245865E+02 -0.84493718529E+01  0.22941333598E+02  0.00000000000E+00 0.  1.
          2    1    1    2  502    0 -0.35673209011E+01  0.21028245865E+02  0.10248953739E+04  0.10251172813E+04  0.00000000000E+00 0.  1.
</event>
<event>
 4    1  0.6210801E+003  0.2481390E+02  0.7546771E-02  0.1470896E+00
          2   -1    0    0  501    0  0.00000000000E+00  0.00000000000E+00  0.24366488029E+02  0.24366488029E+02  0.00000000000E+00 0. -1.
          2   -1    0    0  502    0 -0.00000000000E+00 -0.00000000000E+00 -0.10497096366E+03  0.10497096366E+03  0.00000000000E+00 0. -1.
          2    1    1    2  501    0  0.23350992235E+02 -0.83940925007E+01 -0.96652090764E+02  0.99786553585E+02  0.00000000000E+00 0. -1.
          2    1    1    2  502    0 -0.23350992235E+02  0.83940925007E+01  0.16047615133E+02  0.29550898104E+02  0.00000000000E+00 0. -1.
</event>
<event>
 4    1  0.6210801E+003  0.3958285E+02  0.7546771E-02  0.1350948E+00
          2   -1    0    0  502    0  0.00000000000E+00  0.00000000000E+00  0.10339121194E+04  0.10339121194E+04  0.00000000000E+00 0.  1.
          2   -1    0    0  501    0 -0.00000000000E+00 -0.00000000000E+00 -0.19003527778E+01  0.19003527778E+01  0.00000000000E+00 0. -1.
          2    1    1    2  501    0  0.31840419370E+02  0.23515739195E+02  0.74909998187E+03  0.75014504273E+03  0.00000000000E+00 0.  1.
          2    1    1    2  502    0 -0.31840419370E+02 -0.23515739195E+02  0.28291178478E+03  0.28566742948E+03  0.00000000000E+00 0. -1.
</event>
<event>
 4    1  0.6210801E+003  0.4379376E+02  0.7546771E-02  0.1327582E+00
          2   -1    0    0  502    0  0.00000000000E+00  0.00000000000E+00  0.26809758440E+03  0.26809758440E+03  0.00000000000E+00 0.  1.
          2   -1    0    0  501    0 -0.00000000000E+00 -0.00000000000E+00 -0.82258265513E+01  0.82258265513E+01  0.00000000000E+00 0. -1.
          2    1    1    2  501    0 -0.18425199833E+00 -0.43793374580E+02  0.17981490657E+03  0.18507105184E+03  0.00000000000E+00 0.  1.
          2    1    1    2  502    0  0.18425199833E+00  0.43793374580E+02  0.80056851275E+02  0.91252359104E+02  0.00000000000E+00 0. -1.
</event>
<event>
 4    1  0.6210801E+003  0.2643057E+02  0.7546771E-02  0.1453414E+00
          2   -1    0    0  502    0  0.00000000000E+00  0.00000000000E+00  0.17400443585E+02  0.17400443585E+02  0.00000000000E+00 0. -1.
          2   -1    0    0  501    0 -0.00000000000E+00 -0.00000000000E+00 -0.71898722715E+02  0.71898722715E+02  0.00000000000E+00 0. -1.
          2    1    1    2  501    0  0.12602110429E+02  0.23232772899E+02  0.24224447988E+01  0.26541348170E+02  0.00000000000E+00 0. -1.
          2    1    1    2  502    0 -0.12602110429E+02 -0.23232772899E+02 -0.56920723929E+02  0.62757818130E+02  0.00000000000E+00 0. -1.
</event>
<event>
 4    1  0.6210801E+003  0.2044623E+02  0.7546771E-02  0.1527320E+00
          2   -1    0    0  502    0  0.00000000000E+00  0.00000000000E+00  0.30711200385E+00  0.30711200385E+00  0.00000000000E+00 0. -1.
          2   -1    0    0  501    0 -0.00000000000E+00 -0.00000000000E+00 -0.15492055565E+04  0.15492055565E+04  0.00000000000E+00 0.  1.
          2    1    1    2  501    0  0.15592533699E+02  0.13225779579E+02 -0.50457104191E+03  0.50498513314E+03  0.00000000000E+00 0. -1.
          2    1    1    2  502    0 -0.15592533699E+02 -0.13225779579E+02 -0.10443274025E+04  0.10445275353E+04  0.00000000000E+00 0.  1.
</event>
<event>
 4    1  0.6210801E+003  0.2190282E+02  0.7546771E-02  0.1506755E+00
          2   -1    0    0  502    0  0.00000000000E+00  0.00000000000E+00  0.13582327073E+01  0.13582327073E+01  0.00000000000E+00 0.  1.
          2   -1    0    0  501    0 -0.00000000000E+00 -0.00000000000E+00 -0.36152688155E+03  0.36152688155E+03  0.00000000000E+00 0.  1.
          2    1    1    2  501    0  0.16097120734E+02 -0.14853151243E+02 -0.15255456596E+03  0.15411887942E+03  0.00000000000E+00 0.  1.
          2    1    1    2  502    0 -0.16097120734E+02  0.14853151243E+02 -0.20761408288E+03  0.20876623484E+03  0.00000000000E+00 0.  1.
</event>
<event>
 4    1  0.6210801E+003  0.2275129E+02  0.7546771E-02  0.1495645E+00
          2   -1    0    0  502    0  0.00000000000E+00  0.00000000000E+00  0.72676078230E+03  0.72676078230E+03  0.00000000000E+00 0. -1.
          2   -1    0    0  501    0 -0.00000000000E+00 -0.00000000000E+00 -0.31558889044E+02  0.31558889044E+02  0.00000000000E+00 0.  1.
          2    1    1    2  501    0 -0.90016007883E+01 -0.20894791618E+02  0.72245787032E+03  0.72281601775E+03  0.00000000000E+00 0. -1.
          2    1    1    2  502    0  0.90016007883E+01  0.20894791618E+02 -0.27255977056E+02  0.35503653598E+02  0.00000000000E+00 0.  1.
</event>
<event>
 4    1  0.6210801E+003  0.4011626E+02  0.7546771E-02  0.1347806E+00
          2   -1    0    0  502    0  0.00000000000E+00  0.00000000000E+00  0.54514784270E+01  0.54514784270E+01  0.00000000000E+00 0.  1.
          2   -1    0    0  501    0 -0.00000000000E+00 -0.00000000000E+00 -0.10876894210E+04  0.10876894210E+04  0.00000000000E+00 0. -1.
          2    1    1    2  501    0 -0.17087011245E+02 -0.36295293745E+02 -0.74579353827E+02  0.84684085391E+02  0.00000000000E+00 0.  1.
          2    1    1    2  502    0  0.17087011245E+02  0.36295293745E+02 -0.10076585887E+04  0.10084568140E+04  0.00000000000E+00 0. -1.
</event>
<event>
 4    1  0.6210801E+003  0.2898884E+02  0.7546771E-02  0.1428592E+00
          2   -1    0    0  502    0  0.00000000000E+00  0.00000000000E+00  0.36946503988E+03  0.36946503988E+03  0.00000000000E+00 0. -1.
          2   -1    0    0  501    0 -0.00000000000E+00 -0.00000000000E+00 -0.28133041435E+03  0.28133041435E+03  0.00000000000E+00 0. -1.
          2    1    1    2  501    0  0.26272045932E+02 -0.12252854612E+02  0.36814697547E+03  0.36928653968E+03  0.00000000000E+00 0. -1.
          2    1    1    2  502    0 -0.26272045932E+02  0.12252854612E+02 -0.28001234995E+03  0.28150891454E+03  0.00000000000E+00 0. -1.
</event>
<event>
 4    1  0.6210801E+003  0.2149165E+02  0.7546771E-02  0.1512360E+00
          2   -1    0    0  501    0  0.00000000000E+00  0.00000000000E+00  0.12246610042E+02  0.12246610042E+02  0.00000000000E+00 0. -1.
          2   -1    0    0  502    0 -0.00000000000E+00 -0.00000000000E+00 -0.12130766449E+04  0.12130766449E+04  0.00000000000E+00 0.  1.
          2    1    1    2  501    0 -0.19539489652E+02  0.89498189271E+01 -0.12034772978E+04  0.12036691810E+04  0.00000000000E+00 0.  1.
          2    1    1    2  502    0  0.19539489652E+02 -0.89498189271E+01  0.26472630135E+01  0.21654073893E+02  0.00000000000E+00 0. -1.
</event>
<event>
 4    1  0.6210801E+003  0.2178476E+02  0.7546771E-02  0.1508349E+00
          2   -1    0    0  502    0  0.00000000000E+00  0.00000000000E+00  0.19608732072E+03  0.19608732072E+03  0.00000000000E+00 0. -1.
          2   -1    0    0  501    0 -0.00000000000E+00 -0.00000000000E+00 -0.60624871429E+01  0.60624871429E+01  0.00000000000E+00 0.  1.
          2    1    1    2  501    0  0.20799540166E+01  0.21685242046E+02  0.17335598921E+03  0.17471941771E+03  0.00000000000E+00 0. -1.
          2    1    1    2  502    0 -0.20799540166E+01 -0.21685242046E+02  0.16668844373E+02  0.27430390155E+02  0.00000000000E+00 0.  1.
</event>
<event>
 4    1  0.6210801E+003  0.2360553E+02  0.7546771E-02  0.1485031E+00
          2   -1    0    0  501    0  0.00000000000E+00  0.00000000000E+00  0.73197613540E+03  0.73197613540E+03  0.00000000000E+00 0.  1.
          2   -1    0    0  502    0 -0.00000000000E+00 -0.00000000000E+00 -0.18238469887E+02  0.18238469887E+02  0.00000000000E+00 0.  1.
          2    1    1    2  501    0 -0.19545524034E+01  0.23524476056E+02 -0.10326725442E+02  0.25765529437E+02  0.00000000000E+00 0.  1.
          2    1    1    2  502    0  0.19545524034E+01 -0.23524476056E+02  0.72406439096E+03  0.72444907585E+03  0.00000000000E+00 0.  1.
</event>
<event>
 4    1  0.6210801E+003  0.2232863E+02  0.7546771E-02  0.1501105E+00
          2   -1    0    0  502    0  0.00000000000E+00  0.00000000000E+00  0.42307399482E+03  0.42307399482E+03  0.00000000000E+00 0.  1.
          2   -1    0    0  501    0 -0.00000000000E+00 -0.00000000000E+00 -0.12960738388E+02  0.12960738388E+02  0.00000000000E+00 0.  1.
          2    1    1    2  501    0  0.18431122073E+02  0.12604033025E+02  0.41292633341E+03  0.41352959354E+03  0.00000000000E+00 0.  1.
          2    1    1    2  502    0 -0.18431122073E+02 -0.12604033025E+02 -0.28130769802E+01  0.22505139667E+02  0.00000000000E+00 0.  1.
</event>
<event>
 4    1  0.6210801E+003  0.2264333E+02  0.7546771E-02  0.1497026E+00
          2   -1    0    0  501    0  0.00000000000E+00  0.00000000000E+00  0.16618682069E+01  0.16618682069E+01  0.00000000000E+00 0. -1.
          2   -1    0    0  502    0 -0.00000000000E+00 -0.00000000000E+00 -0.55220996118E+03  0.55220996118E+03  0.00000000000E+00 0.  1.
          2    1    1    2  501    0 -0.18631960929E+02 -0.12867412658E+02 -0.45924345350E+03  0.45980133738E+03  0.00000000000E+00 0.  1.
          2    1    1    2  502    0  0.18631960929E+02  0.12867412658E+02 -0.91304639477E+02  0.94070492008E+02  0.00000000000E+00 0. -1.
</event>
<event>
 4    1  0.6210801E+003  0.2705221E+02  0.7546771E-02  0.1447084E+00
          2   -1    0    0  501    0  0.00000000000E+00  0.00000000000E+00  0.11410059166E+03  0.11410059166E+03  0.00000000000E+00 0.  1.
          2   -1    0    0  502    0 -0.00000000000E+00 -0.00000000000E+00 -0.65368746389E+02  0.65368746389E+02  0.00000000000E+00 0. -1.
          2    1    1    2  501    0  0.22806350487E+02  0.14549645491E+02 -0.60852835433E+02  0.66594965175E+02  0.00000000000E+00 0. -1.
          2    1    1    2  502    0 -0.22806350487E+02 -0.14549645491E+02  0.10958468070E+03  0.11287437287E+03  0.00000000000E+00 0.  1.
</event>
<event>
 4    1  0.6210801E+003  0.2338299E+02  0.7546771E-02  0.1487744E+00
          2   -1    0    0  501    0  0.00000000000E+00  0.00000000000E+00  0.40432405107E+03  0.40432405107E+03  0.00000000000E+00 0.  1.
          2   -1    0    0  502    0 -0.00000000000E+00 -0.00000000000E+00 -0.15138208103E+02  0.15138208103E+02  0.00000000000E+00 0. -1.
          2    1    1    2  501    0  0.99920799650E+01  0.21140545867E+02 -0.55514907235E+01  0.24032964671E+02  0.00000000000E+00 0. -1.
          2    1    1    2  502    0 -0.99920799650E+01 -0.21140545867E+02  0.39473733369E+03  0.39542929450E+03  0.00000000000E+00 0.  1.
</event>
<event>
 4    1  0.6210801E+003  0.3430815E+02  0.7546771E-02  0.1385493E+00
          2   -1    0    0  502    0  0.00000000000E+00  0.00000000000E+00  0.11641937473E+03  0.11641937473E+03  0.00000000000E+00 0.  1.
          2   -1    0    0  501    0 -0.00000000000E+00 -0.00000000000E+00 -0.65696229232E+02  0.65696229232E+02  0.00000000000E+00 0. -1.
          2    1    1    2  501    0  0.25004827773E+02 -0.23490593981E+02  0.10912007176E+03  0.11438636055E+03  0.00000000000E+00 0.  1.
          2    1    1    2  502    0 -0.25004827773E+02  0.23490593981E+02 -0.58396926261E+02  0.67729243420E+02  0.00000000000E+00 0. -1.
</event>
<event>
 4    1  0.6210801E+003  0.2454764E+02  0.7546771E-02  0.1473928E+00
          2   -1    0    0  501    0  0.00000000000E+00  0.00000000000E+00  0.11185528056E+02  0.11185528056E+02  0.00000000000E+00 0. -1.
          2   -1    0    0  502    0 -0.00000000000E+00 -0.00000000000E+00 -0.32392310086E+03  0.32392310086E+03  0.00000000000E+00 0.  1.
          2    1    1    2  501    0 -0.85124680302E+01  0.23024435313E+02 -0.30935688007E+03  0.31032928637E+03  0.00000000000E+00 0.  1.
          2    1    1    2  502    0  0.85124680302E+01 -0.23024435313E+02 -0.33806927318E+01  0.24779342542E+02  0.00000000000E+00 0. -1.
</event>
<event>
 4    1  0.6210801E+003  0.2009486E+02  0.7546771E-02  0.1532591E+00
          2   -1    0    0  502    0  0.00000000000E+00  0.00000000000E+00  0.71509125624E+03  0.71509125624E+03  0.00000000000E+00 0.  1.
          2   -1    0    0  501    0 -0.00000000000E+00 -0.00000000000E+00 -0.13844280195E+01  0.13844280195E+01  0.00000000000E+00 0.  1.
          2    1    1    2  501    0  0.19737560013E+02 -0.37725472271E+01  0.63251380166E+03  0.63283292636E+03  0.00000000000E+00 0.  1.
          2    1    1    2  502    0 -0.19737560013E+02  0.37725472271E+01  0.81193026551E+02  0.83642757896E+02  0.00000000000E+00 0.  1.
</event>
<event>
 4    1  0.6210801E+003  0.2347220E+02  0.7546771E-02  0.1486652E+00
          2   -1    0    0  501    0  0.00000000000E+00  0.00000000000E+00  0.13198466570E+01  0.13198466570E+01  0.00000000000E+00 0. -1.
          2   -1    0    0  502    0 -0.00000000000E+00 -0.00000000000E+00 -0.12300438249E+04  0.12300438249E+04  0.00000000000E+00 0. -1.
          2    1    1    2  501    0 -0.92226152079E+00 -0.23454078465E+02 -0.11147858339E+04  0.11150329142E+04  0.00000000000E+00 0. -1.
          2    1    1    2  502    0  0.92226152079E+00  0.23454078465E+02 -0.11393814437E+03  0.11633075735E+03  0.00000000000E+00 0. -1.
</event>
<event>
 4    1  0.6210801E+003  0.3891153E+02  0.7546771E-02  0.1354985E+00
          2   -1    0    0  502    0  0.00000000000E+00  0.00000000000E+00  0.18861462923E+03  0.18861462923E+03  0.00000000000E+00 0. -1.
          2   -1    0    0  501    0 -0.00000000000E+00 -0.00000000000E+00 -0.12914592933E+03  0.12914592933E+03  0.00000000000E+00 0. -1.
          2    1    1    2  501    0 -0.12259299632E+01 -0.38892216639E+02  0.18359753406E+03  0.18767568285E+03  0.00000000000E+00 0. -1.
          2    1    1    2  502    0  0.12259299632E+01  0.38892216639E+02 -0.12412883416E+03  0.13008487571E+03  0.00000000000E+00 0. -1.
</event>
<event>
 4    1  0.6210801E+003  0.2311530E+02  0.7546771E-02  0.1491055E+00
          2   -1    0    0  501    0  0.00000000000E+00  0.00000000000E+00  0.55149021063E+00  0.55149021063E+00  0.00000000000E+00 0.  1.
          2   -1    0    0  502    0 -0.00000000000E+00 -0.00000000000E+00 -0.12075428645E+04  0.12075428645E+04  0.00000000000E+00 0.  1.
          2    1    1    2  501    0  0.13123915982E+02  0.19028394628E+02 -0.87204863619E+03  0.87235493972E+03  0.00000000000E+00 0.  1.
          2    1    1    2  502    0 -0.13123915982E+02 -0.19028394628E+02 -0.33494273809E+03  0.33573941498E+03  0.00000000000E+00 0.  1.
</event>
<event>
 4    1  0.6210801E+003  0.2717578E+02  0.7546771E-02  0.1445850E+00
          2   -1    0    0  501    0  0.00000000000E+00  0.00000000000E+00  0.85578461594E+03  0.85578461594E+03  0.00000000000E+00 0. -1.
          2   -1    0    0  502    0 -0.00000000000E+00 -0.00000000000E+00 -0.54004175162E+01  0.54004175162E+01  0.00000000000E+00 0.  1.
          2    1    1    2  501    0  0.26800490389E+02  0.45007500791E+01  0.30500167768E+02  0.40850743815E+02  0.00000000000E+00 0.  1.
          2    1    1    2  502    0 -0.26800490389E+02 -0.45007500791E+01  0.81988403065E+03  0.82033428964E+03  0.00000000000E+00 0. -1.
</event>
<event>
 4    1  0.6210801E+003  0.2458818E+02  0.7546771E-02  0.1473463E+00
          2   -1    0    0  501    0  0.00000000000E+00  0.00000000000E+00  0.44137496935E+02  0.44137496935E+02  0.00000000000E+00 0. -1.
          2   -1    0    0  502    0 -0.00000000000E+00 -0.00000000000E+00 -0.26181856748E+02  0.26181856748E+02  0.00000000000E+00 0.  1.
          2    1    1    2  501    0 -0.41047225519E+01 -0.24243135998E+02 -0.15300898320E+02  0.28960246539E+02  0.00000000000E+00 0.  1.
          2    1    1    2  502    0  0.41047225519E+01  0.24243135998E+02  0.33256538507E+02  0.41359107143E+02  0.00000000000E+00 0. -1.
</event>
<event>
 4    1  0.6210801E+003  0.2456155E+02  0.7546771E-02  0.1473768E+00
          2   -1    0    0  501    0  0.00000000000E+00  0.00000000000E+00  0.15774644491E+04  0.15774644491E+04  0.00000000000E+00 0. -1.
          2   -1    0    0  502    0 -0.00000000000E+00 -0.00000000000E+00 -0.41619486118E+00  0.41619486118E+00  0.00000000000E+00 0. -1.
          2    1    1    2  501    0 -0.71356088954E+01 -0.23502192160E+02  0.10132367030E+04  0.10135343537E+04  0.00000000000E+00 0. -1.
          2    1    1    2  502    0  0.71356088954E+01  0.23502192160E+02  0.56381155129E+03  0.56434629025E+03  0.00000000000E+00 0. -1.
</event>
<event>
 4    1  0.6210801E+003  0.4172673E+02  0.7546771E-02  0.1338654E+00
          2   -1    0    0  502    0  0.00000000000E+00  0.00000000000E+00  0.48296847159E+03  0.48296847159E+03  0.00000000000E+00 0. -1.
          2   -1    0    0  501    0 -0.00000000000E+00 -0.00000000000E+00 -0.14172120263E+02  0.14172120263E+02  0.00000000000E+00 0.  1.
          2    1    1    2  501    0 -0.18894126143E+02 -0.37203929638E+02  0.44903751833E+03  0.45097207591E+03  0.00000000000E+00 0. -1.
          2    1    1    2  502    0  0.18894126143E+02  0.37203929638E+02  0.19758833001E+02  0.46168515947E+02  0.00000000000E+00 0.  1.
</event>
<event>
 4    1  0.6210801E+003  0.1851311E+03  0.7546771E-02  0.1066210E+00
          2   -1    0    0  501    0  0.00000000000E+00  0.00000000000E+00  0.20857173085E+04  0.20857173085E+04  0.00000000000E+00 0. -1.
          2   -1    0    0  502    0 -0.00000000000E+00 -0.00000000000E+00 -0.38254043358E+02  0.38254043358E+02  0.00000000000E+00 0.  1.
          2    1    1    2  501    0 -0.18478122940E+03  0.11375545127E+02  0.22164195489E+03  0.28878826487E+03  0.00000000000E+00 0.  1.
          2    1    1    2  502    0  0.18478122940E+03 -0.11375545127E+02  0.18258213102E+04  0.18351830870E+04  0.00000000000E+00 0. -1.
</event>
<event>
 4    1  0.6210801E+003  0.2175263E+02  0.7546771E-02  0.1508785E+00
          2   -1    0    0  501    0  0.00000000000E+00  0.00000000000E+00  0.16138123362E+04  0.16138123362E+04  0.00000000000E+00 0. -1.
          2   -1    0    0  502    0 -0.00000000000E+00 -0.00000000000E+00 -0.69565873127E+02  0.69565873127E+02  0.00000000000E+00 0. -1.
          2    1    1    2  501    0 -0.19312178724E+02  0.10010834607E+02 -0.67790235026E+02  0.71194754171E+02  0.00000000000E+00 0. -1.
          2    1    1    2  502    0  0.19312178724E+02 -0.10010834607E+02  0.16120366981E+04  0.16121834552E+04  0.00000000000E+00 0. -1.
</event>
<event>
 4    1  0.6210801E+003  0.4924368E+02  0.7546771E-02  0.1301485E+00
          2   -1    0    0  502    0  0.00000000000E+00  0.00000000000E+00  0.15486718956E+04  0.15486718956E+04  0.00000000000E+00 0.  1.
          2   -1    0    0  501    0 -0.00000000000E+00 -0.00000000000E+00 -0.61403228621E+02  0.61403228621E+02  0.00000000000E+00 0. -1.
          2    1    1    2  501    0  0.58480247482E+01 -0.48895202278E+02  0.15383411395E+04  0.15391291049E+04  0.00000000000E+00 0.  1.
          2    1    1    2  502    0 -0.58480247482E+01  0.48895202278E+02 -0.51072472533E+02  0.70946019268E+02  0.00000000000E+00 0. -1.
</event>
<event>
 4    1  0.6210801E+003  0.2827789E+02  0.7546771E-02  0.1435177E+00
          2   -1    0    0  501    0  0.00000000000E+00  0.00000000000E+00  0.64961597174E+03  0.64961597174E+03  0.00000000000E+00 0.  1.
          2   -1    0    0  502    0 -0.00000000000E+00 -0.00000000000E+00 -0.18234682872E+01  0.18234682872E+01  0.00000000000E+00 0. -1.
          2    1    1    2  501    0 -0.27235381410E+02 -0.76074494447E+01  0.13822317947E+03  0.14108609651E+03  0.00000000000E+00 0. -1.
          2    1    1    2  502    0  0.27235381410E+02  0.76074494447E+01  0.50956932399E+03  0.51035334352E+03  0.00000000000E+00 0.  1.
</event>
<event>
 4    1  0.6210801E+003  0.2029114E+02  0.7546771E-02  0.1529631E+00
          2   -1    0    0  501    0  0.00000000000E+00  0.00000000000E+00  0.38711662538E+02  0.38711662538E+02  0.00000000000E+00 0.  1.
          2   -1    0    0  502    0 -0.00000000000E+00 -0.00000000000E+00 -0.28815441611E+02  0.28815441611E+02  0.00000000000E+00 0.  1.
          2    1    1    2  501    0  0.19007600757E+02  0.71022215594E+01 -0.21869980512E+02  0.29833311670E+02  0.00000000000E+00 0.  1.
          2    1    1    2  502    0 -0.19007600757E+02 -0.71022215594E+01  0.31766201439E+02  0.37693792479E+02  0.00000000000E+00 0.  1.
</event>
<event>
 4    1  0.6210801E+003  0.2702579E+02  0.7546771E-02  0.1447349E+00
          2   -1    0    0  502    0  0.00000000000E+00  0.00000000000E+00  0.37815279170E+03  0.37815279170E+03  0.00000000000E+00 0.  1.
          2   -1    0    0  501    0 -0.00000000000E+00 -0.00000000000E+00 -0.13408337878E+02  0.13408337878E+02  0.00000000000E+00 0.  1.
          2    1    1    2  501    0  0.22934384393E+02  0.14297117173E+02  0.36350359052E+03  0.36450686395E+03  0.00000000000E+00 0.  1.
          2    1    1    2  502    0 -0.22934384393E+02 -0.14297117173E+02  0.12408633038E+01  0.27054265628E+02  0.00000000000E+00 0.  1.
</event>
<event>
 4    1  0.6210801E+003  0.2017418E+02  0.7546771E-02  0.1531390E+00
          2   -1    0    0  502    0  0.00000000000E+00  0.00000000000E+00  0.64173547703E+03  0.64173547703E+03  0.00000000000E+00 0. -1.
          2   -1    0    0  501    0 -0.00000000000E+00 -0.00000000000E+00 -0.16433641192E+01  0.16433641192E+01  0.00000000000E+00 0. -1.
          2    1    1    2  501    0  0.96517238551E+01 -0.17715582020E+02  0.57213149948E+03  0.57248707436E+03  0.00000000000E+00 0. -1.
          2    1    1    2  502    0 -0.96517238551E+01  0.17715582020E+02  0.67960613436E+02  0.70891766788E+02  0.00000000000E+00 0. -1.
</event>
<event>
 4    1  0.6210801E+003  0.2460992E+02  0.7546771E-02  0.1473215E+00
          2   -1    0    0  501    0  0.00000000000E+00  0.00000000000E+00  0.46101947572E+01  0.46101947572E+01  0.00000000000E+00 0.  1.
          2   -1    0    0  502    0 -0.00000000000E+00 -0.00000000000E+00 -0.11370620480E+04  0.11370620480E+04  0.00000000000E+00 0. -1.
          2    1    1    2  501    0  0.45470365731E+01 -0.24186208315E+02 -0.11030741845E+04  0.11033486777E+04  0.00000000000E+00 0. -1.
          2    1    1    2  502    0 -0.45470365731E+01  0.24186208315E+02 -0.29377668814E+02  0.38323565064E+02  0.00000000000E+00 0.  1.
</event>
<event>
 4    1  0.6210801E+003  0.2179871E+02  0.7546771E-02  0.1508160E+00
          2   -1    0    0  502    0  0.00000000000E+00  0.00000000000E+00  0.17645042993E+01  0.17645042993E+01  0.00000000000E+00 0.  1.
          2   -1    0    0  501    0 -0.00000000000E+00 -0.00000000000E+00 -0.91158167579E+03  0.91158167579E+03  0.00000000000E+00 0.  1.
          2    1    1    2  501    0  0.20843964047E+02  0.63806727219E+01 -0.71581193588E+02  0.74826807343E+02  0.00000000000E+00 0.  1.
          2    1    1    2  502    0 -0.20843964047E+02 -0.63806727219E+01 -0.83823597791E+03  0.83851937275E+03  0.00000000000E+00 0.  1.
</event>
<event>
 4    1  0.6210801E+003  0.2277680E+02  0.7546771E-02  0.1495320E+00
          2   -1    0    0  502    0  0.00000000000E+00  0.00000000000E+00  0.13440995944E+03  0.13440995944E+03  0.00000000000E+00 0. -1.
          2   -1    0    0  501    0 -0.00000000000E+00 -0.00000000000E+00 -0.12241452906E+03  0.12241452906E+03  0.00000000000E+00 0. -1.
          2    1    1    2  501    0 -0.17352252908E+02 -0.14754045503E+02  0.13236934067E+03  0.13431464882E+03  0.00000000000E+00 0. -1.
          2    1    1    2  502    0  0.17352252908E+02  0.14754045503E+02 -0.12037391029E+03  0.12250983968E+03  0.00000000000E+00 0. -1.
</event>
<event>
 4    1  0.6210801E+003  0.4982248E+02  0.7546771E-02  0.1298944E+00
          2   -1    0    0  501    0  0.00000000000E+00  0.00000000000E+00  0.57362231539E+03  0.57362231539E+03  0.00000000000E+00 0.  1.
          2   -1    0    0  502    0 -0.00000000000E+00 -0.00000000000E+00 -0.24506392200E+04  0.24506392200E+04  0.00000000000E+00 0.  1.
          2    1    1    2  501    0 -0.48590152870E+02  0.11012555023E+02 -0.24493035584E+04  0.24498102376E+04  0.00000000000E+00 0.  1.
          2    1    1    2  502    0  0.48590152870E+02 -0.11012555023E+02  0.57228665381E+03  0.57445129772E+03  0.00000000000E+00 0.  1.
</event>
<event>
 4    1  0.6210801E+003  0.3049597E+02  0.7546771E-02  0.1415335E+00
          2   -1    0    0  502    0  0.00000000000E+00  0.00000000000E+00  0.15377636837E+04  0.15377636837E+04  0.00000000000E+00 0. -1.
          2   -1    0    0  501    0 -0.00000000000E+00 -0.00000000000E+00 -0.12404730070E+01  0.12404730070E+01  0.00000000000E+00 0.  1.
          2    1    1    2  501    0 -0.22111140777E+02 -0.21002412718E+02  0.13191212135E+04  0.13194736753E+04  0.00000000000E+00 0. -1.
          2    1    1    2  502    0  0.22111140777E+02  0.21002412718E+02  0.21740199725E+03  0.21953048147E+03  0.00000000000E+00 0.  1.
</event>
<event>
 4    1  0.6210801E+003  0.2715082E+02  0.7546771E-02  0.1446099E+00
          2   -1    0    0  501    0  0.00000000000E+00  0.00000000000E+00  0.17173639679E+03  0.17173639679E+03  0.00000000000E+00 0.  1.
          2   -1    0    0  502    0 -0.00000000000E+00 -0.00000000000E+00 -0.44008850232E+01  0.44008850232E+01  0.00000000000E+00 0.  1.
          2    1    1    2  501    0  0.39552620009E+01 -0.26861176738E+02  0.69842573979E+02  0.74934318261E+02  0.00000000000E+00 0.  1.
          2    1    1    2  502    0 -0.39552620009E+01  0.26861176738E+02  0.97492937787E+02  0.10120296355E+03  0.00000000000E+00 0.  1.
</event>
<event>
 4    1  0.6210801E+003  0.2147422E+02  0.7546771E-02  0.1512601E+00
          2   -1    0    0  502    0  0.00000000000E+00  0.00000000000E+00  0.12523350385E+04  0.12523350385E+04  0.00000000000E+00 0. -1.
          2   -1    0    0  501    0 -0.00000000000E+00 -0.00000000000E+00 -0.44458117548E+02  0.44458117548E+02  0.00000000000E+00 0.  1.
          2    1    1    2  501    0  0.63195710214E+01 -0.20523278716E+02  0.12496442732E+04  0.12498287688E+04  0.00000000000E+00 0. -1.
          2    1    1    2  502    0 -0.63195710214E+01  0.20523278716E+02 -0.41767352261E+02  0.46964387168E+02  0.00000000000E+00 0.  1.
</event>
<event>
 4    1  0.6210801E+003  0.3712671E+02  0.7546771E-02  0.1366199E+00
          2   -1    0    0  501    0  0.00000000000E+00  0.00000000000E+00  0.14133419473E+03  0.14133419473E+03  0.00000000000E+00 0. -1.
          2   -1    0    0  502    0 -0.00000000000E+00 -0.00000000000E+00 -0.67676922498E+02  0.67676922498E+02  0.00000000000E+00 0.  1.
          2    1    1    2  501    0  0.34505853827E+02  0.13701763292E+02 -0.59854145475E+02  0.70433734788E+02  0.00000000000E+00 0.  1.
          2    1    1    2  502    0 -0.34505853827E+02 -0.13701763292E+02  0.13351141770E+03  0.13857738244E+03  0.00000000000E+00 0. -1.
</event>
<event>
 4    1  0.6210801E+003  0.2193639E+02  0.7546771E-02  0.1506304E+00
          2   -1    0    0  502    0  0.00000000000E+00  0.00000000000E+00  0.16364067150E+01  0.16364067150E+01  0.00000000000E+00 0.  1.
          2   -1    0    0  501    0 -0.00000000000E+00 -0.00000000000E+00 -0.29541444623E+03  0.29541444623E+03  0.00000000000E+00 0. -1.
          2    1    1    2  501    0 -0.21934698825E+02  0.27267841247E+00 -0.13684026819E+03  0.13858738891E+03  0.00000000000E+00 0. -1.
          2    1    1    2  502    0  0.21934698825E+02 -0.27267841247E+00 -0.15693777132E+03  0.15846346404E+03  0.00000000000E+00 0.  1.
</event>
<event>
 4    1  0.6210801E+003  0.2067191E+02  0.7546771E-02  0.1524001E+00
          2   -1    0    0  501    0  0.00000000000E+00  0.00000000000E+00  0.87169639150E+03  0.87169639150E+03  0.00000000000E+00 0.  1.
          2   -1    0    0  502    0 -0.00000000000E+00 -0.00000000000E+00 -0.87130894663E+00  0.87130894663E+00  0.00000000000E+00 0. -1.
          2    1    1    2  501    0  0.25679296376E+01 -0.20511794717E+02  0.14688121554E+03  0.14832875468E+03  0.00000000000E+00 0. -1.
          2    1    1    2  502    0 -0.25679296376E+01  0.20511794717E+02  0.72394386701E+03  0.72423894577E+03  0.00000000000E+00 0.  1.
</event>
<event>
 4    1  0.6210801E+003  0.2248300E+02  0.7546771E-02  0.1499094E+00
          2   -1    0    0  501    0  0.00000000000E+00  0.00000000000E+00  0.21448338790E+02  0.21448338790E+02  0.00000000000E+00 0.  1.
          2   -1    0    0  502    0 -0.00000000000E+00 -0.00000000000E+00 -0.10553289812E+03  0.10553289812E+03  0.00000000000E+00 0.  1.
          2    1    1    2  501    0 -0.11056905849E+02 -0.19576261522E+02 -0.97996225925E+02  0.10054225717E+03  0.00000000000E+00 0.  1.
          2    1    1    2  502    0  0.11056905849E+02  0.19576261522E+02  0.13911666593E+02  0.26438979737E+02  0.00000000000E+00 0.  1.
</event>
<event>
 4    1  0.6210801E+003  0.2229347E+02  0.7546771E-02  0.1501566E+00
          2   -1    0    0  501    0  0.00000000000E+00  0.00000000000E+00  0.12537758612E+04  0.12537758612E+04  0.00000000000E+00 0.  1.
          2   -1    0    0  502    0 -0.00000000000E+00 -0.00000000000E+00 -0.34836426292E+03  0.34836426292E+03  0.00000000000E+00 0.  1.
          2    1    1    2  501    0 -0.14278210195E+01 -0.22247699576E+02 -0.34790836674E+03  0.34862190187E+03  0.00000000000E+00 0.  1.
          2    1    1    2  502    0  0.14278210195E+01  0.22247699576E+02  0.12533199650E+04  0.12535182222E+04  0.00000000000E+00 0.  1.
</event>
<event>
 4    1  0.6210801E+003  0.4502184E+02  0.7546771E-02  0.1321330E+00
          2   -1    0    0  502    0  0.00000000000E+00  0.00000000000E+00  0.11032085741E+04  0.11032085741E+04  0.00000000000E+00 0.  1.
          2   -1    0    0  501    0 -0.00000000000E+00 -0.00000000000E+00 -0.22611422295E+01  0.22611422295E+01  0.00000000000E+00 0.  1.
          2    1    1    2  501    0 -0.27959964477E+02  0.35287484554E+02  0.31117743213E+03  0.31441749386E+03  0.00000000000E+00 0.  1.
          2    1    1    2  502    0  0.27959964477E+02 -0.35287484554E+02  0.78976999971E+03  0.79105222244E+03  0.00000000000E+00 0.  1.
</event>
<event>
 4    1  0.6210801E+003  0.2500725E+02  0.7546771E-02  0.1468722E+00
          2   -1    0    0  501    0  0.00000000000E+00  0.00000000000E+00  0.16479798619E+04  0.16479798619E+04  0.00000000000E+00 0.  1.
          2   -1    0    0  502    0 -0.00000000000E+00 -0.00000000000E+00 -0.29489249955E+02  0.29489249955E+02  0.00000000000E+00 0. -1.
          2    1    1    2  501    0  0.92103397492E+01 -0.23249352170E+02 -0.24075292423E+02  0.34712856982E+02  0.00000000000E+00 0. -1.
          2    1    1    2  502    0 -0.92103397492E+01  0.23249352170E+02  0.16425659044E+04  0.16427562549E+04  0.00000000000E+00 0.  1.
</event>
<event>
 4    1  0.6210801E+003  0.3447862E+02  0.7546771E-02  0.1384266E+00
          2   -1    0    0  501    0  0.00000000000E+00  0.00000000000E+00  0.16118291855E+02  0.16118291855E+02  0.00000000000E+00 0.  1.
          2   -1    0    0  502    0 -0.00000000000E+00 -0.00000000000E+00 -0.24969133126E+03  0.24969133126E+03  0.00000000000E+00 0.  1.
          2    1    1    2  501    0  0.33152870351E+02 -0.94690303194E+01 -0.22834920998E+03  0.23093751762E+03  0.00000000000E+00 0.  1.
          2    1    1    2  502    0 -0.33152870351E+02  0.94690303194E+01 -0.52238294272E+01  0.34872105494E+02  0.00000000000E+00 0.  1.
</event>
<event>
 4    1  0.6210801E+003  0.3252042E+02  0.7546771E-02  0.1398887E+00
          2   -1    0    0  502    0  0.00000000000E+00  0.00000000000E+00  0.21760003300E+03  0.21760003300E+03  0.00000000000E+00 0. -1.
          2   -1    0    0  501    0 -0.00000000000E+00 -0.00000000000E+00 -0.20651789256E+03  0.20651789256E+03  0.00000000000E+00 0. -1.
          2    1    1    2  501    0  0.34860604813E+01 -0.32333030816E+02  0.21508987986E+03  0.21753444306E+03  0.00000000000E+00 0. -1.
          2    1    1    2  502    0 -0.34860604813E+01  0.32333030816E+02 -0.20400773942E+03  0.20658348250E+03  0.00000000000E+00 0. -1.
</event>
<event>
 4    1  0.6210801E+003  0.2980962E+02  0.7546771E-02  0.1421258E+00
          2   -1    0    0  502    0  0.00000000000E+00  0.00000000000E+00  0.12067798568E+01  0.12067798568E+01  0.00000000000E+00 0.  1.
          2   -1    0    0  501    0 -0.00000000000E+00 -0.00000000000E+00 -0.74619215453E+03  0.74619215453E+03  0.00000000000E+00 0. -1.
          2    1    1    2  501    0 -0.11745485441E+02  0.27398117309E+02 -0.32957606442E+03  0.33092143403E+03  0.00000000000E+00 0.  1.
          2    1    1    2  502    0  0.11745485441E+02 -0.27398117309E+02 -0.41540931026E+03  0.41647750036E+03  0.00000000000E+00 0. -1.
</event>
<event>
 4    1  0.6210801E+003  0.2477735E+02  0.7546771E-02  0.1471310E+00
          2   -1    0    0  502    0  0.00000000000E+00  0.00000000000E+00  0.13194560128E+03  0.13194560128E+03  0.00000000000E+00 0. -1.
          2   -1    0    0  501    0 -0.00000000000E+00 -0.00000000000E+00 -0.19293744947E+02  0.19293744947E+02  0.00000000000E+00 0. -1.
          2    1    1    2  501    0  0.23380486837E+02  0.82018226211E+01  0.12219947068E+03  0.12468611669E+03  0.00000000000E+00 0. -1.
          2    1    1    2  502    0 -0.23380486837E+02 -0.82018226211E+01 -0.95476143534E+01  0.26553229538E+02  0.00000000000E+00 0. -1.
</event>
<event>
 4    1  0.6210801E+003  0.2088847E+02  0.7546771E-02  0.1520863E+00
          2   -1    0    0  502    0  0.00000000000E+00  0.00000000000E+00  0.70744059560E+01  0.70744059560E+01  0.00000000000E+00 0.  1.
          2   -1    0    0  501    0 -0.00000000000E+00 -0.00000000000E+00 -0.11307928641E+04  0.11307928641E+04  0.00000000000E+00 0.  1.
          2    1    1    2  501    0 -0.19803817293E+02  0.66435739669E+01 -0.86588567755E+01  0.22612033413E+02  0.00000000000E+00 0.  1.
          2    1    1    2  502    0  0.19803817293E+02 -0.66435739669E+01 -0.11150596013E+04  0.11152552366E+04  0.00000000000E+00 0.  1.
</event>
<event>
 4    1  0.6210801E+003  0.2513646E+02  0.7546771E-02  0.1467283E+00
          2   -1    0    0  502    0  0.00000000000E+00  0.00000000000E+00  0.13857304090E+02  0.13857304090E+02  0.00000000000E+00 0. -1.
          2   -1    0    0  501    0 -0.00000000000E+00 -0.00000000000E+00 -0.61958824848E+02  0.61958824848E+02  0.00000000000E+00 0. -1.
          2    1    1    2  501    0  0.24941416281E+02 -0.31252661064E+01 -0.45700211374E+01  0.25548515173E+02  0.00000000000E+00 0. -1.
          2    1    1    2  502    0 -0.24941416281E+02  0.31252661064E+01 -0.43531499620E+02  0.50267613764E+02  0.00000000000E+00 0. -1.
</event>
<event>
 4    1  0.6210801E+003  0.2299647E+02  0.7546771E-02  0.1492543E+00
          2   -1    0    0  501    0  0.00000000000E+00  0.00000000000E+00  0.11321109444E+04  0.11321109444E+04  0.00000000000E+00 0. -1.
          2   -1    0    0  502    0 -0.00000000000E+00 -0.00000000000E+00 -0.45372201340E+01  0.45372201340E+01  0.00000000000E+00 0.  1.
          2    1    1    2  501    0  0.18767788945E+02 -0.13289379529E+02  0.25512858752E+02  0.34347393960E+02  0.00000000000E+00 0.  1.
          2    1    1    2  502    0 -0.18767788945E+02  0.13289379529E+02  0.11020608655E+04  0.11023007706E+04  0.00000000000E+00 0. -1.
</event>
<event>
 4    1  0.6210801E+003  0.5005056E+02  0.7546771E-02  0.1297953E+00
          2   -1    0    0  501    0  0.00000000000E+00  0.00000000000E+00  0.13350763580E+04  0.13350763580E+04  0.00000000000E+00 0. -1.
          2   -1    0    0  502    0 -0.00000000000E+00 -0.00000000000E+00 -0.24114448919E+02  0.24114448919E+02  0.00000000000E+00 0.  1.
          2    1    1    2  501    0 -0.25899341083E+02 -0.42828530084E+02  0.28605078022E+01  0.50132238755E+02  0.00000000000E+00 0.  1.
          2    1    1    2  502    0  0.25899341083E+02  0.42828530084E+02  0.13081014013E+04  0.13090585682E+04  0.00000000000E+00 0. -1.
</event>
<event>
 4    1  0.6210801E+003  0.2648303E+02  0.7546771E-02  0.1452871E+00
          2   -1    0    0  501    0  0.00000000000E+00  0.00000000000E+00  0.10341178850E+04  0.10341178850E+04  0.00000000000E+00 0. -1.
          2   -1    0    0  502    0 -0.00000000000E+00 -0.00000000000E+00 -0.22019278051E+01  0.22019278051E+01  0.00000000000E+00 0.  1.
          2    1    1    2  501    0 -0.25747258698E+02  0.61991654328E+01  0.84921249613E+02  0.88954874057E+02  0.00000000000E+00 0.  1.
          2    1    1    2  502    0  0.25747258698E+02 -0.61991654328E+01  0.94699470756E+03  0.94736493873E+03  0.00000000000E+00 0. -1.
</event>
<event>
 4    1  0.6210801E+003  0.3401802E+02  0.7546771E-02  0.1387601E+00
          2   -1    0    0  502    0  0.00000000000E+00  0.00000000000E+00  0.31809593804E+03  0.31809593804E+03  0.00000000000E+00 0. -1.
          2   -1    0    0  501    0 -0.00000000000E+00 -0.00000000000E+00 -0.20823567044E+03  0.20823567044E+03  0.00000000000E+00 0.  1.
          2    1    1    2  501    0 -0.15437726468E+02  0.30313402177E+02  0.31578699254E+03  0.31761399592E+03  0.00000000000E+00 0. -1.
          2    1    1    2  502    0  0.15437726468E+02 -0.30313402177E+02 -0.20592672494E+03  0.20871761256E+03  0.00000000000E+00 0.  1.
</event>
<event>
 4    1  0.6210801E+003  0.2100163E+02  0.7546771E-02  0.1519242E+00
          2   -1    0    0  501    0  0.00000000000E+00  0.00000000000E+00  0.60841250834E+02  0.60841250834E+02  0.00000000000E+00 0. -1.
          2   -1    0    0  502    0 -0.00000000000E+00 -0.00000000000E+00 -0.10768345719E+02  0.10768345719E+02  0.00000000000E+00 0. -1.
          2    1    1    2  501    0 -0.21000052970E+02 -0.25727371992E+00  0.45688447822E+01  0.21492853630E+02  0.00000000000E+00 0. -1.
          2    1    1    2  502    0  0.21000052970E+02  0.25727371992E+00  0.45504060333E+02  0.50116742924E+02  0.00000000000E+00 0. -1.
</event>
<event>
 4    1  0.6210801E+003  0.2070050E+02  0.7546771E-02  0.1523584E+00
          2   -1    0    0  501    0  0.00000000000E+00  0.00000000000E+00  0.39390483710E+03  0.39390483710E+03  0.00000000000E+00 0. -1.
          2   -1    0    0  502    0 -0.00000000000E+00 -0.00000000000E+00 -0.10961537380E+01  0.10961537380E+01  0.00000000000E+00 0.  1.
          2    1    1    2  501    0  0.20700151810E+02 -0.11970198221E+00  0.17921785248E+03  0.18040939350E+03  0.00000000000E+00 0.  1.
          2    1    1    2  502    0 -0.20700151810E+02  0.11970198221E+00  0.21359083088E+03  0.21459159734E+03  0.00000000000E+00 0. -1.
</event>
<event>
 4    1  0.6210801E+003  0.2684758E+02  0.7546771E-02  0.1449145E+00
          2   -1    0    0  501    0  0.00000000000E+00  0.00000000000E+00  0.22498666821E+03  0.22498666821E+03  0.00000000000E+00 0. -1.
          2   -1    0    0  502    0 -0.00000000000E+00 -0.00000000000E+00 -0.32376045600E+01  0.32376045600E+01  0.00000000000E+00 0.  1.
          2    1    1    2  501    0 -0.26397911714E+02 -0.48931219331E+01  0.99199042995E+02  0.10276790606E+03  0.00000000000E+00 0. -1.
          2    1    1    2  502    0  0.26397911714E+02  0.48931219331E+01  0.12255002065E+03  0.12545636671E+03  0.00000000000E+00 0.  1.
</event>
<event>
 4    1  0.6210801E+003  0.2058561E+02  0.7546771E-02  0.1525264E+00
          2   -1    0    0  502    0  0.00000000000E+00  0.00000000000E+00  0.11165212877E+02  0.11165212877E+02  0.00000000000E+00 0.  1.
          2   -1    0    0  501    0 -0.00000000000E+00 -0.00000000000E+00 -0.14235565090E+03  0.14235565090E+03  0.00000000000E+00 0. -1.
          2    1    1    2  501    0 -0.12365996005E+02  0.16457506419E+02  0.14076971980E+00  0.20586092171E+02  0.00000000000E+00 0.  1.
          2    1    1    2  502    0  0.12365996005E+02 -0.16457506419E+02 -0.13133120774E+03  0.13293477160E+03  0.00000000000E+00 0. -1.
</event>
<event>
 4    1  0.6210801E+003  0.2337294E+02  0.7546771E-02  0.1487867E+00
          2   -1    0    0  501    0  0.00000000000E+00  0.00000000000E+00  0.25886902281E+04  0.25886902281E+04  0.00000000000E+00 0.  1.
          2   -1    0    0  502    0 -0.00000000000E+00 -0.00000000000E+00 -0.22193141429E+00  0.22193141429E+00  0.00000000000E+00 0. -1.
          2    1    1    2  501    0  0.22635986251E+02  0.58229332542E+01  0.15811108595E+04  0.15812836066E+04  0.00000000000E+00 0.  1.
          2    1    1    2  502    0 -0.22635986251E+02 -0.58229332542E+01  0.10073574372E+04  0.10076285529E+04  0.00000000000E+00 0. -1.
</event>
<event>
 4    1  0.6210801E+003  0.2997847E+02  0.7546771E-02  0.1419784E+00
          2   -1    0    0  502    0  0.00000000000E+00  0.00000000000E+00  0.38668835945E+01  0.38668835945E+01  0.00000000000E+00 0.  1.
          2   -1    0    0  501    0 -0.00000000000E+00 -0.00000000000E+00 -0.31895652654E+03  0.31895652654E+03  0.00000000000E+00 0. -1.
          2    1    1    2  501    0  0.29734461361E+02 -0.38171349401E+01 -0.73465341854E+02  0.79346488046E+02  0.00000000000E+00 0.  1.
          2    1    1    2  502    0 -0.29734461361E+02  0.38171349401E+01 -0.24162430109E+03  0.24347692209E+03  0.00000000000E+00 0. -1.
</event>
<event>
 4    1  0.6210801E+003  0.2042458E+02  0.7546771E-02  0.1527641E+00
          2   -1    0    0  502    0  0.00000000000E+00  0.00000000000E+00  0.30324777038E+03  0.30324777038E+03  0.00000000000E+00 0. -1.
          2   -1    0    0  501    0 -0.00000000000E+00 -0.00000000000E+00 -0.30997330756E+02  0.30997330756E+02  0.00000000000E+00 0. -1.
          2    1    1    2  501    0  0.20193449756E+00 -0.20423579780E+02  0.29949726301E+03  0.30019289456E+03  0.00000000000E+00 0. -1.
          2    1    1    2  502    0 -0.20193449756E+00  0.20423579780E+02 -0.27246823387E+02  0.34052206584E+02  0.00000000000E+00 0. -1.
</event>
<event>
 4    1  0.6210801E+003  0.2118888E+02  0.7546771E-02  0.1516585E+00
          2   -1    0    0  501    0  0.00000000000E+00  0.00000000000E+00  0.16386066636E+02  0.16386066636E+02  0.00000000000E+00 0. -1.
          2   -1    0    0  502    0 -0.00000000000E+00 -0.00000000000E+00 -0.60999518299E+02  0.60999518299E+02  0.00000000000E+00 0.  1.
          2    1    1    2  501    0  0.17105233979E+02  0.12505179216E+02 -0.51023603509E+02  0.55248318090E+02  0.00000000000E+00 0.  1.
          2    1    1    2  502    0 -0.17105233979E+02 -0.12505179216E+02  0.64101518464E+01  0.22137266846E+02  0.00000000000E+00 0. -1.
</event>
<event>
 4    1  0.6210801E+003  0.2944359E+02  0.7546771E-02  0.1424494E+00
          2   -1    0    0  501    0  0.00000000000E+00  0.00000000000E+00  0.13654367491E+02  0.13654367491E+02  0.00000000000E+00 0. -1.
          2   -1    0    0  502    0 -0.00000000000E+00 -0.00000000000E+00 -0.63882864447E+02  0.63882864447E+02  0.00000000000E+00 0. -1.
          2    1    1    2  501    0  0.27069092762E+02 -0.11584009973E+02 -0.22076627583E+02  0.36800849928E+02  0.00000000000E+00 0. -1.
          2    1    1    2  502    0 -0.27069092762E+02  0.11584009973E+02 -0.28151869374E+02  0.40736382010E+02  0.00000000000E+00 0. -1.
</event>
<event>
 4    1  0.6210801E+003  0.2322572E+02  0.7546771E-02  0.1489683E+00
          2   -1    0    0  502    0  0.00000000000E+00  0.00000000000E+00  0.19829112935E+02  0.19829112935E+02  0.00000000000E+00 0.  1.
          2   -1    0    0  501    0 -0.00000000000E+00 -0.00000000000E+00 -0.11338503562E+04  0.11338503562E+04  0.00000000000E+00 0.  1.
          2    1    1    2  501    0 -0.64089500825E+01 -0.22323962418E+02  0.12867126979E+02  0.26551777641E+02  0.00000000000E+00 0.  1.
          2    1    1    2  502    0  0.64089500825E+01  0.22323962418E+02 -0.11268883702E+04  0.11271276915E+04  0.00000000000E+00 0.  1.
</event>
<event>
 4    1  0.6210801E+003  0.3756358E+02  0.7546771E-02  0.1363387E+00
          2   -1    0    0  502    0  0.00000000000E+00  0.00000000000E+00  0.27305980825E+04  0.27305980825E+04  0.00000000000E+00 0.  1.
          2   -1    0    0  501    0 -0.00000000000E+00 -0.00000000000E+00 -0.10137796991E+01  0.10137796991E+01  0.00000000000E+00 0.  1.
          2    1    1    2  501    0  0.17092414278E+01  0.37524667947E+02  0.23211285046E+04  0.23214324364E+04  0.00000000000E+00 0.  1.
          2    1    1    2  502    0 -0.17092414278E+01 -0.37524667947E+02  0.40845579827E+03  0.41017942580E+03  0.00000000000E+00 0.  1.
</event>
<event>
 4    1  0.6210801E+003  0.2993089E+02  0.7546771E-02  0.1420198E+00
          2   -1    0    0  501    0  0.00000000000E+00  0.00000000000E+00  0.14089241214E+02  0.14089241214E+02  0.00000000000E+00 0. -1.
          2   -1    0    0  502    0 -0.00000000000E+00 -0.00000000000E+00 -0.90156604472E+02  0.90156604472E+02  0.00000000000E+00 0.  1.
          2    1    1    2  501    0 -0.87377841386E+01 -0.28627071333E+02 -0.66330821527E+02  0.72771120434E+02  0.00000000000E+00 0.  1.
          2    1    1    2  502    0  0.87377841386E+01  0.28627071333E+02 -0.97365417318E+01  0.31474725252E+02  0.00000000000E+00 0. -1.
</event>
<event>
 4    1  0.6210801E+003  0.4020393E+02  0.7546771E-02  0.1347295E+00
          2   -1    0    0  502    0  0.00000000000E+00  0.00000000000E+00  0.10376194252E+01  0.10376194252E+01  0.00000000000E+00 0.  1.
          2   -1    0    0  501    0 -0.00000000000E+00 -0.00000000000E+00 -0.16021904812E+04  0.16021904812E+04  0.00000000000E+00 0.  1.
          2    1    1    2  501    0  0.40126165474E+02  0.24993968107E+01 -0.93407497316E+03  0.93493979038E+03  0.00000000000E+00 0.  1.
          2    1    1    2  502    0 -0.40126165474E+02 -0.24993968107E+01 -0.66707788864E+03  0.66828831028E+03  0.00000000000E+00 0.  1.
</event>
<event>
 4    1  0.6210801E+003  0.2210606E+02  0.7546771E-02  0.1504039E+00
          2   -1    0    0  502    0  0.00000000000E+00  0.00000000000E+00  0.25164654681E+02  0.25164654681E+02  0.00000000000E+00 0.  1.
          2   -1    0    0  501    0 -0.00000000000E+00 -0.00000000000E+00 -0.20094017891E+02  0.20094017891E+02  0.00000000000E+00 0.  1.
          2    1    1    2  501    0 -0.21921568723E+02  0.28500732506E+01  0.66822192678E+01  0.23093941784E+02  0.00000000000E+00 0.  1.
          2    1    1    2  502    0  0.21921568723E+02 -0.28500732506E+01 -0.16115824778E+01  0.22164730787E+02  0.00000000000E+00 0.  1.
</event>
<event>
 4    1  0.6210801E+003  0.2290757E+02  0.7546771E-02  0.1493662E+00
          2   -1    0    0  501    0  0.00000000000E+00  0.00000000000E+00  0.67951152223E+03  0.67951152223E+03  0.00000000000E+00 0.  1.
          2   -1    0    0  502    0 -0.00000000000E+00 -0.00000000000E+00 -0.12862028403E+02  0.12862028403E+02  0.00000000000E+00 0. -1.
          2    1    1    2  501    0  0.21517667200E+02  0.78579248161E+01 -0.23083654612E+01  0.23023586498E+02  0.00000000000E+00 0. -1.
          2    1    1    2  502    0 -0.21517667200E+02 -0.78579248161E+01  0.66895785929E+03  0.66934996414E+03  0.00000000000E+00 0.  1.
</event>
<event>
 4    1  0.6210801E+003  0.3214718E+02  0.7546771E-02  0.1401811E+00
          2   -1    0    0  501    0  0.00000000000E+00  0.00000000000E+00  0.70361513175E+02  0.70361513175E+02  0.00000000000E+00 0. -1.
          2   -1    0    0  502    0 -0.00000000000E+00 -0.00000000000E+00 -0.20990744462E+03  0.20990744462E+03  0.00000000000E+00 0. -1.
          2    1    1    2  501    0  0.19230148412E+02 -0.25761255572E+02 -0.20491581687E+03  0.20742211285E+03  0.00000000000E+00 0. -1.
          2    1    1    2  502    0 -0.19230148412E+02  0.25761255572E+02  0.65369885429E+02  0.72846844939E+02  0.00000000000E+00 0. -1.
</event>
<event>
 4    1  0.6210801E+003  0.2694139E+02  0.7546771E-02  0.1448198E+00
          2   -1    0    0  502    0  0.00000000000E+00  0.00000000000E+00  0.10566568091E+04  0.10566568091E+04  0.00000000000E+00 0. -1.
          2   -1    0    0  501    0 -0.00000000000E+00 -0.00000000000E+00 -0.25747478572E+01  0.25747478572E+01  0.00000000000E+00 0. -1.
          2    1    1    2  501    0  0.19438865101E+02  0.18653929155E+02  0.98053840153E+03  0.98090845415E+03  0.00000000000E+00 0. -1.
          2    1    1    2  502    0 -0.19438865101E+02 -0.18653929155E+02  0.73543659717E+02  0.78323102811E+02  0.00000000000E+00 0. -1.
</event>
<event>
 4    1  0.6210801E+003  0.2177158E+02  0.7546771E-02  0.1508528E+00
          2   -1    0    0  502    0  0.00000000000E+00  0.00000000000E+00  0.82348188734E+02  0.82348188734E+02  0.00000000000E+00 0.  1.
          2   -1    0    0  501    0 -0.00000000000E+00 -0.00000000000E+00 -0.29598071317E+02  0.29598071317E+02  0.00000000000E+00 0. -1.
          2    1    1    2  501    0  0.15679274441E+02  0.15105040640E+02  0.76611543798E+02  0.79645028362E+02  0.00000000000E+00 0.  1.
          2    1    1    2  502    0 -0.15679274441E+02 -0.15105040640E+02 -0.23861426381E+02  0.32301231689E+02  0.00000000000E+00 0. -1.
</event>
<event>
 4    1  0.6210801E+003  0.2568105E+02  0.7546771E-02  0.1461327E+00
          2   -1    0    0  501    0  0.00000000000E+00  0.00000000000E+00  0.65852291368E+02  0.65852291368E+02  0.00000000000E+00 0.  1.
          2   -1    0    0  502    0 -0.00000000000E+00 -0.00000000000E+00 -0.11454768842E+04  0.11454768842E+04  0.00000000000E+00 0. -1.
          2    1    1    2  501    0  0.13991750085E+02  0.21534789314E+02 -0.11428233612E+04  0.11431118717E+04  0.00000000000E+00 0. -1.
          2    1    1    2  502    0 -0.13991750085E+02 -0.21534789314E+02  0.63198768400E+02  0.68217303879E+02  0.00000000000E+00 0.  1.
</event>
<event>
 4    1  0.6210801E+003  0.2011744E+02  0.7546771E-02  0.1532248E+00
          2   -1    0    0  502    0  0.00000000000E+00  0.00000000000E+00  0.14572039638E+02  0.14572039638E+02  0.00000000000E+00 0. -1.
          2   -1    0    0  501    0 -0.00000000000E+00 -0.00000000000E+00 -0.12723507751E+04  0.12723507751E+04  0.00000000000E+00 0.  1.
          2    1    1    2  501    0  0.18790231144E+02 -0.71859996148E+01  0.75104849660E+01  0.21473676009E+02  0.00000000000E+00 0. -1.
          2    1    1    2  502    0 -0.18790231144E+02  0.71859996148E+01 -0.12652892204E+04  0.12654491387E+04  0.00000000000E+00 0.  1.
</event>
<event>
 4    1  0.6210801E+003  0.2742479E+02  0.7546771E-02  0.1443387E+00
          2   -1    0    0  502    0  0.00000000000E+00  0.00000000000E+00  0.20664827148E+03  0.20664827148E+03  0.00000000000E+00 0.  1.
          2   -1    0    0  501    0 -0.00000000000E+00 -0.00000000000E+00 -0.50198657620E+03  0.50198657620E+03  0.00000000000E+00 0. -1.
          2    1    1    2  501    0  0.48575516142E+01  0.26991175556E+02  0.20536146051E+03  0.20718457671E+03  0.00000000000E+00 0.  1.
          2    1    1    2  502    0 -0.48575516142E+01 -0.26991175556E+02 -0.50069976522E+03  0.50145027097E+03  0.00000000000E+00 0. -1.
</event>
<event>
 4    1  0.6210801E+003  0.2364817E+02  0.7546771E-02  0.1484516E+00
          2   -1    0    0  502    0  0.00000000000E+00  0.00000000000E+00  0.16824248318E+04  0.16824248318E+04  0.00000000000E+00 0. -1.
          2   -1    0    0  501    0 -0.00000000000E+00 -0.00000000000E+00 -0.36716304629E+00  0.36716304629E+00  0.00000000000E+00 0.  1.
          2    1    1    2  501    0 -0.20841909526E+02 -0.11173660452E+02  0.10999322584E+04  0.11001864428E+04  0.00000000000E+00 0. -1.
          2    1    1    2  502    0  0.20841909526E+02  0.11173660452E+02  0.58212541036E+03  0.58260555204E+03  0.00000000000E+00 0.  1.
</event>
<event>
 4    1  0.6210801E+003  0.2703216E+02  0.7546771E-02  0.1447285E+00
          2   -1    0    0  501    0  0.00000000000E+00  0.00000000000E+00  0.11041280637E+04  0.11041280637E+04  0.00000000000E+00 0.  1.
          2   -1    0    0  502    0 -0.00000000000E+00 -0.00000000000E+00 -0.17338342305E+01  0.17338342305E+01  0.00000000000E+00 0. -1.
          2    1    1    2  501    0  0.42271739008E-01  0.27032129579E+02  0.11641998184E+03  0.11951715353E+03  0.00000000000E+00 0. -1.
          2    1    1    2  502    0 -0.42271739008E-01 -0.27032129579E+02  0.98597424759E+03  0.98634474436E+03  0.00000000000E+00 0.  1.
</event>
<event>
 4    1  0.6210801E+003  0.4409359E+02  0.7546771E-02  0.1326034E+00
          2   -1    0    0  502    0  0.00000000000E+00  0.00000000000E+00  0.59670072231E+03  0.59670072231E+03  0.00000000000E+00 0. -1.
          2   -1    0    0  501    0 -0.00000000000E+00 -0.00000000000E+00 -0.20879669310E+02  0.20879669310E+02  0.00000000000E+00 0. -1.
          2    1    1    2  501    0 -0.96843857468E+01  0.43016941348E+02  0.57158562859E+03  0.57328385237E+03  0.00000000000E+00 0. -1.
          2    1    1    2  502    0  0.96843857468E+01 -0.43016941348E+02  0.42354244099E+01  0.44296539257E+02  0.00000000000E+00 0. -1.
</event>
<event>
 4    1  0.6210801E+003  0.3143070E+02  0.7546771E-02  0.1407558E+00
          2   -1    0    0  501    0  0.00000000000E+00  0.00000000000E+00  0.53295825222E+01  0.53295825222E+01  0.00000000000E+00 0.  1.
          2   -1    0    0  502    0 -0.00000000000E+00 -0.00000000000E+00 -0.14964203781E+04  0.14964203781E+04  0.00000000000E+00 0.  1.
          2    1    1    2  501    0  0.31394769211E+02 -0.15024691508E+01 -0.14483785679E+04  0.14487195605E+04  0.00000000000E+00 0.  1.
          2    1    1    2  502    0 -0.31394769211E+02  0.15024691508E+01 -0.42712227709E+02  0.53030400180E+02  0.00000000000E+00 0.  1.
</event>
<event>
 4    1  0.6210801E+003  0.2360983E+02  0.7546771E-02  0.1484979E+00
          2   -1    0    0  501    0  0.00000000000E+00  0.00000000000E+00  0.10149756327E+04  0.10149756327E+04  0.00000000000E+00 0. -1.
          2   -1    0    0  502    0 -0.00000000000E+00 -0.00000000000E+00 -0.58807516772E+01  0.58807516772E+01  0.00000000000E+00 0. -1.
          2    1    1    2  501    0 -0.20128195539E+02  0.12340172489E+02  0.18537597775E+02  0.30017772136E+02  0.00000000000E+00 0. -1.
          2    1    1    2  502    0  0.20128195539E+02 -0.12340172489E+02  0.99055728328E+03  0.99083861227E+03  0.00000000000E+00 0. -1.
</event>
<event>
 4    1  0.6210801E+003  0.3185214E+02  0.7546771E-02  0.1404156E+00
          2   -1    0    0  501    0  0.00000000000E+00  0.00000000000E+00  0.18505320148E+04  0.18505320148E+04  0.00000000000E+00 0.  1.
          2   -1    0    0  502    0 -0.00000000000E+00 -0.00000000000E+00 -0.20673292910E+02  0.20673292910E+02  0.00000000000E+00 0. -1.
          2    1    1    2  501    0  0.23950404364E+02 -0.20998499565E+02 -0.81839136642E+01  0.32886703940E+02  0.00000000000E+00 0. -1.
          2    1    1    2  502    0 -0.23950404364E+02  0.20998499565E+02  0.18380426356E+04  0.18383186038E+04  0.00000000000E+00 0.  1.
</event>
<event>
 4    1  0.6210801E+003  0.2125853E+02  0.7546771E-02  0.1515605E+00
          2   -1    0    0  502    0  0.00000000000E+00  0.00000000000E+00  0.11772799249E+02  0.11772799249E+02  0.00000000000E+00 0.  1.
          2   -1    0    0  501    0 -0.00000000000E+00 -0.00000000000E+00 -0.73375854330E+02  0.73375854330E+02  0.00000000000E+00 0.  1.
          2    1    1    2  501    0  0.15693352407E+02  0.14340292460E+02 -0.14023919553E+01  0.21304741275E+02  0.00000000000E+00 0.  1.
          2    1    1    2  502    0 -0.15693352407E+02 -0.14340292460E+02 -0.60200663125E+02  0.63843912304E+02  0.00000000000E+00 0.  1.
</event>
<event>
 4    1  0.6210801E+003  0.2761336E+02  0.7546771E-02  0.1441542E+00
          2   -1    0    0  502    0  0.00000000000E+00  0.00000000000E+00  0.10124493266E+04  0.10124493266E+04  0.00000000000E+00 0. -1.
          2   -1    0    0  501    0 -0.00000000000E+00 -0.00000000000E+00 -0.32157652510E+01  0.32157652510E+01  0.00000000000E+00 0. -1.
          2    1    1    2  501    0 -0.26508883485E+02  0.77315513926E+01  0.94902196736E+03  0.94942361058E+03  0.00000000000E+00 0. -1.
          2    1    1    2  502    0  0.26508883485E+02 -0.77315513926E+01  0.60211593985E+02  0.66241481269E+02  0.00000000000E+00 0. -1.
</event>
<event>
 4    1  0.6210801E+003  0.2745155E+02  0.7546771E-02  0.1443124E+00
          2   -1    0    0  501    0  0.00000000000E+00  0.00000000000E+00  0.21600596186E+03  0.21600596186E+03  0.00000000000E+00 0.  1.
          2   -1    0    0  502    0 -0.00000000000E+00 -0.00000000000E+00 -0.51260880182E+03  0.51260880182E+03  0.00000000000E+00 0. -1.
          2    1    1    2  501    0 -0.24533588332E+02 -0.12316274842E+02 -0.51136697584E+03  0.51210328213E+03  0.00000000000E+00 0. -1.
          2    1    1    2  502    0  0.24533588332E+02  0.12316274842E+02  0.21476413588E+03  0.21651148155E+03  0.00000000000E+00 0.  1.
</event>
<event>
 4    1  0.6210801E+003  0.3077621E+02  0.7546771E-02  0.1412969E+00
          2   -1    0    0  501    0  0.00000000000E+00  0.00000000000E+00  0.51042980376E+03  0.51042980376E+03  0.00000000000E+00 0. -1.
          2   -1    0    0  502    0 -0.00000000000E+00 -0.00000000000E+00 -0.25895957015E+02  0.25895957015E+02  0.00000000000E+00 0. -1.
          2    1    1    2  501    0  0.26270375889E+02  0.16032539860E+02 -0.16109425036E+02  0.34737423029E+02  0.00000000000E+00 0. -1.
          2    1    1    2  502    0 -0.26270375889E+02 -0.16032539860E+02  0.50064327178E+03  0.50158833775E+03  0.00000000000E+00 0. -1.
</event>
<event>
 4    1  0.6210801E+003  0.3382550E+02  0.7546771E-02  0.1389014E+00
          2   -1    0    0  502    0  0.00000000000E+00  0.00000000000E+00  0.20045581639E+01  0.20045581639E+01  0.00000000000E+00 0.  1.
          2   -1    0    0  501    0 -0.00000000000E+00 -0.00000000000E+00 -0.81991528460E+03  0.81991528460E+03  0.00000000000E+00 0.  1.
          2    1    1    2  501    0 -0.19859323957E+02 -0.27381958176E+02 -0.18242238411E+03  0.18553191263E+03  0.00000000000E+00 0.  1.
          2    1    1    2  502    0  0.19859323957E+02  0.27381958176E+02 -0.63548834233E+03  0.63638793014E+03  0.00000000000E+00 0.  1.
</event>
<event>
 4    1  0.6210801E+003  0.2473874E+02  0.7546771E-02  0.1471747E+00
          2   -1    0    0  502    0  0.00000000000E+00  0.00000000000E+00  0.24374379907E+01  0.24374379907E+01  0.00000000000E+00 0. -1.
          2   -1    0    0  501    0 -0.00000000000E+00 -0.00000000000E+00 -0.59686325083E+03  0.59686325083E+03  0.00000000000E+00 0.  1.
          2    1    1    2  501    0 -0.24249559789E+02  0.48952971593E+01 -0.69138817459E+02  0.73431472571E+02  0.00000000000E+00 0. -1.
          2    1    1    2  502    0  0.24249559789E+02 -0.48952971593E+01 -0.52528699538E+03  0.52586921625E+03  0.00000000000E+00 0.  1.
</event>
<event>
 4    1  0.6210801E+003  0.2036485E+02  0.7546771E-02  0.1528529E+00
          2   -1    0    0  501    0  0.00000000000E+00  0.00000000000E+00  0.92692652183E+03  0.92692652183E+03  0.00000000000E+00 0. -1.
          2   -1    0    0  502    0 -0.00000000000E+00 -0.00000000000E+00 -0.30482433938E+02  0.30482433938E+02  0.00000000000E+00 0. -1.
          2    1    1    2  501    0 -0.19725219718E+02 -0.50638698440E+01 -0.26956230063E+02  0.33784099957E+02  0.00000000000E+00 0. -1.
          2    1    1    2  502    0  0.19725219718E+02  0.50638698440E+01  0.92340031795E+03  0.92362485581E+03  0.00000000000E+00 0. -1.
</event>
<event>
 4    1  0.6210801E+003  0.4599201E+02  0.7546771E-02  0.1316552E+00
          2   -1    0    0  502    0  0.00000000000E+00  0.00000000000E+00  0.13134957697E+02  0.13134957697E+02  0.00000000000E+00 0. -1.
          2   -1    0    0  501    0 -0.00000000000E+00 -0.00000000000E+00 -0.24201916397E+04  0.24201916397E+04  0.00000000000E+00 0.  1.
          2    1    1    2  501    0  0.20254543712E+02  0.41291867531E+02 -0.28040508206E+02  0.53865897984E+02  0.00000000000E+00 0. -1.
          2    1    1    2  502    0 -0.20254543712E+02 -0.41291867531E+02 -0.23790161738E+04  0.23794606994E+04  0.00000000000E+00 0.  1.
</event>
<event>
 4    1  0.6210801E+003  0.2879780E+02  0.7546771E-02  0.1430339E+00
          2   -1    0    0  501    0  0.00000000000E+00  0.00000000000E+00  0.50976672116E+01  0.50976672116E+01  0.00000000000E+00 0.  1.
          2   -1    0    0  502    0 -0.00000000000E+00 -0.00000000000E+00 -0.16316883733E+03  0.16316883733E+03  0.00000000000E+00 0. -1.
          2    1    1    2  501    0  0.93566624730E+01  0.27235385139E+02 -0.83617598151E+02  0.88437639367E+02  0.00000000000E+00 0.  1.
          2    1    1    2  502    0 -0.93566624730E+01 -0.27235385139E+02 -0.74453571968E+02  0.79828865175E+02  0.00000000000E+00 0. -1.
</event>
<event>
 4    1  0.6210801E+003  0.2389200E+02  0.7546771E-02  0.1481591E+00
          2   -1    0    0  502    0  0.00000000000E+00  0.00000000000E+00  0.24435853409E+03  0.24435853409E+03  0.00000000000E+00 0.  1.
          2   -1    0    0  501    0 -0.00000000000E+00 -0.00000000000E+00 -0.14288418482E+03  0.14288418482E+03  0.00000000000E+00 0. -1.
          2    1    1    2  501    0  0.17047038215E+02  0.16739957873E+02  0.24276924574E+03  0.24394207177E+03  0.00000000000E+00 0.  1.
          2    1    1    2  502    0 -0.17047038215E+02 -0.16739957873E+02 -0.14129489647E+03  0.14330064714E+03  0.00000000000E+00 0. -1.
</event>
<event>
 4    1  0.6210801E+003  0.2265208E+02  0.7546771E-02  0.1496914E+00
          2   -1    0    0  501    0  0.00000000000E+00  0.00000000000E+00  0.12887421309E+04  0.12887421309E+04  0.00000000000E+00 0.  1.
          2   -1    0    0  502    0 -0.00000000000E+00 -0.00000000000E+00 -0.67254959198E+01  0.67254959198E+01  0.00000000000E+00 0.  1.
          2    1    1    2  501    0  0.41229998825E+01  0.22273695207E+02  0.12740091606E+02  0.25988969975E+02  0.00000000000E+00 0.  1.
          2    1    1    2  502    0 -0.41229998825E+01 -0.22273695207E+02  0.12692765433E+04  0.12694786568E+04  0.00000000000E+00 0.  1.
</event>
<event>
 4    1  0.6210801E+003  0.2076798E+02  0.7546771E-02  0.1522603E+00
          2   -1    0    0  502    0  0.00000000000E+00  0.00000000000E+00  0.13152438203E+04  0.13152438203E+04  0.00000000000E+00 0.  1.
          2   -1    0    0  501    0 -0.00000000000E+00 -0.00000000000E+00 -0.12519839227E+03  0.12519839227E+03  0.00000000000E+00 0.  1.
          2    1    1    2  501    0 -0.16063116379E+02  0.13163785779E+02  0.13142999681E+04  0.13144640410E+04  0.00000000000E+00 0.  1.
          2    1    1    2  502    0  0.16063116379E+02 -0.13163785779E+02 -0.12425454011E+03  0.12597817153E+03  0.00000000000E+00 0.  1.
</event>
<event>
 4    1  0.6210801E+003  0.3550622E+02  0.7546771E-02  0.1377039E+00
          2   -1    0    0  502    0  0.00000000000E+00  0.00000000000E+00  0.10528965536E+04  0.10528965536E+04  0.00000000000E+00 0. -1.
          2   -1    0    0  501    0 -0.00000000000E+00 -0.00000000000E+00 -0.43831421116E+02  0.43831421116E+02  0.00000000000E+00 0.  1.
          2    1    1    2  501    0  0.12885726015E+02  0.33085495678E+02  0.10453547807E+04  0.10459576041E+04  0.00000000000E+00 0. -1.
          2    1    1    2  502    0 -0.12885726015E+02 -0.33085495678E+02 -0.36289648272E+02  0.50770370600E+02  0.00000000000E+00 0.  1.
</event>
<event>
 4    1  0.6210801E+003  0.4525550E+02  0.7546771E-02  0.1320167E+00
          2   -1    0    0  502    0  0.00000000000E+00  0.00000000000E+00  0.80186032161E+03  0.80186032161E+03  0.00000000000E+00 0. -1.
          2   -1    0    0  501    0 -0.00000000000E+00 -0.00000000000E+00 -0.11134882766E+02  0.11134882766E+02  0.00000000000E+00 0. -1.
          2    1    1    2  501    0  0.15956995397E+02  0.42348956945E+02  0.75220616227E+03  0.75356630127E+03  0.00000000000E+00 0. -1.
          2    1    1    2  502    0 -0.15956995397E+02 -0.42348956945E+02  0.38519276577E+02  0.59428903106E+02  0.00000000000E+00 0. -1.
</event>
<event>
 4    1  0.6210801E+003  0.2308893E+02  0.7546771E-02  0.1491385E+00
          2   -1    0    0  501    0  0.00000000000E+00  0.00000000000E+00  0.38358466818E+01  0.38358466818E+01  0.00000000000E+00 0.  1.
          2   -1    0    0  502    0 -0.00000000000E+00 -0.00000000000E+00 -0.34292107962E+03  0.34292107962E+03  0.00000000000E+00 0. -1.
          2    1    1    2  501    0 -0.18353685309E+02  0.14008594351E+02 -0.30324910841E+03  0.30412681604E+03  0.00000000000E+00 0. -1.
          2    1    1    2  502    0  0.18353685309E+02 -0.14008594351E+02 -0.35836124526E+02  0.42630110264E+02  0.00000000000E+00 0.  1.
</event>
<event>
 4    1  0.6210801E+003  0.2171304E+02  0.7546771E-02  0.1509323E+00
          2   -1    0    0  502    0  0.00000000000E+00  0.00000000000E+00  0.51757507382E+01  0.51757507382E+01  0.00000000000E+00 0.  1.
          2   -1    0    0  501    0 -0.00000000000E+00 -0.00000000000E+00 -0.77873449651E+03  0.77873449651E+03  0.00000000000E+00 0. -1.
          2    1    1    2  501    0 -0.14860789645E+02 -0.15830768500E+02 -0.18460648522E+02  0.28500032351E+02  0.00000000000E+00 0.  1.
          2    1    1    2  502    0  0.14860789645E+02  0.15830768500E+02 -0.75509809725E+03  0.75541021489E+03  0.00000000000E+00 0. -1.
</event>
<event>
 4    1  0.6210801E+003  0.2386255E+02  0.7546771E-02  0.1481942E+00
          2   -1    0    0  501    0  0.00000000000E+00  0.00000000000E+00  0.41072423323E+03  0.41072423323E+03  0.00000000000E+00 0.  1.
          2   -1    0    0  502    0 -0.00000000000E+00 -0.00000000000E+00 -0.14483986106E+03  0.14483986106E+03  0.00000000000E+00 0. -1.
          2    1    1    2  501    0  0.17892674766E+02 -0.15788393065E+02 -0.14350722256E+03  0.14547764121E+03  0.00000000000E+00 0. -1.
          2    1    1    2  502    0 -0.17892674766E+02  0.15788393065E+02  0.40939159473E+03  0.41008645308E+03  0.00000000000E+00 0.  1.
</event>
<event>
 4    1  0.7925310E+003  0.2299939E+02  0.7546771E-02  0.1492506E+00
          2   -1    0    0  502    0  0.00000000000E+00  0.00000000000E+00  0.49453199620E+03  0.49453199620E+03  0.00000000000E+00 0.  1.
          2   -1    0    0  501    0 -0.00000000000E+00 -0.00000000000E+00 -0.15197554527E+04  0.15197554527E+04  0.00000000000E+00 0.  1.
          2    1    1    2  501    0  0.22297951398E+02 -0.56367773378E+01  0.49417750751E+03  0.49471242235E+03  0.00000000000E+00 0.  1.
          2    1    1    2  502    0 -0.22297951398E+02  0.56367773378E+01 -0.15194009641E+04  0.15195750266E+04  0.00000000000E+00 0.  1.
</event>
<event>
 4    1  0.6210801E+003  0.2699468E+02  0.7546771E-02  0.1447662E+00
          2   -1    0    0  502    0  0.00000000000E+00  0.00000000000E+00  0.18976959800E+04  0.18976959800E+04  0.00000000000E+00 0.  1.
          2   -1    0    0  501    0 -0.00000000000E+00 -0.00000000000E+00 -0.54900207001E+01  0.54900207001E+01  0.00000000000E+00 0.  1.
          2    1    1    2  501    0  0.23866025440E+02 -0.12614491383E+02  0.18638132537E+04  0.18640087331E+04  0.00000000000E+00 0.  1.
          2    1    1    2  502    0 -0.23866025440E+02  0.12614491383E+02  0.28392705653E+02  0.39177267610E+02  0.00000000000E+00 0.  1.
</event>
<event>
 4    1  0.6210801E+003  0.5577750E+02  0.7546771E-02  0.1274896E+00
          2   -1    0    0  501    0  0.00000000000E+00  0.00000000000E+00  0.21095055604E+03  0.21095055604E+03  0.00000000000E+00 0.  1.
          2   -1    0    0  502    0 -0.00000000000E+00 -0.00000000000E+00 -0.36236672501E+03  0.36236672501E+03  0.00000000000E+00 0.  1.
          2    1    1    2  501    0  0.32595232333E+02 -0.45262348964E+02 -0.35647269921E+03  0.36081008118E+03  0.00000000000E+00 0.  1.
          2    1    1    2  502    0 -0.32595232333E+02  0.45262348964E+02  0.20505653024E+03  0.21250719987E+03  0.00000000000E+00 0.  1.
</event>
<event>
 4    1  0.6210801E+003  0.2646782E+02  0.7546771E-02  0.1453028E+00
          2   -1    0    0  502    0  0.00000000000E+00  0.00000000000E+00  0.30165666256E+02  0.30165666256E+02  0.00000000000E+00 0.  1.
          2   -1    0    0  501    0 -0.00000000000E+00 -0.00000000000E+00 -0.43745006713E+03  0.43745006713E+03  0.00000000000E+00 0. -1.
          2    1    1    2  501    0 -0.86689698992E+01  0.25007882822E+02  0.23874863150E+02  0.35644835990E+02  0.00000000000E+00 0.  1.
          2    1    1    2  502    0  0.86689698992E+01 -0.25007882822E+02 -0.43115926402E+03  0.43197089739E+03  0.00000000000E+00 0. -1.
</event>
<event>
 4    1  0.6210801E+003  0.2062033E+02  0.7546771E-02  0.1524755E+00
          2   -1    0    0  502    0  0.00000000000E+00  0.00000000000E+00  0.33158836985E+03  0.33158836985E+03  0.00000000000E+00 0. -1.
          2   -1    0    0  501    0 -0.00000000000E+00 -0.00000000000E+00 -0.65771441591E+02  0.65771441591E+02  0.00000000000E+00 0.  1.
          2    1    1    2  501    0  0.10687422541E+02 -0.17634537491E+02  0.32964206501E+03  0.33028637413E+03  0.00000000000E+00 0. -1.
          2    1    1    2  502    0 -0.10687422541E+02  0.17634537491E+02 -0.63825136744E+02  0.67073437317E+02  0.00000000000E+00 0.  1.
</event>
<event>
 4    1  0.6210801E+003  0.2074947E+02  0.7546771E-02  0.1522872E+00
          2   -1    0    0  501    0  0.00000000000E+00  0.00000000000E+00  0.95859221727E+03  0.95859221727E+03  0.00000000000E+00 0. -1.
          2   -1    0    0  502    0 -0.00000000000E+00 -0.00000000000E+00 -0.25882169759E+02  0.25882169759E+02  0.00000000000E+00 0.  1.
          2    1    1    2  501    0 -0.10178340583E+02  0.18081539492E+02 -0.21592532880E+02  0.29946254584E+02  0.00000000000E+00 0.  1.
          2    1    1    2  502    0  0.10178340583E+02 -0.18081539492E+02  0.95430258039E+03  0.95452813245E+03  0.00000000000E+00 0. -1.
</event>
<event>
 4    1  0.6210801E+003  0.3170314E+02  0.7546771E-02  0.1405352E+00
          2   -1    0    0  502    0  0.00000000000E+00  0.00000000000E+00  0.33413743279E+03  0.33413743279E+03  0.00000000000E+00 0.  1.
          2   -1    0    0  501    0 -0.00000000000E+00 -0.00000000000E+00 -0.54631644227E+01  0.54631644227E+01  0.00000000000E+00 0. -1.
          2    1    1    2  501    0 -0.95776777090E+01  0.30221802457E+02  0.27816683235E+03  0.27996763362E+03  0.00000000000E+00 0.  1.
          2    1    1    2  502    0  0.95776777090E+01 -0.30221802457E+02  0.50507436016E+02  0.59632963594E+02  0.00000000000E+00 0. -1.
</event>
<event>
 4    1  0.6210801E+003  0.2395427E+02  0.7546771E-02  0.1480851E+00
          2   -1    0    0  501    0  0.00000000000E+00  0.00000000000E+00  0.54597746282E+01  0.54597746282E+01  0.00000000000E+00 0.  1.
          2   -1    0    0  502    0 -0.00000000000E+00 -0.00000000000E+00 -0.91065799241E+03  0.91065799241E+03  0.00000000000E+00 0.  1.
          2    1    1    2  501    0 -0.41470969757E+01  0.23592557042E+02 -0.88341608885E+03  0.88374079525E+03  0.00000000000E+00 0.  1.
          2    1    1    2  502    0  0.41470969757E+01 -0.23592557042E+02 -0.21782128937E+02  0.32376971787E+02  0.00000000000E+00 0.  1.
</event>
<event>
 4    1  0.6210801E+003  0.5121367E+02  0.7546771E-02  0.1292994E+00
          2   -1    0    0  502    0  0.00000000000E+00  0.00000000000E+00  0.49314909544E+03  0.49314909544E+03  0.00000000000E+00 0. -1.
          2   -1    0    0  501    0 -0.00000000000E+00 -0.00000000000E+00 -0.53234866161E+01  0.53234866161E+01  0.00000000000E+00 0. -1.
          2    1    1    2  501    0  0.47530086794E+02  0.19071718150E+02  0.23632532719E+03  0.24181087621E+03  0.00000000000E+00 0. -1.
          2    1    1    2  502    0 -0.47530086794E+02 -0.19071718150E+02  0.25150028163E+03  0.25666170584E+03  0.00000000000E+00 0. -1.
</event>
<event>
 4    1  0.6210801E+003  0.3004846E+02  0.7546771E-02  0.1419176E+00
          2   -1    0    0  502    0  0.00000000000E+00  0.00000000000E+00  0.87591793742E+03  0.87591793742E+03  0.00000000000E+00 0.  1.
          2   -1    0    0  501    0 -0.00000000000E+00 -0.00000000000E+00 -0.35804387958E+01  0.35804387958E+01  0.00000000000E+00 0.  1.
          2    1    1    2  501    0  0.23945965086E+02  0.18152153772E+02  0.80725504368E+03  0.80781409710E+03  0.00000000000E+00 0.  1.
          2    1    1    2  502    0 -0.23945965086E+02 -0.18152153772E+02  0.65082454946E+02  0.71684279115E+02  0.00000000000E+00 0.  1.
</event>
<event>
 4    1  0.6210801E+003  0.3185394E+02  0.7546771E-02  0.1404142E+00
          2   -1    0    0  501    0  0.00000000000E+00  0.00000000000E+00  0.59172725418E+03  0.59172725418E+03  0.00000000000E+00 0. -1.
          2   -1    0    0  502    0 -0.00000000000E+00 -0.00000000000E+00 -0.44242829309E+01  0.44242829309E+01  0.00000000000E+00 0.  1.
          2    1    1    2  501    0  0.29480709472E+02  0.12064873913E+02  0.60385610304E+02  0.68272215032E+02  0.00000000000E+00 0.  1.
          2    1    1    2  502    0 -0.29480709472E+02 -0.12064873913E+02  0.52691736094E+03  0.52787932207E+03  0.00000000000E+00 0. -1.
</event>
<event>
 4    1  0.6210801E+003  0.2885139E+02  0.7546771E-02  0.1429847E+00
          2   -1    0    0  501    0  0.00000000000E+00  0.00000000000E+00  0.12647577163E+04  0.12647577163E+04  0.00000000000E+00 0.  1.
          2   -1    0    0  502    0 -0.00000000000E+00 -0.00000000000E+00 -0.46519284281E+01  0.46519284281E+01  0.00000000000E+00 0.  1.
          2    1    1    2  501    0  0.78936504184E+01  0.27750548862E+02  0.41958327809E+02  0.50920565115E+02  0.00000000000E+00 0.  1.
          2    1    1    2  502    0 -0.78936504184E+01 -0.27750548862E+02  0.12181474601E+04  0.12184890796E+04  0.00000000000E+00 0.  1.
</event>
<event>
 4    1  0.6210801E+003  0.3389658E+02  0.7546771E-02  0.1388491E+00
          2   -1    0    0  502    0  0.00000000000E+00  0.00000000000E+00  0.71082890877E+02  0.71082890877E+02  0.00000000000E+00 0. -1.
          2   -1    0    0  501    0 -0.00000000000E+00 -0.00000000000E+00 -0.49193529959E+03  0.49193529959E+03  0.00000000000E+00 0.  1.
          2    1    1    2  501    0  0.16378993206E+02  0.29676707396E+02  0.66419374635E+02  0.74568838714E+02  0.00000000000E+00 0. -1.
          2    1    1    2  502    0 -0.16378993206E+02 -0.29676707396E+02 -0.48727178335E+03  0.48844935175E+03  0.00000000000E+00 0.  1.
</event>
<event>
 4    1  0.6210801E+003  0.2065085E+02  0.7546771E-02  0.1524309E+00
          2   -1    0    0  501    0  0.00000000000E+00  0.00000000000E+00  0.12457500507E+02  0.12457500507E+02  0.00000000000E+00 0. -1.
          2   -1    0    0  502    0 -0.00000000000E+00 -0.00000000000E+00 -0.41941950437E+02  0.41941950437E+02  0.00000000000E+00 0. -1.
          2    1    1    2  501    0 -0.18835842581E+02 -0.84657303430E+01 -0.26403283334E+02  0.33520007858E+02  0.00000000000E+00 0. -1.
          2    1    1    2  502    0  0.18835842581E+02  0.84657303430E+01 -0.30811665953E+01  0.20879443086E+02  0.00000000000E+00 0. -1.
</event>
<event>
 4    1  0.6210801E+003  0.2706777E+02  0.7546771E-02  0.1446929E+00
          2   -1    0    0  501    0  0.00000000000E+00  0.00000000000E+00  0.45912238087E+02  0.45912238087E+02  0.00000000000E+00 0.  1.
          2   -1    0    0  502    0 -0.00000000000E+00 -0.00000000000E+00 -0.53796075383E+02  0.53796075383E+02  0.00000000000E+00 0. -1.
          2    1    1    2  501    0  0.25257608915E+02 -0.97322911785E+01 -0.45752961173E+02  0.53160114332E+02  0.00000000000E+00 0. -1.
          2    1    1    2  502    0 -0.25257608915E+02  0.97322911785E+01  0.37869123877E+02  0.46548199137E+02  0.00000000000E+00 0.  1.
</event>
<event>
 4    1  0.6210801E+003  0.2308850E+02  0.7546771E-02  0.1491390E+00
          2   -1    0    0  502    0  0.00000000000E+00  0.00000000000E+00  0.10677841616E+01  0.10677841616E+01  0.00000000000E+00 0.  1.
          2   -1    0    0  501    0 -0.00000000000E+00 -0.00000000000E+00 -0.93145486344E+03  0.93145486344E+03  0.00000000000E+00 0.  1.
          2    1    1    2  501    0 -0.20919739981E+02 -0.97695101737E+01 -0.14757990272E+03  0.14937505326E+03  0.00000000000E+00 0.  1.
          2    1    1    2  502    0  0.20919739981E+02  0.97695101737E+01 -0.78280717656E+03  0.78314759434E+03  0.00000000000E+00 0.  1.
</event>
<event>
 4    1  0.6210801E+003  0.2145974E+02  0.7546771E-02  0.1512801E+00
          2   -1    0    0  501    0  0.00000000000E+00  0.00000000000E+00  0.55690835119E+03  0.55690835119E+03  0.00000000000E+00 0.  1.
          2   -1    0    0  502    0 -0.00000000000E+00 -0.00000000000E+00 -0.20227118198E+01  0.20227118198E+01  0.00000000000E+00 0.  1.
          2    1    1    2  501    0  0.73909781411E+01  0.20146810004E+02  0.62566563744E+02  0.66144504004E+02  0.00000000000E+00 0.  1.
          2    1    1    2  502    0 -0.73909781411E+01 -0.20146810004E+02  0.49231907563E+03  0.49278655901E+03  0.00000000000E+00 0.  1.
</event>
<event>
 4    1  0.6210801E+003  0.2729953E+02  0.7546771E-02  0.1444622E+00
          2   -1    0    0  502    0  0.00000000000E+00  0.00000000000E+00  0.21745123896E+03  0.21745123896E+03  0.00000000000E+00 0.  1.
          2   -1    0    0  501    0 -0.00000000000E+00 -0.00000000000E+00 -0.56274778752E+03  0.56274778752E+03  0.00000000000E+00 0.  1.
          2    1    1    2  501    0 -0.18909424258E+01 -0.27233958524E+02  0.21626152455E+03  0.21797777676E+03  0.00000000000E+00 0.  1.
          2    1    1    2  502    0  0.18909424258E+01  0.27233958524E+02 -0.56155807311E+03  0.56222124972E+03  0.00000000000E+00 0.  1.
</event>
<event>
 4    1  0.6210801E+003  0.1054926E+03  0.7546771E-02  0.1154616E+00
          2   -1    0    0  502    0  0.00000000000E+00  0.00000000000E+00  0.39681684807E+03  0.39681684807E+03  0.00000000000E+00 0.  1.
          2   -1    0    0  501    0 -0.00000000000E+00 -0.00000000000E+00 -0.30008648335E+02  0.30008648335E+02  0.00000000000E+00 0. -1.
          2    1    1    2  501    0  0.96733005541E+02 -0.42088270356E+02  0.23799720741E+03  0.26032934448E+03  0.00000000000E+00 0.  1.
          2    1    1    2  502    0 -0.96733005541E+02  0.42088270356E+02  0.12881099233E+03  0.16649615193E+03  0.00000000000E+00 0. -1.
</event>
<event>
 4    1  0.6210801E+003  0.2835132E+02  0.7546771E-02  0.1434487E+00
          2   -1    0    0  501    0  0.00000000000E+00  0.00000000000E+00  0.76764379583E+03  0.76764379583E+03  0.00000000000E+00 0. -1.
          2   -1    0    0  502    0 -0.00000000000E+00 -0.00000000000E+00 -0.19887427919E+01  0.19887427919E+01  0.00000000000E+00 0.  1.
          2    1    1    2  501    0 -0.13760597663E+02  0.24787963191E+02  0.11803360875E+03  0.12139081498E+03  0.00000000000E+00 0.  1.
          2    1    1    2  502    0  0.13760597663E+02 -0.24787963191E+02  0.64762144429E+03  0.64824172364E+03  0.00000000000E+00 0. -1.
</event>
<event>
 4    1  0.6210801E+003  0.2720069E+02  0.7546771E-02  0.1445603E+00
          2   -1    0    0  502    0  0.00000000000E+00  0.00000000000E+00  0.98854374471E+00  0.98854374471E+00  0.00000000000E+00 0. -1.
          2   -1    0    0  501    0 -0.00000000000E+00 -0.00000000000E+00 -0.93028131165E+03  0.93028131165E+03  0.00000000000E+00 0. -1.
          2    1    1    2  501    0  0.24480292709E+02 -0.11857175569E+02 -0.25878703764E+03  0.26021262112E+03  0.00000000000E+00 0. -1.
          2    1    1    2  502    0 -0.24480292709E+02  0.11857175569E+02 -0.67050573027E+03  0.67105723428E+03  0.00000000000E+00 0. -1.
</event>
<event>
 4    1  0.6210801E+003  0.3377602E+02  0.7546771E-02  0.1389378E+00
          2   -1    0    0  501    0  0.00000000000E+00  0.00000000000E+00  0.85677042717E+02  0.85677042717E+02  0.00000000000E+00 0. -1.
          2   -1    0    0  502    0 -0.00000000000E+00 -0.00000000000E+00 -0.56923373909E+03  0.56923373909E+03  0.00000000000E+00 0.  1.
          2    1    1    2  501    0  0.64845105053E+01 -0.33147705546E+02 -0.56538120771E+03  0.56638920301E+03  0.00000000000E+00 0.  1.
          2    1    1    2  502    0 -0.64845105053E+01  0.33147705546E+02  0.81824511328E+02  0.88521578802E+02  0.00000000000E+00 0. -1.
</event>
<event>
 4    1  0.6210801E+003  0.2143125E+02  0.7546771E-02  0.1513196E+00
          2   -1    0    0  502    0  0.00000000000E+00  0.00000000000E+00  0.38892752084E+02  0.38892752084E+02  0.00000000000E+00 0.  1.
          2   -1    0    0  501    0 -0.00000000000E+00 -0.00000000000E+00 -0.18999155378E+03  0.18999155378E+03  0.00000000000E+00 0. -1.
          2    1    1    2  501    0 -0.11264244192E+02 -0.18232262483E+02  0.35278988147E+02  0.41278391407E+02  0.00000000000E+00 0.  1.
          2    1    1    2  502    0  0.11264244192E+02  0.18232262483E+02 -0.18637778984E+03  0.18760591446E+03  0.00000000000E+00 0. -1.
</event>
<event>
 4    1  0.6210801E+003  0.5286324E+02  0.7546771E-02  0.1286214E+00
          2   -1    0    0  502    0  0.00000000000E+00  0.00000000000E+00  0.19549792422E+03  0.19549792422E+03  0.00000000000E+00 0. -1.
          2   -1    0    0  501    0 -0.00000000000E+00 -0.00000000000E+00 -0.16225970953E+03  0.16225970953E+03  0.00000000000E+00 0. -1.
          2    1    1    2  501    0  0.48946327439E+02 -0.19969454106E+02  0.18743707329E+03  0.19474901415E+03  0.00000000000E+00 0. -1.
          2    1    1    2  502    0 -0.48946327439E+02  0.19969454106E+02 -0.15419885861E+03  0.16300861959E+03  0.00000000000E+00 0. -1.
</event>
<event>
 4    1  0.9020485E+003  0.2436087E+02  0.7546771E-02  0.1476082E+00
          2   -1    0    0  502    0  0.00000000000E+00  0.00000000000E+00  0.67803732608E+03  0.67803732608E+03  0.00000000000E+00 0.  1.
          2   -1    0    0  501    0 -0.00000000000E+00 -0.00000000000E+00 -0.80072650465E+03  0.80072650465E+03  0.00000000000E+00 0.  1.
          2    1    1    2  501    0 -0.90057573932E+01 -0.22635116405E+02  0.67763311756E+03  0.67807086221E+03  0.00000000000E+00 0.  1.
          2    1    1    2  502    0  0.90057573932E+01  0.22635116405E+02 -0.80032229612E+03  0.80069296852E+03  0.00000000000E+00 0.  1.
</event>
<event>
 4    1  0.6210801E+003  0.2480846E+02  0.7546771E-02  0.1470958E+00
          2   -1    0    0  502    0  0.00000000000E+00  0.00000000000E+00  0.58242762317E+03  0.58242762317E+03  0.00000000000E+00 0.  1.
          2   -1    0    0  501    0 -0.00000000000E+00 -0.00000000000E+00 -0.28469243652E+01  0.28469243652E+01  0.00000000000E+00 0.  1.
          2    1    1    2  501    0  0.24344473147E+02  0.47756175276E+01  0.52184678273E+03  0.52243614398E+03  0.00000000000E+00 0.  1.
          2    1    1    2  502    0 -0.24344473147E+02 -0.47756175276E+01  0.57733916081E+02  0.62838403557E+02  0.00000000000E+00 0.  1.
</event>
<event>
 4    1  0.6210801E+003  0.2469036E+02  0.7546771E-02  0.1472297E+00
          2   -1    0    0  502    0  0.00000000000E+00  0.00000000000E+00  0.80251464664E+03  0.80251464664E+03  0.00000000000E+00 0. -1.
          2   -1    0    0  501    0 -0.00000000000E+00 -0.00000000000E+00 -0.45616344224E+01  0.45616344224E+01  0.00000000000E+00 0.  1.
          2    1    1    2  501    0  0.64607910292E+01 -0.23830069276E+02  0.76738587956E+03  0.76778297856E+03  0.00000000000E+00 0. -1.
          2    1    1    2  502    0 -0.64607910292E+01  0.23830069276E+02  0.30567132657E+02  0.39293302500E+02  0.00000000000E+00 0.  1.
</event>
<event>
 4    1  0.6210801E+003  0.2815182E+02  0.7546771E-02  0.1436369E+00
          2   -1    0    0  502    0  0.00000000000E+00  0.00000000000E+00  0.17618774971E+04  0.17618774971E+04  0.00000000000E+00 0.  1.
          2   -1    0    0  501    0 -0.00000000000E+00 -0.00000000000E+00 -0.14681144660E+02  0.14681144660E+02  0.00000000000E+00 0. -1.
          2    1    1    2  501    0  0.24056263329E+02 -0.14622616881E+02  0.17481635571E+04  0.17483902159E+04  0.00000000000E+00 0.  1.
          2    1    1    2  502    0 -0.24056263329E+02  0.14622616881E+02 -0.96720466027E+00  0.28168425846E+02  0.00000000000E+00 0. -1.
</event>
<event>
 4    1  0.6210801E+003  0.2314201E+02  0.7546771E-02  0.1490723E+00
          2   -1    0    0  502    0  0.00000000000E+00  0.00000000000E+00  0.17952796029E+01  0.17952796029E+01  0.00000000000E+00 0. -1.
          2   -1    0    0  501    0 -0.00000000000E+00 -0.00000000000E+00 -0.42442442793E+03  0.42442442793E+03  0.00000000000E+00 0. -1.
          2    1    1    2  501    0  0.18734192026E+02  0.13586112661E+02 -0.95147436983E+02  0.97921331550E+02  0.00000000000E+00 0. -1.
          2    1    1    2  502    0 -0.18734192026E+02 -0.13586112661E+02 -0.32748171135E+03  0.32829837599E+03  0.00000000000E+00 0. -1.
</event>
<event>
 4    1  0.6210801E+003  0.2561774E+02  0.7546771E-02  0.1462010E+00
          2   -1    0    0  501    0  0.00000000000E+00  0.00000000000E+00  0.45064808726E+01  0.45064808726E+01  0.00000000000E+00 0.  1.
          2   -1    0    0  502    0 -0.00000000000E+00 -0.00000000000E+00 -0.19137992792E+03  0.19137992792E+03  0.00000000000E+00 0.  1.
          2    1    1    2  501    0  0.23489760121E+02  0.10222502044E+02 -0.14132534199E+03  0.14362841177E+03  0.00000000000E+00 0.  1.
          2    1    1    2  502    0 -0.23489760121E+02 -0.10222502044E+02 -0.45548105053E+02  0.52257997019E+02  0.00000000000E+00 0.  1.
</event>
<event>
 4    1  0.6210801E+003  0.2610564E+02  0.7546771E-02  0.1456805E+00
          2   -1    0    0  502    0  0.00000000000E+00  0.00000000000E+00  0.46125194530E+03  0.46125194530E+03  0.00000000000E+00 0.  1.
          2   -1    0    0  501    0 -0.00000000000E+00 -0.00000000000E+00 -0.15071074569E+01  0.15071074569E+01  0.00000000000E+00 0.  1.
          2    1    1    2  501    0 -0.24657922068E+02  0.85726939098E+01  0.26229761148E+03  0.26359351508E+03  0.00000000000E+00 0.  1.
          2    1    1    2  502    0  0.24657922068E+02 -0.85726939098E+01  0.19744722636E+03  0.19916553767E+03  0.00000000000E+00 0.  1.
</event>
<event>
 4    1  0.6210801E+003  0.2437887E+02  0.7546771E-02  0.1475873E+00
          2   -1    0    0  501    0  0.00000000000E+00  0.00000000000E+00  0.43908091842E+01  0.43908091842E+01  0.00000000000E+00 0.  1.
          2   -1    0    0  502    0 -0.00000000000E+00 -0.00000000000E+00 -0.12346802595E+04  0.12346802595E+04  0.00000000000E+00 0.  1.
          2    1    1    2  501    0 -0.18894697770E+02  0.15405191492E+02 -0.11997349547E+04  0.11999826211E+04  0.00000000000E+00 0.  1.
          2    1    1    2  502    0  0.18894697770E+02 -0.15405191492E+02 -0.30554495632E+02  0.39088447552E+02  0.00000000000E+00 0.  1.
</event>
<event>
 4    1  0.6210801E+003  0.2254404E+02  0.7546771E-02  0.1498304E+00
          2   -1    0    0  501    0  0.00000000000E+00  0.00000000000E+00  0.94844064800E+02  0.94844064800E+02  0.00000000000E+00 0.  1.
          2   -1    0    0  502    0 -0.00000000000E+00 -0.00000000000E+00 -0.38596722364E+02  0.38596722364E+02  0.00000000000E+00 0.  1.
          2    1    1    2  501    0  0.46522410624E+01  0.22058798949E+02 -0.33792123536E+02  0.40621934605E+02  0.00000000000E+00 0.  1.
          2    1    1    2  502    0 -0.46522410624E+01 -0.22058798949E+02  0.90039465972E+02  0.92818852559E+02  0.00000000000E+00 0.  1.
</event>
<event>
 4    1  0.6210801E+003  0.2918449E+02  0.7546771E-02  0.1426818E+00
          2   -1    0    0  502    0  0.00000000000E+00  0.00000000000E+00  0.32285661684E+03  0.32285661684E+03  0.00000000000E+00 0.  1.
          2   -1    0    0  501    0 -0.00000000000E+00 -0.00000000000E+00 -0.95756437623E+01  0.95756437623E+01  0.00000000000E+00 0. -1.
          2    1    1    2  501    0 -0.17507182093E+02  0.23350224548E+02  0.29811930593E+03  0.29954441236E+03  0.00000000000E+00 0.  1.
          2    1    1    2  502    0  0.17507182093E+02 -0.23350224548E+02  0.15161667157E+02  0.32887848246E+02  0.00000000000E+00 0. -1.
</event>
<event>
 4    1  0.6210801E+003  0.1109561E+03  0.7546771E-02  0.1146067E+00
          2   -1    0    0  501    0  0.00000000000E+00  0.00000000000E+00  0.23878435200E+03  0.23878435200E+03  0.00000000000E+00 0. -1.
          2   -1    0    0  502    0 -0.00000000000E+00 -0.00000000000E+00 -0.13054163170E+03  0.13054163170E+03  0.00000000000E+00 0. -1.
          2    1    1    2  501    0  0.46927562351E+02  0.10054383915E+03 -0.89518083228E+02  0.14256488671E+03  0.00000000000E+00 0. -1.
          2    1    1    2  502    0 -0.46927562351E+02 -0.10054383915E+03  0.19776080352E+03  0.22676109699E+03  0.00000000000E+00 0. -1.
</event>
<event>
 4    1  0.6210801E+003  0.2388681E+02  0.7546771E-02  0.1481653E+00
          2   -1    0    0  501    0  0.00000000000E+00  0.00000000000E+00  0.11187633791E+04  0.11187633791E+04  0.00000000000E+00 0.  1.
          2   -1    0    0  502    0 -0.00000000000E+00 -0.00000000000E+00 -0.12896759225E+01  0.12896759225E+01  0.00000000000E+00 0. -1.
          2    1    1    2  501    0 -0.16122661664E+02 -0.17624966872E+02  0.12330240006E+03  0.12559483085E+03  0.00000000000E+00 0. -1.
          2    1    1    2  502    0  0.16122661664E+02  0.17624966872E+02  0.99417130313E+03  0.99445822418E+03  0.00000000000E+00 0.  1.
</event>
<event>
 4    1  0.6210801E+003  0.4830519E+02  0.7546771E-02  0.1305693E+00
          2   -1    0    0  502    0  0.00000000000E+00  0.00000000000E+00  0.18815310711E+03  0.18815310711E+03  0.00000000000E+00 0. -1.
          2   -1    0    0  501    0 -0.00000000000E+00 -0.00000000000E+00 -0.18234400392E+02  0.18234400392E+02  0.00000000000E+00 0.  1.
          2    1    1    2  501    0 -0.46918351376E+02 -0.11491724098E+02  0.14332372817E+03  0.15124510727E+03  0.00000000000E+00 0. -1.
          2    1    1    2  502    0  0.46918351376E+02  0.11491724098E+02  0.26594978548E+02  0.55142400225E+02  0.00000000000E+00 0.  1.
</event>
<event>
 4    1  0.6210801E+003  0.2700449E+02  0.7546771E-02  0.1447563E+00
          2   -1    0    0  501    0  0.00000000000E+00  0.00000000000E+00  0.44461810136E+01  0.44461810136E+01  0.00000000000E+00 0.  1.
          2   -1    0    0  502    0 -0.00000000000E+00 -0.00000000000E+00 -0.93076925894E+03  0.93076925894E+03  0.00000000000E+00 0. -1.
          2    1    1    2  501    0 -0.24927614212E+02 -0.10385403429E+02 -0.88757447910E+03  0.88798519048E+03  0.00000000000E+00 0. -1.
          2    1    1    2  502    0  0.24927614212E+02  0.10385403429E+02 -0.38748598825E+02  0.47230249476E+02  0.00000000000E+00 0.  1.
</event>
<event>
 4    1  0.6210801E+003  0.4592414E+02  0.7546771E-02  0.1316882E+00
          2   -1    0    0  501    0  0.00000000000E+00  0.00000000000E+00  0.58948187585E+03  0.58948187585E+03  0.00000000000E+00 0.  1.
          2   -1    0    0  502    0 -0.00000000000E+00 -0.00000000000E+00 -0.91281615516E+01  0.91281615516E+01  0.00000000000E+00 0. -1.
          2    1    1    2  501    0 -0.38788091213E+02  0.24586802406E+02  0.56785700437E+02  0.73031792027E+02  0.00000000000E+00 0. -1.
          2    1    1    2  502    0  0.38788091213E+02 -0.24586802406E+02  0.52356801386E+03  0.52557824537E+03  0.00000000000E+00 0.  1.
</event>
<event>
 4    1  0.6210801E+003  0.3080175E+02  0.7546771E-02  0.1412755E+00
          2   -1    0    0  501    0  0.00000000000E+00  0.00000000000E+00  0.15607165810E+04  0.15607165810E+04  0.00000000000E+00 0.  1.
          2   -1    0    0  502    0 -0.00000000000E+00 -0.00000000000E+00 -0.82155847528E+00  0.82155847528E+00  0.00000000000E+00 0. -1.
          2    1    1    2  501    0 -0.14861761315E+02  0.26979179169E+02  0.38177530199E+03  0.38301583423E+03  0.00000000000E+00 0. -1.
          2    1    1    2  502    0  0.14861761315E+02 -0.26979179169E+02  0.11781197205E+04  0.11785223052E+04  0.00000000000E+00 0.  1.
</event>
<event>
 4    1  0.6210801E+003  0.2465938E+02  0.7546771E-02  0.1472650E+00
          2   -1    0    0  502    0  0.00000000000E+00  0.00000000000E+00  0.71248563712E+02  0.71248563712E+02  0.00000000000E+00 0.  1.
          2   -1    0    0  501    0 -0.00000000000E+00 -0.00000000000E+00 -0.14476596712E+04  0.14476596712E+04  0.00000000000E+00 0. -1.
          2    1    1    2  501    0 -0.20032833979E+02  0.14379524026E+02  0.69006567527E+02  0.73280225916E+02  0.00000000000E+00 0.  1.
          2    1    1    2  502    0  0.20032833979E+02 -0.14379524026E+02 -0.14454176750E+04  0.14456280089E+04  0.00000000000E+00 0. -1.
</event>
<event>
 4    1  0.6210801E+003  0.2628292E+02  0.7546771E-02  0.1454947E+00
          2   -1    0    0  502    0  0.00000000000E+00  0.00000000000E+00  0.13043329410E+04  0.13043329410E+04  0.00000000000E+00 0.  1.
          2   -1    0    0  501    0 -0.00000000000E+00 -0.00000000000E+00 -0.27300727949E+01  0.27300727949E+01  0.00000000000E+00 0. -1.
          2    1    1    2  501    0  0.26229268514E+02  0.16785535683E+01  0.12375284771E+04  0.12378075472E+04  0.00000000000E+00 0.  1.
          2    1    1    2  502    0 -0.26229268514E+02 -0.16785535683E+01  0.64074391076E+02  0.69255466648E+02  0.00000000000E+00 0. -1.
</event>
<event>
 4    1  0.6210801E+003  0.2186494E+02  0.7546771E-02  0.1507265E+00
          2   -1    0    0  501    0  0.00000000000E+00  0.00000000000E+00  0.13620192948E+04  0.13620192948E+04  0.00000000000E+00 0.  1.
          2   -1    0    0  502    0 -0.00000000000E+00 -0.00000000000E+00 -0.36856437935E+01  0.36856437935E+01  0.00000000000E+00 0. -1.
          2    1    1    2  501    0 -0.21856828874E+02 -0.59560063998E+00  0.29643731012E+02  0.36835125857E+02  0.00000000000E+00 0. -1.
          2    1    1    2  502    0  0.21856828874E+02  0.59560063998E+00  0.13286899199E+04  0.13288698127E+04  0.00000000000E+00 0.  1.
</event>
<event>
 4    1  0.6210801E+003  0.3382089E+02  0.7546771E-02  0.1389048E+00
          2   -1    0    0  501    0  0.00000000000E+00  0.00000000000E+00  0.55742611909E+03  0.55742611909E+03  0.00000000000E+00 0.  1.
          2   -1    0    0  502    0 -0.00000000000E+00 -0.00000000000E+00 -0.37506578778E+01  0.37506578778E+01  0.00000000000E+00 0.  1.
          2    1    1    2  501    0  0.21292805783E+02 -0.26276780059E+02  0.88010059586E+02  0.94284799075E+02  0.00000000000E+00 0.  1.
          2    1    1    2  502    0 -0.21292805783E+02  0.26276780059E+02  0.46566540162E+03  0.46689197789E+03  0.00000000000E+00 0.  1.
</event>
<event>
 4    1  0.6210801E+003  0.3261784E+02  0.7546771E-02  0.1398131E+00
          2   -1    0    0  501    0  0.00000000000E+00  0.00000000000E+00  0.13305255201E+02  0.13305255201E+02  0.00000000000E+00 0. -1.
          2   -1    0    0  502    0 -0.00000000000E+00 -0.00000000000E+00 -0.81966833187E+02  0.81966833187E+02  0.00000000000E+00 0. -1.
          2    1    1    2  501    0  0.14491960483E+02 -0.29221681182E+02 -0.41779557267E+02  0.53004292045E+02  0.00000000000E+00 0. -1.
          2    1    1    2  502    0 -0.14491960483E+02  0.29221681182E+02 -0.26882020719E+02  0.42267796343E+02  0.00000000000E+00 0. -1.
</event>
<event>
 4    1  0.6210801E+003  0.2032085E+02  0.7546771E-02  0.1529186E+00
          2   -1    0    0  502    0  0.00000000000E+00  0.00000000000E+00  0.57483084842E+03  0.57483084842E+03  0.00000000000E+00 0.  1.
          2   -1    0    0  501    0 -0.00000000000E+00 -0.00000000000E+00 -0.37250329232E+02  0.37250329232E+02  0.00000000000E+00 0. -1.
          2    1    1    2  501    0 -0.92774484832E+00  0.20299661815E+02  0.57186552718E+03  0.57222645706E+03  0.00000000000E+00 0.  1.
          2    1    1    2  502    0  0.92774484832E+00 -0.20299661815E+02 -0.34285007994E+02  0.39854720592E+02  0.00000000000E+00 0. -1.
</event>
<event>
 4    1  0.6210801E+003  0.2233597E+02  0.7546771E-02  0.1501009E+00
          2   -1    0    0  502    0  0.00000000000E+00  0.00000000000E+00  0.77836988346E+02  0.77836988346E+02  0.00000000000E+00 0. -1.
          2   -1    0    0  501    0 -0.00000000000E+00 -0.00000000000E+00 -0.52961290120E+02  0.52961290120E+02  0.00000000000E+00 0. -1.
          2    1    1    2  501    0 -0.16262409107E+02 -0.15311091234E+02  0.73752038379E+02  0.77060097520E+02  0.00000000000E+00 0. -1.
          2    1    1    2  502    0  0.16262409107E+02  0.15311091234E+02 -0.48876340153E+02  0.53738180947E+02  0.00000000000E+00 0. -1.
</event>
<event>
 4    1  0.6210801E+003  0.3061376E+02  0.7546771E-02  0.1414336E+00
          2   -1    0    0  502    0  0.00000000000E+00  0.00000000000E+00  0.12214555646E+04  0.12214555646E+04  0.00000000000E+00 0.  1.
          2   -1    0    0  501    0 -0.00000000000E+00 -0.00000000000E+00 -0.53544425199E+01  0.53544425199E+01  0.00000000000E+00 0.  1.
          2    1    1    2  501    0  0.23043905015E+02  0.20153932129E+02  0.11758070258E+04  0.11762054941E+04  0.00000000000E+00 0.  1.
          2    1    1    2  502    0 -0.23043905015E+02 -0.20153932129E+02  0.40294096295E+02  0.50604512989E+02  0.00000000000E+00 0.  1.
</event>
<event>
 4    1  0.6210801E+003  0.2251677E+02  0.7546771E-02  0.1498657E+00
          2   -1    0    0  501    0  0.00000000000E+00  0.00000000000E+00  0.25832522734E+03  0.25832522734E+03  0.00000000000E+00 0. -1.
          2   -1    0    0  502    0 -0.00000000000E+00 -0.00000000000E+00 -0.19663277326E+01  0.19663277326E+01  0.00000000000E+00 0. -1.
          2    1    1    2  501    0  0.22194010518E+02 -0.37988046533E+01  0.12255988578E+03  0.12461111757E+03  0.00000000000E+00 0. -1.
          2    1    1    2  502    0 -0.22194010518E+02  0.37988046533E+01  0.13379901382E+03  0.13568043750E+03  0.00000000000E+00 0. -1.
</event>
<event>
 4    1  0.6210801E+003  0.3409521E+02  0.7546771E-02  0.1387038E+00
          2   -1    0    0  501    0  0.00000000000E+00  0.00000000000E+00  0.97467512493E+03  0.97467512493E+03  0.00000000000E+00 0.  1.
          2   -1    0    0  502    0 -0.00000000000E+00 -0.00000000000E+00 -0.16482646525E+02  0.16482646525E+02  0.00000000000E+00 0.  1.
          2    1    1    2  501    0 -0.23853483683E+02 -0.24361750582E+02  0.17841080686E+01  0.34141860184E+02  0.00000000000E+00 0.  1.
          2    1    1    2  502    0  0.23853483683E+02  0.24361750582E+02  0.95640837033E+03  0.95701591127E+03  0.00000000000E+00 0.  1.
</event>
<event>
 4    1  0.6210801E+003  0.2173879E+02  0.7546771E-02  0.1508973E+00
          2   -1    0    0  501    0  0.00000000000E+00  0.00000000000E+00  0.37794844537E+03  0.37794844537E+03  0.00000000000E+00 0. -1.
          2   -1    0    0  502    0 -0.00000000000E+00 -0.00000000000E+00 -0.14234661546E+01  0.14234661546E+01  0.00000000000E+00 0. -1.
          2    1    1    2  501    0 -0.32081208549E+00  0.21736418978E+02  0.12211593967E+03  0.12403579141E+03  0.00000000000E+00 0. -1.
          2    1    1    2  502    0  0.32081208549E+00 -0.21736418978E+02  0.25440903954E+03  0.25533612011E+03  0.00000000000E+00 0. -1.
</event>
<event>
 4    1  0.6210801E+003  0.3329966E+02  0.7546771E-02  0.1392928E+00
          2   -1    0    0  502    0  0.00000000000E+00  0.00000000000E+00  0.32341871384E+02  0.32341871384E+02  0.00000000000E+00 0. -1.
          2   -1    0    0  501    0 -0.00000000000E+00 -0.00000000000E+00 -0.12403843134E+04  0.12403843134E+04  0.00000000000E+00 0. -1.
          2    1    1    2  501    0 -0.25954298897E+02  0.20862445897E+02  0.23485295376E+02  0.40748329769E+02  0.00000000000E+00 0. -1.
          2    1    1    2  502    0  0.25954298897E+02 -0.20862445897E+02 -0.12315277374E+04  0.12319778551E+04  0.00000000000E+00 0. -1.
</event>
<event>
 4    1  0.6210801E+003  0.2310787E+02  0.7546771E-02  0.1491148E+00
          2   -1    0    0  502    0  0.00000000000E+00  0.00000000000E+00  0.93335456224E+03  0.93335456224E+03  0.00000000000E+00 0.  1.
          2   -1    0    0  501    0 -0.00000000000E+00 -0.00000000000E+00 -0.28083910730E+02  0.28083910730E+02  0.00000000000E+00 0.  1.
          2    1    1    2  501    0 -0.87368343534E+01  0.21392552877E+02  0.92843296686E+03  0.92872048946E+03  0.00000000000E+00 0.  1.
          2    1    1    2  502    0  0.87368343534E+01 -0.21392552877E+02 -0.23162315345E+02  0.32717983514E+02  0.00000000000E+00 0.  1.
</event>
<event>
 4    1  0.6210801E+003  0.6716590E+02  0.7546771E-02  0.1237254E+00
          2   -1    0    0  501    0  0.00000000000E+00  0.00000000000E+00  0.22191457797E+02  0.22191457797E+02  0.00000000000E+00 0. -1.
          2   -1    0    0  502    0 -0.00000000000E+00 -0.00000000000E+00 -0.53712374074E+03  0.53712374074E+03  0.00000000000E+00 0.  1.
          2    1    1    2  501    0  0.47167317878E+02 -0.47817381352E+02 -0.47793936091E+03  0.48263577421E+03  0.00000000000E+00 0.  1.
          2    1    1    2  502    0 -0.47167317878E+02  0.47817381352E+02 -0.36992922032E+02  0.76679424330E+02  0.00000000000E+00 0. -1.
</event>
<event>
 4    1  0.6210801E+003  0.3031792E+02  0.7546771E-02  0.1416853E+00
          2   -1    0    0  501    0  0.00000000000E+00  0.00000000000E+00  0.18152671294E+03  0.18152671294E+03  0.00000000000E+00 0. -1.
          2   -1    0    0  502    0 -0.00000000000E+00 -0.00000000000E+00 -0.74599755123E+02  0.74599755123E+02  0.00000000000E+00 0. -1.
          2    1    1    2  501    0  0.10998943283E+02 -0.28252425989E+02 -0.70177131651E+02  0.76446099537E+02  0.00000000000E+00 0. -1.
          2    1    1    2  502    0 -0.10998943283E+02  0.28252425989E+02  0.17710408946E+03  0.17968036852E+03  0.00000000000E+00 0. -1.
</event>
<event>
 4    1  0.6210801E+003  0.2624367E+02  0.7546771E-02  0.1455357E+00
          2   -1    0    0  501    0  0.00000000000E+00  0.00000000000E+00  0.34047791674E+03  0.34047791674E+03  0.00000000000E+00 0.  1.
          2   -1    0    0  502    0 -0.00000000000E+00 -0.00000000000E+00 -0.55424829434E+01  0.55424829434E+01  0.00000000000E+00 0.  1.
          2    1    1    2  501    0 -0.21547403042E+01 -0.26155060155E+02  0.29597886696E+02  0.39557110289E+02  0.00000000000E+00 0.  1.
          2    1    1    2  502    0  0.21547403042E+01  0.26155060155E+02  0.30533754710E+03  0.30646328939E+03  0.00000000000E+00 0.  1.
</event>
<event>
 4    1  0.6210801E+003  0.2866771E+02  0.7546771E-02  0.1431538E+00
          2   -1    0    0  502    0  0.00000000000E+00  0.00000000000E+00  0.74074721777E+03  0.74074721777E+03  0.00000000000E+00 0.  1.
          2   -1    0    0  501    0 -0.00000000000E+00 -0.00000000000E+00 -0.14086335150E+01  0.14086335150E+01  0.00000000000E+00 0.  1.
          2    1    1    2  501    0  0.26403383583E+02 -0.11166860291E+02  0.54067862784E+03  0.54143809991E+03  0.00000000000E+00 0.  1.
          2    1    1    2  502    0 -0.26403383583E+02  0.11166860291E+02  0.19865995642E+03  0.20071775138E+03  0.00000000000E+00 0.  1.
</event>
<event>
 4    1  0.6210801E+003  0.2445167E+02  0.7546771E-02  0.1475032E+00
          2   -1    0    0  502    0  0.00000000000E+00  0.00000000000E+00  0.17655407575E+04  0.17655407575E+04  0.00000000000E+00 0. -1.
          2   -1    0    0  501    0 -0.00000000000E+00 -0.00000000000E+00 -0.44076976785E+02  0.44076976785E+02  0.00000000000E+00 0. -1.
          2    1    1    2  501    0 -0.19105335334E+02  0.15260093355E+02  0.17620582583E+04  0.17622279052E+04  0.00000000000E+00 0. -1.
          2    1    1    2  502    0  0.19105335334E+02 -0.15260093355E+02 -0.40594477591E+02  0.47389829060E+02  0.00000000000E+00 0. -1.
</event>
<event>
 4    1  0.6210801E+003  0.2443811E+02  0.7546771E-02  0.1475188E+00
          2   -1    0    0  502    0  0.00000000000E+00  0.00000000000E+00  0.39680612455E+02  0.39680612455E+02  0.00000000000E+00 0. -1.
          2   -1    0    0  501    0 -0.00000000000E+00 -0.00000000000E+00 -0.13200574531E+04  0.13200574531E+04  0.00000000000E+00 0. -1.
          2    1    1    2  501    0 -0.23568652460E+02 -0.64606220622E+01  0.35793721290E+02  0.43340644896E+02  0.00000000000E+00 0. -1.
          2    1    1    2  502    0  0.23568652460E+02  0.64606220622E+01 -0.13161705619E+04  0.13163974207E+04  0.00000000000E+00 0. -1.
</event>
<event>
 4    1  0.6210801E+003  0.2781361E+02  0.7546771E-02  0.1439602E+00
          2   -1    0    0  502    0  0.00000000000E+00  0.00000000000E+00  0.12286104800E+04  0.12286104800E+04  0.00000000000E+00 0.  1.
          2   -1    0    0  501    0 -0.00000000000E+00 -0.00000000000E+00 -0.13145988161E+02  0.13145988161E+02  0.00000000000E+00 0. -1.
          2    1    1    2  501    0 -0.27141591376E+02  0.60770700440E+01  0.12135589746E+04  0.12138776633E+04  0.00000000000E+00 0.  1.
          2    1    1    2  502    0  0.27141591376E+02 -0.60770700440E+01  0.19055172663E+01  0.27878804831E+02  0.00000000000E+00 0. -1.
</event>
<event>
 4    1  0.6210801E+003  0.2601554E+02  0.7546771E-02  0.1457756E+00
          2   -1    0    0  501    0  0.00000000000E+00  0.00000000000E+00  0.20199765875E+01  0.20199765875E+01  0.00000000000E+00 0. -1.
          2   -1    0    0  502    0 -0.00000000000E+00 -0.00000000000E+00 -0.97877371051E+03  0.97877371051E+03  0.00000000000E+00 0.  1.
          2    1    1    2  501    0 -0.99818057075E+01 -0.24024406941E+02 -0.88607513200E+03  0.88645696349E+03  0.00000000000E+00 0.  1.
          2    1    1    2  502    0  0.99818057075E+01  0.24024406941E+02 -0.90678601924E+02  0.94336723607E+02  0.00000000000E+00 0. -1.
</event>
<event>
 4    1  0.6210801E+003  0.4453037E+02  0.7546771E-02  0.1323805E+00
          2   -1    0    0  501    0  0.00000000000E+00  0.00000000000E+00  0.27694791339E+04  0.27694791339E+04  0.00000000000E+00 0.  1.
          2   -1    0    0  502    0 -0.00000000000E+00 -0.00000000000E+00 -0.31094432094E+01  0.31094432094E+01  0.00000000000E+00 0.  1.
          2    1    1    2  501    0  0.25333164554E+02 -0.36622182810E+02  0.16692751171E+03  0.17276500706E+03  0.00000000000E+00 0.  1.
          2    1    1    2  502    0 -0.25333164554E+02  0.36622182810E+02  0.25994421790E+04  0.25998235700E+04  0.00000000000E+00 0.  1.
</event>
<event>
 4    1  0.6210801E+003  0.2949432E+02  0.7546771E-02  0.1424042E+00
          2   -1    0    0  501    0  0.00000000000E+00  0.00000000000E+00  0.27861748319E+03  0.27861748319E+03  0.00000000000E+00 0. -1.
          2   -1    0    0  502    0 -0.00000000000E+00 -0.00000000000E+00 -0.43723601580E+01  0.43723601580E+01  0.00000000000E+00 0. -1.
          2    1    1    2  501    0  0.16890424499E+02 -0.24179088827E+02  0.61464328189E+02  0.68174617094E+02  0.00000000000E+00 0. -1.
          2    1    1    2  502    0 -0.16890424499E+02  0.24179088827E+02  0.21278079484E+03  0.21481522625E+03  0.00000000000E+00 0. -1.
</event>
<event>
 4    1  0.6210801E+003  0.2527897E+02  0.7546771E-02  0.1465707E+00
          2   -1    0    0  502    0  0.00000000000E+00  0.00000000000E+00  0.15919419193E+04  0.15919419193E+04  0.00000000000E+00 0.  1.
          2   -1    0    0  501    0 -0.00000000000E+00 -0.00000000000E+00 -0.13708877749E+03  0.13708877749E+03  0.00000000000E+00 0. -1.
          2    1    1    2  501    0 -0.23886199472E+02 -0.82750178052E+01  0.15906752866E+04  0.15908761403E+04  0.00000000000E+00 0.  1.
          2    1    1    2  502    0  0.23886199472E+02  0.82750178052E+01 -0.13582214481E+03  0.13815455645E+03  0.00000000000E+00 0. -1.
</event>
<event>
 4    1  0.6210801E+003  0.4767649E+02  0.7546771E-02  0.1308573E+00
          2   -1    0    0  502    0  0.00000000000E+00  0.00000000000E+00  0.35814181923E+04  0.35814181923E+04  0.00000000000E+00 0. -1.
          2   -1    0    0  501    0 -0.00000000000E+00 -0.00000000000E+00 -0.10957266025E+01  0.10957266025E+01  0.00000000000E+00 0.  1.
          2    1    1    2  501    0 -0.12531742620E+02 -0.46000035454E+02  0.29520915331E+04  0.29524764974E+04  0.00000000000E+00 0. -1.
          2    1    1    2  502    0  0.12531742620E+02  0.46000035454E+02  0.62823093262E+03  0.63003742154E+03  0.00000000000E+00 0.  1.
</event>
<event>
 4    1  0.6210801E+003  0.2220642E+02  0.7546771E-02  0.1502711E+00
          2   -1    0    0  502    0  0.00000000000E+00  0.00000000000E+00  0.29294458160E+02  0.29294458160E+02  0.00000000000E+00 0.  1.
          2   -1    0    0  501    0 -0.00000000000E+00 -0.00000000000E+00 -0.48113936424E+02  0.48113936424E+02  0.00000000000E+00 0.  1.
          2    1    1    2  501    0 -0.17073669113E+02  0.14199116868E+02  0.21797817808E+02  0.31117036459E+02  0.00000000000E+00 0.  1.
          2    1    1    2  502    0  0.17073669113E+02 -0.14199116868E+02 -0.40617296072E+02  0.46291358125E+02  0.00000000000E+00 0.  1.
</event>
<event>
 4    1  0.6210801E+003  0.3289796E+02  0.7546771E-02  0.1395976E+00
          2   -1    0    0  502    0  0.00000000000E+00  0.00000000000E+00  0.56493087954E+01  0.56493087954E+01  0.00000000000E+00 0. -1.
          2   -1    0    0  501    0 -0.00000000000E+00 -0.00000000000E+00 -0.67434502585E+03  0.67434502585E+03  0.00000000000E+00 0. -1.
          2    1    1    2  501    0 -0.31496992195E+02  0.94981649574E+01 -0.46671861969E+02  0.57101123934E+02  0.00000000000E+00 0. -1.
          2    1    1    2  502    0  0.31496992195E+02 -0.94981649574E+01 -0.62202385508E+03  0.62289321071E+03  0.00000000000E+00 0. -1.
</event>
<event>
 4    1  0.6210801E+003  0.2743412E+02  0.7546771E-02  0.1443295E+00
          2   -1    0    0  502    0  0.00000000000E+00  0.00000000000E+00  0.13083609913E+01  0.13083609913E+01  0.00000000000E+00 0.  1.
          2   -1    0    0  501    0 -0.00000000000E+00 -0.00000000000E+00 -0.63036601589E+03  0.63036601589E+03  0.00000000000E+00 0.  1.
          2    1    1    2  501    0 -0.97806304113E+01  0.25631425254E+02 -0.40792255885E+03  0.40884403470E+03  0.00000000000E+00 0.  1.
          2    1    1    2  502    0  0.97806304113E+01 -0.25631425254E+02 -0.22113509605E+03  0.22283034219E+03  0.00000000000E+00 0.  1.
</event>
<event>
 4    1  0.6210801E+003  0.2096143E+02  0.7546771E-02  0.1519816E+00
          2   -1    0    0  502    0  0.00000000000E+00  0.00000000000E+00  0.46369663941E+01  0.46369663941E+01  0.00000000000E+00 0. -1.
          2   -1    0    0  501    0 -0.00000000000E+00 -0.00000000000E+00 -0.11307618510E+03  0.11307618510E+03  0.00000000000E+00 0.  1.
          2    1    1    2  501    0 -0.14265631133E+02  0.15358170216E+02 -0.30529275245E+02  0.37032664918E+02  0.00000000000E+00 0. -1.
          2    1    1    2  502    0  0.14265631133E+02 -0.15358170216E+02 -0.77909943465E+02  0.80680486580E+02  0.00000000000E+00 0.  1.
</event>
<event>
 4    1  0.6210801E+003  0.4150018E+02  0.7546771E-02  0.1339912E+00
          2   -1    0    0  502    0  0.00000000000E+00  0.00000000000E+00  0.55199625664E+03  0.55199625664E+03  0.00000000000E+00 0.  1.
          2   -1    0    0  501    0 -0.00000000000E+00 -0.00000000000E+00 -0.35395886475E+02  0.35395886475E+02  0.00000000000E+00 0. -1.
          2    1    1    2  501    0 -0.38665847733E+02 -0.15073718558E+02  0.53875337627E+03  0.54034939180E+03  0.00000000000E+00 0.  1.
          2    1    1    2  502    0  0.38665847733E+02  0.15073718558E+02 -0.22153006106E+02  0.47042751319E+02  0.00000000000E+00 0. -1.
</event>
<event>
 4    1  0.6210801E+003  0.5294559E+02  0.7546771E-02  0.1285883E+00
          2   -1    0    0  502    0  0.00000000000E+00  0.00000000000E+00  0.88957142128E+01  0.88957142128E+01  0.00000000000E+00 0.  1.
          2   -1    0    0  501    0 -0.00000000000E+00 -0.00000000000E+00 -0.76084551071E+03  0.76084551071E+03  0.00000000000E+00 0.  1.
          2    1    1    2  501    0  0.24377036953E+02 -0.46999958311E+02 -0.81397623836E+02  0.97102055478E+02  0.00000000000E+00 0.  1.
          2    1    1    2  502    0 -0.24377036953E+02  0.46999958311E+02 -0.67055217266E+03  0.67263916945E+03  0.00000000000E+00 0.  1.
</event>
<event>
 4    1  0.6210801E+003  0.9728104E+02  0.7546771E-02  0.1168605E+00
          2   -1    0    0  502    0  0.00000000000E+00  0.00000000000E+00  0.30063710656E+03  0.30063710656E+03  0.00000000000E+00 0. -1.
          2   -1    0    0  501    0 -0.00000000000E+00 -0.00000000000E+00 -0.27613542815E+03  0.27613542815E+03  0.00000000000E+00 0.  1.
          2    1    1    2  501    0 -0.60098335061E+01 -0.97095225425E+02  0.28370236222E+03  0.29991770743E+03  0.00000000000E+00 0. -1.
          2    1    1    2  502    0  0.60098335061E+01  0.97095225425E+02 -0.25920068381E+03  0.27685482728E+03  0.00000000000E+00 0.  1.
</event>
<event>
 4    1  0.6210801E+003  0.8340048E+02  0.7546771E-02  0.1196166E+00
          2   -1    0    0  501    0  0.00000000000E+00  0.00000000000E+00  0.14338559165E+02  0.14338559165E+02  0.00000000000E+00 0.  1.
          2   -1    0    0  502    0 -0.00000000000E+00 -0.00000000000E+00 -0.15001218142E+04  0.15001218142E+04  0.00000000000E+00 0. -1.
          2    1    1    2  501    0  0.70566639379E+02  0.44452099882E+02 -0.13657685963E+04  0.13683126464E+04  0.00000000000E+00 0. -1.
          2    1    1    2  502    0 -0.70566639379E+02 -0.44452099882E+02 -0.12001465881E+03  0.14614772700E+03  0.00000000000E+00 0.  1.
</event>
<event>
 4    1  0.6210801E+003  0.2008131E+02  0.7546771E-02  0.1532796E+00
          2   -1    0    0  502    0  0.00000000000E+00  0.00000000000E+00  0.57526027869E+00  0.57526027869E+00  0.00000000000E+00 0.  1.
          2   -1    0    0  501    0 -0.00000000000E+00 -0.00000000000E+00 -0.12782653447E+04  0.12782653447E+04  0.00000000000E+00 0. -1.
          2    1    1    2  501    0  0.12523274325E+02  0.15697980937E+02 -0.20914772353E+03  0.21010956491E+03  0.00000000000E+00 0.  1.
          2    1    1    2  502    0 -0.12523274325E+02 -0.15697980937E+02 -0.10685423609E+04  0.10687310401E+04  0.00000000000E+00 0. -1.
</event>
<event>
 4    1  0.6210801E+003  0.7892873E+02  0.7546771E-02  0.1206357E+00
          2   -1    0    0  501    0  0.00000000000E+00  0.00000000000E+00  0.61519523601E+02  0.61519523601E+02  0.00000000000E+00 0. -1.
          2   -1    0    0  502    0 -0.00000000000E+00 -0.00000000000E+00 -0.11337291343E+03  0.11337291343E+03  0.00000000000E+00 0.  1.
          2    1    1    2  501    0 -0.75870552171E+02 -0.21757854399E+02 -0.54504552995E+02  0.95919191052E+02  0.00000000000E+00 0.  1.
          2    1    1    2  502    0  0.75870552171E+02  0.21757854399E+02  0.26511631635E+01  0.78973245982E+02  0.00000000000E+00 0. -1.
</event>
<event>
 4    1  0.6210801E+003  0.3333724E+02  0.7546771E-02  0.1392645E+00
          2   -1    0    0  501    0  0.00000000000E+00  0.00000000000E+00  0.22481164327E+03  0.22481164327E+03  0.00000000000E+00 0. -1.
          2   -1    0    0  502    0 -0.00000000000E+00 -0.00000000000E+00 -0.31531364287E+02  0.31531364287E+02  0.00000000000E+00 0. -1.
          2    1    1    2  501    0 -0.72135165483E+01  0.32547451849E+02 -0.21055745101E+02  0.39429885171E+02  0.00000000000E+00 0. -1.
          2    1    1    2  502    0  0.72135165483E+01 -0.32547451849E+02  0.21433602409E+03  0.21691312239E+03  0.00000000000E+00 0. -1.
</event>
<event>
 4    1  0.6210801E+003  0.2234417E+02  0.7546771E-02  0.1500902E+00
          2   -1    0    0  501    0  0.00000000000E+00  0.00000000000E+00  0.12731687944E+03  0.12731687944E+03  0.00000000000E+00 0. -1.
          2   -1    0    0  502    0 -0.00000000000E+00 -0.00000000000E+00 -0.77763370692E+01  0.77763370692E+01  0.00000000000E+00 0. -1.
          2    1    1    2  501    0  0.17599183393E+02  0.13767011866E+02  0.12212224592E+02  0.25463705569E+02  0.00000000000E+00 0. -1.
          2    1    1    2  502    0 -0.17599183393E+02 -0.13767011866E+02  0.10732831778E+03  0.10962951095E+03  0.00000000000E+00 0. -1.
</event>
<event>
 4    1  0.6210801E+003  0.3339184E+02  0.7546771E-02  0.1392236E+00
          2   -1    0    0  501    0  0.00000000000E+00  0.00000000000E+00  0.65824644912E+03  0.65824644912E+03  0.00000000000E+00 0.  1.
          2   -1    0    0  502    0 -0.00000000000E+00 -0.00000000000E+00 -0.39499256461E+02  0.39499256461E+02  0.00000000000E+00 0. -1.
          2    1    1    2  501    0 -0.32285104840E+02 -0.85256699845E+01 -0.31936618086E+02  0.46205655693E+02  0.00000000000E+00 0. -1.
          2    1    1    2  502    0  0.32285104840E+02  0.85256699845E+01  0.65068381075E+03  0.65154004989E+03  0.00000000000E+00 0.  1.
</event>
<event>
 4    1  0.6210801E+003  0.2191309E+02  0.7546771E-02  0.1506617E+00
          2   -1    0    0  502    0  0.00000000000E+00  0.00000000000E+00  0.38025335877E+02  0.38025335877E+02  0.00000000000E+00 0.  1.
          2   -1    0    0  501    0 -0.00000000000E+00 -0.00000000000E+00 -0.57848234582E+03  0.57848234582E+03  0.00000000000E+00 0. -1.
          2    1    1    2  501    0 -0.20036278168E+02 -0.88730561162E+01  0.34642255027E+02  0.40991089288E+02  0.00000000000E+00 0.  1.
          2    1    1    2  502    0  0.20036278168E+02  0.88730561162E+01 -0.57509926497E+03  0.57551659241E+03  0.00000000000E+00 0. -1.
</event>
<event>
 4    1  0.6210801E+003  0.2458618E+02  0.7546771E-02  0.1473486E+00
          2   -1    0    0  501    0  0.00000000000E+00  0.00000000000E+00  0.82931989327E+03  0.82931989327E+03  0.00000000000E+00 0. -1.
          2   -1    0    0  502    0 -0.00000000000E+00 -0.00000000000E+00 -0.32169593082E+03  0.32169593082E+03  0.00000000000E+00 0. -1.
          2    1    1    2  501    0  0.12635658745E+02  0.21090760458E+02 -0.32104357906E+03  0.32198363267E+03  0.00000000000E+00 0. -1.
          2    1    1    2  502    0 -0.12635658745E+02 -0.21090760458E+02  0.82866754152E+03  0.82903219142E+03  0.00000000000E+00 0. -1.
</event>
<event>
 4    1  0.6210801E+003  0.3147665E+02  0.7546771E-02  0.1407184E+00
          2   -1    0    0  501    0  0.00000000000E+00  0.00000000000E+00  0.50711851397E+03  0.50711851397E+03  0.00000000000E+00 0.  1.
          2   -1    0    0  502    0 -0.00000000000E+00 -0.00000000000E+00 -0.30610259078E+01  0.30610259078E+01  0.00000000000E+00 0.  1.
          2    1    1    2  501    0  0.25097932696E+02  0.18996661794E+02  0.98606339823E+02  0.10350840371E+03  0.00000000000E+00 0.  1.
          2    1    1    2  502    0 -0.25097932696E+02 -0.18996661794E+02  0.40545114824E+03  0.40667113617E+03  0.00000000000E+00 0.  1.
</event>
<event>
 4    1  0.6210801E+003  0.5863708E+02  0.7546771E-02  0.1264535E+00
          2   -1    0    0  501    0  0.00000000000E+00  0.00000000000E+00  0.87965467085E+03  0.87965467085E+03  0.00000000000E+00 0.  1.
          2   -1    0    0  502    0 -0.00000000000E+00 -0.00000000000E+00 -0.13548399904E+02  0.13548399904E+02  0.00000000000E+00 0.  1.
          2    1    1    2  501    0  0.42695309176E+02 -0.40192263941E+02  0.56342456187E+02  0.81319000704E+02  0.00000000000E+00 0.  1.
          2    1    1    2  502    0 -0.42695309176E+02  0.40192263941E+02  0.80976381476E+03  0.81188407005E+03  0.00000000000E+00 0.  1.
</event>
<event>
 4    1  0.6210801E+003  0.2023981E+02  0.7546771E-02  0.1530401E+00
          2   -1    0    0  501    0  0.00000000000E+00  0.00000000000E+00  0.57782534827E+02  0.57782534827E+02  0.00000000000E+00 0.  1.
          2   -1    0    0  502    0 -0.00000000000E+00 -0.00000000000E+00 -0.49411403598E+03  0.49411403598E+03  0.00000000000E+00 0.  1.
          2    1    1    2  501    0 -0.91634978317E+01 -0.18046615701E+02 -0.49212724046E+03  0.49254326798E+03  0.00000000000E+00 0.  1.
          2    1    1    2  502    0  0.91634978317E+01  0.18046615701E+02  0.55795739310E+02  0.59353302823E+02  0.00000000000E+00 0.  1.
</event>
<event>
 4    1  0.6210801E+003  0.2366347E+02  0.7546771E-02  0.1484331E+00
          2   -1    0    0  502    0  0.00000000000E+00  0.00000000000E+00  0.11927633370E+02  0.11927633370E+02  0.00000000000E+00 0. -1.
          2   -1    0    0  501    0 -0.00000000000E+00 -0.00000000000E+00 -0.13200171146E+04  0.13200171146E+04  0.00000000000E+00 0.  1.
          2    1    1    2  501    0 -0.56914016852E+01  0.22968843559E+02 -0.22237438032E-01  0.23663480769E+02  0.00000000000E+00 0. -1.
          2    1    1    2  502    0  0.56914016852E+01 -0.22968843559E+02 -0.13080672438E+04  0.13082812672E+04  0.00000000000E+00 0.  1.
</event>
<event>
 4    1  0.6210801E+003  0.2045567E+02  0.7546771E-02  0.1527180E+00
          2   -1    0    0  501    0  0.00000000000E+00  0.00000000000E+00  0.65937452512E+02  0.65937452512E+02  0.00000000000E+00 0.  1.
          2   -1    0    0  502    0 -0.00000000000E+00 -0.00000000000E+00 -0.11720145997E+04  0.11720145997E+04  0.00000000000E+00 0.  1.
          2    1    1    2  501    0 -0.19284203598E+02 -0.68230303270E+01 -0.11703365881E+04  0.11705153411E+04  0.00000000000E+00 0.  1.
          2    1    1    2  502    0  0.19284203598E+02  0.68230303270E+01  0.64259440954E+02  0.67436711093E+02  0.00000000000E+00 0.  1.
</event>
<event>
 4    1  0.6210801E+003  0.2969514E+02  0.7546771E-02  0.1422264E+00
          2   -1    0    0  501    0  0.00000000000E+00  0.00000000000E+00  0.42004182943E+01  0.42004182943E+01  0.00000000000E+00 0.  1.
          2   -1    0    0  502    0 -0.00000000000E+00 -0.00000000000E+00 -0.98223054373E+03  0.98223054373E+03  0.00000000000E+00 0.  1.
          2    1    1    2  501    0 -0.23747681122E+02 -0.17828319456E+02 -0.92635853544E+03  0.92683436358E+03  0.00000000000E+00 0.  1.
          2    1    1    2  502    0  0.23747681122E+02  0.17828319456E+02 -0.51671589997E+02  0.59596598444E+02  0.00000000000E+00 0.  1.
</event>
<event>
 4    1  0.6210801E+003  0.2033235E+02  0.7546771E-02  0.1529014E+00
          2   -1    0    0  502    0  0.00000000000E+00  0.00000000000E+00  0.10289722088E+04  0.10289722088E+04  0.00000000000E+00 0. -1.
          2   -1    0    0  501    0 -0.00000000000E+00 -0.00000000000E+00 -0.13126921087E+01  0.13126921087E+01  0.00000000000E+00 0.  1.
          2    1    1    2  501    0  0.20043422277E+02 -0.34155214644E+01  0.94295871545E+03  0.94317789606E+03  0.00000000000E+00 0. -1.
          2    1    1    2  502    0 -0.20043422277E+02  0.34155214644E+01  0.84700801194E+02  0.87107004807E+02  0.00000000000E+00 0.  1.
</event>
<event>
 4    1  0.6210801E+003  0.2052259E+02  0.7546771E-02  0.1526191E+00
          2   -1    0    0  501    0  0.00000000000E+00  0.00000000000E+00  0.37663922942E+01  0.37663922942E+01  0.00000000000E+00 0. -1.
          2   -1    0    0  502    0 -0.00000000000E+00 -0.00000000000E+00 -0.25471569325E+03  0.25471569325E+03  0.00000000000E+00 0.  1.
          2    1    1    2  501    0  0.14644502526E+02  0.14377597170E+02 -0.22227448151E+03  0.22321989581E+03  0.00000000000E+00 0.  1.
          2    1    1    2  502    0 -0.14644502526E+02 -0.14377597170E+02 -0.28674819443E+02  0.35262189732E+02  0.00000000000E+00 0. -1.
</event>
<event>
 4    1  0.6210801E+003  0.2199773E+02  0.7546771E-02  0.1505482E+00
          2   -1    0    0  501    0  0.00000000000E+00  0.00000000000E+00  0.87376835447E+03  0.87376835447E+03  0.00000000000E+00 0. -1.
          2   -1    0    0  502    0 -0.00000000000E+00 -0.00000000000E+00 -0.34714098647E+01  0.34714098647E+01  0.00000000000E+00 0.  1.
          2    1    1    2  501    0 -0.32600438162E+01  0.21754820854E+02  0.33035241319E+02  0.39689133085E+02  0.00000000000E+00 0.  1.
          2    1    1    2  502    0  0.32600438162E+01 -0.21754820854E+02  0.83726170329E+03  0.83755063125E+03  0.00000000000E+00 0. -1.
</event>
<event>
 4    1  0.6210801E+003  0.2432308E+02  0.7546771E-02  0.1476520E+00
          2   -1    0    0  502    0  0.00000000000E+00  0.00000000000E+00  0.52654197705E+02  0.52654197705E+02  0.00000000000E+00 0.  1.
          2   -1    0    0  501    0 -0.00000000000E+00 -0.00000000000E+00 -0.13159579023E+02  0.13159579023E+02  0.00000000000E+00 0. -1.
          2    1    1    2  501    0  0.19483509264E+02 -0.14560399086E+02  0.32329107842E+02  0.40457181917E+02  0.00000000000E+00 0.  1.
          2    1    1    2  502    0 -0.19483509264E+02  0.14560399086E+02  0.71655108398E+01  0.25356594811E+02  0.00000000000E+00 0. -1.
</event>
<event>
 4    1  0.6210801E+003  0.2178923E+02  0.7546771E-02  0.1508288E+00
          2   -1    0    0  502    0  0.00000000000E+00  0.00000000000E+00  0.59299419257E+01  0.59299419257E+01  0.00000000000E+00 0. -1.
          2   -1    0    0  501    0 -0.00000000000E+00 -0.00000000000E+00 -0.12242824081E+04  0.12242824081E+04  0.00000000000E+00 0.  1.
          2    1    1    2  501    0 -0.19194303230E+02 -0.10312578142E+02 -0.14522860974E+02  0.26185569219E+02  0.00000000000E+00 0. -1.
          2    1    1    2  502    0  0.19194303230E+02  0.10312578142E+02 -0.12038296052E+04  0.12040267808E+04  0.00000000000E+00 0.  1.
</event>
<event>
 4    1  0.6210801E+003  0.2041227E+02  0.7546771E-02  0.1527824E+00
          2   -1    0    0  502    0  0.00000000000E+00  0.00000000000E+00  0.89269858255E+00  0.89269858255E+00  0.00000000000E+00 0. -1.
          2   -1    0    0  501    0 -0.00000000000E+00 -0.00000000000E+00 -0.50361234754E+03  0.50361234754E+03  0.00000000000E+00 0.  1.
          2    1    1    2  501    0 -0.18754616715E+02 -0.80576026977E+01 -0.18310687657E+03  0.18424111608E+03  0.00000000000E+00 0.  1.
          2    1    1    2  502    0  0.18754616715E+02  0.80576026977E+01 -0.31961277239E+03  0.32026393004E+03  0.00000000000E+00 0. -1.
</event>
<event>
 4    1  0.6210801E+003  0.2151079E+02  0.7546771E-02  0.1512096E+00
          2   -1    0    0  501    0  0.00000000000E+00  0.00000000000E+00  0.65157213723E+02  0.65157213723E+02  0.00000000000E+00 0. -1.
          2   -1    0    0  502    0 -0.00000000000E+00 -0.00000000000E+00 -0.25185169806E+03  0.25185169806E+03  0.00000000000E+00 0.  1.
          2    1    1    2  501    0 -0.38032542092E+01 -0.21171897783E+02 -0.24960103188E+03  0.25052622440E+03  0.00000000000E+00 0.  1.
          2    1    1    2  502    0  0.38032542092E+01  0.21171897783E+02  0.62906547539E+02  0.66482687383E+02  0.00000000000E+00 0. -1.
</event>
<event>
 4    1  0.6210801E+003  0.2208917E+02  0.7546771E-02  0.1504263E+00
          2   -1    0    0  501    0  0.00000000000E+00  0.00000000000E+00  0.46098636340E+03  0.46098636340E+03  0.00000000000E+00 0. -1.
          2   -1    0    0  502    0 -0.00000000000E+00 -0.00000000000E+00 -0.77925063854E+02  0.77925063854E+02  0.00000000000E+00 0. -1.
          2    1    1    2  501    0  0.21997041789E+02 -0.20153402014E+01 -0.76088807637E+02  0.79230285190E+02  0.00000000000E+00 0. -1.
          2    1    1    2  502    0 -0.21997041789E+02  0.20153402014E+01  0.45915010718E+03  0.45968114206E+03  0.00000000000E+00 0. -1.
</event>
<event>
 4    1  0.6210801E+003  0.2044619E+02  0.7546771E-02  0.1527321E+00
          2   -1    0    0  501    0  0.00000000000E+00  0.00000000000E+00  0.57526619375E+02  0.57526619375E+02  0.00000000000E+00 0. -1.
          2   -1    0    0  502    0 -0.00000000000E+00 -0.00000000000E+00 -0.46078348901E+02  0.46078348901E+02  0.00000000000E+00 0. -1.
          2    1    1    2  501    0 -0.73128406622E+01  0.19093696303E+02 -0.41818298478E+02  0.46549081244E+02  0.00000000000E+00 0. -1.
          2    1    1    2  502    0  0.73128406622E+01 -0.19093696303E+02  0.53266568952E+02  0.57055887032E+02  0.00000000000E+00 0. -1.
</event>
<event>
 4    1  0.6210801E+003  0.2305288E+02  0.7546771E-02  0.1491835E+00
          2   -1    0    0  502    0  0.00000000000E+00  0.00000000000E+00  0.19754681278E+02  0.19754681278E+02  0.00000000000E+00 0.  1.
          2   -1    0    0  501    0 -0.00000000000E+00 -0.00000000000E+00 -0.12240615918E+03  0.12240615918E+03  0.00000000000E+00 0. -1.
          2    1    1    2  501    0  0.23050689971E+02  0.31763876714E+00  0.11459867894E+02  0.25744198855E+02  0.00000000000E+00 0.  1.
          2    1    1    2  502    0 -0.23050689971E+02 -0.31763876714E+00 -0.11411134580E+03  0.11641664160E+03  0.00000000000E+00 0. -1.
</event>
<event>
 4    1  0.6210801E+003  0.2652207E+02  0.7546771E-02  0.1452469E+00
          2   -1    0    0  502    0  0.00000000000E+00  0.00000000000E+00  0.29280050064E+02  0.29280050064E+02  0.00000000000E+00 0.  1.
          2   -1    0    0  501    0 -0.00000000000E+00 -0.00000000000E+00 -0.10437765182E+03  0.10437765182E+03  0.00000000000E+00 0.  1.
          2    1    1    2  501    0 -0.11963650676E+02  0.23670468818E+02  0.21087072903E+02  0.33883398224E+02  0.00000000000E+00 0.  1.
          2    1    1    2  502    0  0.11963650676E+02 -0.23670468818E+02 -0.96184674657E+02  0.99774303658E+02  0.00000000000E+00 0.  1.
</event>
<event>
 4    1  0.6210801E+003  0.5235637E+02  0.7546771E-02  0.1288267E+00
          2   -1    0    0  501    0  0.00000000000E+00  0.00000000000E+00  0.76641381310E+02  0.76641381310E+02  0.00000000000E+00 0.  1.
          2   -1    0    0  502    0 -0.00000000000E+00 -0.00000000000E+00 -0.39739246002E+03  0.39739246002E+03  0.00000000000E+00 0.  1.
          2    1    1    2  501    0 -0.49097171135E+02 -0.18183971274E+02 -0.38647492308E+03  0.39000519893E+03  0.00000000000E+00 0.  1.
          2    1    1    2  502    0  0.49097171135E+02  0.18183971274E+02  0.65723844368E+02  0.84028642398E+02  0.00000000000E+00 0.  1.
</event>
<event>
 4    1  0.6210801E+003  0.2756206E+02  0.7546771E-02  0.1442042E+00
          2   -1    0    0  501    0  0.00000000000E+00  0.00000000000E+00  0.28391347177E+01  0.28391347177E+01  0.00000000000E+00 0.  1.
          2   -1    0    0  502    0 -0.00000000000E+00 -0.00000000000E+00 -0.56248523537E+03  0.56248523537E+03  0.00000000000E+00 0.  1.
          2    1    1    2  501    0 -0.14140368598E+02 -0.23658346001E+02 -0.48449613318E+03  0.48527947662E+03  0.00000000000E+00 0.  1.
          2    1    1    2  502    0  0.14140368598E+02  0.23658346001E+02 -0.75149967473E+02  0.80044893471E+02  0.00000000000E+00 0.  1.
</event>
<event>
 4    1  0.6210801E+003  0.2023377E+02  0.7546771E-02  0.1530492E+00
          2   -1    0    0  502    0  0.00000000000E+00  0.00000000000E+00  0.28857960238E+02  0.28857960238E+02  0.00000000000E+00 0. -1.
          2   -1    0    0  501    0 -0.00000000000E+00 -0.00000000000E+00 -0.45634971885E+03  0.45634971885E+03  0.00000000000E+00 0.  1.
          2    1    1    2  501    0  0.13243859151E+02 -0.15297242770E+02  0.25057175911E+02  0.32206637611E+02  0.00000000000E+00 0. -1.
          2    1    1    2  502    0 -0.13243859151E+02  0.15297242770E+02 -0.45254893453E+03  0.45300104148E+03  0.00000000000E+00 0.  1.
</event>
<event>
 4    1  0.6210801E+003  0.4869562E+02  0.7546771E-02  0.1303929E+00
          2   -1    0    0  501    0  0.00000000000E+00  0.00000000000E+00  0.54558350455E+02  0.54558350455E+02  0.00000000000E+00 0.  1.
          2   -1    0    0  502    0 -0.00000000000E+00 -0.00000000000E+00 -0.25824227021E+03  0.25824227021E+03  0.00000000000E+00 0.  1.
          2    1    1    2  501    0  0.40032883909E+02 -0.27724199347E+02 -0.24447503573E+03  0.24927756842E+03  0.00000000000E+00 0.  1.
          2    1    1    2  502    0 -0.40032883909E+02  0.27724199347E+02  0.40791115976E+02  0.63523052241E+02  0.00000000000E+00 0.  1.
</event>
<event>
 4    1  0.6210801E+003  0.2747411E+02  0.7546771E-02  0.1442903E+00
          2   -1    0    0  502    0  0.00000000000E+00  0.00000000000E+00  0.63577407844E+03  0.63577407844E+03  0.00000000000E+00 0.  1.
          2   -1    0    0  501    0 -0.00000000000E+00 -0.00000000000E+00 -0.18842629629E+01  0.18842629629E+01  0.00000000000E+00 0.  1.
          2    1    1    2  501    0 -0.24697578264E+02 -0.12035625181E+02  0.51085741616E+03  0.51159566680E+03  0.00000000000E+00 0.  1.
          2    1    1    2  502    0  0.24697578264E+02  0.12035625181E+02  0.12303239932E+03  0.12606267460E+03  0.00000000000E+00 0.  1.
</event>
<event>
 4    1  0.9790743E+003  0.2168141E+02  0.7546771E-02  0.1509754E+00
          2   -1    0    0  501    0  0.00000000000E+00  0.00000000000E+00  0.10132901109E+04  0.10132901109E+04  0.00000000000E+00 0.  1.
          2   -1    0    0  502    0 -0.00000000000E+00 -0.00000000000E+00 -0.62512636885E+03  0.62512636885E+03  0.00000000000E+00 0. -1.
          2    1    1    2  501    0 -0.15239544805E+02  0.15422058575E+02 -0.62482233747E+03  0.62519839813E+03  0.00000000000E+00 0. -1.
          2    1    1    2  502    0  0.15239544805E+02 -0.15422058575E+02  0.10129860795E+04  0.10132180816E+04  0.00000000000E+00 0.  1.
</event>
<event>
 4    1  0.6210801E+003  0.2234780E+02  0.7546771E-02  0.1500854E+00
          2   -1    0    0  502    0  0.00000000000E+00  0.00000000000E+00  0.85331698628E+02  0.85331698628E+02  0.00000000000E+00 0.  1.
          2   -1    0    0  501    0 -0.00000000000E+00 -0.00000000000E+00 -0.58804685864E+01  0.58804685864E+01  0.00000000000E+00 0.  1.
          2    1    1    2  501    0  0.20232068246E+02  0.94914493204E+01  0.42857351961E+02  0.48334013002E+02  0.00000000000E+00 0.  1.
          2    1    1    2  502    0 -0.20232068246E+02 -0.94914493204E+01  0.36593878080E+02  0.42878154213E+02  0.00000000000E+00 0.  1.
</event>
<event>
 4    1  0.6210801E+003  0.2191663E+02  0.7546771E-02  0.1506569E+00
          2   -1    0    0  502    0  0.00000000000E+00  0.00000000000E+00  0.30748044959E+03  0.30748044959E+03  0.00000000000E+00 0.  1.
          2   -1    0    0  501    0 -0.00000000000E+00 -0.00000000000E+00 -0.38680417661E+01  0.38680417661E+01  0.00000000000E+00 0.  1.
          2    1    1    2  501    0  0.17485225323E+02  0.13213836058E+02  0.27200170345E+03  0.27288324471E+03  0.00000000000E+00 0.  1.
          2    1    1    2  502    0 -0.17485225323E+02 -0.13213836058E+02  0.31610704376E+02  0.38465246641E+02  0.00000000000E+00 0.  1.
</event>
<event>
 4    1  0.6210801E+003  0.2357978E+02  0.7546771E-02  0.1485343E+00
          2   -1    0    0  501    0  0.00000000000E+00  0.00000000000E+00  0.22504545493E+02  0.22504545493E+02  0.00000000000E+00 0. -1.
          2   -1    0    0  502    0 -0.00000000000E+00 -0.00000000000E+00 -0.48775255387E+02  0.48775255387E+02  0.00000000000E+00 0. -1.
          2    1    1    2  501    0  0.99420557330E+01 -0.21381332027E+02 -0.38171335981E+02  0.44867100664E+02  0.00000000000E+00 0. -1.
          2    1    1    2  502    0 -0.99420557330E+01  0.21381332027E+02  0.11900626087E+02  0.26412700216E+02  0.00000000000E+00 0. -1.
</event>
<event>
 4    1  0.6210801E+003  0.2186595E+02  0.7546771E-02  0.1507251E+00
          2   -1    0    0  502    0  0.00000000000E+00  0.00000000000E+00  0.37739852663E+02  0.37739852663E+02  0.00000000000E+00 0. -1.
          2   -1    0    0  501    0 -0.00000000000E+00 -0.00000000000E+00 -0.10178358773E+04  0.10178358773E+04  0.00000000000E+00 0.  1.
          2    1    1    2  501    0  0.21485309144E+02  0.40621755030E+01  0.34444924818E+02  0.40799174312E+02  0.00000000000E+00 0. -1.
          2    1    1    2  502    0 -0.21485309144E+02 -0.40621755030E+01 -0.10145409495E+04  0.10147765557E+04  0.00000000000E+00 0.  1.
</event>
<event>
 4    1  0.6210801E+003  0.2973256E+02  0.7546771E-02  0.1421935E+00
          2   -1    0    0  501    0  0.00000000000E+00  0.00000000000E+00  0.56711574460E+03  0.56711574460E+03  0.00000000000E+00 0. -1.
          2   -1    0    0  502    0 -0.00000000000E+00 -0.00000000000E+00 -0.92606697596E+01  0.92606697596E+01  0.00000000000E+00 0.  1.
          2    1    1    2  501    0  0.26450051896E+02 -0.13580128644E+02  0.16110910317E+02  0.33816956849E+02  0.00000000000E+00 0.  1.
          2    1    1    2  502    0 -0.26450051896E+02  0.13580128644E+02  0.54174416453E+03  0.54255945751E+03  0.00000000000E+00 0. -1.
</event>
<event>
 4    1  0.6210801E+003  0.2565965E+02  0.7546771E-02  0.1461557E+00
          2   -1    0    0  501    0  0.00000000000E+00  0.00000000000E+00  0.99566872363E+00  0.99566872363E+00  0.00000000000E+00 0.  1.
          2   -1    0    0  502    0 -0.00000000000E+00 -0.00000000000E+00 -0.14166974507E+04  0.14166974507E+04  0.00000000000E+00 0.  1.
          2    1    1    2  501    0  0.22479033835E+02 -0.12373799315E+02 -0.12254655796E+04  0.12257341901E+04  0.00000000000E+00 0.  1.
          2    1    1    2  502    0 -0.22479033835E+02  0.12373799315E+02 -0.19023620230E+03  0.19195892929E+03  0.00000000000E+00 0.  1.
</event>
<event>
 4    1  0.6210801E+003  0.2320480E+02  0.7546771E-02  0.1489942E+00
          2   -1    0    0  502    0  0.00000000000E+00  0.00000000000E+00  0.16042099389E+02  0.16042099389E+02  0.00000000000E+00 0. -1.
          2   -1    0    0  501    0 -0.00000000000E+00 -0.00000000000E+00 -0.57699239509E+02  0.57699239509E+02  0.00000000000E+00 0.  1.
          2    1    1    2  501    0 -0.61086258681E+01  0.22386320863E+02  0.30169830206E+01  0.23400103810E+02  0.00000000000E+00 0. -1.
          2    1    1    2  502    0  0.61086258681E+01 -0.22386320863E+02 -0.44674123141E+02  0.50341235088E+02  0.00000000000E+00 0.  1.
</event>
<event>
 4    1  0.6210801E+003  0.2914562E+02  0.7546771E-02  0.1427169E+00
          2   -1    0    0  501    0  0.00000000000E+00  0.00000000000E+00  0.39240145695E+03  0.39240145695E+03  0.00000000000E+00 0. -1.
          2   -1    0    0  502    0 -0.00000000000E+00 -0.00000000000E+00 -0.50127161828E+03  0.50127161828E+03  0.00000000000E+00 0. -1.
          2    1    1    2  501    0  0.28423710181E+02 -0.64467076348E+01 -0.50030572023E+03  0.50115394943E+03  0.00000000000E+00 0. -1.
          2    1    1    2  502    0 -0.28423710181E+02  0.64467076348E+01  0.39143555890E+03  0.39251912579E+03  0.00000000000E+00 0. -1.
</event>
<event>
 4    1  0.6210801E+003  0.2252487E+02  0.7546771E-02  0.1498552E+00
          2   -1    0    0  502    0  0.00000000000E+00  0.00000000000E+00  0.31770617105E+01  0.31770617105E+01  0.00000000000E+00 0. -1.
          2   -1    0    0  501    0 -0.00000000000E+00 -0.00000000000E+00 -0.67754201870E+03  0.67754201870E+03  0.00000000000E+00 0. -1.
          2    1    1    2  501    0  0.60842740467E+01 -0.21687588529E+02 -0.39626033469E+02  0.45580614469E+02  0.00000000000E+00 0. -1.
          2    1    1    2  502    0 -0.60842740467E+01  0.21687588529E+02 -0.63473892352E+03  0.63513846594E+03  0.00000000000E+00 0. -1.
</event>
<event>
 4    1  0.6210801E+003  0.2933222E+02  0.7546771E-02  0.1425490E+00
          2   -1    0    0  502    0  0.00000000000E+00  0.00000000000E+00  0.52782580141E+03  0.52782580141E+03  0.00000000000E+00 0. -1.
          2   -1    0    0  501    0 -0.00000000000E+00 -0.00000000000E+00 -0.71357591844E+01  0.71357591844E+01  0.00000000000E+00 0.  1.
          2    1    1    2  501    0 -0.16918910589E+02 -0.23960999338E+02  0.49529714681E+03  0.49616493494E+03  0.00000000000E+00 0. -1.
          2    1    1    2  502    0  0.16918910589E+02  0.23960999338E+02  0.25392895419E+02  0.38796625659E+02  0.00000000000E+00 0.  1.
</event>
<event>
 4    1  0.6210801E+003  0.3232940E+02  0.7546771E-02  0.1400378E+00
          2   -1    0    0  502    0  0.00000000000E+00  0.00000000000E+00  0.31120793922E+01  0.31120793922E+01  0.00000000000E+00 0.  1.
          2   -1    0    0  501    0 -0.00000000000E+00 -0.00000000000E+00 -0.78971245570E+03  0.78971245570E+03  0.00000000000E+00 0. -1.
          2    1    1    2  501    0  0.80459277254E+01 -0.31312190140E+02 -0.92779083635E+02  0.98250437986E+02  0.00000000000E+00 0.  1.
          2    1    1    2  502    0 -0.80459277254E+01  0.31312190140E+02 -0.69382129268E+03  0.69457409711E+03  0.00000000000E+00 0. -1.
</event>
<event>
 4    1  0.6210801E+003  0.4963285E+02  0.7546771E-02  0.1299772E+00
          2   -1    0    0  501    0  0.00000000000E+00  0.00000000000E+00  0.13442786951E+03  0.13442786951E+03  0.00000000000E+00 0.  1.
          2   -1    0    0  502    0 -0.00000000000E+00 -0.00000000000E+00 -0.26640538031E+03  0.26640538031E+03  0.00000000000E+00 0. -1.
          2    1    1    2  501    0  0.49135159475E+02 -0.70111382056E+01 -0.25938955595E+03  0.26409536477E+03  0.00000000000E+00 0. -1.
          2    1    1    2  502    0 -0.49135159475E+02  0.70111382056E+01  0.12741204516E+03  0.13673788505E+03  0.00000000000E+00 0.  1.
</event>
<event>
 4    1  0.6210801E+003  0.2307010E+02  0.7546771E-02  0.1491620E+00
          2   -1    0    0  501    0  0.00000000000E+00  0.00000000000E+00  0.71597214644E+02  0.71597214644E+02  0.00000000000E+00 0. -1.
          2   -1    0    0  502    0 -0.00000000000E+00 -0.00000000000E+00 -0.99511524506E+03  0.99511524506E+03  0.00000000000E+00 0. -1.
          2    1    1    2  501    0  0.23020231959E+02 -0.15161348569E+01 -0.99311938377E+03  0.99338730623E+03  0.00000000000E+00 0. -1.
          2    1    1    2  502    0 -0.23020231959E+02  0.15161348569E+01  0.69601353354E+02  0.73325153481E+02  0.00000000000E+00 0. -1.
</event>
<event>
 4    1  0.6210801E+003  0.3617539E+02  0.7546771E-02  0.1372483E+00
          2   -1    0    0  502    0  0.00000000000E+00  0.00000000000E+00  0.24628062454E+03  0.24628062454E+03  0.00000000000E+00 0.  1.
          2   -1    0    0  501    0 -0.00000000000E+00 -0.00000000000E+00 -0.28656779757E+03  0.28656779757E+03  0.00000000000E+00 0. -1.
          2    1    1    2  501    0 -0.20696014163E+02 -0.29670424530E+02  0.24379897779E+03  0.24646825488E+03  0.00000000000E+00 0.  1.
          2    1    1    2  502    0  0.20696014163E+02  0.29670424530E+02 -0.28408615082E+03  0.28638016723E+03  0.00000000000E+00 0. -1.
</event>
<event>
 4    1  0.6210801E+003  0.4049828E+02  0.7546771E-02  0.1345590E+00
          2   -1    0    0  502    0  0.00000000000E+00  0.00000000000E+00  0.23490121694E+03  0.23490121694E+03  0.00000000000E+00 0. -1.
          2   -1    0    0  501    0 -0.00000000000E+00 -0.00000000000E+00 -0.20412144460E+03  0.20412144460E+03  0.00000000000E+00 0.  1.
          2    1    1    2  501    0 -0.37236936325E+02  0.15922340271E+02  0.23111427609E+03  0.23463571543E+03  0.00000000000E+00 0. -1.
          2    1    1    2  502    0  0.37236936325E+02 -0.15922340271E+02 -0.20033450374E+03  0.20438694610E+03  0.00000000000E+00 0.  1.
</event>
<event>
 4    1  0.6210801E+003  0.2165376E+02  0.7546771E-02  0.1510132E+00
          2   -1    0    0  501    0  0.00000000000E+00  0.00000000000E+00  0.28498375487E+01  0.28498375487E+01  0.00000000000E+00 0.  1.
          2   -1    0    0  502    0 -0.00000000000E+00 -0.00000000000E+00 -0.38762235294E+03  0.38762235294E+03  0.00000000000E+00 0. -1.
          2    1    1    2  501    0  0.13326013513E+02  0.17067592239E+02 -0.34050073573E+03  0.34118856425E+03  0.00000000000E+00 0. -1.
          2    1    1    2  502    0 -0.13326013513E+02 -0.17067592239E+02 -0.44271779656E+02  0.49283626235E+02  0.00000000000E+00 0.  1.
</event>
<event>
 4    1  0.6210801E+003  0.2474796E+02  0.7546771E-02  0.1471643E+00
          2   -1    0    0  502    0  0.00000000000E+00  0.00000000000E+00  0.52618761919E+03  0.52618761919E+03  0.00000000000E+00 0.  1.
          2   -1    0    0  501    0 -0.00000000000E+00 -0.00000000000E+00 -0.42910081723E+01  0.42910081723E+01  0.00000000000E+00 0. -1.
          2    1    1    2  501    0 -0.92746660034E+01 -0.22944321553E+02  0.48737389816E+03  0.48800182164E+03  0.00000000000E+00 0.  1.
          2    1    1    2  502    0  0.92746660034E+01  0.22944321553E+02  0.34522712864E+02  0.42476805723E+02  0.00000000000E+00 0. -1.
</event>
<event>
 4    1  0.6210801E+003  0.3128464E+02  0.7546771E-02  0.1408752E+00
          2   -1    0    0  502    0  0.00000000000E+00  0.00000000000E+00  0.39374171038E+03  0.39374171038E+03  0.00000000000E+00 0.  1.
          2   -1    0    0  501    0 -0.00000000000E+00 -0.00000000000E+00 -0.18396437675E+03  0.18396437675E+03  0.00000000000E+00 0.  1.
          2    1    1    2  501    0 -0.23925157189E+02  0.20157264997E+02  0.39178359379E+03  0.39303067671E+03  0.00000000000E+00 0.  1.
          2    1    1    2  502    0  0.23925157189E+02 -0.20157264997E+02 -0.18200626016E+03  0.18467541042E+03  0.00000000000E+00 0.  1.
</event>
<event>
 4    1  0.6210801E+003  0.2696216E+02  0.7546771E-02  0.1447989E+00
          2   -1    0    0  502    0  0.00000000000E+00  0.00000000000E+00  0.14195142557E+02  0.14195142557E+02  0.00000000000E+00 0.  1.
          2   -1    0    0  501    0 -0.00000000000E+00 -0.00000000000E+00 -0.86605329153E+03  0.86605329153E+03  0.00000000000E+00 0. -1.
          2    1    1    2  501    0 -0.25992858460E+02  0.71644346614E+01  0.98408619181E+00  0.26980108239E+02  0.00000000000E+00 0.  1.
          2    1    1    2  502    0  0.25992858460E+02 -0.71644346614E+01 -0.85284223516E+03  0.85326832584E+03  0.00000000000E+00 0. -1.
</event>
<event>
 4    1  0.6210801E+003  0.2270162E+02  0.7546771E-02  0.1496279E+00
          2   -1    0    0  502    0  0.00000000000E+00  0.00000000000E+00  0.11150401030E+04  0.11150401030E+04  0.00000000000E+00 0.  1.
          2   -1    0    0  501    0 -0.00000000000E+00 -0.00000000000E+00 -0.26405429691E+03  0.26405429691E+03  0.00000000000E+00 0. -1.
          2    1    1    2  501    0 -0.17001549188E+02  0.15043637411E+02  0.11144363569E+04  0.11146675546E+04  0.00000000000E+00 0.  1.
          2    1    1    2  502    0  0.17001549188E+02 -0.15043637411E+02 -0.26345055090E+03  0.26442684521E+03  0.00000000000E+00 0. -1.
</event>
<event>
 4    1  0.6210801E+003  0.2062686E+02  0.7546771E-02  0.1524660E+00
          2   -1    0    0  502    0  0.00000000000E+00  0.00000000000E+00  0.36051970206E+01  0.36051970206E+01  0.00000000000E+00 0. -1.
          2   -1    0    0  501    0 -0.00000000000E+00 -0.00000000000E+00 -0.36417723782E+03  0.36417723782E+03  0.00000000000E+00 0. -1.
          2    1    1    2  501    0  0.16348601812E+02 -0.12577375225E+02 -0.29098707474E+02  0.35667939742E+02  0.00000000000E+00 0. -1.
          2    1    1    2  502    0 -0.16348601812E+02  0.12577375225E+02 -0.33147333332E+03  0.33211449510E+03  0.00000000000E+00 0. -1.
</event>
<event>
 4    1  0.6210801E+003  0.2939297E+02  0.7546771E-02  0.1424946E+00
          2   -1    0    0  501    0  0.00000000000E+00  0.00000000000E+00  0.46288098462E+02  0.46288098462E+02  0.00000000000E+00 0.  1.
          2   -1    0    0  502    0 -0.00000000000E+00 -0.00000000000E+00 -0.68850901193E+02  0.68850901193E+02  0.00000000000E+00 0.  1.
          2    1    1    2  501    0 -0.98663503523E+01  0.27687575200E+02 -0.60432183969E+02  0.67201157348E+02  0.00000000000E+00 0.  1.
          2    1    1    2  502    0  0.98663503523E+01 -0.27687575200E+02  0.37869381238E+02  0.47937842307E+02  0.00000000000E+00 0.  1.
</event>
<event>
 4    1  0.6210801E+003  0.2621123E+02  0.7546771E-02  0.1455696E+00
          2   -1    0    0  502    0  0.00000000000E+00  0.00000000000E+00  0.19103650753E+02  0.19103650753E+02  0.00000000000E+00 0. -1.
          2   -1    0    0  501    0 -0.00000000000E+00 -0.00000000000E+00 -0.36964646559E+02  0.36964646559E+02  0.00000000000E+00 0. -1.
          2    1    1    2  501    0 -0.25919209211E+02  0.39017217862E+01 -0.43162264085E+01  0.26564236285E+02  0.00000000000E+00 0. -1.
          2    1    1    2  502    0  0.25919209211E+02 -0.39017217862E+01 -0.13544769398E+02  0.29504061027E+02  0.00000000000E+00 0. -1.
</event>
<event>
 4    1  0.8867619E+003  0.3353254E+02  0.7546771E-02  0.1391184E+00
          2   -1    0    0  502    0  0.00000000000E+00  0.00000000000E+00  0.14881882081E+04  0.14881882081E+04  0.00000000000E+00 0.  1.
          2   -1    0    0  501    0 -0.00000000000E+00 -0.00000000000E+00 -0.12621647803E+04  0.12621647803E+04  0.00000000000E+00 0.  1.
          2    1    1    2  501    0 -0.14537975785E+02 -0.30217191541E+02  0.14877765350E+04  0.14881543769E+04  0.00000000000E+00 0.  1.
          2    1    1    2  502    0  0.14537975785E+02  0.30217191541E+02 -0.12617531071E+04  0.12621986115E+04  0.00000000000E+00 0.  1.
</event>
<event>
 4    1  0.6210801E+003  0.2110547E+02  0.7546771E-02  0.1517764E+00
          2   -1    0    0  502    0  0.00000000000E+00  0.00000000000E+00  0.67875755527E+02  0.67875755527E+02  0.00000000000E+00 0.  1.
          2   -1    0    0  501    0 -0.00000000000E+00 -0.00000000000E+00 -0.89689740400E+01  0.89689740400E+01  0.00000000000E+00 0.  1.
          2    1    1    2  501    0  0.12450998382E+02  0.17041528013E+02  0.49355302674E+02  0.53678551953E+02  0.00000000000E+00 0.  1.
          2    1    1    2  502    0 -0.12450998382E+02 -0.17041528013E+02  0.95514788121E+01  0.23166177613E+02  0.00000000000E+00 0.  1.
</event>
<event>
 4    1  0.6210801E+003  0.2586795E+02  0.7546771E-02  0.1459324E+00
          2   -1    0    0  502    0  0.00000000000E+00  0.00000000000E+00  0.59256615532E+03  0.59256615532E+03  0.00000000000E+00 0.  1.
          2   -1    0    0  501    0 -0.00000000000E+00 -0.00000000000E+00 -0.28142446472E+01  0.28142446472E+01  0.00000000000E+00 0.  1.
          2    1    1    2  501    0  0.20957313109E+02 -0.15163825836E+02  0.52522367008E+03  0.52586029913E+03  0.00000000000E+00 0.  1.
          2    1    1    2  502    0 -0.20957313109E+02  0.15163825836E+02  0.64528240597E+02  0.69520100844E+02  0.00000000000E+00 0.  1.
</event>
<event>
 4    1  0.6210801E+003  0.2076388E+02  0.7546771E-02  0.1522663E+00
          2   -1    0    0  501    0  0.00000000000E+00  0.00000000000E+00  0.30500102423E+01  0.30500102423E+01  0.00000000000E+00 0. -1.
          2   -1    0    0  502    0 -0.00000000000E+00 -0.00000000000E+00 -0.29492047308E+03  0.29492047308E+03  0.00000000000E+00 0. -1.
          2    1    1    2  501    0  0.85610548360E+01 -0.18916848801E+02 -0.25344190713E+03  0.25429105198E+03  0.00000000000E+00 0. -1.
          2    1    1    2  502    0 -0.85610548360E+01  0.18916848801E+02 -0.38428555713E+02  0.43679431345E+02  0.00000000000E+00 0. -1.
</event>
<event>
 4    1  0.6210801E+003  0.2798172E+02  0.7546771E-02  0.1437988E+00
          2   -1    0    0  502    0  0.00000000000E+00  0.00000000000E+00  0.24877895418E+03  0.24877895418E+03  0.00000000000E+00 0.  1.
          2   -1    0    0  501    0 -0.00000000000E+00 -0.00000000000E+00 -0.45171948289E+01  0.45171948289E+01  0.00000000000E+00 0.  1.
          2    1    1    2  501    0 -0.27864662924E+02  0.25568000690E+01  0.19187557691E+03  0.19390516672E+03  0.00000000000E+00 0.  1.
          2    1    1    2  502    0  0.27864662924E+02 -0.25568000690E+01  0.52386182448E+02  0.59390982295E+02  0.00000000000E+00 0.  1.
</event>
<event>
 4    1  0.6210801E+003  0.2301230E+02  0.7546771E-02  0.1492344E+00
          2   -1    0    0  502    0  0.00000000000E+00  0.00000000000E+00  0.11081015622E+02  0.11081015622E+02  0.00000000000E+00 0.  1.
          2   -1    0    0  501    0 -0.00000000000E+00 -0.00000000000E+00 -0.24429621725E+03  0.24429621725E+03  0.00000000000E+00 0.  1.
          2    1    1    2  501    0  0.16633386336E+02  0.15902721975E+02 -0.20875526537E+01  0.23106795176E+02  0.00000000000E+00 0.  1.
          2    1    1    2  502    0 -0.16633386336E+02 -0.15902721975E+02 -0.23112764898E+03  0.23227043770E+03  0.00000000000E+00 0.  1.
</event>
<event>
 4    1  0.6210801E+003  0.3725949E+02  0.7546771E-02  0.1365339E+00
          2   -1    0    0  502    0  0.00000000000E+00  0.00000000000E+00  0.19692060015E+03  0.19692060015E+03  0.00000000000E+00 0.  1.
          2   -1    0    0  501    0 -0.00000000000E+00 -0.00000000000E+00 -0.38666477601E+03  0.38666477601E+03  0.00000000000E+00 0. -1.
          2    1    1    2  501    0  0.24668492270E+02  0.27923733401E+02  0.19424829746E+03  0.19778945994E+03  0.00000000000E+00 0.  1.
          2    1    1    2  502    0 -0.24668492270E+02 -0.27923733401E+02 -0.38399247333E+03  0.38579591622E+03  0.00000000000E+00 0. -1.
</event>
<event>
 4    1  0.6210801E+003  0.2246742E+02  0.7546771E-02  0.1499296E+00
          2   -1    0    0  501    0  0.00000000000E+00  0.00000000000E+00  0.34287788400E+01  0.34287788400E+01  0.00000000000E+00 0. -1.
          2   -1    0    0  502    0 -0.00000000000E+00 -0.00000000000E+00 -0.18929226931E+03  0.18929226931E+03  0.00000000000E+00 0. -1.
          2    1    1    2  501    0  0.16227516476E+02 -0.15538751011E+02 -0.13836044452E+03  0.14017274230E+03  0.00000000000E+00 0. -1.
          2    1    1    2  502    0 -0.16227516476E+02  0.15538751011E+02 -0.47503045947E+02  0.52548305855E+02  0.00000000000E+00 0. -1.
</event>
<event>
 4    1  0.6210801E+003  0.2045277E+02  0.7546771E-02  0.1527223E+00
          2   -1    0    0  502    0  0.00000000000E+00  0.00000000000E+00  0.34266555207E+03  0.34266555207E+03  0.00000000000E+00 0. -1.
          2   -1    0    0  501    0 -0.00000000000E+00 -0.00000000000E+00 -0.59183669130E+01  0.59183669130E+01  0.00000000000E+00 0.  1.
          2    1    1    2  501    0 -0.10967448891E+02 -0.17263569169E+02  0.32365315311E+03  0.32429875004E+03  0.00000000000E+00 0. -1.
          2    1    1    2  502    0  0.10967448891E+02  0.17263569169E+02  0.13094032047E+02  0.24285168949E+02  0.00000000000E+00 0.  1.
</event>
<event>
 4    1  0.6210801E+003  0.2058225E+02  0.7546771E-02  0.1525314E+00
          2   -1    0    0  501    0  0.00000000000E+00  0.00000000000E+00  0.11179336951E+04  0.11179336951E+04  0.00000000000E+00 0.  1.
          2   -1    0    0  502    0 -0.00000000000E+00 -0.00000000000E+00 -0.42608281399E+02  0.42608281399E+02  0.00000000000E+00 0.  1.
          2    1    1    2  501    0 -0.20575316626E+02 -0.53433494179E+00 -0.40022180316E+02  0.45004489613E+02  0.00000000000E+00 0.  1.
          2    1    1    2  502    0  0.20575316626E+02  0.53433494179E+00  0.11153475940E+04  0.11155374869E+04  0.00000000000E+00 0.  1.
</event>
<event>
 4    1  0.6210801E+003  0.2877133E+02  0.7546771E-02  0.1430583E+00
          2   -1    0    0  502    0  0.00000000000E+00  0.00000000000E+00  0.25004856453E+02  0.25004856453E+02  0.00000000000E+00 0. -1.
          2   -1    0    0  501    0 -0.00000000000E+00 -0.00000000000E+00 -0.95826227509E+02  0.95826227509E+02  0.00000000000E+00 0.  1.
          2    1    1    2  501    0 -0.28223955187E+02 -0.55855089589E+01  0.13467292409E+02  0.31767239753E+02  0.00000000000E+00 0. -1.
          2    1    1    2  502    0  0.28223955187E+02  0.55855089589E+01 -0.84288663464E+02  0.89063844209E+02  0.00000000000E+00 0.  1.
</event>
<event>
 4    1  0.6210801E+003  0.3463431E+02  0.7546771E-02  0.1383152E+00
          2   -1    0    0  502    0  0.00000000000E+00  0.00000000000E+00  0.49121928139E+02  0.49121928139E+02  0.00000000000E+00 0. -1.
          2   -1    0    0  501    0 -0.00000000000E+00 -0.00000000000E+00 -0.48506894332E+03  0.48506894332E+03  0.00000000000E+00 0.  1.
          2    1    1    2  501    0  0.29396041907E+02 -0.18314159176E+02  0.42311995610E+02  0.54679435610E+02  0.00000000000E+00 0. -1.
          2    1    1    2  502    0 -0.29396041907E+02  0.18314159176E+02 -0.47825901080E+03  0.47951143585E+03  0.00000000000E+00 0.  1.
</event>
<event>
 4    1  0.6210801E+003  0.2781662E+02  0.7546771E-02  0.1439573E+00
          2   -1    0    0  501    0  0.00000000000E+00  0.00000000000E+00  0.58035175821E+02  0.58035175821E+02  0.00000000000E+00 0. -1.
          2   -1    0    0  502    0 -0.00000000000E+00 -0.00000000000E+00 -0.13498577413E+02  0.13498577413E+02  0.00000000000E+00 0. -1.
          2    1    1    2  501    0  0.18448044526E+02  0.20819078478E+02  0.18303163949E+02  0.33298200943E+02  0.00000000000E+00 0. -1.
          2    1    1    2  502    0 -0.18448044526E+02 -0.20819078478E+02  0.26233434459E+02  0.38235552291E+02  0.00000000000E+00 0. -1.
</event>
<event>
 4    1  0.6210801E+003  0.3023405E+02  0.7546771E-02  0.1417573E+00
          2   -1    0    0  501    0  0.00000000000E+00  0.00000000000E+00  0.31539461640E+03  0.31539461640E+03  0.00000000000E+00 0.  1.
          2   -1    0    0  502    0 -0.00000000000E+00 -0.00000000000E+00 -0.62207174599E+03  0.62207174599E+03  0.00000000000E+00 0.  1.
          2    1    1    2  501    0  0.28860404854E+02 -0.90096928067E+01 -0.62097854448E+03  0.62171412260E+03  0.00000000000E+00 0.  1.
          2    1    1    2  502    0 -0.28860404854E+02  0.90096928067E+01  0.31430141489E+03  0.31575223980E+03  0.00000000000E+00 0.  1.
</event>
<event>
 4    1  0.6210801E+003  0.6699025E+02  0.7546771E-02  0.1237769E+00
          2   -1    0    0  501    0  0.00000000000E+00  0.00000000000E+00  0.83894198498E+03  0.83894198498E+03  0.00000000000E+00 0. -1.
          2   -1    0    0  502    0 -0.00000000000E+00 -0.00000000000E+00 -0.20953170068E+03  0.20953170068E+03  0.00000000000E+00 0. -1.
          2    1    1    2  501    0 -0.39666653702E+02 -0.53983800442E+02 -0.20279669650E+03  0.21357479776E+03  0.00000000000E+00 0. -1.
          2    1    1    2  502    0  0.39666653702E+02  0.53983800442E+02  0.83220698080E+03  0.83489888790E+03  0.00000000000E+00 0. -1.
</event>
<event>
 4    1  0.6210801E+003  0.4632272E+02  0.7546771E-02  0.1314955E+00
          2   -1    0    0  502    0  0.00000000000E+00  0.00000000000E+00  0.22369674480E+02  0.22369674480E+02  0.00000000000E+00 0.  1.
          2   -1    0    0  501    0 -0.00000000000E+00 -0.00000000000E+00 -0.53665151648E+03  0.53665151648E+03  0.00000000000E+00 0.  1.
          2    1    1    2  501    0 -0.31435495336E+02  0.34023582211E+02 -0.38398366019E+01  0.46481596988E+02  0.00000000000E+00 0.  1.
          2    1    1    2  502    0  0.31435495336E+02 -0.34023582211E+02 -0.51044200540E+03  0.51253959397E+03  0.00000000000E+00 0.  1.
</event>
<event>
 4    1  0.6210801E+003  0.2666952E+02  0.7546771E-02  0.1450956E+00
          2   -1    0    0  501    0  0.00000000000E+00  0.00000000000E+00  0.34893620058E+03  0.34893620058E+03  0.00000000000E+00 0. -1.
          2   -1    0    0  502    0 -0.00000000000E+00 -0.00000000000E+00 -0.82813441946E+03  0.82813441946E+03  0.00000000000E+00 0. -1.
          2    1    1    2  501    0  0.60365233563E+01 -0.25977365635E+02 -0.82740966072E+03  0.82783936232E+03  0.00000000000E+00 0. -1.
          2    1    1    2  502    0 -0.60365233563E+01  0.25977365635E+02  0.34821144184E+03  0.34923125772E+03  0.00000000000E+00 0. -1.
</event>
<event>
 4    1  0.6210801E+003  0.2192966E+02  0.7546771E-02  0.1506394E+00
          2   -1    0    0  501    0  0.00000000000E+00  0.00000000000E+00  0.12575359218E+04  0.12575359218E+04  0.00000000000E+00 0.  1.
          2   -1    0    0  502    0 -0.00000000000E+00 -0.00000000000E+00 -0.16606630753E+02  0.16606630753E+02  0.00000000000E+00 0. -1.
          2    1    1    2  501    0  0.20104217295E+02 -0.87595973183E+01 -0.92285715685E+01  0.23792364982E+02  0.00000000000E+00 0. -1.
          2    1    1    2  502    0 -0.20104217295E+02  0.87595973183E+01  0.12501578626E+04  0.12503501876E+04  0.00000000000E+00 0.  1.
</event>
<event>
 4    1  0.6210801E+003  0.3487835E+02  0.7546771E-02  0.1381420E+00
          2   -1    0    0  501    0  0.00000000000E+00  0.00000000000E+00  0.67014032400E+03  0.67014032400E+03  0.00000000000E+00 0. -1.
          2   -1    0    0  502    0 -0.00000000000E+00 -0.00000000000E+00 -0.27099066769E+01  0.27099066769E+01  0.00000000000E+00 0. -1.
          2    1    1    2  501    0 -0.24844282759E+02 -0.24479809271E+02  0.14041621832E+03  0.14468314973E+03  0.00000000000E+00 0. -1.
          2    1    1    2  502    0  0.24844282759E+02  0.24479809271E+02  0.52701419900E+03  0.52816708095E+03  0.00000000000E+00 0. -1.
</event>
<event>
 4    1  0.6210801E+003  0.2349386E+02  0.7546771E-02  0.1486388E+00
          2   -1    0    0  502    0  0.00000000000E+00  0.00000000000E+00  0.21373757256E+02  0.21373757256E+02  0.00000000000E+00 0. -1.
          2   -1    0    0  501    0 -0.00000000000E+00 -0.00000000000E+00 -0.87815123672E+03  0.87815123672E+03  0.00000000000E+00 0. -1.
          2    1    1    2  501    0  0.23258528359E+02  0.33169850737E+01  0.14711206290E+02  0.27719688344E+02  0.00000000000E+00 0. -1.
          2    1    1    2  502    0 -0.23258528359E+02 -0.33169850737E+01 -0.87148868575E+03  0.87180530563E+03  0.00000000000E+00 0. -1.
</event>
<event>
 4    1  0.6210801E+003  0.3681308E+02  0.7546771E-02  0.1368246E+00
          2   -1    0    0  501    0  0.00000000000E+00  0.00000000000E+00  0.70098955706E+03  0.70098955706E+03  0.00000000000E+00 0. -1.
          2   -1    0    0  502    0 -0.00000000000E+00 -0.00000000000E+00 -0.78644278684E+01  0.78644278684E+01  0.00000000000E+00 0.  1.
          2    1    1    2  501    0 -0.35235087995E+01 -0.36644072802E+02  0.38766610453E+02  0.53460763853E+02  0.00000000000E+00 0.  1.
          2    1    1    2  502    0  0.35235087995E+01  0.36644072802E+02  0.65435851874E+03  0.65539322107E+03  0.00000000000E+00 0. -1.
</event>
<event>
 4    1  0.6210801E+003  0.2710250E+02  0.7546771E-02  0.1446581E+00
          2   -1    0    0  501    0  0.00000000000E+00  0.00000000000E+00  0.79672746509E+02  0.79672746509E+02  0.00000000000E+00 0.  1.
          2   -1    0    0  502    0 -0.00000000000E+00 -0.00000000000E+00 -0.19241466274E+04  0.19241466274E+04  0.00000000000E+00 0. -1.
          2    1    1    2  501    0  0.27066823016E+02 -0.13902217544E+01 -0.19217434238E+04  0.19219345287E+04  0.00000000000E+00 0. -1.
          2    1    1    2  502    0 -0.27066823016E+02  0.13902217544E+01  0.77269542883E+02  0.81884845252E+02  0.00000000000E+00 0.  1.
</event>
<event>
 4    1  0.6210801E+003  0.7746159E+02  0.7546771E-02  0.1209866E+00
          2   -1    0    0  502    0  0.00000000000E+00  0.00000000000E+00  0.17839368779E+03  0.17839368779E+03  0.00000000000E+00 0. -1.
          2   -1    0    0  501    0 -0.00000000000E+00 -0.00000000000E+00 -0.17569959928E+04  0.17569959928E+04  0.00000000000E+00 0. -1.
          2    1    1    2  501    0 -0.68620622446E+02  0.35937557583E+02  0.16908636979E+03  0.18598520995E+03  0.00000000000E+00 0. -1.
          2    1    1    2  502    0  0.68620622446E+02 -0.35937557583E+02 -0.17476886748E+04  0.17494044706E+04  0.00000000000E+00 0. -1.
</event>
<event>
 4    1  0.6210801E+003  0.3266388E+02  0.7546771E-02  0.1397775E+00
          2   -1    0    0  501    0  0.00000000000E+00  0.00000000000E+00  0.74852468107E+02  0.74852468107E+02  0.00000000000E+00 0.  1.
          2   -1    0    0  502    0 -0.00000000000E+00 -0.00000000000E+00 -0.18490858143E+02  0.18490858143E+02  0.00000000000E+00 0. -1.
          2    1    1    2  501    0 -0.12667877553E+02  0.30107369949E+02  0.58394664398E+01  0.33181745211E+02  0.00000000000E+00 0. -1.
          2    1    1    2  502    0  0.12667877553E+02 -0.30107369949E+02  0.50522143523E+02  0.60161581039E+02  0.00000000000E+00 0.  1.
</event>
<event>
 4    1  0.6210801E+003  0.3007471E+02  0.7546771E-02  0.1418948E+00
          2   -1    0    0  502    0  0.00000000000E+00  0.00000000000E+00  0.14326542916E+03  0.14326542916E+03  0.00000000000E+00 0. -1.
          2   -1    0    0  501    0 -0.00000000000E+00 -0.00000000000E+00 -0.31554063776E+03  0.31554063776E+03  0.00000000000E+00 0.  1.
          2    1    1    2  501    0  0.37238433230E+01 -0.29843275777E+02  0.14095887233E+03  0.14413150873E+03  0.00000000000E+00 0. -1.
          2    1    1    2  502    0 -0.37238433230E+01  0.29843275777E+02 -0.31323408093E+03  0.31467455820E+03  0.00000000000E+00 0.  1.
</event>
<event>
 4    1  0.6210801E+003  0.5237084E+02  0.7546771E-02  0.1288208E+00
          2   -1    0    0  502    0  0.00000000000E+00  0.00000000000E+00  0.89052734958E+03  0.89052734958E+03  0.00000000000E+00 0.  1.
          2   -1    0    0  501    0 -0.00000000000E+00 -0.00000000000E+00 -0.12071503271E+02  0.12071503271E+02  0.00000000000E+00 0.  1.
          2    1    1    2  501    0  0.11827369156E+02  0.51017820576E+02  0.82872436890E+03  0.83037749505E+03  0.00000000000E+00 0.  1.
          2    1    1    2  502    0 -0.11827369156E+02 -0.51017820576E+02  0.49731477412E+02  0.72221357804E+02  0.00000000000E+00 0.  1.
</event>
<event>
 4    1  0.6210801E+003  0.2551585E+02  0.7546771E-02  0.1463115E+00
          2   -1    0    0  502    0  0.00000000000E+00  0.00000000000E+00  0.18578866796E+04  0.18578866796E+04  0.00000000000E+00 0. -1.
          2   -1    0    0  501    0 -0.00000000000E+00 -0.00000000000E+00 -0.95397185905E+01  0.95397185905E+01  0.00000000000E+00 0. -1.
          2    1    1    2  501    0  0.24053367086E+02 -0.85143581544E+01  0.18405768293E+04  0.18407536835E+04  0.00000000000E+00 0. -1.
          2    1    1    2  502    0 -0.24053367086E+02  0.85143581544E+01  0.77701317306E+01  0.26672714711E+02  0.00000000000E+00 0. -1.
</event>
<event>
 4    1  0.6210801E+003  0.4856306E+02  0.7546771E-02  0.1304526E+00
          2   -1    0    0  501    0  0.00000000000E+00  0.00000000000E+00  0.61393283963E+01  0.61393283963E+01  0.00000000000E+00 0.  1.
          2   -1    0    0  502    0 -0.00000000000E+00 -0.00000000000E+00 -0.59862802498E+03  0.59862802498E+03  0.00000000000E+00 0. -1.
          2    1    1    2  501    0  0.44536719464E+02  0.19361086027E+02 -0.47724485567E+03  0.47970931125E+03  0.00000000000E+00 0. -1.
          2    1    1    2  502    0 -0.44536719464E+02 -0.19361086027E+02 -0.11524384091E+03  0.12505804213E+03  0.00000000000E+00 0.  1.
</event>
<event>
 4    1  0.6210801E+003  0.2069747E+02  0.7546771E-02  0.1523628E+00
          2   -1    0    0  502    0  0.00000000000E+00  0.00000000000E+00  0.14848960362E+04  0.14848960362E+04  0.00000000000E+00 0.  1.
          2   -1    0    0  501    0 -0.00000000000E+00 -0.00000000000E+00 -0.47623440623E+00  0.47623440623E+00  0.00000000000E+00 0.  1.
          2    1    1    2  501    0 -0.19106205477E+02  0.79585223203E+01  0.12085176014E+04  0.12086948242E+04  0.00000000000E+00 0.  1.
          2    1    1    2  502    0  0.19106205477E+02 -0.79585223203E+01  0.27590220040E+03  0.27667744640E+03  0.00000000000E+00 0.  1.
</event>
<event>
 4    1  0.6210801E+003  0.3006654E+02  0.7546771E-02  0.1419019E+00
          2   -1    0    0  502    0  0.00000000000E+00  0.00000000000E+00  0.16199586035E+02  0.16199586035E+02  0.00000000000E+00 0. -1.
          2   -1    0    0  501    0 -0.00000000000E+00 -0.00000000000E+00 -0.31666104887E+03  0.31666104887E+03  0.00000000000E+00 0.  1.
          2    1    1    2  501    0  0.33549831471E+01  0.29878772820E+02  0.82480574156E+00  0.30077853675E+02  0.00000000000E+00 0. -1.
          2    1    1    2  502    0 -0.33549831471E+01 -0.29878772820E+02 -0.30128626858E+03  0.30278278123E+03  0.00000000000E+00 0.  1.
</event>
<event>
 4    1  0.6210801E+003  0.2033538E+02  0.7546771E-02  0.1528969E+00
          2   -1    0    0  502    0  0.00000000000E+00  0.00000000000E+00  0.18301147958E+03  0.18301147958E+03  0.00000000000E+00 0. -1.
          2   -1    0    0  501    0 -0.00000000000E+00 -0.00000000000E+00 -0.24357125446E+01  0.24357125446E+01  0.00000000000E+00 0.  1.
          2    1    1    2  501    0  0.20199948335E+02 -0.23430534924E+01  0.11522266617E+03  0.11700337864E+03  0.00000000000E+00 0. -1.
          2    1    1    2  502    0 -0.20199948335E+02  0.23430534924E+01  0.65353100859E+02  0.68443813485E+02  0.00000000000E+00 0.  1.
</event>
<event>
 4    1  0.6210801E+003  0.3004059E+02  0.7546771E-02  0.1419244E+00
          2   -1    0    0  502    0  0.00000000000E+00  0.00000000000E+00  0.82511634633E+02  0.82511634633E+02  0.00000000000E+00 0. -1.
          2   -1    0    0  501    0 -0.00000000000E+00 -0.00000000000E+00 -0.59765582811E+02  0.59765582811E+02  0.00000000000E+00 0.  1.
          2    1    1    2  501    0 -0.13898986221E+02 -0.26631841399E+02  0.75673839478E+02  0.81418467042E+02  0.00000000000E+00 0. -1.
          2    1    1    2  502    0  0.13898986221E+02  0.26631841399E+02 -0.52927787656E+02  0.60858750401E+02  0.00000000000E+00 0.  1.
</event>
<event>
 4    1  0.6210801E+003  0.2132444E+02  0.7546771E-02  0.1514683E+00
          2   -1    0    0  501    0  0.00000000000E+00  0.00000000000E+00  0.30375299011E+02  0.30375299011E+02  0.00000000000E+00 0.  1.
          2   -1    0    0  502    0 -0.00000000000E+00 -0.00000000000E+00 -0.69234979932E+02  0.69234979932E+02  0.00000000000E+00 0.  1.
          2    1    1    2  501    0 -0.75724537765E+01  0.19934633001E+02 -0.63522818323E+02  0.67006567565E+02  0.00000000000E+00 0.  1.
          2    1    1    2  502    0  0.75724537765E+01 -0.19934633001E+02  0.24663137402E+02  0.32603711378E+02  0.00000000000E+00 0.  1.
</event>
<event>
 4    1  0.6210801E+003  0.3844186E+02  0.7546771E-02  0.1357867E+00
          2   -1    0    0  501    0  0.00000000000E+00  0.00000000000E+00  0.32320038262E+02  0.32320038262E+02  0.00000000000E+00 0. -1.
          2   -1    0    0  502    0 -0.00000000000E+00 -0.00000000000E+00 -0.15676501117E+03  0.15676501117E+03  0.00000000000E+00 0.  1.
          2    1    1    2  501    0  0.38268415500E+02  0.36475541190E+01 -0.14179184424E+03  0.14691052845E+03  0.00000000000E+00 0.  1.
          2    1    1    2  502    0 -0.38268415500E+02 -0.36475541190E+01  0.17346871326E+02  0.42174520990E+02  0.00000000000E+00 0. -1.
</event>
<event>
 4    1  0.6210801E+003  0.2262222E+02  0.7546771E-02  0.1497297E+00
          2   -1    0    0  502    0  0.00000000000E+00  0.00000000000E+00  0.21007823974E+03  0.21007823974E+03  0.00000000000E+00 0.  1.
          2   -1    0    0  501    0 -0.00000000000E+00 -0.00000000000E+00 -0.10253616986E+03  0.10253616986E+03  0.00000000000E+00 0.  1.
          2    1    1    2  501    0  0.22287280423E+02 -0.38783944736E+01  0.20821029485E+03  0.20943565049E+03  0.00000000000E+00 0.  1.
          2    1    1    2  502    0 -0.22287280423E+02  0.38783944736E+01 -0.10066822497E+03  0.10317875911E+03  0.00000000000E+00 0.  1.
</event>
<event>
 4    1  0.6210801E+003  0.3207470E+02  0.7546771E-02  0.1402384E+00
          2   -1    0    0  502    0  0.00000000000E+00  0.00000000000E+00  0.16362000287E+04  0.16362000287E+04  0.00000000000E+00 0. -1.
          2   -1    0    0  501    0 -0.00000000000E+00 -0.00000000000E+00 -0.12362817860E+02  0.12362817860E+02  0.00000000000E+00 0. -1.
          2    1    1    2  501    0 -0.30469729721E+02  0.10019084647E+02  0.16149652721E+04  0.16152837573E+04  0.00000000000E+00 0. -1.
          2    1    1    2  502    0  0.30469729721E+02 -0.10019084647E+02  0.88719387614E+01  0.33279089288E+02  0.00000000000E+00 0. -1.
</event>
<event>
 4    1  0.6210801E+003  0.3467211E+02  0.7546771E-02  0.1382883E+00
          2   -1    0    0  502    0  0.00000000000E+00  0.00000000000E+00  0.22016992779E+03  0.22016992779E+03  0.00000000000E+00 0.  1.
          2   -1    0    0  501    0 -0.00000000000E+00 -0.00000000000E+00 -0.23783950080E+02  0.23783950080E+02  0.00000000000E+00 0. -1.
          2    1    1    2  501    0 -0.34339027409E+02 -0.47944446881E+01  0.20525707076E+03  0.20816488801E+03  0.00000000000E+00 0.  1.
          2    1    1    2  502    0  0.34339027409E+02  0.47944446881E+01 -0.88710930497E+01  0.35788989860E+02  0.00000000000E+00 0. -1.
</event>
<event>
 4    1  0.6210801E+003  0.2170387E+02  0.7546771E-02  0.1509448E+00
          2   -1    0    0  501    0  0.00000000000E+00  0.00000000000E+00  0.98644590197E+02  0.98644590197E+02  0.00000000000E+00 0. -1.
          2   -1    0    0  502    0 -0.00000000000E+00 -0.00000000000E+00 -0.83184771525E+03  0.83184771525E+03  0.00000000000E+00 0. -1.
          2    1    1    2  501    0 -0.20305069337E+02 -0.76656547808E+01 -0.83051039692E+03  0.83079394407E+03  0.00000000000E+00 0. -1.
          2    1    1    2  502    0  0.20305069337E+02  0.76656547808E+01  0.97307271867E+02  0.99698361381E+02  0.00000000000E+00 0. -1.
</event>
<event>
 4    1  0.6210801E+003  0.2431656E+02  0.7546771E-02  0.1476596E+00
          2   -1    0    0  502    0  0.00000000000E+00  0.00000000000E+00  0.11738364714E+04  0.11738364714E+04  0.00000000000E+00 0.  1.
          2   -1    0    0  501    0 -0.00000000000E+00 -0.00000000000E+00 -0.21337819893E+01  0.21337819893E+01  0.00000000000E+00 0.  1.
          2    1    1    2  501    0 -0.17488201312E+01  0.24253594266E+02  0.10997674280E+04  0.11000362225E+04  0.00000000000E+00 0.  1.
          2    1    1    2  502    0  0.17488201312E+01 -0.24253594266E+02  0.71935261361E+02  0.75934030802E+02  0.00000000000E+00 0.  1.
</event>
<event>
 4    1  0.6210801E+003  0.2055754E+02  0.7546771E-02  0.1525677E+00
          2   -1    0    0  501    0  0.00000000000E+00  0.00000000000E+00  0.11088668189E+04  0.11088668189E+04  0.00000000000E+00 0. -1.
          2   -1    0    0  502    0 -0.00000000000E+00 -0.00000000000E+00 -0.14003453053E+01  0.14003453053E+01  0.00000000000E+00 0. -1.
          2    1    1    2  501    0  0.17617403112E+02  0.10594312722E+02  0.80129815700E+02  0.82724843418E+02  0.00000000000E+00 0. -1.
          2    1    1    2  502    0 -0.17617403112E+02 -0.10594312722E+02  0.10273366579E+04  0.10275423208E+04  0.00000000000E+00 0. -1.
</event>
<event>
 4    1  0.6210801E+003  0.2752574E+02  0.7546771E-02  0.1442397E+00
          2   -1    0    0  501    0  0.00000000000E+00  0.00000000000E+00  0.19428507709E+03  0.19428507709E+03  0.00000000000E+00 0.  1.
          2   -1    0    0  502    0 -0.00000000000E+00 -0.00000000000E+00 -0.55365121170E+03  0.55365121170E+03  0.00000000000E+00 0.  1.
          2    1    1    2  501    0 -0.84301396999E+01 -0.26203037833E+02 -0.55233181996E+03  0.55301727440E+03  0.00000000000E+00 0.  1.
          2    1    1    2  502    0  0.84301396999E+01  0.26203037833E+02  0.19296568535E+03  0.19491901438E+03  0.00000000000E+00 0.  1.
</event>
<event>
 4    1  0.6210801E+003  0.2474296E+02  0.7546771E-02  0.1471700E+00
          2   -1    0    0  501    0  0.00000000000E+00  0.00000000000E+00  0.13767854174E+02  0.13767854174E+02  0.00000000000E+00 0.  1.
          2   -1    0    0  502    0 -0.00000000000E+00 -0.00000000000E+00 -0.68814641670E+03  0.68814641670E+03  0.00000000000E+00 0. -1.
          2    1    1    2  501    0  0.15075212119E+02 -0.19620194514E+02 -0.67661792475E+03  0.67707018111E+03  0.00000000000E+00 0. -1.
          2    1    1    2  502    0 -0.15075212119E+02  0.19620194514E+02  0.22393622220E+01  0.24844089767E+02  0.00000000000E+00 0.  1.
</event>
<event>
 4    1  0.6210801E+003  0.2447168E+02  0.7546771E-02  0.1474801E+00
          2   -1    0    0  501    0  0.00000000000E+00  0.00000000000E+00  0.50025077819E+02  0.50025077819E+02  0.00000000000E+00 0.  1.
          2   -1    0    0  502    0 -0.00000000000E+00 -0.00000000000E+00 -0.12024945812E+02  0.12024945812E+02  0.00000000000E+00 0.  1.
          2    1    1    2  501    0 -0.18660772900E+02  0.15831568919E+02  0.16926987299E+02  0.29755435112E+02  0.00000000000E+00 0.  1.
          2    1    1    2  502    0  0.18660772900E+02 -0.15831568919E+02  0.21073144709E+02  0.32294588519E+02  0.00000000000E+00 0.  1.
</event>
<event>
 4    1  0.6210801E+003  0.2359733E+02  0.7546771E-02  0.1485131E+00
          2   -1    0    0  502    0  0.00000000000E+00  0.00000000000E+00  0.15024095136E+03  0.15024095136E+03  0.00000000000E+00 0. -1.
          2   -1    0    0  501    0 -0.00000000000E+00 -0.00000000000E+00 -0.35817130183E+03  0.35817130183E+03  0.00000000000E+00 0. -1.
          2    1    1    2  501    0 -0.31841706785E+00  0.23595179715E+02  0.14892229859E+03  0.15078025372E+03  0.00000000000E+00 0. -1.
          2    1    1    2  502    0  0.31841706785E+00 -0.23595179715E+02 -0.35685264907E+03  0.35763199947E+03  0.00000000000E+00 0. -1.
</event>
<event>
 4    1  0.6210801E+003  0.5854806E+02  0.7546771E-02  0.1264847E+00
          2   -1    0    0  502    0  0.00000000000E+00  0.00000000000E+00  0.32904389625E+02  0.32904389625E+02  0.00000000000E+00 0. -1.
          2   -1    0    0  501    0 -0.00000000000E+00 -0.00000000000E+00 -0.39968372356E+03  0.39968372356E+03  0.00000000000E+00 0. -1.
          2    1    1    2  501    0  0.34246316855E+02 -0.47487530953E+02  0.25920037285E+01  0.58605411845E+02  0.00000000000E+00 0. -1.
          2    1    1    2  502    0 -0.34246316855E+02  0.47487530953E+02 -0.36937133766E+03  0.37398270134E+03  0.00000000000E+00 0. -1.
</event>
<event>
 4    1  0.6210801E+003  0.2102785E+02  0.7546771E-02  0.1518868E+00
          2   -1    0    0  502    0  0.00000000000E+00  0.00000000000E+00  0.10519275979E+02  0.10519275979E+02  0.00000000000E+00 0.  1.
          2   -1    0    0  501    0 -0.00000000000E+00 -0.00000000000E+00 -0.85274229286E+02  0.85274229286E+02  0.00000000000E+00 0.  1.
          2    1    1    2  501    0  0.19939697226E+02 -0.66767372145E+01 -0.32707780961E+01  0.21280703340E+02  0.00000000000E+00 0.  1.
          2    1    1    2  502    0 -0.19939697226E+02  0.66767372145E+01 -0.71484175210E+02  0.74512801925E+02  0.00000000000E+00 0.  1.
</event>
<event>
 4    1  0.6210801E+003  0.2742145E+02  0.7546771E-02  0.1443420E+00
          2   -1    0    0  501    0  0.00000000000E+00  0.00000000000E+00  0.18544984373E+02  0.18544984373E+02  0.00000000000E+00 0. -1.
          2   -1    0    0  502    0 -0.00000000000E+00 -0.00000000000E+00 -0.12404939560E+04  0.12404939560E+04  0.00000000000E+00 0. -1.
          2    1    1    2  501    0 -0.26605816114E+02  0.66382437887E+01 -0.12301202987E+04  0.12304258958E+04  0.00000000000E+00 0. -1.
          2    1    1    2  502    0  0.26605816114E+02 -0.66382437887E+01  0.81713271142E+01  0.28613044551E+02  0.00000000000E+00 0. -1.
</event>
<event>
 4    1  0.6210801E+003  0.2095784E+02  0.7546771E-02  0.1519868E+00
          2   -1    0    0  501    0  0.00000000000E+00  0.00000000000E+00  0.51172653417E+03  0.51172653417E+03  0.00000000000E+00 0.  1.
          2   -1    0    0  502    0 -0.00000000000E+00 -0.00000000000E+00 -0.11166758840E+01  0.11166758840E+01  0.00000000000E+00 0.  1.
          2    1    1    2  501    0  0.11460593908E+01 -0.20926482306E+02  0.13196878205E+03  0.13362256752E+03  0.00000000000E+00 0.  1.
          2    1    1    2  502    0 -0.11460593908E+01  0.20926482306E+02  0.37864107623E+03  0.37922064253E+03  0.00000000000E+00 0.  1.
</event>
<event>
 4    1  0.6210801E+003  0.2351812E+02  0.7546771E-02  0.1486093E+00
          2   -1    0    0  502    0  0.00000000000E+00  0.00000000000E+00  0.57321115357E+03  0.57321115357E+03  0.00000000000E+00 0. -1.
          2   -1    0    0  501    0 -0.00000000000E+00 -0.00000000000E+00 -0.58659649714E+01  0.58659649714E+01  0.00000000000E+00 0. -1.
          2    1    1    2  501    0 -0.35580501707E+01 -0.23247412514E+02  0.54832819997E+03  0.54883232120E+03  0.00000000000E+00 0. -1.
          2    1    1    2  502    0  0.35580501707E+01  0.23247412514E+02  0.19016988620E+02  0.30244797334E+02  0.00000000000E+00 0. -1.
</event>
<event>
 4    1  0.6210801E+003  0.3512430E+02  0.7546771E-02  0.1379691E+00
          2   -1    0    0  501    0  0.00000000000E+00  0.00000000000E+00  0.75865939112E+02  0.75865939112E+02  0.00000000000E+00 0. -1.
          2   -1    0    0  502    0 -0.00000000000E+00 -0.00000000000E+00 -0.94271403688E+02  0.94271403688E+02  0.00000000000E+00 0.  1.
          2    1    1    2  501    0  0.35029383176E+02 -0.25804464330E+01 -0.86587184280E+02  0.93440124524E+02  0.00000000000E+00 0.  1.
          2    1    1    2  502    0 -0.35029383176E+02  0.25804464330E+01  0.68181719704E+02  0.76697218276E+02  0.00000000000E+00 0. -1.
</event>
<event>
 4    1  0.6210801E+003  0.3994699E+02  0.7546771E-02  0.1348797E+00
          2   -1    0    0  502    0  0.00000000000E+00  0.00000000000E+00  0.62376448883E+02  0.62376448883E+02  0.00000000000E+00 0.  1.
          2   -1    0    0  501    0 -0.00000000000E+00 -0.00000000000E+00 -0.88158127211E+02  0.88158127211E+02  0.00000000000E+00 0.  1.
          2    1    1    2  501    0  0.33275130867E+02  0.22102668384E+02  0.50521936398E+02  0.64406741428E+02  0.00000000000E+00 0.  1.
          2    1    1    2  502    0 -0.33275130867E+02 -0.22102668384E+02 -0.76303614726E+02  0.86127834666E+02  0.00000000000E+00 0.  1.
</event>
<event>
 4    1  0.6210801E+003  0.1391048E+03  0.7546771E-02  0.1109340E+00
          2   -1    0    0  501    0  0.00000000000E+00  0.00000000000E+00  0.10773593492E+03  0.10773593492E+03  0.00000000000E+00 0.  1.
          2   -1    0    0  502    0 -0.00000000000E+00 -0.00000000000E+00 -0.35881191154E+03  0.35881191154E+03  0.00000000000E+00 0.  1.
          2    1    1    2  501    0 -0.13323941027E+03 -0.39967390408E+02 -0.29039509327E+03  0.32199292374E+03  0.00000000000E+00 0.  1.
          2    1    1    2  502    0  0.13323941027E+03  0.39967390408E+02  0.39319116648E+02  0.14455492271E+03  0.00000000000E+00 0.  1.
</event>
<event>
 4    1  0.6210801E+003  0.2342427E+02  0.7546771E-02  0.1487238E+00
          2   -1    0    0  502    0  0.00000000000E+00  0.00000000000E+00  0.43292495739E+03  0.43292495739E+03  0.00000000000E+00 0.  1.
          2   -1    0    0  501    0 -0.00000000000E+00 -0.00000000000E+00 -0.16741816802E+03  0.16741816802E+03  0.00000000000E+00 0. -1.
          2    1    1    2  501    0  0.18339043507E+02  0.14573125311E+02  0.43178659427E+03  0.43242150674E+03  0.00000000000E+00 0.  1.
          2    1    1    2  502    0 -0.18339043507E+02 -0.14573125311E+02 -0.16627980490E+03  0.16792161867E+03  0.00000000000E+00 0. -1.
</event>
<event>
 4    1  0.6210801E+003  0.2386794E+02  0.7546771E-02  0.1481878E+00
          2   -1    0    0  502    0  0.00000000000E+00  0.00000000000E+00  0.11467854039E+03  0.11467854039E+03  0.00000000000E+00 0.  1.
          2   -1    0    0  501    0 -0.00000000000E+00 -0.00000000000E+00 -0.28285668763E+03  0.28285668763E+03  0.00000000000E+00 0.  1.
          2    1    1    2  501    0  0.18477760437E+02 -0.15107983143E+02  0.11292540058E+03  0.11542021002E+03  0.00000000000E+00 0.  1.
          2    1    1    2  502    0 -0.18477760437E+02  0.15107983143E+02 -0.28110354782E+03  0.28211501800E+03  0.00000000000E+00 0.  1.
</event>
<event>
 4    1  0.6210801E+003  0.4269129E+02  0.7546771E-02  0.1333398E+00
          2   -1    0    0  502    0  0.00000000000E+00  0.00000000000E+00  0.37325448158E+01  0.37325448158E+01  0.00000000000E+00 0. -1.
          2   -1    0    0  501    0 -0.00000000000E+00 -0.00000000000E+00 -0.68512528115E+03  0.68512528115E+03  0.00000000000E+00 0. -1.
          2    1    1    2  501    0 -0.24256327801E+02 -0.35130850653E+02 -0.15607946716E+03  0.16181268855E+03  0.00000000000E+00 0. -1.
          2    1    1    2  502    0  0.24256327801E+02  0.35130850653E+02 -0.52531326918E+03  0.52704513742E+03  0.00000000000E+00 0. -1.
</event>
<event>
 4    1  0.6210801E+003  0.3280585E+02  0.7546771E-02  0.1396682E+00
          2   -1    0    0  501    0  0.00000000000E+00  0.00000000000E+00  0.26169297276E+01  0.26169297276E+01  0.00000000000E+00 0. -1.
          2   -1    0    0  502    0 -0.00000000000E+00 -0.00000000000E+00 -0.22953342115E+04  0.22953342115E+04  0.00000000000E+00 0. -1.
          2    1    1    2  501    0 -0.79007533861E+01  0.31840257914E+02 -0.21873268708E+04  0.21875728705E+04  0.00000000000E+00 0. -1.
          2    1    1    2  502    0  0.79007533861E+01 -0.31840257914E+02 -0.10539041091E+03  0.11037827069E+03  0.00000000000E+00 0. -1.
</event>
<event>
 4    1  0.6210801E+003  0.2556745E+02  0.7546771E-02  0.1462554E+00
          2   -1    0    0  501    0  0.00000000000E+00  0.00000000000E+00  0.92234563346E+03  0.92234563346E+03  0.00000000000E+00 0.  1.
          2   -1    0    0  502    0 -0.00000000000E+00 -0.00000000000E+00 -0.22055597960E+01  0.22055597960E+01  0.00000000000E+00 0. -1.
          2    1    1    2  501    0 -0.88180405067E+01  0.23998677802E+02  0.79243061305E+02  0.83265581963E+02  0.00000000000E+00 0. -1.
          2    1    1    2  502    0  0.88180405067E+01 -0.23998677802E+02  0.84089701236E+03  0.84128561129E+03  0.00000000000E+00 0.  1.
</event>
<event>
 4    1  0.6210801E+003  0.4331360E+02  0.7546771E-02  0.1330091E+00
          2   -1    0    0  501    0  0.00000000000E+00  0.00000000000E+00  0.43412892045E+03  0.43412892045E+03  0.00000000000E+00 0. -1.
          2   -1    0    0  502    0 -0.00000000000E+00 -0.00000000000E+00 -0.15305025029E+03  0.15305025029E+03  0.00000000000E+00 0. -1.
          2    1    1    2  501    0  0.36334441654E+02 -0.23577026112E+02 -0.14887574486E+03  0.15504855761E+03  0.00000000000E+00 0. -1.
          2    1    1    2  502    0 -0.36334441654E+02  0.23577026112E+02  0.42995441501E+03  0.43213061313E+03  0.00000000000E+00 0. -1.
</event>
<event>
 4    1  0.6210801E+003  0.3019988E+02  0.7546771E-02  0.1417867E+00
          2   -1    0    0  501    0  0.00000000000E+00  0.00000000000E+00  0.42622024857E+03  0.42622024857E+03  0.00000000000E+00 0.  1.
          2   -1    0    0  502    0 -0.00000000000E+00 -0.00000000000E+00 -0.46636168087E+02  0.46636168087E+02  0.00000000000E+00 0.  1.
          2    1    1    2  501    0 -0.47164071182E+01 -0.29829321140E+02 -0.41148440631E+02  0.51041424962E+02  0.00000000000E+00 0.  1.
          2    1    1    2  502    0  0.47164071182E+01  0.29829321140E+02  0.42073252111E+03  0.42181499169E+03  0.00000000000E+00 0.  1.
</event>
<event>
 4    1  0.6210801E+003  0.3491709E+02  0.7546771E-02  0.1381147E+00
          2   -1    0    0  502    0  0.00000000000E+00  0.00000000000E+00  0.59289881252E+03  0.59289881252E+03  0.00000000000E+00 0. -1.
          2   -1    0    0  501    0 -0.00000000000E+00 -0.00000000000E+00 -0.20947218683E+02  0.20947218683E+02  0.00000000000E+00 0.  1.
          2    1    1    2  501    0 -0.12620298352E+02 -0.32556590158E+02  0.57744475937E+03  0.57849948454E+03  0.00000000000E+00 0. -1.
          2    1    1    2  502    0  0.12620298352E+02  0.32556590158E+02 -0.54931655333E+01  0.35346546660E+02  0.00000000000E+00 0.  1.
</event>
<event>
 4    1  0.6210801E+003  0.3401326E+02  0.7546771E-02  0.1387636E+00
          2   -1    0    0  502    0  0.00000000000E+00  0.00000000000E+00  0.46495846940E+01  0.46495846940E+01  0.00000000000E+00 0.  1.
          2   -1    0    0  501    0 -0.00000000000E+00 -0.00000000000E+00 -0.26425475844E+03  0.26425475844E+03  0.00000000000E+00 0.  1.
          2    1    1    2  501    0 -0.21122240033E+02 -0.26659942904E+02 -0.16229865302E+03  0.16582446850E+03  0.00000000000E+00 0.  1.
          2    1    1    2  502    0  0.21122240033E+02  0.26659942904E+02 -0.97306520722E+02  0.10307987464E+03  0.00000000000E+00 0.  1.
</event>
<event>
 4    1  0.6210801E+003  0.4563652E+02  0.7546771E-02  0.1318287E+00
          2   -1    0    0  502    0  0.00000000000E+00  0.00000000000E+00  0.15089249066E+02  0.15089249066E+02  0.00000000000E+00 0. -1.
          2   -1    0    0  501    0 -0.00000000000E+00 -0.00000000000E+00 -0.54978821890E+03  0.54978821890E+03  0.00000000000E+00 0. -1.
          2    1    1    2  501    0  0.19635828482E+02  0.41196186091E+02 -0.22921802604E+02  0.51069565724E+02  0.00000000000E+00 0. -1.
          2    1    1    2  502    0 -0.19635828482E+02 -0.41196186091E+02 -0.51177716723E+03  0.51380790224E+03  0.00000000000E+00 0. -1.
</event>
<event>
 4    1  0.6210801E+003  0.2376447E+02  0.7546771E-02  0.1483115E+00
          2   -1    0    0  502    0  0.00000000000E+00  0.00000000000E+00  0.71627778379E+01  0.71627778379E+01  0.00000000000E+00 0.  1.
          2   -1    0    0  501    0 -0.00000000000E+00 -0.00000000000E+00 -0.15549312913E+04  0.15549312913E+04  0.00000000000E+00 0.  1.
          2    1    1    2  501    0  0.12042848141E+02 -0.20487065113E+02 -0.12896897140E+02  0.27038490789E+02  0.00000000000E+00 0.  1.
          2    1    1    2  502    0 -0.12042848141E+02  0.20487065113E+02 -0.15348716163E+04  0.15350555783E+04  0.00000000000E+00 0.  1.
</event>
<event>
 4    1  0.6210801E+003  0.2514123E+02  0.7546771E-02  0.1467230E+00
          2   -1    0    0  501    0  0.00000000000E+00  0.00000000000E+00  0.42693743803E+03  0.42693743803E+03  0.00000000000E+00 0. -1.
          2   -1    0    0  502    0 -0.00000000000E+00 -0.00000000000E+00 -0.22824279289E+01  0.22824279289E+01  0.00000000000E+00 0. -1.
          2    1    1    2  501    0  0.55164735249E+00  0.25135181318E+02  0.85118323411E+02  0.88753651389E+02  0.00000000000E+00 0. -1.
          2    1    1    2  502    0 -0.55164735249E+00 -0.25135181318E+02  0.33953668669E+03  0.34046621457E+03  0.00000000000E+00 0. -1.
</event>
<event>
 4    1  0.6210801E+003  0.3668723E+02  0.7546771E-02  0.1369074E+00
          2   -1    0    0  501    0  0.00000000000E+00  0.00000000000E+00  0.27907520380E+03  0.27907520380E+03  0.00000000000E+00 0. -1.
          2   -1    0    0  502    0 -0.00000000000E+00 -0.00000000000E+00 -0.76854303409E+01  0.76854303409E+01  0.00000000000E+00 0. -1.
          2    1    1    2  501    0 -0.35963447809E+02 -0.72514137638E+01  0.48190408695E+02  0.60566228792E+02  0.00000000000E+00 0. -1.
          2    1    1    2  502    0  0.35963447809E+02  0.72514137638E+01  0.22319936476E+03  0.22619440534E+03  0.00000000000E+00 0. -1.
</event>
<event>
 4    1  0.6210801E+003  0.2383114E+02  0.7546771E-02  0.1482317E+00
          2   -1    0    0  502    0  0.00000000000E+00  0.00000000000E+00  0.26226944189E+03  0.26226944189E+03  0.00000000000E+00 0.  1.
          2   -1    0    0  501    0 -0.00000000000E+00 -0.00000000000E+00 -0.12181594793E+04  0.12181594793E+04  0.00000000000E+00 0. -1.
          2    1    1    2  501    0  0.16336125593E+02  0.17350915162E+02  0.26161124093E+03  0.26269443207E+03  0.00000000000E+00 0.  1.
          2    1    1    2  502    0 -0.16336125593E+02 -0.17350915162E+02 -0.12175012784E+04  0.12177344892E+04  0.00000000000E+00 0. -1.
</event>
<event>
 4    1  0.6210801E+003  0.2020882E+02  0.7546771E-02  0.1530867E+00
          2   -1    0    0  501    0  0.00000000000E+00  0.00000000000E+00  0.88088326629E+03  0.88088326629E+03  0.00000000000E+00 0.  1.
          2   -1    0    0  502    0 -0.00000000000E+00 -0.00000000000E+00 -0.71266025570E+01  0.71266025570E+01  0.00000000000E+00 0. -1.
          2    1    1    2  501    0 -0.19463701873E+02 -0.54369758694E+01  0.75586319265E+01  0.21576128332E+02  0.00000000000E+00 0. -1.
          2    1    1    2  502    0  0.19463701873E+02  0.54369758694E+01  0.86619803181E+03  0.86643374052E+03  0.00000000000E+00 0.  1.
</event>
<event>
 4    1  0.6210801E+003  0.2303188E+02  0.7546771E-02  0.1492098E+00
          2   -1    0    0  501    0  0.00000000000E+00  0.00000000000E+00  0.57386543908E+00  0.57386543908E+00  0.00000000000E+00 0.  1.
          2   -1    0    0  502    0 -0.00000000000E+00 -0.00000000000E+00 -0.11879066662E+04  0.11879066662E+04  0.00000000000E+00 0.  1.
          2    1    1    2  501    0 -0.33395352984E+01 -0.22788484791E+02 -0.87355574085E+03  0.87385931356E+03  0.00000000000E+00 0.  1.
          2    1    1    2  502    0  0.33395352984E+01  0.22788484791E+02 -0.31377705992E+03  0.31462121808E+03  0.00000000000E+00 0.  1.
</event>
<event>
 4    1  0.6210801E+003  0.2408666E+02  0.7546771E-02  0.1479286E+00
          2   -1    0    0  502    0  0.00000000000E+00  0.00000000000E+00  0.42877527619E+01  0.42877527619E+01  0.00000000000E+00 0.  1.
          2   -1    0    0  501    0 -0.00000000000E+00 -0.00000000000E+00 -0.64673721289E+03  0.64673721289E+03  0.00000000000E+00 0.  1.
          2    1    1    2  501    0 -0.49177543721E+01  0.23579292882E+02 -0.31759451768E+02  0.39860132181E+02  0.00000000000E+00 0.  1.
          2    1    1    2  502    0  0.49177543721E+01 -0.23579292882E+02 -0.61069000836E+03  0.61116483347E+03  0.00000000000E+00 0.  1.
</event>
<event>
 4    1  0.6210801E+003  0.2283488E+02  0.7546771E-02  0.1494582E+00
          2   -1    0    0  502    0  0.00000000000E+00  0.00000000000E+00  0.14240188404E+03  0.14240188404E+03  0.00000000000E+00 0.  1.
          2   -1    0    0  501    0 -0.00000000000E+00 -0.00000000000E+00 -0.38692129334E+01  0.38692129334E+01  0.00000000000E+00 0.  1.
          2    1    1    2  501    0 -0.15946291183E+02  0.16344652622E+02  0.86203781662E+02  0.89176924395E+02  0.00000000000E+00 0.  1.
          2    1    1    2  502    0  0.15946291183E+02 -0.16344652622E+02  0.52328889445E+02  0.57094172578E+02  0.00000000000E+00 0.  1.
</event>
<event>
 4    1  0.6210801E+003  0.2130336E+02  0.7546771E-02  0.1514977E+00
          2   -1    0    0  501    0  0.00000000000E+00  0.00000000000E+00  0.29947400480E+03  0.29947400480E+03  0.00000000000E+00 0. -1.
          2   -1    0    0  502    0 -0.00000000000E+00 -0.00000000000E+00 -0.61979900168E+03  0.61979900168E+03  0.00000000000E+00 0.  1.
          2    1    1    2  501    0 -0.15731106908E+02  0.14365425313E+02 -0.61923674262E+03  0.61960307987E+03  0.00000000000E+00 0.  1.
          2    1    1    2  502    0  0.15731106908E+02 -0.14365425313E+02  0.29891174574E+03  0.29966992661E+03  0.00000000000E+00 0. -1.
</event>
<event>
 4    1  0.6210801E+003  0.3744836E+02  0.7546771E-02  0.1364124E+00
          2   -1    0    0  502    0  0.00000000000E+00  0.00000000000E+00  0.16672202258E+04  0.16672202258E+04  0.00000000000E+00 0.  1.
          2   -1    0    0  501    0 -0.00000000000E+00 -0.00000000000E+00 -0.34156677313E+02  0.34156677313E+02  0.00000000000E+00 0. -1.
          2    1    1    2  501    0  0.37406061231E+02  0.17792926136E+01  0.16566803320E+04  0.16571035278E+04  0.00000000000E+00 0.  1.
          2    1    1    2  502    0 -0.37406061231E+02 -0.17792926136E+01 -0.23616783528E+02  0.44273375331E+02  0.00000000000E+00 0. -1.
</event>
<event>
 4    1  0.6210801E+003  0.2613274E+02  0.7546771E-02  0.1456520E+00
          2   -1    0    0  502    0  0.00000000000E+00  0.00000000000E+00  0.84742679458E+03  0.84742679458E+03  0.00000000000E+00 0.  1.
          2   -1    0    0  501    0 -0.00000000000E+00 -0.00000000000E+00 -0.10377043011E+01  0.10377043011E+01  0.00000000000E+00 0. -1.
          2    1    1    2  501    0  0.36215297883E+01 -0.25880581840E+02  0.22267758326E+03  0.22420576728E+03  0.00000000000E+00 0. -1.
          2    1    1    2  502    0 -0.36215297883E+01  0.25880581840E+02  0.62371150702E+03  0.62425873160E+03  0.00000000000E+00 0.  1.
</event>
<event>
 4    1  0.6210801E+003  0.2360173E+02  0.7546771E-02  0.1485077E+00
          2   -1    0    0  502    0  0.00000000000E+00  0.00000000000E+00  0.36339772968E+01  0.36339772968E+01  0.00000000000E+00 0. -1.
          2   -1    0    0  501    0 -0.00000000000E+00 -0.00000000000E+00 -0.80499623690E+03  0.80499623690E+03  0.00000000000E+00 0. -1.
          2    1    1    2  501    0  0.23337201578E+02 -0.35237230086E+01 -0.36891788300E+02  0.43795498002E+02  0.00000000000E+00 0. -1.
          2    1    1    2  502    0 -0.23337201578E+02  0.35237230086E+01 -0.76447047131E+03  0.76483471620E+03  0.00000000000E+00 0. -1.
</event>
<event>
 4    1  0.6210801E+003  0.4613777E+02  0.7546771E-02  0.1315846E+00
          2   -1    0    0  501    0  0.00000000000E+00  0.00000000000E+00  0.30090075774E+02  0.30090075774E+02  0.00000000000E+00 0. -1.
          2   -1    0    0  502    0 -0.00000000000E+00 -0.00000000000E+00 -0.71704193627E+02  0.71704193627E+02  0.00000000000E+00 0. -1.
          2    1    1    2  501    0 -0.85154753119E+01  0.45345126742E+02 -0.26696703038E+02  0.53304857115E+02  0.00000000000E+00 0. -1.
          2    1    1    2  502    0  0.85154753119E+01 -0.45345126742E+02 -0.14917414815E+02  0.48489412285E+02  0.00000000000E+00 0. -1.
</event>
<event>
 4    1  0.6210801E+003  0.2079273E+02  0.7546771E-02  0.1522245E+00
          2   -1    0    0  501    0  0.00000000000E+00  0.00000000000E+00  0.28908891166E+03  0.28908891166E+03  0.00000000000E+00 0. -1.
          2   -1    0    0  502    0 -0.00000000000E+00 -0.00000000000E+00 -0.61039478378E+01  0.61039478378E+01  0.00000000000E+00 0. -1.
          2    1    1    2  501    0  0.20237896517E+02  0.47712952825E+01  0.13245566457E+02  0.24653250189E+02  0.00000000000E+00 0. -1.
          2    1    1    2  502    0 -0.20237896517E+02 -0.47712952825E+01  0.26973939737E+03  0.27053960931E+03  0.00000000000E+00 0. -1.
</event>
<event>
 4    1  0.6210801E+003  0.2326321E+02  0.7546771E-02  0.1489219E+00
          2   -1    0    0  501    0  0.00000000000E+00  0.00000000000E+00  0.12497293399E+04  0.12497293399E+04  0.00000000000E+00 0. -1.
          2   -1    0    0  502    0 -0.00000000000E+00 -0.00000000000E+00 -0.30657793118E+01  0.30657793118E+01  0.00000000000E+00 0.  1.
          2    1    1    2  501    0 -0.29464217487E+01 -0.23075865706E+02  0.42856238783E+02  0.48763041146E+02  0.00000000000E+00 0.  1.
          2    1    1    2  502    0  0.29464217487E+01  0.23075865706E+02  0.12038073218E+04  0.12040320781E+04  0.00000000000E+00 0. -1.
</event>
<event>
 4    1  0.6210801E+003  0.2971059E+02  0.7546771E-02  0.1422128E+00
          2   -1    0    0  502    0  0.00000000000E+00  0.00000000000E+00  0.11909776022E+04  0.11909776022E+04  0.00000000000E+00 0. -1.
          2   -1    0    0  501    0 -0.00000000000E+00 -0.00000000000E+00 -0.39644514602E+02  0.39644514602E+02  0.00000000000E+00 0. -1.
          2    1    1    2  501    0 -0.13593982822E+02 -0.26418226801E+02  0.11851987079E+04  0.11855710422E+04  0.00000000000E+00 0. -1.
          2    1    1    2  502    0  0.13593982822E+02  0.26418226801E+02 -0.33865620310E+02  0.45051074518E+02  0.00000000000E+00 0. -1.
</event>
<event>
 4    1  0.6210801E+003  0.2883536E+02  0.7546771E-02  0.1429994E+00
          2   -1    0    0  501    0  0.00000000000E+00  0.00000000000E+00  0.14394629134E+04  0.14394629134E+04  0.00000000000E+00 0. -1.
          2   -1    0    0  502    0 -0.00000000000E+00 -0.00000000000E+00 -0.92180478302E+00  0.92180478302E+00  0.00000000000E+00 0. -1.
          2    1    1    2  501    0  0.12777288930E+01 -0.28807038694E+02  0.27920429739E+03  0.28068936166E+03  0.00000000000E+00 0. -1.
          2    1    1    2  502    0 -0.12777288930E+01  0.28807038694E+02  0.11593368112E+04  0.11596953565E+04  0.00000000000E+00 0. -1.
</event>
<event>
 4    1  0.6210801E+003  0.2253142E+02  0.7546771E-02  0.1498467E+00
          2   -1    0    0  501    0  0.00000000000E+00  0.00000000000E+00  0.14107588872E+03  0.14107588872E+03  0.00000000000E+00 0. -1.
          2   -1    0    0  502    0 -0.00000000000E+00 -0.00000000000E+00 -0.24711093526E+02  0.24711093526E+02  0.00000000000E+00 0. -1.
          2    1    1    2  501    0  0.18286004768E+02  0.13163844699E+02 -0.18438107210E+02  0.29114061468E+02  0.00000000000E+00 0. -1.
          2    1    1    2  502    0 -0.18286004768E+02 -0.13163844699E+02  0.13480290240E+03  0.13667292077E+03  0.00000000000E+00 0. -1.
</event>
<event>
 4    1  0.6210801E+003  0.2584590E+02  0.7546771E-02  0.1459559E+00
          2   -1    0    0  502    0  0.00000000000E+00  0.00000000000E+00  0.85785351884E+02  0.85785351884E+02  0.00000000000E+00 0.  1.
          2   -1    0    0  501    0 -0.00000000000E+00 -0.00000000000E+00 -0.50920600062E+02  0.50920600062E+02  0.00000000000E+00 0.  1.
          2    1    1    2  501    0  0.89680905368E+01  0.24240129021E+02  0.80342208118E+02  0.84397161730E+02  0.00000000000E+00 0.  1.
          2    1    1    2  502    0 -0.89680905368E+01 -0.24240129021E+02 -0.45477456295E+02  0.52308790216E+02  0.00000000000E+00 0.  1.
</event>
<event>
 4    1  0.6210801E+003  0.4131675E+02  0.7546771E-02  0.1340938E+00
          2   -1    0    0  501    0  0.00000000000E+00  0.00000000000E+00  0.42538726868E+01  0.42538726868E+01  0.00000000000E+00 0.  1.
          2   -1    0    0  502    0 -0.00000000000E+00 -0.00000000000E+00 -0.87943889494E+03  0.87943889494E+03  0.00000000000E+00 0.  1.
          2    1    1    2  501    0 -0.90985670668E+01  0.40302483737E+02 -0.76338873021E+03  0.76450600229E+03  0.00000000000E+00 0.  1.
          2    1    1    2  502    0  0.90985670668E+01 -0.40302483737E+02 -0.11179629204E+03  0.11918676534E+03  0.00000000000E+00 0.  1.
</event>
<event>
 4    1  0.6210801E+003  0.2196555E+02  0.7546771E-02  0.1505913E+00
          2   -1    0    0  501    0  0.00000000000E+00  0.00000000000E+00  0.12850927558E+01  0.12850927558E+01  0.00000000000E+00 0.  1.
          2   -1    0    0  502    0 -0.00000000000E+00 -0.00000000000E+00 -0.67430401133E+03  0.67430401133E+03  0.00000000000E+00 0. -1.
          2    1    1    2  501    0  0.51889625545E+01  0.21343853807E+02 -0.56139203714E+03  0.56182159516E+03  0.00000000000E+00 0. -1.
          2    1    1    2  502    0 -0.51889625545E+01 -0.21343853807E+02 -0.11162688144E+03  0.11376750893E+03  0.00000000000E+00 0.  1.
</event>
<event>
 4    1  0.6210801E+003  0.2030757E+02  0.7546771E-02  0.1529385E+00
          2   -1    0    0  502    0  0.00000000000E+00  0.00000000000E+00  0.17259733684E+04  0.17259733684E+04  0.00000000000E+00 0. -1.
          2   -1    0    0  501    0 -0.00000000000E+00 -0.00000000000E+00 -0.41137720510E+00  0.41137720510E+00  0.00000000000E+00 0. -1.
          2    1    1    2  501    0  0.20167307930E+02 -0.23826707083E+01  0.14216471646E+04  0.14217921993E+04  0.00000000000E+00 0. -1.
          2    1    1    2  502    0 -0.20167307930E+02  0.23826707083E+01  0.30391482655E+03  0.30459254624E+03  0.00000000000E+00 0. -1.
</event>
<event>
 4    1  0.6210801E+003  0.4775766E+02  0.7546771E-02  0.1308199E+00
          2   -1    0    0  501    0  0.00000000000E+00  0.00000000000E+00  0.64507850316E+03  0.64507850316E+03  0.00000000000E+00 0. -1.
          2   -1    0    0  502    0 -0.00000000000E+00 -0.00000000000E+00 -0.49914568046E+01  0.49914568046E+01  0.00000000000E+00 0. -1.
          2    1    1    2  501    0 -0.44178773129E+02  0.18139197354E+02  0.14450878544E+03  0.15219587230E+03  0.00000000000E+00 0. -1.
          2    1    1    2  502    0  0.44178773129E+02 -0.18139197354E+02  0.49557826092E+03  0.49787408767E+03  0.00000000000E+00 0. -1.
</event>
<event>
 4    1  0.6210801E+003  0.2373977E+02  0.7546771E-02  0.1483412E+00
          2   -1    0    0  501    0  0.00000000000E+00  0.00000000000E+00  0.58010822468E+03  0.58010822468E+03  0.00000000000E+00 0.  1.
          2   -1    0    0  502    0 -0.00000000000E+00 -0.00000000000E+00 -0.97155831246E+00  0.97155831246E+00  0.00000000000E+00 0.  1.
          2    1    1    2  501    0 -0.13291734841E+02  0.19669940323E+02  0.29176441065E+03  0.29272862533E+03  0.00000000000E+00 0.  1.
          2    1    1    2  502    0  0.13291734841E+02 -0.19669940323E+02  0.28737225572E+03  0.28835115767E+03  0.00000000000E+00 0.  1.
</event>
<event>
 4    1  0.6210801E+003  0.2416822E+02  0.7546771E-02  0.1478328E+00
          2   -1    0    0  501    0  0.00000000000E+00  0.00000000000E+00  0.19914583305E+02  0.19914583305E+02  0.00000000000E+00 0.  1.
          2   -1    0    0  502    0 -0.00000000000E+00 -0.00000000000E+00 -0.31417495900E+03  0.31417495900E+03  0.00000000000E+00 0.  1.
          2    1    1    2  501    0 -0.32217714445E+01 -0.23952520046E+02 -0.30618655306E+03  0.30713890718E+03  0.00000000000E+00 0.  1.
          2    1    1    2  502    0  0.32217714445E+01  0.23952520046E+02  0.11926177357E+02  0.26950635134E+02  0.00000000000E+00 0.  1.
</event>
<event>
 4    1  0.6210801E+003  0.3782278E+02  0.7546771E-02  0.1361739E+00
          2   -1    0    0  501    0  0.00000000000E+00  0.00000000000E+00  0.48214746728E+01  0.48214746728E+01  0.00000000000E+00 0. -1.
          2   -1    0    0  502    0 -0.00000000000E+00 -0.00000000000E+00 -0.39136267785E+03  0.39136267785E+03  0.00000000000E+00 0. -1.
          2    1    1    2  501    0  0.92652311452E+01 -0.36670396049E+02 -0.29069148929E+03  0.29314178207E+03  0.00000000000E+00 0. -1.
          2    1    1    2  502    0 -0.92652311452E+01  0.36670396049E+02 -0.95849713889E+02  0.10304237045E+03  0.00000000000E+00 0. -1.
</event>
<event>
 4    1  0.6210801E+003  0.8727695E+02  0.7546771E-02  0.1187892E+00
          2   -1    0    0  501    0  0.00000000000E+00  0.00000000000E+00  0.12459019405E+02  0.12459019405E+02  0.00000000000E+00 0.  1.
          2   -1    0    0  502    0 -0.00000000000E+00 -0.00000000000E+00 -0.64365865723E+03  0.64365865723E+03  0.00000000000E+00 0.  1.
          2    1    1    2  501    0 -0.84655238549E+02 -0.21231023478E+02 -0.38905858041E+03  0.39872778278E+03  0.00000000000E+00 0.  1.
          2    1    1    2  502    0  0.84655238549E+02  0.21231023478E+02 -0.24214105742E+03  0.25738989386E+03  0.00000000000E+00 0.  1.
</event>
<event>
 4    1  0.6210801E+003  0.4033989E+02  0.7546771E-02  0.1346505E+00
          2   -1    0    0  502    0  0.00000000000E+00  0.00000000000E+00  0.16282798119E+03  0.16282798119E+03  0.00000000000E+00 0. -1.
          2   -1    0    0  501    0 -0.00000000000E+00 -0.00000000000E+00 -0.77078310609E+02  0.77078310609E+02  0.00000000000E+00 0. -1.
          2    1    1    2  501    0  0.27164549543E+02  0.29822709509E+02  0.15478149983E+03  0.15995192854E+03  0.00000000000E+00 0. -1.
          2    1    1    2  502    0 -0.27164549543E+02 -0.29822709509E+02 -0.69031829250E+02  0.79954363258E+02  0.00000000000E+00 0. -1.
</event>
<event>
 4    1  0.6210801E+003  0.2135797E+02  0.7546771E-02  0.1514215E+00
          2   -1    0    0  501    0  0.00000000000E+00  0.00000000000E+00  0.63322324524E+03  0.63322324524E+03  0.00000000000E+00 0. -1.
          2   -1    0    0  502    0 -0.00000000000E+00 -0.00000000000E+00 -0.95118314111E+00  0.95118314111E+00  0.00000000000E+00 0.  1.
          2    1    1    2  501    0  0.18384265595E+02  0.10871147106E+02  0.15994179950E+03  0.16136152666E+03  0.00000000000E+00 0.  1.
          2    1    1    2  502    0 -0.18384265595E+02 -0.10871147106E+02  0.47233026260E+03  0.47281290172E+03  0.00000000000E+00 0. -1.
</event>
<event>
 4    1  0.6210801E+003  0.2048273E+02  0.7546771E-02  0.1526780E+00
          2   -1    0    0  502    0  0.00000000000E+00  0.00000000000E+00  0.13437694848E+04  0.13437694848E+04  0.00000000000E+00 0. -1.
          2   -1    0    0  501    0 -0.00000000000E+00 -0.00000000000E+00 -0.42439268512E+00  0.42439268512E+00  0.00000000000E+00 0. -1.
          2    1    1    2  501    0  0.49858763789E+01 -0.19866632252E+02  0.10172182183E+04  0.10174244177E+04  0.00000000000E+00 0. -1.
          2    1    1    2  502    0 -0.49858763789E+01  0.19866632252E+02  0.32612687388E+03  0.32676945987E+03  0.00000000000E+00 0. -1.
</event>
<event>
 4    1  0.6210801E+003  0.2219779E+02  0.7546771E-02  0.1502825E+00
          2   -1    0    0  501    0  0.00000000000E+00  0.00000000000E+00  0.74410395498E+01  0.74410395498E+01  0.00000000000E+00 0.  1.
          2   -1    0    0  502    0 -0.00000000000E+00 -0.00000000000E+00 -0.69983534664E+03  0.69983534664E+03  0.00000000000E+00 0.  1.
          2    1    1    2  501    0 -0.18214380498E+02  0.12687719851E+02 -0.68268876537E+03  0.68304955329E+03  0.00000000000E+00 0.  1.
          2    1    1    2  502    0  0.18214380498E+02 -0.12687719851E+02 -0.97055417147E+01  0.24226832891E+02  0.00000000000E+00 0.  1.
</event>
<event>
 4    1  0.6210801E+003  0.2152027E+02  0.7546771E-02  0.1511965E+00
          2   -1    0    0  501    0  0.00000000000E+00  0.00000000000E+00  0.32487294203E+03  0.32487294203E+03  0.00000000000E+00 0.  1.
          2   -1    0    0  502    0 -0.00000000000E+00 -0.00000000000E+00 -0.11937301972E+03  0.11937301972E+03  0.00000000000E+00 0.  1.
          2    1    1    2  501    0  0.13299619209E+01  0.21479132123E+02 -0.11804274439E+03  0.11998838035E+03  0.00000000000E+00 0.  1.
          2    1    1    2  502    0 -0.13299619209E+01 -0.21479132123E+02  0.32354266670E+03  0.32425758140E+03  0.00000000000E+00 0.  1.
</event>
<event>
 4    1  0.6210801E+003  0.2486264E+02  0.7546771E-02  0.1470346E+00
          2   -1    0    0  502    0  0.00000000000E+00  0.00000000000E+00  0.41180545630E+01  0.41180545630E+01  0.00000000000E+00 0.  1.
          2   -1    0    0  501    0 -0.00000000000E+00 -0.00000000000E+00 -0.94180845975E+03  0.94180845975E+03  0.00000000000E+00 0.  1.
          2    1    1    2  501    0  0.15861640390E+01 -0.24811994285E+02 -0.35207845724E+02  0.43101547273E+02  0.00000000000E+00 0.  1.
          2    1    1    2  502    0 -0.15861640390E+01  0.24811994285E+02 -0.90248255946E+03  0.90282496704E+03  0.00000000000E+00 0.  1.
</event>
<event>
 4    1  0.6210801E+003  0.3660563E+02  0.7546771E-02  0.1369613E+00
          2   -1    0    0  501    0  0.00000000000E+00  0.00000000000E+00  0.58651587545E+02  0.58651587545E+02  0.00000000000E+00 0.  1.
          2   -1    0    0  502    0 -0.00000000000E+00 -0.00000000000E+00 -0.47127927029E+02  0.47127927029E+02  0.00000000000E+00 0. -1.
          2    1    1    2  501    0 -0.53728363523E+01 -0.36209182125E+02 -0.32202105060E+02  0.48753951746E+02  0.00000000000E+00 0. -1.
          2    1    1    2  502    0  0.53728363523E+01  0.36209182125E+02  0.43725765576E+02  0.57025562828E+02  0.00000000000E+00 0.  1.
</event>
<event>
 4    1  0.6210801E+003  0.2207032E+02  0.7546771E-02  0.1504514E+00
          2   -1    0    0  502    0  0.00000000000E+00  0.00000000000E+00  0.34415115275E+00  0.34415115275E+00  0.00000000000E+00 0. -1.
          2   -1    0    0  501    0 -0.00000000000E+00 -0.00000000000E+00 -0.18657727922E+04  0.18657727922E+04  0.00000000000E+00 0.  1.
          2    1    1    2  501    0  0.22014928934E+02 -0.15627286928E+01 -0.47427398514E+03  0.47478722834E+03  0.00000000000E+00 0. -1.
          2    1    1    2  502    0 -0.22014928934E+02  0.15627286928E+01 -0.13911546559E+04  0.13913297150E+04  0.00000000000E+00 0.  1.
</event>
<event>
 4    1  0.6210801E+003  0.3340156E+02  0.7546771E-02  0.1392163E+00
          2   -1    0    0  501    0  0.00000000000E+00  0.00000000000E+00  0.11509912507E+04  0.11509912507E+04  0.00000000000E+00 0. -1.
          2   -1    0    0  502    0 -0.00000000000E+00 -0.00000000000E+00 -0.87729902080E+01  0.87729902080E+01  0.00000000000E+00 0.  1.
          2    1    1    2  501    0 -0.61649640959E+01  0.32827688388E+02  0.24199323741E+02  0.41246468657E+02  0.00000000000E+00 0.  1.
          2    1    1    2  502    0  0.61649640959E+01 -0.32827688388E+02  0.11180189368E+04  0.11185177723E+04  0.00000000000E+00 0. -1.
</event>
<event>
 4    1  0.6210801E+003  0.2116389E+02  0.7546771E-02  0.1516938E+00
          2   -1    0    0  502    0  0.00000000000E+00  0.00000000000E+00  0.25277114628E+00  0.25277114628E+00  0.00000000000E+00 0.  1.
          2   -1    0    0  501    0 -0.00000000000E+00 -0.00000000000E+00 -0.18383306876E+04  0.18383306876E+04  0.00000000000E+00 0.  1.
          2    1    1    2  501    0  0.18976122037E+02  0.93710695678E+01 -0.74441536801E+03  0.74471615417E+03  0.00000000000E+00 0.  1.
          2    1    1    2  502    0 -0.18976122037E+02 -0.93710695678E+01 -0.10936625485E+04  0.10938673046E+04  0.00000000000E+00 0.  1.
</event>
<event>
 4    1  0.6210801E+003  0.2223977E+02  0.7546771E-02  0.1502272E+00
          2   -1    0    0  502    0  0.00000000000E+00  0.00000000000E+00  0.42610694386E+01  0.42610694386E+01  0.00000000000E+00 0.  1.
          2   -1    0    0  501    0 -0.00000000000E+00 -0.00000000000E+00 -0.10226023681E+04  0.10226023681E+04  0.00000000000E+00 0.  1.
          2    1    1    2  501    0 -0.15697141090E+02 -0.15754592196E+02 -0.25756291128E+02  0.34029310107E+02  0.00000000000E+00 0.  1.
          2    1    1    2  502    0  0.15697141090E+02  0.15754592196E+02 -0.99258500755E+03  0.99283412745E+03  0.00000000000E+00 0.  1.
</event>
<event>
 4    1  0.6210801E+003  0.3685204E+02  0.7546771E-02  0.1367990E+00
          2   -1    0    0  501    0  0.00000000000E+00  0.00000000000E+00  0.14909849693E+02  0.14909849693E+02  0.00000000000E+00 0.  1.
          2   -1    0    0  502    0 -0.00000000000E+00 -0.00000000000E+00 -0.49345134408E+03  0.49345134408E+03  0.00000000000E+00 0. -1.
          2    1    1    2  501    0 -0.36142923299E+02  0.71945944332E+01 -0.46879612403E+03  0.47024236198E+03  0.00000000000E+00 0. -1.
          2    1    1    2  502    0  0.36142923299E+02 -0.71945944332E+01 -0.97453703506E+01  0.38118831789E+02  0.00000000000E+00 0.  1.
</event>
<event>
 4    1  0.6210801E+003  0.2030262E+02  0.7546771E-02  0.1529459E+00
          2   -1    0    0  501    0  0.00000000000E+00  0.00000000000E+00  0.33713678673E+01  0.33713678673E+01  0.00000000000E+00 0. -1.
          2   -1    0    0  502    0 -0.00000000000E+00 -0.00000000000E+00 -0.15290089037E+04  0.15290089037E+04  0.00000000000E+00 0. -1.
          2    1    1    2  501    0 -0.33678283967E+01  0.20021339601E+02 -0.14977373907E+04  0.14978749908E+04  0.00000000000E+00 0. -1.
          2    1    1    2  502    0  0.33678283967E+01 -0.20021339601E+02 -0.27900145075E+02  0.34505280794E+02  0.00000000000E+00 0. -1.
</event>
<event>
 4    1  0.6210801E+003  0.6674936E+02  0.7546771E-02  0.1238478E+00
          2   -1    0    0  501    0  0.00000000000E+00  0.00000000000E+00  0.58879254216E+02  0.58879254216E+02  0.00000000000E+00 0. -1.
          2   -1    0    0  502    0 -0.00000000000E+00 -0.00000000000E+00 -0.99651324813E+02  0.99651324813E+02  0.00000000000E+00 0.  1.
          2    1    1    2  501    0 -0.49870622978E+02 -0.44366637486E+02 -0.59269514607E+02  0.89265631235E+02  0.00000000000E+00 0.  1.
          2    1    1    2  502    0  0.49870622978E+02  0.44366637486E+02  0.18497444010E+02  0.69264947794E+02  0.00000000000E+00 0. -1.
</event>
<event>
 4    1  0.6210801E+003  0.2123765E+02  0.7546771E-02  0.1515899E+00
          2   -1    0    0  502    0  0.00000000000E+00  0.00000000000E+00  0.90011550678E+03  0.90011550678E+03  0.00000000000E+00 0.  1.
          2   -1    0    0  501    0 -0.00000000000E+00 -0.00000000000E+00 -0.20556828029E+02  0.20556828029E+02  0.00000000000E+00 0. -1.
          2    1    1    2  501    0  0.20991236424E+02  0.32257873166E+01  0.89447036698E+03  0.89472245703E+03  0.00000000000E+00 0.  1.
          2    1    1    2  502    0 -0.20991236424E+02 -0.32257873166E+01 -0.14911688234E+02  0.25949877773E+02  0.00000000000E+00 0. -1.
</event>
<event>
 4    1  0.6210801E+003  0.3054385E+02  0.7546771E-02  0.1414928E+00
          2   -1    0    0  502    0  0.00000000000E+00  0.00000000000E+00  0.37848721250E+01  0.37848721250E+01  0.00000000000E+00 0. -1.
          2   -1    0    0  501    0 -0.00000000000E+00 -0.00000000000E+00 -0.99356780050E+03  0.99356780050E+03  0.00000000000E+00 0. -1.
          2    1    1    2  501    0 -0.21345623093E+00  0.30543102176E+02 -0.62473807494E+02  0.69540659163E+02  0.00000000000E+00 0. -1.
          2    1    1    2  502    0  0.21345623093E+00 -0.30543102176E+02 -0.92730912088E+03  0.92781201346E+03  0.00000000000E+00 0. -1.
</event>
<event>
 4    1  0.6210801E+003  0.2133306E+02  0.7546771E-02  0.1514562E+00
          2   -1    0    0  501    0  0.00000000000E+00  0.00000000000E+00  0.69378364537E+00  0.69378364537E+00  0.00000000000E+00 0. -1.
          2   -1    0    0  502    0 -0.00000000000E+00 -0.00000000000E+00 -0.10213806510E+04  0.10213806510E+04  0.00000000000E+00 0. -1.
          2    1    1    2  501    0  0.15382670632E+02  0.14780822875E+02 -0.81601216261E+03  0.81629097067E+03  0.00000000000E+00 0. -1.
          2    1    1    2  502    0 -0.15382670632E+02 -0.14780822875E+02 -0.20467470470E+03  0.20578346393E+03  0.00000000000E+00 0. -1.
</event>
<event>
 4    1  0.6210801E+003  0.3209386E+02  0.7546771E-02  0.1402233E+00
          2   -1    0    0  502    0  0.00000000000E+00  0.00000000000E+00  0.71034335446E+02  0.71034335446E+02  0.00000000000E+00 0.  1.
          2   -1    0    0  501    0 -0.00000000000E+00 -0.00000000000E+00 -0.69091028055E+02  0.69091028055E+02  0.00000000000E+00 0.  1.
          2    1    1    2  501    0 -0.24599622548E+02 -0.20612484135E+02  0.63249782282E+02  0.70926376549E+02  0.00000000000E+00 0.  1.
          2    1    1    2  502    0  0.24599622548E+02  0.20612484135E+02 -0.61306474890E+02  0.69198986952E+02  0.00000000000E+00 0.  1.
</event>
<event>
 4    1  0.6210801E+003  0.2004586E+02  0.7546771E-02  0.1533336E+00
          2   -1    0    0  501    0  0.00000000000E+00  0.00000000000E+00  0.78193945380E+03  0.78193945380E+03  0.00000000000E+00 0.  1.
          2   -1    0    0  502    0 -0.00000000000E+00 -0.00000000000E+00 -0.18375605610E+01  0.18375605610E+01  0.00000000000E+00 0.  1.
          2    1    1    2  501    0  0.20032214956E+02 -0.73954444804E+00  0.57444657676E+02  0.60841805180E+02  0.00000000000E+00 0.  1.
          2    1    1    2  502    0 -0.20032214956E+02  0.73954444804E+00  0.72265723557E+03  0.72293520918E+03  0.00000000000E+00 0.  1.
</event>
<event>
 4    1  0.6210801E+003  0.3061602E+02  0.7546771E-02  0.1414317E+00
          2   -1    0    0  501    0  0.00000000000E+00  0.00000000000E+00  0.14220042942E+01  0.14220042942E+01  0.00000000000E+00 0. -1.
          2   -1    0    0  502    0 -0.00000000000E+00 -0.00000000000E+00 -0.12452154359E+04  0.12452154359E+04  0.00000000000E+00 0. -1.
          2    1    1    2  501    0  0.26501278514E+01 -0.30501110862E+02 -0.10495127593E+04  0.10499592244E+04  0.00000000000E+00 0. -1.
          2    1    1    2  502    0 -0.26501278514E+01  0.30501110862E+02 -0.19428067228E+03  0.19667821578E+03  0.00000000000E+00 0. -1.
</event>
