<event>
 4    1  0.1800096E+004  0.4440674E+02  0.7546771E-02  0.1324433E+00
         21   -1    0    0  501  502  0.00000000000E+00  0.00000000000E+00  0.12082915710E+02  0.12082915710E+02  0.00000000000E+00 0.  1.
         21   -1    0    0  502  503 -0.00000000000E+00 -0.00000000000E+00 -0.12093066573E+04  0.12093066573E+04  0.00000000000E+00 0. -1.
          2    1    1    2  501    0 -0.25852309191E+02  0.36105632809E+02 -0.30618177307E+02  0.53939145272E+02  0.00000000000E+00 0.  1.
         -2    1    1    2    0  503  0.25852309191E+02 -0.36105632809E+02 -0.11666055643E+04  0.11674504278E+04  0.00000000000E+00 0. -1.
</event>
<event>
 4    1  0.1800096E+004  0.2321723E+02  0.7546771E-02  0.1489788E+00
         21   -1    0    0  503  502  0.00000000000E+00  0.00000000000E+00  0.15668711295E+03  0.15668711295E+03  0.00000000000E+00 0.  1.
         21   -1    0    0  501  503 -0.00000000000E+00 -0.00000000000E+00 -0.14283323606E+02  0.14283323606E+02  0.00000000000E+00 0. -1.
          2    1    1    2  501    0 -0.10685514669E+02 -0.20612126272E+02 -0.32803842945E+01  0.23447833467E+02  0.00000000000E+00 0. -1.
         -2    1    1    2    0  502  0.10685514669E+02  0.20612126272E+02  0.14568417363E+03  0.14752260308E+03  0.00000000000E+00 0.  1.
</event>
<event>
 4    1  0.1800096E+004  0.2713938E+02  0.7546771E-02  0.1446213E+00
         21   -1    0    0  501  502  0.00000000000E+00  0.00000000000E+00  0.40891305915E+02  0.40891305915E+02  0.00000000000E+00 0. -1.
         21   -1    0    0  502  503 -0.00000000000E+00 -0.00000000000E+00 -0.19166843562E+02  0.19166843562E+02  0.00000000000E+00 0.  1.
          2    1    1    2  501    0 -0.66206336569E+01 -0.26319446489E+02  0.18232337058E+02  0.32695017481E+02  0.00000000000E+00 0. -1.
         -2    1    1    2    0  503  0.66206336569E+01  0.26319446489E+02  0.34921252951E+01  0.27363131996E+02  0.00000000000E+00 0.  1.
</event>
<event>
 4    1  0.1800096E+004  0.2122044E+02  0.7546771E-02  0.1516141E+00
         21   -1    0    0  503  502  0.00000000000E+00  0.00000000000E+00  0.13793355212E+03  0.13793355212E+03  0.00000000000E+00 0. -1.
         21   -1    0    0  501  503 -0.00000000000E+00 -0.00000000000E+00 -0.39214930493E+01  0.39214930493E+01  0.00000000000E+00 0.  1.
          2    1    1    2  501    0  0.21216518848E+02  0.40786552345E+00  0.37978206648E+02  0.43504611325E+02  0.00000000000E+00 0. -1.
         -2    1    1    2    0  502 -0.21216518848E+02 -0.40786552345E+00  0.96033852423E+02  0.98350433845E+02  0.00000000000E+00 0.  1.
</event>
<event>
 4    1  0.1800096E+004  0.2532684E+02  0.7546771E-02  0.1465180E+00
         21   -1    0    0  503  502  0.00000000000E+00  0.00000000000E+00  0.50078498812E+02  0.50078498812E+02  0.00000000000E+00 0.  1.
         21   -1    0    0  501  503 -0.00000000000E+00 -0.00000000000E+00 -0.20894642666E+02  0.20894642666E+02  0.00000000000E+00 0. -1.
          2    1    1    2  501    0  0.10533456708E+02  0.23032478534E+02  0.36667269612E+02  0.44563857984E+02  0.00000000000E+00 0.  1.
         -2    1    1    2    0  502 -0.10533456708E+02 -0.23032478534E+02 -0.74834134657E+01  0.26409283495E+02  0.00000000000E+00 0. -1.
</event>
<event>
 4    1  0.1800096E+004  0.5836276E+02  0.7546771E-02  0.1265499E+00
         21   -1    0    0  501  502  0.00000000000E+00  0.00000000000E+00  0.22078260928E+03  0.22078260928E+03  0.00000000000E+00 0.  1.
         21   -1    0    0  502  503 -0.00000000000E+00 -0.00000000000E+00 -0.16329058661E+02  0.16329058661E+02  0.00000000000E+00 0. -1.
          2    1    1    2  501    0  0.49150410029E+02 -0.31471389696E+02  0.13007797486E+03  0.14257100238E+03  0.00000000000E+00 0. -1.
         -2    1    1    2    0  503 -0.49150410029E+02  0.31471389696E+02  0.74375575752E+02  0.94540665557E+02  0.00000000000E+00 0.  1.
</event>
<event>
 4    1  0.1800096E+004  0.2012164E+02  0.7546771E-02  0.1532184E+00
         21   -1    0    0  501  502  0.00000000000E+00  0.00000000000E+00  0.12135974098E+02  0.12135974098E+02  0.00000000000E+00 0. -1.
         21   -1    0    0  502  503 -0.00000000000E+00 -0.00000000000E+00 -0.62722443700E+02  0.62722443700E+02  0.00000000000E+00 0.  1.
          2    1    1    2  501    0  0.51940900890E+01  0.19439693214E+02 -0.50901522803E+02  0.54734315268E+02  0.00000000000E+00 0.  1.
         -2    1    1    2    0  503 -0.51940900890E+01 -0.19439693214E+02  0.31505320099E+00  0.20124102530E+02  0.00000000000E+00 0. -1.
</event>
<event>
 4    1  0.1800096E+004  0.2096554E+02  0.7546771E-02  0.1519757E+00
         21   -1    0    0  501  502  0.00000000000E+00  0.00000000000E+00  0.58549235857E+02  0.58549235857E+02  0.00000000000E+00 0. -1.
         21   -1    0    0  502  503 -0.00000000000E+00 -0.00000000000E+00 -0.25908831665E+02  0.25908831665E+02  0.00000000000E+00 0.  1.
          2    1    1    2  501    0  0.20431302200E+02 -0.47027250276E+01  0.51908957048E+02  0.55982975574E+02  0.00000000000E+00 0. -1.
         -2    1    1    2    0  503 -0.20431302200E+02  0.47027250276E+01 -0.19268552857E+02  0.28475091948E+02  0.00000000000E+00 0.  1.
</event>
<event>
 4    1  0.1800096E+004  0.2593329E+02  0.7546771E-02  0.1458628E+00
         21   -1    0    0  501  502  0.00000000000E+00  0.00000000000E+00  0.21474180191E+02  0.21474180191E+02  0.00000000000E+00 0. -1.
         21   -1    0    0  502  503 -0.00000000000E+00 -0.00000000000E+00 -0.33160930409E+02  0.33160930409E+02  0.00000000000E+00 0.  1.
          2    1    1    2  501    0  0.23518246848E+02  0.10928296794E+02  0.59599324736E+00  0.25940139043E+02  0.00000000000E+00 0. -1.
         -2    1    1    2    0  503 -0.23518246848E+02 -0.10928296794E+02 -0.12282743465E+02  0.28694971557E+02  0.00000000000E+00 0.  1.
</event>
<event>
 4    1  0.1800096E+004  0.3236813E+02  0.7546771E-02  0.1400074E+00
         21   -1    0    0  503  502  0.00000000000E+00  0.00000000000E+00  0.43889422636E+03  0.43889422636E+03  0.00000000000E+00 0. -1.
         21   -1    0    0  501  503 -0.00000000000E+00 -0.00000000000E+00 -0.40038951345E+01  0.40038951345E+01  0.00000000000E+00 0.  1.
          2    1    1    2  501    0 -0.20817283456E+02 -0.24785812330E+02  0.76724943780E+02  0.83273121602E+02  0.00000000000E+00 0.  1.
         -2    1    1    2    0  502  0.20817283456E+02  0.24785812330E+02  0.35816538745E+03  0.35962499990E+03  0.00000000000E+00 0. -1.
</event>
<event>
 4    1  0.1800096E+004  0.2099619E+02  0.7546771E-02  0.1519319E+00
         21   -1    0    0  501  502  0.00000000000E+00  0.00000000000E+00  0.25806885807E+03  0.25806885807E+03  0.00000000000E+00 0.  1.
         21   -1    0    0  502  503 -0.00000000000E+00 -0.00000000000E+00 -0.20256969364E+01  0.20256969364E+01  0.00000000000E+00 0. -1.
          2    1    1    2  501    0  0.16889701078E+02  0.12473096274E+02  0.17950477491E+03  0.18072853773E+03  0.00000000000E+00 0. -1.
         -2    1    1    2    0  503 -0.16889701078E+02 -0.12473096274E+02  0.76538386219E+02  0.79366017276E+02  0.00000000000E+00 0.  1.
</event>
<event>
 4    1  0.1800096E+004  0.2003004E+02  0.7546771E-02  0.1533577E+00
         21   -1    0    0  503  502  0.00000000000E+00  0.00000000000E+00  0.73160050610E+02  0.73160050610E+02  0.00000000000E+00 0.  1.
         21   -1    0    0  501  503 -0.00000000000E+00 -0.00000000000E+00 -0.87368740515E+01  0.87368740515E+01  0.00000000000E+00 0. -1.
          2    1    1    2  501    0 -0.19842975877E+02 -0.27311153001E+01  0.72254232705E+01  0.21293412687E+02  0.00000000000E+00 0. -1.
         -2    1    1    2    0  502  0.19842975877E+02  0.27311153001E+01  0.57197753288E+02  0.60603511975E+02  0.00000000000E+00 0.  1.
</event>
<event>
 4    1  0.1800096E+004  0.2012201E+02  0.7546771E-02  0.1532179E+00
         21   -1    0    0  501  502  0.00000000000E+00  0.00000000000E+00  0.21258136026E+01  0.21258136026E+01  0.00000000000E+00 0.  1.
         21   -1    0    0  502  503 -0.00000000000E+00 -0.00000000000E+00 -0.33295887043E+03  0.33295887043E+03  0.00000000000E+00 0. -1.
          2    1    1    2  501    0 -0.16807119788E+02 -0.11064171698E+02 -0.27502039754E+03  0.27575553346E+03  0.00000000000E+00 0. -1.
         -2    1    1    2    0  503  0.16807119788E+02  0.11064171698E+02 -0.55812659292E+02  0.59329150577E+02  0.00000000000E+00 0.  1.
</event>
<event>
 4    1  0.1800096E+004  0.2045947E+02  0.7546771E-02  0.1527124E+00
         21   -1    0    0  501  502  0.00000000000E+00  0.00000000000E+00  0.10837962201E+02  0.10837962201E+02  0.00000000000E+00 0.  1.
         21   -1    0    0  502  503 -0.00000000000E+00 -0.00000000000E+00 -0.54138385436E+02  0.54138385436E+02  0.00000000000E+00 0. -1.
          2    1    1    2  501    0  0.44946392932E+01 -0.19959661617E+02 -0.42577899787E+01  0.20897814473E+02  0.00000000000E+00 0. -1.
         -2    1    1    2    0  503 -0.44946392932E+01  0.19959661617E+02 -0.39042633257E+02  0.44078533164E+02  0.00000000000E+00 0.  1.
</event>
<event>
 4    1  0.1800096E+004  0.2420408E+02  0.7546771E-02  0.1477908E+00
         21   -1    0    0  503  502  0.00000000000E+00  0.00000000000E+00  0.12852914080E+03  0.12852914080E+03  0.00000000000E+00 0. -1.
         21   -1    0    0  501  503 -0.00000000000E+00 -0.00000000000E+00 -0.17860718591E+02  0.17860718591E+02  0.00000000000E+00 0.  1.
          2    1    1    2  501    0  0.17623743858E+02 -0.16590399157E+02 -0.78344248254E+01  0.25440438363E+02  0.00000000000E+00 0.  1.
         -2    1    1    2    0  502 -0.17623743858E+02  0.16590399157E+02  0.11850284703E+03  0.12094942103E+03  0.00000000000E+00 0. -1.
</event>
<event>
 4    1  0.1800096E+004  0.3127443E+02  0.7546771E-02  0.1408836E+00
         21   -1    0    0  503  502  0.00000000000E+00  0.00000000000E+00  0.85780143415E+02  0.85780143415E+02  0.00000000000E+00 0. -1.
         21   -1    0    0  501  503 -0.00000000000E+00 -0.00000000000E+00 -0.12342656431E+02  0.12342656431E+02  0.00000000000E+00 0.  1.
          2    1    1    2  501    0 -0.18382521017E+02 -0.25301641614E+02  0.23176707279E+02  0.38926211061E+02  0.00000000000E+00 0.  1.
         -2    1    1    2    0  502  0.18382521017E+02  0.25301641614E+02  0.50260779705E+02  0.59196588785E+02  0.00000000000E+00 0. -1.
</event>
<event>
 4    1  0.1800096E+004  0.2767277E+02  0.7546771E-02  0.1440965E+00
         21   -1    0    0  501  502  0.00000000000E+00  0.00000000000E+00  0.14246249891E+03  0.14246249891E+03  0.00000000000E+00 0. -1.
         21   -1    0    0  502  503 -0.00000000000E+00 -0.00000000000E+00 -0.59256687890E+01  0.59256687890E+01  0.00000000000E+00 0.  1.
          2    1    1    2  501    0  0.23098696916E+02  0.15239177323E+02  0.90879289998E+02  0.94999093023E+02  0.00000000000E+00 0.  1.
         -2    1    1    2    0  503 -0.23098696916E+02 -0.15239177323E+02  0.45657540126E+02  0.53389074678E+02  0.00000000000E+00 0. -1.
</event>
<event>
 4    1  0.1800096E+004  0.6843393E+02  0.7546771E-02  0.1233589E+00
         21   -1    0    0  501  502  0.00000000000E+00  0.00000000000E+00  0.21379454174E+02  0.21379454174E+02  0.00000000000E+00 0.  1.
         21   -1    0    0  502  503 -0.00000000000E+00 -0.00000000000E+00 -0.39823657950E+03  0.39823657950E+03  0.00000000000E+00 0. -1.
          2    1    1    2  501    0 -0.61235379063E+02  0.30552111369E+02 -0.47693493011E+02  0.83413862359E+02  0.00000000000E+00 0.  1.
         -2    1    1    2    0  503  0.61235379063E+02 -0.30552111369E+02 -0.32916363232E+03  0.33620217132E+03  0.00000000000E+00 0. -1.
</event>
<event>
 4    1  0.1800096E+004  0.3234883E+02  0.7546771E-02  0.1400225E+00
         21   -1    0    0  501  502  0.00000000000E+00  0.00000000000E+00  0.13722634260E+03  0.13722634260E+03  0.00000000000E+00 0.  1.
         21   -1    0    0  502  503 -0.00000000000E+00 -0.00000000000E+00 -0.15145911778E+02  0.15145911778E+02  0.00000000000E+00 0. -1.
          2    1    1    2  501    0  0.28734156089E+02  0.14859184055E+02  0.11472400786E+03  0.11919750441E+03  0.00000000000E+00 0. -1.
         -2    1    1    2    0  503 -0.28734156089E+02 -0.14859184055E+02  0.73564229608E+01  0.33174749972E+02  0.00000000000E+00 0.  1.
</event>
<event>
 4    1  0.1800096E+004  0.2678550E+02  0.7546771E-02  0.1449775E+00
         21   -1    0    0  501  502  0.00000000000E+00  0.00000000000E+00  0.26658459311E+03  0.26658459311E+03  0.00000000000E+00 0. -1.
         21   -1    0    0  502  503 -0.00000000000E+00 -0.00000000000E+00 -0.54410101084E+01  0.54410101084E+01  0.00000000000E+00 0.  1.
          2    1    1    2  501    0  0.99623691806E+01 -0.24863916576E+02  0.22726195191E+03  0.22883500155E+03  0.00000000000E+00 0. -1.
         -2    1    1    2    0  503 -0.99623691806E+01  0.24863916576E+02  0.33881631088E+02  0.43190601667E+02  0.00000000000E+00 0.  1.
</event>
<event>
 4    1  0.1800096E+004  0.3024103E+02  0.7546771E-02  0.1417513E+00
         21   -1    0    0  503  502  0.00000000000E+00  0.00000000000E+00  0.90745961166E+01  0.90745961166E+01  0.00000000000E+00 0. -1.
         21   -1    0    0  501  503 -0.00000000000E+00 -0.00000000000E+00 -0.19338377346E+03  0.19338377346E+03  0.00000000000E+00 0.  1.
          2    1    1    2  501    0  0.30069693768E+02  0.32145748087E+01 -0.16220564224E+03  0.16500057682E+03  0.00000000000E+00 0.  1.
         -2    1    1    2    0  502 -0.30069693768E+02 -0.32145748087E+01 -0.22103535101E+02  0.37457792760E+02  0.00000000000E+00 0. -1.
</event>
<event>
 4    1  0.1800096E+004  0.4790822E+02  0.7546771E-02  0.1307506E+00
         21   -1    0    0  503  502  0.00000000000E+00  0.00000000000E+00  0.69201771027E+02  0.69201771027E+02  0.00000000000E+00 0.  1.
         21   -1    0    0  501  503 -0.00000000000E+00 -0.00000000000E+00 -0.40183175137E+02  0.40183175137E+02  0.00000000000E+00 0. -1.
          2    1    1    2  501    0  0.16949700230E+02 -0.44809650534E+02 -0.83447801277E+01  0.48629543224E+02  0.00000000000E+00 0.  1.
         -2    1    1    2    0  502 -0.16949700230E+02  0.44809650534E+02  0.37363376018E+02  0.60755402939E+02  0.00000000000E+00 0. -1.
</event>
<event>
 4    1  0.1800096E+004  0.2420496E+02  0.7546771E-02  0.1477897E+00
         21   -1    0    0  501  502  0.00000000000E+00  0.00000000000E+00  0.17871506963E+03  0.17871506963E+03  0.00000000000E+00 0.  1.
         21   -1    0    0  502  503 -0.00000000000E+00 -0.00000000000E+00 -0.98844765961E+01  0.98844765961E+01  0.00000000000E+00 0. -1.
          2    1    1    2  501    0  0.73371478398E+01 -0.23066129328E+02  0.16150727368E+03  0.16331099018E+03  0.00000000000E+00 0.  1.
         -2    1    1    2    0  503 -0.73371478398E+01  0.23066129328E+02  0.73233193502E+01  0.25288556047E+02  0.00000000000E+00 0. -1.
</event>
<event>
 4    1  0.1800096E+004  0.3036361E+02  0.7546771E-02  0.1416462E+00
         21   -1    0    0  503  502  0.00000000000E+00  0.00000000000E+00  0.58266292074E+01  0.58266292074E+01  0.00000000000E+00 0. -1.
         21   -1    0    0  501  503 -0.00000000000E+00 -0.00000000000E+00 -0.26958835919E+03  0.26958835919E+03  0.00000000000E+00 0.  1.
          2    1    1    2  501    0  0.17801275612E+02 -0.24598031364E+02 -0.22038592032E+03  0.22246775594E+03  0.00000000000E+00 0.  1.
         -2    1    1    2    0  502 -0.17801275612E+02  0.24598031364E+02 -0.43375809667E+02  0.52947232455E+02  0.00000000000E+00 0. -1.
</event>
<event>
 4    1  0.1800096E+004  0.2449529E+02  0.7546771E-02  0.1474529E+00
         21   -1    0    0  503  502  0.00000000000E+00  0.00000000000E+00  0.33256055564E+02  0.33256055564E+02  0.00000000000E+00 0.  1.
         21   -1    0    0  501  503 -0.00000000000E+00 -0.00000000000E+00 -0.61055431228E+02  0.61055431228E+02  0.00000000000E+00 0. -1.
          2    1    1    2  501    0  0.13984270423E+02 -0.20111181217E+02 -0.53479380028E+02  0.58822304591E+02  0.00000000000E+00 0. -1.
         -2    1    1    2    0  502 -0.13984270423E+02  0.20111181217E+02  0.25680004364E+02  0.35489182202E+02  0.00000000000E+00 0.  1.
</event>
<event>
 4    1  0.1800096E+004  0.2229295E+02  0.7546771E-02  0.1501573E+00
         21   -1    0    0  501  502  0.00000000000E+00  0.00000000000E+00  0.84438196708E+01  0.84438196708E+01  0.00000000000E+00 0. -1.
         21   -1    0    0  502  503 -0.00000000000E+00 -0.00000000000E+00 -0.94095118739E+02  0.94095118739E+02  0.00000000000E+00 0.  1.
          2    1    1    2  501    0 -0.21891697020E+02 -0.42106192834E+01 -0.11450686483E+02  0.25061802291E+02  0.00000000000E+00 0. -1.
         -2    1    1    2    0  503  0.21891697020E+02  0.42106192834E+01 -0.74200612585E+02  0.77477136118E+02  0.00000000000E+00 0.  1.
</event>
<event>
 4    1  0.1800096E+004  0.2335872E+02  0.7546771E-02  0.1488042E+00
         21   -1    0    0  501  502  0.00000000000E+00  0.00000000000E+00  0.94495840283E+02  0.94495840283E+02  0.00000000000E+00 0.  1.
         21   -1    0    0  502  503 -0.00000000000E+00 -0.00000000000E+00 -0.25641137684E+02  0.25641137684E+02  0.00000000000E+00 0. -1.
          2    1    1    2  501    0  0.71232420398E+01  0.22246104191E+02  0.87301631698E+02  0.90372587801E+02  0.00000000000E+00 0.  1.
         -2    1    1    2    0  503 -0.71232420398E+01 -0.22246104191E+02 -0.18446929099E+02  0.29764390167E+02  0.00000000000E+00 0. -1.
</event>
<event>
 4    1  0.1800096E+004  0.2273373E+02  0.7546771E-02  0.1495869E+00
         21   -1    0    0  503  502  0.00000000000E+00  0.00000000000E+00  0.18720890842E+01  0.18720890842E+01  0.00000000000E+00 0.  1.
         21   -1    0    0  501  503 -0.00000000000E+00 -0.00000000000E+00 -0.44124060117E+03  0.44124060117E+03  0.00000000000E+00 0. -1.
          2    1    1    2  501    0  0.15632669915E+02 -0.16505820125E+02 -0.35523954328E+03  0.35596622814E+03  0.00000000000E+00 0. -1.
         -2    1    1    2    0  502 -0.15632669915E+02  0.16505820125E+02 -0.84128968814E+02  0.87146462122E+02  0.00000000000E+00 0.  1.
</event>
<event>
 4    1  0.1800096E+004  0.3651713E+02  0.7546771E-02  0.1370200E+00
         21   -1    0    0  501  502  0.00000000000E+00  0.00000000000E+00  0.12722381085E+04  0.12722381085E+04  0.00000000000E+00 0.  1.
         21   -1    0    0  502  503 -0.00000000000E+00 -0.00000000000E+00 -0.61574189407E+01  0.61574189407E+01  0.00000000000E+00 0. -1.
          2    1    1    2  501    0 -0.34503401511E+02 -0.11958941050E+02  0.12152978871E+04  0.12158463947E+04  0.00000000000E+00 0.  1.
         -2    1    1    2    0  503  0.34503401511E+02  0.11958941050E+02  0.50782802428E+02  0.62549132762E+02  0.00000000000E+00 0. -1.
</event>
<event>
 4    1  0.1800096E+004  0.2381700E+02  0.7546771E-02  0.1482486E+00
         21   -1    0    0  503  502  0.00000000000E+00  0.00000000000E+00  0.88216079813E+02  0.88216079813E+02  0.00000000000E+00 0. -1.
         21   -1    0    0  501  503 -0.00000000000E+00 -0.00000000000E+00 -0.73956919599E+01  0.73956919599E+01  0.00000000000E+00 0.  1.
          2    1    1    2  501    0  0.21256890176E+02 -0.10742158517E+02  0.57682900560E+02  0.62406460936E+02  0.00000000000E+00 0.  1.
         -2    1    1    2    0  502 -0.21256890176E+02  0.10742158517E+02  0.23137487294E+02  0.33205310837E+02  0.00000000000E+00 0. -1.
</event>
<event>
 4    1  0.1800096E+004  0.2678190E+02  0.7546771E-02  0.1449811E+00
         21   -1    0    0  501  502  0.00000000000E+00  0.00000000000E+00  0.12819608007E+02  0.12819608007E+02  0.00000000000E+00 0. -1.
         21   -1    0    0  502  503 -0.00000000000E+00 -0.00000000000E+00 -0.57719302685E+02  0.57719302685E+02  0.00000000000E+00 0.  1.
          2    1    1    2  501    0 -0.25128666955E+02  0.92639263658E+01 -0.28623087798E+02  0.39198869751E+02  0.00000000000E+00 0. -1.
         -2    1    1    2    0  503  0.25128666955E+02 -0.92639263658E+01 -0.16276606881E+02  0.31340040941E+02  0.00000000000E+00 0.  1.
</event>
<event>
 4    1  0.1800096E+004  0.4801481E+02  0.7546771E-02  0.1307017E+00
         21   -1    0    0  503  502  0.00000000000E+00  0.00000000000E+00  0.55679071037E+03  0.55679071037E+03  0.00000000000E+00 0.  1.
         21   -1    0    0  501  503 -0.00000000000E+00 -0.00000000000E+00 -0.59727797373E+01  0.59727797373E+01  0.00000000000E+00 0. -1.
          2    1    1    2  501    0  0.10605176418E+02  0.46828972290E+02  0.11956245877E+03  0.12884333107E+03  0.00000000000E+00 0. -1.
         -2    1    1    2    0  502 -0.10605176418E+02 -0.46828972290E+02  0.43125547186E+03  0.43392015904E+03  0.00000000000E+00 0.  1.
</event>
<event>
 4    1  0.1800096E+004  0.2588957E+02  0.7546771E-02  0.1459093E+00
         21   -1    0    0  503  502  0.00000000000E+00  0.00000000000E+00  0.42347072276E+00  0.42347072276E+00  0.00000000000E+00 0.  1.
         21   -1    0    0  501  503 -0.00000000000E+00 -0.00000000000E+00 -0.15875852476E+04  0.15875852476E+04  0.00000000000E+00 0. -1.
          2    1    1    2  501    0 -0.23664068338E+02 -0.10501509346E+02 -0.74999287903E+03  0.75043959678E+03  0.00000000000E+00 0. -1.
         -2    1    1    2    0  502  0.23664068338E+02  0.10501509346E+02 -0.83716889787E+03  0.83756912156E+03  0.00000000000E+00 0.  1.
</event>
<event>
 4    1  0.1800096E+004  0.2002013E+02  0.7546771E-02  0.1533728E+00
         21   -1    0    0  503  502  0.00000000000E+00  0.00000000000E+00  0.43545324803E+01  0.43545324803E+01  0.00000000000E+00 0. -1.
         21   -1    0    0  501  503 -0.00000000000E+00 -0.00000000000E+00 -0.24566131361E+03  0.24566131361E+03  0.00000000000E+00 0.  1.
          2    1    1    2  501    0 -0.36527675303E+01  0.19684079111E+02 -0.21950646509E+03  0.22041754444E+03  0.00000000000E+00 0.  1.
         -2    1    1    2    0  502  0.36527675303E+01 -0.19684079111E+02 -0.21800316038E+02  0.29598301648E+02  0.00000000000E+00 0. -1.
</event>
<event>
 4    1  0.1800096E+004  0.3243978E+02  0.7546771E-02  0.1399515E+00
         21   -1    0    0  501  502  0.00000000000E+00  0.00000000000E+00  0.18012224203E+03  0.18012224203E+03  0.00000000000E+00 0.  1.
         21   -1    0    0  502  503 -0.00000000000E+00 -0.00000000000E+00 -0.12019565923E+03  0.12019565923E+03  0.00000000000E+00 0. -1.
          2    1    1    2  501    0 -0.26211538860E+02 -0.19112687032E+02  0.17642738760E+03  0.17938495665E+03  0.00000000000E+00 0.  1.
         -2    1    1    2    0  503  0.26211538860E+02  0.19112687032E+02 -0.11650080480E+03  0.12093294462E+03  0.00000000000E+00 0. -1.
</event>
<event>
 4    1  0.1800096E+004  0.2135264E+02  0.7546771E-02  0.1514289E+00
         21   -1    0    0  501  502  0.00000000000E+00  0.00000000000E+00  0.71446438678E+01  0.71446438678E+01  0.00000000000E+00 0.  1.
         21   -1    0    0  502  503 -0.00000000000E+00 -0.00000000000E+00 -0.88264857966E+02  0.88264857966E+02  0.00000000000E+00 0. -1.
          2    1    1    2  501    0 -0.16413780659E+02 -0.13657343204E+02 -0.15452450755E+02  0.26357417424E+02  0.00000000000E+00 0.  1.
         -2    1    1    2    0  503  0.16413780659E+02  0.13657343204E+02 -0.65667763343E+02  0.69052084410E+02  0.00000000000E+00 0. -1.
</event>
<event>
 4    1  0.1800096E+004  0.2385807E+02  0.7546771E-02  0.1481996E+00
         21   -1    0    0  501  502  0.00000000000E+00  0.00000000000E+00  0.73071875224E+02  0.73071875224E+02  0.00000000000E+00 0.  1.
         21   -1    0    0  502  503 -0.00000000000E+00 -0.00000000000E+00 -0.30238471237E+02  0.30238471237E+02  0.00000000000E+00 0. -1.
          2    1    1    2  501    0  0.10311958752E+02  0.21514437395E+02  0.65923900356E+02  0.70108260197E+02  0.00000000000E+00 0.  1.
         -2    1    1    2    0  503 -0.10311958752E+02 -0.21514437395E+02 -0.23090496369E+02  0.33202086264E+02  0.00000000000E+00 0. -1.
</event>
<event>
 4    1  0.1800096E+004  0.2888421E+02  0.7546771E-02  0.1429547E+00
         21   -1    0    0  501  502  0.00000000000E+00  0.00000000000E+00  0.26694690365E+02  0.26694690365E+02  0.00000000000E+00 0. -1.
         21   -1    0    0  502  503 -0.00000000000E+00 -0.00000000000E+00 -0.34148612272E+02  0.34148612272E+02  0.00000000000E+00 0.  1.
          2    1    1    2  501    0  0.27332073035E+02 -0.93410520588E+01  0.51311906184E+01  0.29336437874E+02  0.00000000000E+00 0.  1.
         -2    1    1    2    0  503 -0.27332073035E+02  0.93410520588E+01 -0.12585112526E+02  0.31506864764E+02  0.00000000000E+00 0. -1.
</event>
<event>
 4    1  0.1800096E+004  0.3958043E+02  0.7546771E-02  0.1350962E+00
         21   -1    0    0  503  502  0.00000000000E+00  0.00000000000E+00  0.20931635552E+01  0.20931635552E+01  0.00000000000E+00 0. -1.
         21   -1    0    0  501  503 -0.00000000000E+00 -0.00000000000E+00 -0.74845264499E+03  0.74845264499E+03  0.00000000000E+00 0.  1.
          2    1    1    2  501    0 -0.13166083045E+02 -0.37326458214E+02 -0.37172402170E+03  0.37382530483E+03  0.00000000000E+00 0.  1.
         -2    1    1    2    0  502  0.13166083045E+02  0.37326458214E+02 -0.37463545974E+03  0.37672050371E+03  0.00000000000E+00 0. -1.
</event>
<event>
 4    1  0.1800096E+004  0.2337467E+02  0.7546771E-02  0.1487846E+00
         21   -1    0    0  501  502  0.00000000000E+00  0.00000000000E+00  0.23536391253E+02  0.23536391253E+02  0.00000000000E+00 0.  1.
         21   -1    0    0  502  503 -0.00000000000E+00 -0.00000000000E+00 -0.31999569738E+02  0.31999569738E+02  0.00000000000E+00 0. -1.
          2    1    1    2  501    0 -0.78467199877E+01 -0.22018269775E+02  0.10318166002E+02  0.25550729307E+02  0.00000000000E+00 0.  1.
         -2    1    1    2    0  503  0.78467199877E+01  0.22018269775E+02 -0.18781344487E+02  0.29985231685E+02  0.00000000000E+00 0. -1.
</event>
<event>
 4    1  0.1800096E+004  0.2413598E+02  0.7546771E-02  0.1478706E+00
         21   -1    0    0  503  502  0.00000000000E+00  0.00000000000E+00  0.90103058458E+02  0.90103058458E+02  0.00000000000E+00 0.  1.
         21   -1    0    0  501  503 -0.00000000000E+00 -0.00000000000E+00 -0.65837666200E+01  0.65837666200E+01  0.00000000000E+00 0. -1.
          2    1    1    2  501    0  0.22264086167E+02  0.93196510589E+01  0.48243822878E+02  0.53944525900E+02  0.00000000000E+00 0.  1.
         -2    1    1    2    0  502 -0.22264086167E+02 -0.93196510589E+01  0.35275468961E+02  0.42742299179E+02  0.00000000000E+00 0. -1.
</event>
<event>
 4    1  0.1800096E+004  0.2323889E+02  0.7546771E-02  0.1489520E+00
         21   -1    0    0  501  502  0.00000000000E+00  0.00000000000E+00  0.29086340219E+02  0.29086340219E+02  0.00000000000E+00 0. -1.
         21   -1    0    0  502  503 -0.00000000000E+00 -0.00000000000E+00 -0.20289916585E+02  0.20289916585E+02  0.00000000000E+00 0.  1.
          2    1    1    2  501    0 -0.20896837416E+02  0.10167017796E+02  0.11592373984E+02  0.25969774728E+02  0.00000000000E+00 0. -1.
         -2    1    1    2    0  503  0.20896837416E+02 -0.10167017796E+02 -0.27959503501E+01  0.23406482076E+02  0.00000000000E+00 0.  1.
</event>
<event>
 4    1  0.1800096E+004  0.2162291E+02  0.7546771E-02  0.1510554E+00
         21   -1    0    0  503  502  0.00000000000E+00  0.00000000000E+00  0.79316107283E+00  0.79316107283E+00  0.00000000000E+00 0.  1.
         21   -1    0    0  501  503 -0.00000000000E+00 -0.00000000000E+00 -0.13291224669E+04  0.13291224669E+04  0.00000000000E+00 0. -1.
          2    1    1    2  501    0 -0.84425103834E+00 -0.21606425742E+02 -0.11602122227E+04  0.11604136986E+04  0.00000000000E+00 0. -1.
         -2    1    1    2    0  502  0.84425103834E+00  0.21606425742E+02 -0.16811708314E+03  0.16950192930E+03  0.00000000000E+00 0.  1.
</event>
<event>
 4    1  0.1800096E+004  0.4404661E+02  0.7546771E-02  0.1326276E+00
         21   -1    0    0  503  502  0.00000000000E+00  0.00000000000E+00  0.78550493296E+03  0.78550493296E+03  0.00000000000E+00 0. -1.
         21   -1    0    0  501  503 -0.00000000000E+00 -0.00000000000E+00 -0.48780053534E+01  0.48780053534E+01  0.00000000000E+00 0.  1.
          2    1    1    2  501    0  0.32921120323E+02 -0.29262660500E+02  0.11264541533E+03  0.12095078775E+03  0.00000000000E+00 0.  1.
         -2    1    1    2    0  502 -0.32921120323E+02  0.29262660500E+02  0.66798151228E+03  0.66943215056E+03  0.00000000000E+00 0. -1.
</event>
<event>
 4    1  0.1800096E+004  0.2043430E+02  0.7546771E-02  0.1527497E+00
         21   -1    0    0  503  502  0.00000000000E+00  0.00000000000E+00  0.52883658766E+02  0.52883658766E+02  0.00000000000E+00 0. -1.
         21   -1    0    0  501  503 -0.00000000000E+00 -0.00000000000E+00 -0.16815883902E+02  0.16815883902E+02  0.00000000000E+00 0.  1.
          2    1    1    2  501    0  0.17581161290E+02  0.10414578790E+02 -0.73479864574E+01  0.21715284678E+02  0.00000000000E+00 0.  1.
         -2    1    1    2    0  502 -0.17581161290E+02 -0.10414578790E+02  0.43415761322E+02  0.47984257990E+02  0.00000000000E+00 0. -1.
</event>
<event>
 4    1  0.1800096E+004  0.3097167E+02  0.7546771E-02  0.1411336E+00
         21   -1    0    0  503  502  0.00000000000E+00  0.00000000000E+00  0.12300286908E+03  0.12300286908E+03  0.00000000000E+00 0.  1.
         21   -1    0    0  501  503 -0.00000000000E+00 -0.00000000000E+00 -0.36772004238E+02  0.36772004238E+02  0.00000000000E+00 0. -1.
          2    1    1    2  501    0  0.23384564368E+02  0.20307787973E+02 -0.27796605774E+02  0.41616047333E+02  0.00000000000E+00 0. -1.
         -2    1    1    2    0  502 -0.23384564368E+02 -0.20307787973E+02  0.11402747062E+03  0.11815882599E+03  0.00000000000E+00 0.  1.
</event>
<event>
 4    1  0.1800096E+004  0.2665959E+02  0.7546771E-02  0.1451058E+00
         21   -1    0    0  501  502  0.00000000000E+00  0.00000000000E+00  0.53588770540E+02  0.53588770540E+02  0.00000000000E+00 0.  1.
         21   -1    0    0  502  503 -0.00000000000E+00 -0.00000000000E+00 -0.13440905205E+02  0.13440905205E+02  0.00000000000E+00 0. -1.
          2    1    1    2  501    0  0.19038706795E+02  0.18661755777E+02  0.23932663102E+02  0.35826049856E+02  0.00000000000E+00 0.  1.
         -2    1    1    2    0  503 -0.19038706795E+02 -0.18661755777E+02  0.16215202233E+02  0.31203625888E+02  0.00000000000E+00 0. -1.
</event>
<event>
 4    1  0.1800096E+004  0.4397666E+02  0.7546771E-02  0.1326636E+00
         21   -1    0    0  503  502  0.00000000000E+00  0.00000000000E+00  0.17341532498E+03  0.17341532498E+03  0.00000000000E+00 0. -1.
         21   -1    0    0  501  503 -0.00000000000E+00 -0.00000000000E+00 -0.45423403222E+02  0.45423403222E+02  0.00000000000E+00 0.  1.
          2    1    1    2  501    0 -0.30755014763E+02  0.31433675384E+02 -0.31046920570E+02  0.53831757895E+02  0.00000000000E+00 0.  1.
         -2    1    1    2    0  502  0.30755014763E+02 -0.31433675384E+02  0.15903884232E+03  0.16500697030E+03  0.00000000000E+00 0. -1.
</event>
<event>
 4    1  0.1800096E+004  0.2641333E+02  0.7546771E-02  0.1453592E+00
         21   -1    0    0  503  502  0.00000000000E+00  0.00000000000E+00  0.15272891961E+01  0.15272891961E+01  0.00000000000E+00 0. -1.
         21   -1    0    0  501  503 -0.00000000000E+00 -0.00000000000E+00 -0.50486805242E+03  0.50486805242E+03  0.00000000000E+00 0.  1.
          2    1    1    2  501    0 -0.25921358024E+02 -0.50741842919E+01 -0.32979782791E+03  0.33085385209E+03  0.00000000000E+00 0. -1.
         -2    1    1    2    0  502  0.25921358024E+02  0.50741842919E+01 -0.17354293531E+03  0.17554148953E+03  0.00000000000E+00 0.  1.
</event>
<event>
 4    1  0.1800096E+004  0.3478247E+02  0.7546771E-02  0.1382099E+00
         21   -1    0    0  503  502  0.00000000000E+00  0.00000000000E+00  0.13176291234E+02  0.13176291234E+02  0.00000000000E+00 0.  1.
         21   -1    0    0  501  503 -0.00000000000E+00 -0.00000000000E+00 -0.97256598338E+02  0.97256598338E+02  0.00000000000E+00 0. -1.
          2    1    1    2  501    0 -0.27343192916E+02 -0.21498135431E+02 -0.28982821031E+02  0.45274981400E+02  0.00000000000E+00 0. -1.
         -2    1    1    2    0  502  0.27343192916E+02  0.21498135431E+02 -0.55097486073E+02  0.65157908172E+02  0.00000000000E+00 0.  1.
</event>
<event>
 4    1  0.1800096E+004  0.2428253E+02  0.7546771E-02  0.1476992E+00
         21   -1    0    0  501  502  0.00000000000E+00  0.00000000000E+00  0.98603712089E+02  0.98603712089E+02  0.00000000000E+00 0.  1.
         21   -1    0    0  502  503 -0.00000000000E+00 -0.00000000000E+00 -0.10329522405E+02  0.10329522405E+02  0.00000000000E+00 0. -1.
          2    1    1    2  501    0  0.23065065409E+02 -0.75923656048E+01  0.79481086437E+02  0.83107667269E+02  0.00000000000E+00 0.  1.
         -2    1    1    2    0  503 -0.23065065409E+02  0.75923656048E+01  0.87931032473E+01  0.25825567225E+02  0.00000000000E+00 0. -1.
</event>
<event>
 4    1  0.1800096E+004  0.2812299E+02  0.7546771E-02  0.1436642E+00
         21   -1    0    0  501  502  0.00000000000E+00  0.00000000000E+00  0.87489702808E+00  0.87489702808E+00  0.00000000000E+00 0.  1.
         21   -1    0    0  502  503 -0.00000000000E+00 -0.00000000000E+00 -0.92364765055E+03  0.92364765055E+03  0.00000000000E+00 0. -1.
          2    1    1    2  501    0  0.27958305825E+02 -0.30389904975E+01 -0.52881551014E+03  0.52956278768E+03  0.00000000000E+00 0. -1.
         -2    1    1    2    0  503 -0.27958305825E+02  0.30389904975E+01 -0.39395724338E+03  0.39495975990E+03  0.00000000000E+00 0.  1.
</event>
<event>
 4    1  0.1800096E+004  0.2191366E+02  0.7546771E-02  0.1506609E+00
         21   -1    0    0  501  502  0.00000000000E+00  0.00000000000E+00  0.10766731763E+02  0.10766731763E+02  0.00000000000E+00 0.  1.
         21   -1    0    0  502  503 -0.00000000000E+00 -0.00000000000E+00 -0.48630249697E+02  0.48630249697E+02  0.00000000000E+00 0. -1.
          2    1    1    2  501    0  0.21897646965E+02 -0.83748596627E+00 -0.10383324177E+02  0.24249159703E+02  0.00000000000E+00 0.  1.
         -2    1    1    2    0  503 -0.21897646965E+02  0.83748596627E+00 -0.27480193758E+02  0.35147821758E+02  0.00000000000E+00 0. -1.
</event>
<event>
 4    1  0.1800096E+004  0.2396873E+02  0.7546771E-02  0.1480679E+00
         21   -1    0    0  501  502  0.00000000000E+00  0.00000000000E+00  0.78005914788E+02  0.78005914788E+02  0.00000000000E+00 0. -1.
         21   -1    0    0  502  503 -0.00000000000E+00 -0.00000000000E+00 -0.10497327187E+02  0.10497327187E+02  0.00000000000E+00 0.  1.
          2    1    1    2  501    0  0.22129937070E+02 -0.92068517798E+01  0.57927553705E+02  0.62690523308E+02  0.00000000000E+00 0. -1.
         -2    1    1    2    0  503 -0.22129937070E+02  0.92068517798E+01  0.95810338967E+01  0.25812718666E+02  0.00000000000E+00 0.  1.
</event>
<event>
 4    1  0.1800096E+004  0.2149076E+02  0.7546771E-02  0.1512372E+00
         21   -1    0    0  503  502  0.00000000000E+00  0.00000000000E+00  0.19110867068E+03  0.19110867068E+03  0.00000000000E+00 0.  1.
         21   -1    0    0  501  503 -0.00000000000E+00 -0.00000000000E+00 -0.39360190198E+01  0.39360190198E+01  0.00000000000E+00 0. -1.
          2    1    1    2  501    0 -0.28695340767E+01  0.21298321763E+02  0.32996497703E+02  0.39377932861E+02  0.00000000000E+00 0. -1.
         -2    1    1    2    0  502  0.28695340767E+01 -0.21298321763E+02  0.15417615396E+03  0.15566675684E+03  0.00000000000E+00 0.  1.
</event>
<event>
 4    1  0.1800096E+004  0.2048506E+02  0.7546771E-02  0.1526745E+00
         21   -1    0    0  501  502  0.00000000000E+00  0.00000000000E+00  0.12790530543E+02  0.12790530543E+02  0.00000000000E+00 0. -1.
         21   -1    0    0  502  503 -0.00000000000E+00 -0.00000000000E+00 -0.72496540004E+02  0.72496540004E+02  0.00000000000E+00 0.  1.
          2    1    1    2  501    0  0.17262701991E+02 -0.11028903845E+02  0.16988294457E+01  0.20555379382E+02  0.00000000000E+00 0. -1.
         -2    1    1    2    0  503 -0.17262701991E+02  0.11028903845E+02 -0.61404838906E+02  0.64731691166E+02  0.00000000000E+00 0.  1.
</event>
<event>
 4    1  0.1800096E+004  0.2024801E+02  0.7546771E-02  0.1530278E+00
         21   -1    0    0  503  502  0.00000000000E+00  0.00000000000E+00  0.22870599299E+01  0.22870599299E+01  0.00000000000E+00 0.  1.
         21   -1    0    0  501  503 -0.00000000000E+00 -0.00000000000E+00 -0.19200946091E+03  0.19200946091E+03  0.00000000000E+00 0. -1.
          2    1    1    2  501    0  0.10018619757E+02  0.17595710299E+02 -0.11989312875E+03  0.12159088817E+03  0.00000000000E+00 0. -1.
         -2    1    1    2    0  502 -0.10018619757E+02 -0.17595710299E+02 -0.69829272228E+02  0.72705632675E+02  0.00000000000E+00 0.  1.
</event>
<event>
 4    1  0.1800096E+004  0.2607530E+02  0.7546771E-02  0.1457125E+00
         21   -1    0    0  503  502  0.00000000000E+00  0.00000000000E+00  0.29876682608E+02  0.29876682608E+02  0.00000000000E+00 0.  1.
         21   -1    0    0  501  503 -0.00000000000E+00 -0.00000000000E+00 -0.84272270693E+02  0.84272270693E+02  0.00000000000E+00 0. -1.
          2    1    1    2  501    0  0.25095356445E+02 -0.70812838538E+01 -0.75960629717E+02  0.80311510776E+02  0.00000000000E+00 0. -1.
         -2    1    1    2    0  502 -0.25095356445E+02  0.70812838538E+01  0.21565041631E+02  0.33837442525E+02  0.00000000000E+00 0.  1.
</event>
<event>
 4    1  0.1800096E+004  0.2783323E+02  0.7546771E-02  0.1439413E+00
         21   -1    0    0  501  502  0.00000000000E+00  0.00000000000E+00  0.42558207311E+00  0.42558207311E+00  0.00000000000E+00 0. -1.
         21   -1    0    0  502  503 -0.00000000000E+00 -0.00000000000E+00 -0.18308837295E+04  0.18308837295E+04  0.00000000000E+00 0.  1.
          2    1    1    2  501    0  0.27833039250E+02  0.10186228374E+00 -0.98483610076E+03  0.98522933057E+03  0.00000000000E+00 0.  1.
         -2    1    1    2    0  503 -0.27833039250E+02 -0.10186228374E+00 -0.84562204665E+03  0.84607998099E+03  0.00000000000E+00 0. -1.
</event>
<event>
 4    1  0.1800096E+004  0.2398363E+02  0.7546771E-02  0.1480503E+00
         21   -1    0    0  501  502  0.00000000000E+00  0.00000000000E+00  0.31840273828E+02  0.31840273828E+02  0.00000000000E+00 0.  1.
         21   -1    0    0  502  503 -0.00000000000E+00 -0.00000000000E+00 -0.22621162124E+02  0.22621162124E+02  0.00000000000E+00 0. -1.
          2    1    1    2  501    0  0.19353747678E+02 -0.14164996094E+02  0.16829553064E+02  0.29299292139E+02  0.00000000000E+00 0. -1.
         -2    1    1    2    0  503 -0.19353747678E+02  0.14164996094E+02 -0.76104413602E+01  0.25162143812E+02  0.00000000000E+00 0.  1.
</event>
<event>
 4    1  0.1800096E+004  0.2289879E+02  0.7546771E-02  0.1493773E+00
         21   -1    0    0  501  502  0.00000000000E+00  0.00000000000E+00  0.42764397118E+01  0.42764397118E+01  0.00000000000E+00 0.  1.
         21   -1    0    0  502  503 -0.00000000000E+00 -0.00000000000E+00 -0.18052683990E+03  0.18052683990E+03  0.00000000000E+00 0. -1.
          2    1    1    2  501    0 -0.65579294125E+01  0.21939643951E+02 -0.35790039928E+02  0.42488602859E+02  0.00000000000E+00 0.  1.
         -2    1    1    2    0  503  0.65579294125E+01 -0.21939643951E+02 -0.14046036026E+03  0.14231467676E+03  0.00000000000E+00 0. -1.
</event>
<event>
 4    1  0.1800096E+004  0.2454628E+02  0.7546771E-02  0.1473944E+00
         21   -1    0    0  503  502  0.00000000000E+00  0.00000000000E+00  0.54751947680E+03  0.54751947680E+03  0.00000000000E+00 0. -1.
         21   -1    0    0  501  503 -0.00000000000E+00 -0.00000000000E+00 -0.13175656716E+01  0.13175656716E+01  0.00000000000E+00 0.  1.
          2    1    1    2  501    0  0.18162004396E+02 -0.16512457333E+02  0.16170497916E+03  0.16355739034E+03  0.00000000000E+00 0.  1.
         -2    1    1    2    0  502 -0.18162004396E+02  0.16512457333E+02  0.38449693197E+03  0.38527965213E+03  0.00000000000E+00 0. -1.
</event>
<event>
 4    1  0.1800096E+004  0.2321859E+02  0.7546771E-02  0.1489771E+00
         21   -1    0    0  501  502  0.00000000000E+00  0.00000000000E+00  0.75213945412E+02  0.75213945412E+02  0.00000000000E+00 0.  1.
         21   -1    0    0  502  503 -0.00000000000E+00 -0.00000000000E+00 -0.75649728834E+01  0.75649728834E+01  0.00000000000E+00 0. -1.
          2    1    1    2  501    0  0.23169564774E+02 -0.15079782624E+01  0.43310649399E+02  0.49141785495E+02  0.00000000000E+00 0.  1.
         -2    1    1    2    0  503 -0.23169564774E+02  0.15079782624E+01  0.24338323130E+02  0.33637132800E+02  0.00000000000E+00 0. -1.
</event>
<event>
 4    1  0.1800096E+004  0.2741011E+02  0.7546771E-02  0.1443531E+00
         21   -1    0    0  501  502  0.00000000000E+00  0.00000000000E+00  0.66402385696E+02  0.66402385696E+02  0.00000000000E+00 0.  1.
         21   -1    0    0  502  503 -0.00000000000E+00 -0.00000000000E+00 -0.14782462576E+02  0.14782462576E+02  0.00000000000E+00 0. -1.
          2    1    1    2  501    0 -0.44992313086E+01 -0.27038320875E+02  0.45470931651E+02  0.53093497750E+02  0.00000000000E+00 0. -1.
         -2    1    1    2    0  503  0.44992313086E+01  0.27038320875E+02  0.61489914696E+01  0.28091350523E+02  0.00000000000E+00 0.  1.
</event>
<event>
 4    1  0.1800096E+004  0.3515553E+02  0.7546771E-02  0.1379473E+00
         21   -1    0    0  501  502  0.00000000000E+00  0.00000000000E+00  0.42784072819E+01  0.42784072819E+01  0.00000000000E+00 0. -1.
         21   -1    0    0  502  503 -0.00000000000E+00 -0.00000000000E+00 -0.35881739774E+03  0.35881739774E+03  0.00000000000E+00 0.  1.
          2    1    1    2  501    0  0.19796399419E+00 -0.35154970219E+02 -0.97113732846E+02  0.10328111264E+03  0.00000000000E+00 0. -1.
         -2    1    1    2    0  503 -0.19796399419E+00  0.35154970219E+02 -0.25742525761E+03  0.25981469238E+03  0.00000000000E+00 0.  1.
</event>
<event>
 4    1  0.1800096E+004  0.2163635E+02  0.7546771E-02  0.1510370E+00
         21   -1    0    0  501  502  0.00000000000E+00  0.00000000000E+00  0.11102106424E+02  0.11102106424E+02  0.00000000000E+00 0.  1.
         21   -1    0    0  502  503 -0.00000000000E+00 -0.00000000000E+00 -0.45162920464E+02  0.45162920464E+02  0.00000000000E+00 0. -1.
          2    1    1    2  501    0  0.16680332700E+02 -0.13780348142E+02 -0.97834672936E+01  0.23745478015E+02  0.00000000000E+00 0.  1.
         -2    1    1    2    0  503 -0.16680332700E+02  0.13780348142E+02 -0.24277346746E+02  0.32519548873E+02  0.00000000000E+00 0. -1.
</event>
<event>
 4    1  0.1800096E+004  0.5400567E+02  0.7546771E-02  0.1281681E+00
         21   -1    0    0  503  502  0.00000000000E+00  0.00000000000E+00  0.12412469831E+04  0.12412469831E+04  0.00000000000E+00 0. -1.
         21   -1    0    0  501  503 -0.00000000000E+00 -0.00000000000E+00 -0.57092998853E+01  0.57092998853E+01  0.00000000000E+00 0.  1.
          2    1    1    2  501    0  0.53920964186E+02 -0.30236080833E+01  0.13950148155E+03  0.14959036045E+03  0.00000000000E+00 0.  1.
         -2    1    1    2    0  502 -0.53920964186E+02  0.30236080833E+01  0.10960362016E+04  0.10973659225E+04  0.00000000000E+00 0. -1.
</event>
<event>
 4    1  0.1800096E+004  0.2104350E+02  0.7546771E-02  0.1518645E+00
         21   -1    0    0  503  502  0.00000000000E+00  0.00000000000E+00  0.33817236685E+02  0.33817236685E+02  0.00000000000E+00 0.  1.
         21   -1    0    0  501  503 -0.00000000000E+00 -0.00000000000E+00 -0.57561415046E+02  0.57561415046E+02  0.00000000000E+00 0. -1.
          2    1    1    2  501    0 -0.20865830564E+02  0.27287679381E+01 -0.52029544367E+02  0.56123992611E+02  0.00000000000E+00 0. -1.
         -2    1    1    2    0  502  0.20865830564E+02 -0.27287679381E+01  0.28285366006E+02  0.35254659120E+02  0.00000000000E+00 0.  1.
</event>
<event>
 4    1  0.1800096E+004  0.3096818E+02  0.7546771E-02  0.1411365E+00
         21   -1    0    0  501  502  0.00000000000E+00  0.00000000000E+00  0.83947081836E+01  0.83947081836E+01  0.00000000000E+00 0. -1.
         21   -1    0    0  502  503 -0.00000000000E+00 -0.00000000000E+00 -0.13839560270E+03  0.13839560270E+03  0.00000000000E+00 0.  1.
          2    1    1    2  501    0 -0.30567604260E+02  0.49648476031E+01 -0.34338669860E+02  0.46240376184E+02  0.00000000000E+00 0. -1.
         -2    1    1    2    0  503  0.30567604260E+02 -0.49648476031E+01 -0.95662224662E+02  0.10054993470E+03  0.00000000000E+00 0.  1.
</event>
<event>
 4    1  0.1800096E+004  0.2265532E+02  0.7546771E-02  0.1496872E+00
         21   -1    0    0  501  502  0.00000000000E+00  0.00000000000E+00  0.29959011071E+02  0.29959011071E+02  0.00000000000E+00 0. -1.
         21   -1    0    0  502  503 -0.00000000000E+00 -0.00000000000E+00 -0.30851487967E+02  0.30851487967E+02  0.00000000000E+00 0.  1.
          2    1    1    2  501    0  0.17598554767E+02 -0.14267244170E+02  0.19829491717E+02  0.30107675564E+02  0.00000000000E+00 0. -1.
         -2    1    1    2    0  503 -0.17598554767E+02  0.14267244170E+02 -0.20721968614E+02  0.30702823475E+02  0.00000000000E+00 0.  1.
</event>
<event>
 4    1  0.1800096E+004  0.2048153E+02  0.7546771E-02  0.1526798E+00
         21   -1    0    0  501  502  0.00000000000E+00  0.00000000000E+00  0.42299865317E+03  0.42299865317E+03  0.00000000000E+00 0. -1.
         21   -1    0    0  502  503 -0.00000000000E+00 -0.00000000000E+00 -0.13469848245E+01  0.13469848245E+01  0.00000000000E+00 0.  1.
          2    1    1    2  501    0  0.10314573838E+02 -0.17694705504E+02  0.31979135685E+03  0.32044657113E+03  0.00000000000E+00 0. -1.
         -2    1    1    2    0  503 -0.10314573838E+02  0.17694705504E+02  0.10186031150E+03  0.10389906687E+03  0.00000000000E+00 0.  1.
</event>
<event>
 4    1  0.1800096E+004  0.3436305E+02  0.7546771E-02  0.1385097E+00
         21   -1    0    0  503  502  0.00000000000E+00  0.00000000000E+00  0.98019431636E+01  0.98019431636E+01  0.00000000000E+00 0. -1.
         21   -1    0    0  501  503 -0.00000000000E+00 -0.00000000000E+00 -0.28240773315E+03  0.28240773315E+03  0.00000000000E+00 0.  1.
          2    1    1    2  501    0 -0.58427216454E+01  0.33862692937E+02 -0.24694060242E+03  0.24932003629E+03  0.00000000000E+00 0.  1.
         -2    1    1    2    0  502  0.58427216454E+01 -0.33862692937E+02 -0.25665187569E+02  0.42889640032E+02  0.00000000000E+00 0. -1.
</event>
<event>
 4    1  0.1800096E+004  0.2144524E+02  0.7546771E-02  0.1513002E+00
         21   -1    0    0  503  502  0.00000000000E+00  0.00000000000E+00  0.48063977555E+03  0.48063977555E+03  0.00000000000E+00 0. -1.
         21   -1    0    0  501  503 -0.00000000000E+00 -0.00000000000E+00 -0.62260167545E+01  0.62260167545E+01  0.00000000000E+00 0.  1.
          2    1    1    2  501    0 -0.18003543161E+02 -0.11652069986E+02  0.13259876247E+02  0.25213540398E+02  0.00000000000E+00 0.  1.
         -2    1    1    2    0  502  0.18003543161E+02  0.11652069986E+02  0.46115388255E+03  0.46165225191E+03  0.00000000000E+00 0. -1.
</event>
<event>
 4    1  0.1800096E+004  0.2434632E+02  0.7546771E-02  0.1476251E+00
         21   -1    0    0  501  502  0.00000000000E+00  0.00000000000E+00  0.56995207260E+02  0.56995207260E+02  0.00000000000E+00 0. -1.
         21   -1    0    0  502  503 -0.00000000000E+00 -0.00000000000E+00 -0.10406175947E+02  0.10406175947E+02  0.00000000000E+00 0.  1.
          2    1    1    2  501    0  0.17843575938E+02 -0.16563517794E+02  0.22465583509E+02  0.33127719003E+02  0.00000000000E+00 0.  1.
         -2    1    1    2    0  503 -0.17843575938E+02  0.16563517794E+02  0.24123447804E+02  0.34273664203E+02  0.00000000000E+00 0. -1.
</event>
<event>
 4    1  0.1800096E+004  0.2541746E+02  0.7546771E-02  0.1464187E+00
         21   -1    0    0  503  502  0.00000000000E+00  0.00000000000E+00  0.14835478336E+02  0.14835478336E+02  0.00000000000E+00 0.  1.
         21   -1    0    0  501  503 -0.00000000000E+00 -0.00000000000E+00 -0.50761948260E+02  0.50761948260E+02  0.00000000000E+00 0. -1.
          2    1    1    2  501    0 -0.13975518041E+02 -0.21230451422E+02 -0.30328143044E+02  0.39570739601E+02  0.00000000000E+00 0.  1.
         -2    1    1    2    0  502  0.13975518041E+02  0.21230451422E+02 -0.55983268810E+01  0.26026686995E+02  0.00000000000E+00 0. -1.
</event>
<event>
 4    1  0.1800096E+004  0.2120742E+02  0.7546771E-02  0.1516324E+00
         21   -1    0    0  501  502  0.00000000000E+00  0.00000000000E+00  0.28842048167E+02  0.28842048167E+02  0.00000000000E+00 0. -1.
         21   -1    0    0  502  503 -0.00000000000E+00 -0.00000000000E+00 -0.25531667368E+02  0.25531667368E+02  0.00000000000E+00 0.  1.
          2    1    1    2  501    0 -0.18261534436E+02 -0.10782900368E+02  0.18616834901E+02  0.28219516686E+02  0.00000000000E+00 0. -1.
         -2    1    1    2    0  503  0.18261534436E+02  0.10782900368E+02 -0.15306454102E+02  0.26154198849E+02  0.00000000000E+00 0.  1.
</event>
<event>
 4    1  0.1800096E+004  0.4009052E+02  0.7546771E-02  0.1347956E+00
         21   -1    0    0  503  502  0.00000000000E+00  0.00000000000E+00  0.40366928731E+02  0.40366928731E+02  0.00000000000E+00 0.  1.
         21   -1    0    0  501  503 -0.00000000000E+00 -0.00000000000E+00 -0.40120258391E+02  0.40120258391E+02  0.00000000000E+00 0. -1.
          2    1    1    2  501    0  0.37477748321E+02  0.14236169131E+02 -0.33811756041E+01  0.40232853232E+02  0.00000000000E+00 0.  1.
         -2    1    1    2    0  502 -0.37477748321E+02 -0.14236169131E+02  0.36278459434E+01  0.40254333890E+02  0.00000000000E+00 0. -1.
</event>
<event>
 4    1  0.1800096E+004  0.5031050E+02  0.7546771E-02  0.1296832E+00
         21   -1    0    0  501  502  0.00000000000E+00  0.00000000000E+00  0.85697303459E+01  0.85697303459E+01  0.00000000000E+00 0.  1.
         21   -1    0    0  502  503 -0.00000000000E+00 -0.00000000000E+00 -0.11964681106E+04  0.11964681106E+04  0.00000000000E+00 0. -1.
          2    1    1    2  501    0  0.68606098260E+01 -0.49840533617E+02 -0.71061013222E+02  0.87067872138E+02  0.00000000000E+00 0.  1.
         -2    1    1    2    0  503 -0.68606098260E+01  0.49840533617E+02 -0.11168373670E+04  0.11179699688E+04  0.00000000000E+00 0. -1.
</event>
<event>
 4    1  0.1800096E+004  0.2008898E+02  0.7546771E-02  0.1532680E+00
         21   -1    0    0  503  502  0.00000000000E+00  0.00000000000E+00  0.15564481943E+03  0.15564481943E+03  0.00000000000E+00 0.  1.
         21   -1    0    0  501  503 -0.00000000000E+00 -0.00000000000E+00 -0.41754273729E+01  0.41754273729E+01  0.00000000000E+00 0. -1.
          2    1    1    2  501    0  0.19309103120E+01 -0.19995966834E+02  0.26538583881E+02  0.33284584099E+02  0.00000000000E+00 0. -1.
         -2    1    1    2    0  502 -0.19309103120E+01  0.19995966834E+02  0.12493080818E+03  0.12653566271E+03  0.00000000000E+00 0.  1.
</event>
<event>
 4    1  0.1800096E+004  0.2057974E+02  0.7546771E-02  0.1525350E+00
         21   -1    0    0  501  502  0.00000000000E+00  0.00000000000E+00  0.19889236770E+02  0.19889236770E+02  0.00000000000E+00 0.  1.
         21   -1    0    0  502  503 -0.00000000000E+00 -0.00000000000E+00 -0.31523427050E+02  0.31523427050E+02  0.00000000000E+00 0. -1.
          2    1    1    2  501    0 -0.17478433570E+02  0.10864172653E+02  0.88263839546E+01  0.22392653733E+02  0.00000000000E+00 0. -1.
         -2    1    1    2    0  503  0.17478433570E+02 -0.10864172653E+02 -0.20460574234E+02  0.29020010087E+02  0.00000000000E+00 0.  1.
</event>
<event>
 4    1  0.1800096E+004  0.2138947E+02  0.7546771E-02  0.1513776E+00
         21   -1    0    0  503  502  0.00000000000E+00  0.00000000000E+00  0.49860776062E+02  0.49860776062E+02  0.00000000000E+00 0.  1.
         21   -1    0    0  501  503 -0.00000000000E+00 -0.00000000000E+00 -0.93719839734E+01  0.93719839734E+01  0.00000000000E+00 0. -1.
          2    1    1    2  501    0 -0.20960819601E+02 -0.42606646794E+01  0.24530087752E+02  0.32545881875E+02  0.00000000000E+00 0. -1.
         -2    1    1    2    0  502  0.20960819601E+02  0.42606646794E+01  0.15958704336E+02  0.26686878161E+02  0.00000000000E+00 0.  1.
</event>
<event>
 4    1  0.1800096E+004  0.3322203E+02  0.7546771E-02  0.1393513E+00
         21   -1    0    0  501  502  0.00000000000E+00  0.00000000000E+00  0.15456050924E+03  0.15456050924E+03  0.00000000000E+00 0.  1.
         21   -1    0    0  502  503 -0.00000000000E+00 -0.00000000000E+00 -0.42997892516E+02  0.42997892516E+02  0.00000000000E+00 0. -1.
          2    1    1    2  501    0  0.21656775478E+02 -0.25193000415E+02  0.14598592671E+03  0.14971838228E+03  0.00000000000E+00 0.  1.
         -2    1    1    2    0  503 -0.21656775478E+02  0.25193000415E+02 -0.34423309983E+02  0.47840019483E+02  0.00000000000E+00 0. -1.
</event>
<event>
 4    1  0.1800096E+004  0.2129026E+02  0.7546771E-02  0.1515161E+00
         21   -1    0    0  503  502  0.00000000000E+00  0.00000000000E+00  0.56250433792E+02  0.56250433792E+02  0.00000000000E+00 0.  1.
         21   -1    0    0  501  503 -0.00000000000E+00 -0.00000000000E+00 -0.10450234314E+02  0.10450234314E+02  0.00000000000E+00 0. -1.
          2    1    1    2  501    0 -0.36096961381E+01  0.20982024690E+02  0.38856101336E+02  0.44306566977E+02  0.00000000000E+00 0.  1.
         -2    1    1    2    0  502  0.36096961381E+01 -0.20982024690E+02  0.69440981423E+01  0.22394101128E+02  0.00000000000E+00 0. -1.
</event>
<event>
 4    1  0.1800096E+004  0.3518371E+02  0.7546771E-02  0.1379276E+00
         21   -1    0    0  503  502  0.00000000000E+00  0.00000000000E+00  0.50396152681E+01  0.50396152681E+01  0.00000000000E+00 0.  1.
         21   -1    0    0  501  503 -0.00000000000E+00 -0.00000000000E+00 -0.33588034885E+03  0.33588034885E+03  0.00000000000E+00 0. -1.
          2    1    1    2  501    0  0.34853079892E+02  0.48121311712E+01 -0.25377886739E+03  0.25620618127E+03  0.00000000000E+00 0. -1.
         -2    1    1    2    0  502 -0.34853079892E+02 -0.48121311712E+01 -0.77061866187E+02  0.84713782849E+02  0.00000000000E+00 0.  1.
</event>
<event>
 4    1  0.1800096E+004  0.2146001E+02  0.7546771E-02  0.1512797E+00
         21   -1    0    0  501  502  0.00000000000E+00  0.00000000000E+00  0.12188529783E+01  0.12188529783E+01  0.00000000000E+00 0. -1.
         21   -1    0    0  502  503 -0.00000000000E+00 -0.00000000000E+00 -0.38129158066E+03  0.38129158066E+03  0.00000000000E+00 0.  1.
          2    1    1    2  501    0 -0.17496500231E+01 -0.21388567086E+02 -0.20823166378E+03  0.20933455969E+03  0.00000000000E+00 0.  1.
         -2    1    1    2    0  503  0.17496500231E+01  0.21388567086E+02 -0.17184106390E+03  0.17317587395E+03  0.00000000000E+00 0. -1.
</event>
<event>
 4    1  0.1800096E+004  0.3090766E+02  0.7546771E-02  0.1411869E+00
         21   -1    0    0  501  502  0.00000000000E+00  0.00000000000E+00  0.76146869313E+03  0.76146869313E+03  0.00000000000E+00 0.  1.
         21   -1    0    0  502  503 -0.00000000000E+00 -0.00000000000E+00 -0.12617249285E+01  0.12617249285E+01  0.00000000000E+00 0. -1.
          2    1    1    2  501    0  0.30907329622E+02  0.14278721482E+00  0.35129983292E+03  0.35265685307E+03  0.00000000000E+00 0. -1.
         -2    1    1    2    0  503 -0.30907329622E+02 -0.14278721482E+00  0.40890713529E+03  0.41007356499E+03  0.00000000000E+00 0.  1.
</event>
<event>
 4    1  0.1800096E+004  0.2177988E+02  0.7546771E-02  0.1508415E+00
         21   -1    0    0  503  502  0.00000000000E+00  0.00000000000E+00  0.12682725377E+03  0.12682725377E+03  0.00000000000E+00 0. -1.
         21   -1    0    0  501  503 -0.00000000000E+00 -0.00000000000E+00 -0.17625724022E+02  0.17625724022E+02  0.00000000000E+00 0.  1.
          2    1    1    2  501    0  0.21427024422E+02 -0.39045678472E+01 -0.95059758592E+01  0.23763976997E+02  0.00000000000E+00 0.  1.
         -2    1    1    2    0  502 -0.21427024422E+02  0.39045678472E+01  0.11870750561E+03  0.12068900080E+03  0.00000000000E+00 0. -1.
</event>
<event>
 4    1  0.1800096E+004  0.2866010E+02  0.7546771E-02  0.1431609E+00
         21   -1    0    0  501  502  0.00000000000E+00  0.00000000000E+00  0.23032958087E+02  0.23032958087E+02  0.00000000000E+00 0. -1.
         21   -1    0    0  502  503 -0.00000000000E+00 -0.00000000000E+00 -0.39291144268E+02  0.39291144268E+02  0.00000000000E+00 0.  1.
          2    1    1    2  501    0 -0.28615261079E+02  0.16026161345E+01  0.13415683357E+01  0.28691485683E+02  0.00000000000E+00 0. -1.
         -2    1    1    2    0  503  0.28615261079E+02 -0.16026161345E+01 -0.17599754517E+02  0.33632616672E+02  0.00000000000E+00 0.  1.
</event>
<event>
 4    1  0.1800096E+004  0.5790886E+02  0.7546771E-02  0.1267108E+00
         21   -1    0    0  501  502  0.00000000000E+00  0.00000000000E+00  0.13781707259E+03  0.13781707259E+03  0.00000000000E+00 0.  1.
         21   -1    0    0  502  503 -0.00000000000E+00 -0.00000000000E+00 -0.47484593775E+02  0.47484593775E+02  0.00000000000E+00 0. -1.
          2    1    1    2  501    0  0.48686064740E+02 -0.31354481712E+02  0.10986082445E+03  0.12418871596E+03  0.00000000000E+00 0.  1.
         -2    1    1    2    0  503 -0.48686064740E+02  0.31354481712E+02 -0.19528345639E+02  0.61112950400E+02  0.00000000000E+00 0. -1.
</event>
<event>
 4    1  0.1800096E+004  0.2173041E+02  0.7546771E-02  0.1509087E+00
         21   -1    0    0  503  502  0.00000000000E+00  0.00000000000E+00  0.23149704210E+02  0.23149704210E+02  0.00000000000E+00 0. -1.
         21   -1    0    0  501  503 -0.00000000000E+00 -0.00000000000E+00 -0.26869953898E+02  0.26869953898E+02  0.00000000000E+00 0.  1.
          2    1    1    2  501    0 -0.41026701430E+01 -0.21339609751E+02 -0.14134244731E+02  0.25922725951E+02  0.00000000000E+00 0.  1.
         -2    1    1    2    0  502  0.41026701430E+01  0.21339609751E+02  0.10413995042E+02  0.24096932157E+02  0.00000000000E+00 0. -1.
</event>
<event>
 4    1  0.1800096E+004  0.2482552E+02  0.7546771E-02  0.1470765E+00
         21   -1    0    0  503  502  0.00000000000E+00  0.00000000000E+00  0.20343520224E+01  0.20343520224E+01  0.00000000000E+00 0. -1.
         21   -1    0    0  501  503 -0.00000000000E+00 -0.00000000000E+00 -0.31397613380E+03  0.31397613380E+03  0.00000000000E+00 0.  1.
          2    1    1    2  501    0 -0.24481041169E+02  0.41212947668E+01 -0.12636080764E+03  0.12877639596E+03  0.00000000000E+00 0. -1.
         -2    1    1    2    0  502  0.24481041169E+02 -0.41212947668E+01 -0.18558097414E+03  0.18723408987E+03  0.00000000000E+00 0.  1.
</event>
<event>
 4    1  0.1800096E+004  0.2383019E+02  0.7546771E-02  0.1482329E+00
         21   -1    0    0  503  502  0.00000000000E+00  0.00000000000E+00  0.10387274013E+03  0.10387274013E+03  0.00000000000E+00 0. -1.
         21   -1    0    0  501  503 -0.00000000000E+00 -0.00000000000E+00 -0.54819924446E+01  0.54819924446E+01  0.00000000000E+00 0.  1.
          2    1    1    2  501    0 -0.32122895304E+01  0.23612686658E+02  0.52049713418E+02  0.57245527704E+02  0.00000000000E+00 0.  1.
         -2    1    1    2    0  502  0.32122895304E+01 -0.23612686658E+02  0.46341034264E+02  0.52109204867E+02  0.00000000000E+00 0. -1.
</event>
<event>
 4    1  0.1800096E+004  0.3865405E+02  0.7546771E-02  0.1356559E+00
         21   -1    0    0  503  502  0.00000000000E+00  0.00000000000E+00  0.33588286896E+02  0.33588286896E+02  0.00000000000E+00 0. -1.
         21   -1    0    0  501  503 -0.00000000000E+00 -0.00000000000E+00 -0.49634044626E+02  0.49634044626E+02  0.00000000000E+00 0.  1.
          2    1    1    2  501    0  0.12024047068E+01 -0.38635345880E+02 -0.21426822963E+02  0.44195525459E+02  0.00000000000E+00 0.  1.
         -2    1    1    2    0  502 -0.12024047068E+01  0.38635345880E+02  0.53810652327E+01  0.39026806062E+02  0.00000000000E+00 0. -1.
</event>
<event>
 4    1  0.1800096E+004  0.2405541E+02  0.7546771E-02  0.1479654E+00
         21   -1    0    0  503  502  0.00000000000E+00  0.00000000000E+00  0.33965947624E+02  0.33965947624E+02  0.00000000000E+00 0. -1.
         21   -1    0    0  501  503 -0.00000000000E+00 -0.00000000000E+00 -0.67170735479E+02  0.67170735479E+02  0.00000000000E+00 0.  1.
          2    1    1    2  501    0 -0.13295067672E+02  0.20047536260E+02 -0.60289738146E+02  0.64911594189E+02  0.00000000000E+00 0.  1.
         -2    1    1    2    0  502  0.13295067672E+02 -0.20047536260E+02  0.27084950291E+02  0.36225088913E+02  0.00000000000E+00 0. -1.
</event>
<event>
 4    1  0.1800096E+004  0.2321436E+02  0.7546771E-02  0.1489824E+00
         21   -1    0    0  501  502  0.00000000000E+00  0.00000000000E+00  0.19110680461E+01  0.19110680461E+01  0.00000000000E+00 0.  1.
         21   -1    0    0  502  503 -0.00000000000E+00 -0.00000000000E+00 -0.36683441522E+03  0.36683441522E+03  0.00000000000E+00 0. -1.
          2    1    1    2  501    0 -0.88506040113E+01 -0.21460972147E+02 -0.93793581580E+02  0.96623715838E+02  0.00000000000E+00 0.  1.
         -2    1    1    2    0  503  0.88506040113E+01  0.21460972147E+02 -0.27112976559E+03  0.27212176742E+03  0.00000000000E+00 0. -1.
</event>
<event>
 4    1  0.1800096E+004  0.3725169E+02  0.7546771E-02  0.1365390E+00
         21   -1    0    0  503  502  0.00000000000E+00  0.00000000000E+00  0.45479076765E+01  0.45479076765E+01  0.00000000000E+00 0. -1.
         21   -1    0    0  501  503 -0.00000000000E+00 -0.00000000000E+00 -0.48564824612E+03  0.48564824612E+03  0.00000000000E+00 0.  1.
          2    1    1    2  501    0  0.33550948299E+02  0.16187105092E+02 -0.38998209615E+03  0.39175722562E+03  0.00000000000E+00 0.  1.
         -2    1    1    2    0  502 -0.33550948299E+02 -0.16187105092E+02 -0.91118242287E+02  0.98438928176E+02  0.00000000000E+00 0. -1.
</event>
<event>
 4    1  0.1800096E+004  0.4251402E+02  0.7546771E-02  0.1334352E+00
         21   -1    0    0  501  502  0.00000000000E+00  0.00000000000E+00  0.32368514759E+02  0.32368514759E+02  0.00000000000E+00 0. -1.
         21   -1    0    0  502  503 -0.00000000000E+00 -0.00000000000E+00 -0.67661441141E+02  0.67661441141E+02  0.00000000000E+00 0.  1.
          2    1    1    2  501    0 -0.50510942204E+01 -0.42212896803E+02  0.32596624347E+01  0.42638804023E+02  0.00000000000E+00 0. -1.
         -2    1    1    2    0  503  0.50510942204E+01  0.42212896803E+02 -0.38552588817E+02  0.57391151877E+02  0.00000000000E+00 0.  1.
</event>
<event>
 4    1  0.1800096E+004  0.3023919E+02  0.7546771E-02  0.1417529E+00
         21   -1    0    0  501  502  0.00000000000E+00  0.00000000000E+00  0.26159705045E+01  0.26159705045E+01  0.00000000000E+00 0.  1.
         21   -1    0    0  502  503 -0.00000000000E+00 -0.00000000000E+00 -0.40318859031E+03  0.40318859031E+03  0.00000000000E+00 0. -1.
          2    1    1    2  501    0  0.28316908764E+02 -0.10609492686E+02 -0.12627852250E+03  0.12984865768E+03  0.00000000000E+00 0.  1.
         -2    1    1    2    0  503 -0.28316908764E+02  0.10609492686E+02 -0.27429409731E+03  0.27595590313E+03  0.00000000000E+00 0. -1.
</event>
<event>
 4    1  0.1800096E+004  0.2336505E+02  0.7546771E-02  0.1487964E+00
         21   -1    0    0  501  502  0.00000000000E+00  0.00000000000E+00  0.54211079688E+02  0.54211079688E+02  0.00000000000E+00 0.  1.
         21   -1    0    0  502  503 -0.00000000000E+00 -0.00000000000E+00 -0.12893479444E+02  0.12893479444E+02  0.00000000000E+00 0. -1.
          2    1    1    2  501    0  0.13819927841E+02  0.18839726848E+02  0.36358838201E+02  0.43219102589E+02  0.00000000000E+00 0.  1.
         -2    1    1    2    0  503 -0.13819927841E+02 -0.18839726848E+02  0.49587620434E+01  0.23885456543E+02  0.00000000000E+00 0. -1.
</event>
<event>
 4    1  0.1800096E+004  0.2060945E+02  0.7546771E-02  0.1524915E+00
         21   -1    0    0  503  502  0.00000000000E+00  0.00000000000E+00  0.14218498408E+02  0.14218498408E+02  0.00000000000E+00 0. -1.
         21   -1    0    0  501  503 -0.00000000000E+00 -0.00000000000E+00 -0.34548775587E+03  0.34548775587E+03  0.00000000000E+00 0.  1.
          2    1    1    2  501    0  0.16476154199E+02  0.12380869004E+02 -0.33753637752E+03  0.33816498300E+03  0.00000000000E+00 0.  1.
         -2    1    1    2    0  502 -0.16476154199E+02 -0.12380869004E+02  0.62671200611E+01  0.21541271280E+02  0.00000000000E+00 0. -1.
</event>
<event>
 4    1  0.1800096E+004  0.2833841E+02  0.7546771E-02  0.1434608E+00
         21   -1    0    0  501  502  0.00000000000E+00  0.00000000000E+00  0.22719813809E+03  0.22719813809E+03  0.00000000000E+00 0. -1.
         21   -1    0    0  502  503 -0.00000000000E+00 -0.00000000000E+00 -0.18136674936E+02  0.18136674936E+02  0.00000000000E+00 0.  1.
          2    1    1    2  501    0  0.20102573249E+02  0.19973786602E+02  0.21459767621E+03  0.21646068520E+03  0.00000000000E+00 0. -1.
         -2    1    1    2    0  503 -0.20102573249E+02 -0.19973786602E+02 -0.55362130600E+01  0.28874127822E+02  0.00000000000E+00 0.  1.
</event>
<event>
 4    1  0.1800096E+004  0.2280919E+02  0.7546771E-02  0.1494908E+00
         21   -1    0    0  501  502  0.00000000000E+00  0.00000000000E+00  0.51534332811E+01  0.51534332811E+01  0.00000000000E+00 0.  1.
         21   -1    0    0  502  503 -0.00000000000E+00 -0.00000000000E+00 -0.12208001786E+03  0.12208001786E+03  0.00000000000E+00 0. -1.
          2    1    1    2  501    0  0.22700006624E+02 -0.22290780656E+01 -0.31999074313E+02  0.39296308308E+02  0.00000000000E+00 0.  1.
         -2    1    1    2    0  503 -0.22700006624E+02  0.22290780656E+01 -0.84927510269E+02  0.87937142836E+02  0.00000000000E+00 0. -1.
</event>
<event>
 4    1  0.1800096E+004  0.2155944E+02  0.7546771E-02  0.1511425E+00
         21   -1    0    0  501  502  0.00000000000E+00  0.00000000000E+00  0.27242684623E+00  0.27242684623E+00  0.00000000000E+00 0.  1.
         21   -1    0    0  502  503 -0.00000000000E+00 -0.00000000000E+00 -0.19045781552E+04  0.19045781552E+04  0.00000000000E+00 0. -1.
          2    1    1    2  501    0 -0.15815334381E+02 -0.14652115095E+02 -0.64475548069E+03  0.64511583391E+03  0.00000000000E+00 0. -1.
         -2    1    1    2    0  503  0.15815334381E+02  0.14652115095E+02 -0.12595502477E+04  0.12597347482E+04  0.00000000000E+00 0.  1.
</event>
<event>
 4    1  0.1800096E+004  0.3530407E+02  0.7546771E-02  0.1378438E+00
         21   -1    0    0  501  502  0.00000000000E+00  0.00000000000E+00  0.11280507993E+01  0.11280507993E+01  0.00000000000E+00 0. -1.
         21   -1    0    0  502  503 -0.00000000000E+00 -0.00000000000E+00 -0.11829405803E+04  0.11829405803E+04  0.00000000000E+00 0.  1.
          2    1    1    2  501    0  0.35200646919E+02 -0.27003711201E+01 -0.43883753522E+03  0.44025533485E+03  0.00000000000E+00 0.  1.
         -2    1    1    2    0  503 -0.35200646919E+02  0.27003711201E+01 -0.74297499431E+03  0.74381329627E+03  0.00000000000E+00 0. -1.
</event>
<event>
 4    1  0.1800096E+004  0.2833527E+02  0.7546771E-02  0.1434637E+00
         21   -1    0    0  501  502  0.00000000000E+00  0.00000000000E+00  0.33825597750E+01  0.33825597750E+01  0.00000000000E+00 0. -1.
         21   -1    0    0  502  503 -0.00000000000E+00 -0.00000000000E+00 -0.24432001499E+03  0.24432001499E+03  0.00000000000E+00 0.  1.
          2    1    1    2  501    0  0.14872764391E+02 -0.24118217419E+02 -0.99566282582E+02  0.10351971870E+03  0.00000000000E+00 0. -1.
         -2    1    1    2    0  503 -0.14872764391E+02  0.24118217419E+02 -0.14137117263E+03  0.14418285607E+03  0.00000000000E+00 0.  1.
</event>
<event>
 4    1  0.1800096E+004  0.2084508E+02  0.7546771E-02  0.1521488E+00
         21   -1    0    0  503  502  0.00000000000E+00  0.00000000000E+00  0.75131884031E+01  0.75131884031E+01  0.00000000000E+00 0.  1.
         21   -1    0    0  501  503 -0.00000000000E+00 -0.00000000000E+00 -0.20043478309E+03  0.20043478309E+03  0.00000000000E+00 0. -1.
          2    1    1    2  501    0  0.22970675209E+01 -0.20718129677E+02 -0.18416071140E+03  0.18533668023E+03  0.00000000000E+00 0. -1.
         -2    1    1    2    0  502 -0.22970675209E+01  0.20718129677E+02 -0.87608832874E+01  0.22611291260E+02  0.00000000000E+00 0.  1.
</event>
<event>
 4    1  0.1800096E+004  0.2105113E+02  0.7546771E-02  0.1518536E+00
         21   -1    0    0  503  502  0.00000000000E+00  0.00000000000E+00  0.20502183707E+02  0.20502183707E+02  0.00000000000E+00 0.  1.
         21   -1    0    0  501  503 -0.00000000000E+00 -0.00000000000E+00 -0.10726252228E+03  0.10726252228E+03  0.00000000000E+00 0. -1.
          2    1    1    2  501    0  0.11858484358E+02  0.17393284462E+02 -0.10046423341E+03  0.10264605297E+03  0.00000000000E+00 0. -1.
         -2    1    1    2    0  502 -0.11858484358E+02 -0.17393284462E+02  0.13703894837E+02  0.25118653016E+02  0.00000000000E+00 0.  1.
</event>
<event>
 4    1  0.1800096E+004  0.2359057E+02  0.7546771E-02  0.1485213E+00
         21   -1    0    0  501  502  0.00000000000E+00  0.00000000000E+00  0.14676348747E+01  0.14676348747E+01  0.00000000000E+00 0.  1.
         21   -1    0    0  502  503 -0.00000000000E+00 -0.00000000000E+00 -0.55664936569E+03  0.55664936569E+03  0.00000000000E+00 0. -1.
          2    1    1    2  501    0  0.61633305500E+01  0.22771218147E+02 -0.12002877576E+03  0.12232506705E+03  0.00000000000E+00 0.  1.
         -2    1    1    2    0  503 -0.61633305500E+01 -0.22771218147E+02 -0.43515295505E+03  0.43579193351E+03  0.00000000000E+00 0. -1.
</event>
<event>
 4    1  0.1800096E+004  0.9423250E+02  0.7546771E-02  0.1174195E+00
         21   -1    0    0  503  502  0.00000000000E+00  0.00000000000E+00  0.48055655240E+03  0.48055655240E+03  0.00000000000E+00 0. -1.
         21   -1    0    0  501  503 -0.00000000000E+00 -0.00000000000E+00 -0.18699886866E+02  0.18699886866E+02  0.00000000000E+00 0.  1.
          2    1    1    2  501    0 -0.73430009596E+02  0.59057578740E+02  0.20374149881E+03  0.22447797721E+03  0.00000000000E+00 0. -1.
         -2    1    1    2    0  502  0.73430009596E+02 -0.59057578740E+02  0.25811516672E+03  0.27477846205E+03  0.00000000000E+00 0.  1.
</event>
<event>
 4    1  0.1800096E+004  0.2222561E+02  0.7546771E-02  0.1502458E+00
         21   -1    0    0  501  502  0.00000000000E+00  0.00000000000E+00  0.12007089607E+02  0.12007089607E+02  0.00000000000E+00 0.  1.
         21   -1    0    0  502  503 -0.00000000000E+00 -0.00000000000E+00 -0.53712076482E+02  0.53712076482E+02  0.00000000000E+00 0. -1.
          2    1    1    2  501    0  0.22218469237E+02 -0.56344646423E+00 -0.49552914182E+01  0.22771314415E+02  0.00000000000E+00 0.  1.
         -2    1    1    2    0  503 -0.22218469237E+02  0.56344646423E+00 -0.36749695457E+02  0.42947851673E+02  0.00000000000E+00 0. -1.
</event>
<event>
 4    1  0.1800096E+004  0.4067134E+02  0.7546771E-02  0.1344596E+00
         21   -1    0    0  503  502  0.00000000000E+00  0.00000000000E+00  0.14889036958E+03  0.14889036958E+03  0.00000000000E+00 0. -1.
         21   -1    0    0  501  503 -0.00000000000E+00 -0.00000000000E+00 -0.14424637467E+02  0.14424637467E+02  0.00000000000E+00 0.  1.
          2    1    1    2  501    0 -0.31268297201E+02  0.26008685870E+02  0.28088635682E+02  0.49428024491E+02  0.00000000000E+00 0.  1.
         -2    1    1    2    0  502  0.31268297201E+02 -0.26008685870E+02  0.10637709643E+03  0.11388698255E+03  0.00000000000E+00 0. -1.
</event>
<event>
 4    1  0.1800096E+004  0.2427825E+02  0.7546771E-02  0.1477042E+00
         21   -1    0    0  503  502  0.00000000000E+00  0.00000000000E+00  0.21161184482E+02  0.21161184482E+02  0.00000000000E+00 0. -1.
         21   -1    0    0  501  503 -0.00000000000E+00 -0.00000000000E+00 -0.50588162828E+02  0.50588162828E+02  0.00000000000E+00 0.  1.
          2    1    1    2  501    0  0.23948147787E+02 -0.39899148661E+01 -0.38762580322E+02  0.45738067693E+02  0.00000000000E+00 0.  1.
         -2    1    1    2    0  502 -0.23948147787E+02  0.39899148661E+01  0.93356019771E+01  0.26011279617E+02  0.00000000000E+00 0. -1.
</event>
<event>
 4    1  0.1800096E+004  0.2715792E+02  0.7546771E-02  0.1446028E+00
         21   -1    0    0  503  502  0.00000000000E+00  0.00000000000E+00  0.99544654063E+01  0.99544654063E+01  0.00000000000E+00 0.  1.
         21   -1    0    0  501  503 -0.00000000000E+00 -0.00000000000E+00 -0.88196514431E+02  0.88196514431E+02  0.00000000000E+00 0. -1.
          2    1    1    2  501    0  0.31751067163E+01  0.26971676845E+02 -0.58745953709E+02  0.64719701264E+02  0.00000000000E+00 0. -1.
         -2    1    1    2    0  502 -0.31751067163E+01 -0.26971676845E+02 -0.19496095316E+02  0.33431278574E+02  0.00000000000E+00 0.  1.
</event>
<event>
 4    1  0.1800096E+004  0.2188582E+02  0.7546771E-02  0.1506984E+00
         21   -1    0    0  501  502  0.00000000000E+00  0.00000000000E+00  0.17280578881E+03  0.17280578881E+03  0.00000000000E+00 0.  1.
         21   -1    0    0  502  503 -0.00000000000E+00 -0.00000000000E+00 -0.14913455328E+02  0.14913455328E+02  0.00000000000E+00 0. -1.
          2    1    1    2  501    0  0.74129256231E+01  0.20592179617E+02  0.16363535426E+03  0.16509245437E+03  0.00000000000E+00 0.  1.
         -2    1    1    2    0  503 -0.74129256231E+01 -0.20592179617E+02 -0.57430207728E+01  0.22626789769E+02  0.00000000000E+00 0. -1.
</event>
<event>
 4    1  0.1800096E+004  0.2331099E+02  0.7546771E-02  0.1488629E+00
         21   -1    0    0  501  502  0.00000000000E+00  0.00000000000E+00  0.28335220457E+03  0.28335220457E+03  0.00000000000E+00 0. -1.
         21   -1    0    0  502  503 -0.00000000000E+00 -0.00000000000E+00 -0.22384979064E+01  0.22384979064E+01  0.00000000000E+00 0.  1.
          2    1    1    2  501    0  0.11882969611E+02 -0.20054861735E+02  0.19460846706E+03  0.19599963749E+03  0.00000000000E+00 0. -1.
         -2    1    1    2    0  503 -0.11882969611E+02  0.20054861735E+02  0.86505239609E+02  0.89591064989E+02  0.00000000000E+00 0.  1.
</event>
<event>
 4    1  0.1800096E+004  0.3125522E+02  0.7546771E-02  0.1408993E+00
         21   -1    0    0  503  502  0.00000000000E+00  0.00000000000E+00  0.42454300315E+01  0.42454300315E+01  0.00000000000E+00 0. -1.
         21   -1    0    0  501  503 -0.00000000000E+00 -0.00000000000E+00 -0.42294991229E+03  0.42294991229E+03  0.00000000000E+00 0.  1.
          2    1    1    2  501    0  0.14462100202E+02 -0.27708059047E+02 -0.35358292893E+03  0.35496165498E+03  0.00000000000E+00 0.  1.
         -2    1    1    2    0  502 -0.14462100202E+02  0.27708059047E+02 -0.65121553327E+02  0.72233687336E+02  0.00000000000E+00 0. -1.
</event>
<event>
 4    1  0.1800096E+004  0.3325224E+02  0.7546771E-02  0.1393285E+00
         21   -1    0    0  501  502  0.00000000000E+00  0.00000000000E+00  0.97326200110E+01  0.97326200110E+01  0.00000000000E+00 0. -1.
         21   -1    0    0  502  503 -0.00000000000E+00 -0.00000000000E+00 -0.16225426148E+03  0.16225426148E+03  0.00000000000E+00 0.  1.
          2    1    1    2  501    0  0.94118262589E+01 -0.31892457045E+02 -0.29175185963E+02  0.44236893718E+02  0.00000000000E+00 0. -1.
         -2    1    1    2    0  503 -0.94118262589E+01  0.31892457045E+02 -0.12334645550E+03  0.12774998777E+03  0.00000000000E+00 0.  1.
</event>
<event>
 4    1  0.1800096E+004  0.2191278E+02  0.7546771E-02  0.1506621E+00
         21   -1    0    0  503  502  0.00000000000E+00  0.00000000000E+00  0.57024090348E+01  0.57024090348E+01  0.00000000000E+00 0. -1.
         21   -1    0    0  501  503 -0.00000000000E+00 -0.00000000000E+00 -0.21393491547E+03  0.21393491547E+03  0.00000000000E+00 0.  1.
          2    1    1    2  501    0  0.13386589743E+02  0.17348467222E+02 -0.18963390152E+03  0.19089574826E+03  0.00000000000E+00 0.  1.
         -2    1    1    2    0  502 -0.13386589743E+02 -0.17348467222E+02 -0.18598604913E+02  0.28741576238E+02  0.00000000000E+00 0. -1.
</event>
<event>
 4    1  0.1800096E+004  0.2602989E+02  0.7546771E-02  0.1457604E+00
         21   -1    0    0  503  502  0.00000000000E+00  0.00000000000E+00  0.46575511680E+01  0.46575511680E+01  0.00000000000E+00 0.  1.
         21   -1    0    0  501  503 -0.00000000000E+00 -0.00000000000E+00 -0.17225065837E+03  0.17225065837E+03  0.00000000000E+00 0. -1.
          2    1    1    2  501    0  0.23017019199E+02 -0.12156148625E+02 -0.48921784496E+02  0.55415666742E+02  0.00000000000E+00 0.  1.
         -2    1    1    2    0  502 -0.23017019199E+02  0.12156148625E+02 -0.11867132270E+03  0.12149254279E+03  0.00000000000E+00 0. -1.
</event>
<event>
 4    1  0.1800096E+004  0.2099426E+02  0.7546771E-02  0.1519347E+00
         21   -1    0    0  503  502  0.00000000000E+00  0.00000000000E+00  0.33992144480E+03  0.33992144480E+03  0.00000000000E+00 0.  1.
         21   -1    0    0  501  503 -0.00000000000E+00 -0.00000000000E+00 -0.16553960753E+01  0.16553960753E+01  0.00000000000E+00 0. -1.
          2    1    1    2  501    0  0.19880045619E+02  0.67485497711E+01  0.89626815184E+02  0.92052838837E+02  0.00000000000E+00 0. -1.
         -2    1    1    2    0  502 -0.19880045619E+02 -0.67485497711E+01  0.24863923354E+03  0.24952400204E+03  0.00000000000E+00 0.  1.
</event>
<event>
 4    1  0.1800096E+004  0.4562781E+02  0.7546771E-02  0.1318330E+00
         21   -1    0    0  503  502  0.00000000000E+00  0.00000000000E+00  0.23686123378E+03  0.23686123378E+03  0.00000000000E+00 0.  1.
         21   -1    0    0  501  503 -0.00000000000E+00 -0.00000000000E+00 -0.42542468531E+02  0.42542468531E+02  0.00000000000E+00 0. -1.
          2    1    1    2  501    0  0.43492162650E+02 -0.13795981801E+02 -0.27276793028E+02  0.53159390175E+02  0.00000000000E+00 0. -1.
         -2    1    1    2    0  502 -0.43492162650E+02  0.13795981801E+02  0.22159555828E+03  0.22624431214E+03  0.00000000000E+00 0.  1.
</event>
<event>
 4    1  0.1800096E+004  0.3539185E+02  0.7546771E-02  0.1377829E+00
         21   -1    0    0  503  502  0.00000000000E+00  0.00000000000E+00  0.18599557984E+01  0.18599557984E+01  0.00000000000E+00 0. -1.
         21   -1    0    0  501  503 -0.00000000000E+00 -0.00000000000E+00 -0.68431923322E+03  0.68431923322E+03  0.00000000000E+00 0.  1.
          2    1    1    2  501    0 -0.19522151974E+02 -0.29520645677E+02 -0.38447342775E+03  0.38609895051E+03  0.00000000000E+00 0.  1.
         -2    1    1    2    0  502  0.19522151974E+02  0.29520645677E+02 -0.29798584967E+03  0.30008023851E+03  0.00000000000E+00 0. -1.
</event>
<event>
 4    1  0.1800096E+004  0.2412383E+02  0.7546771E-02  0.1478849E+00
         21   -1    0    0  501  502  0.00000000000E+00  0.00000000000E+00  0.62929750537E+02  0.62929750537E+02  0.00000000000E+00 0. -1.
         21   -1    0    0  502  503 -0.00000000000E+00 -0.00000000000E+00 -0.27413201873E+03  0.27413201873E+03  0.00000000000E+00 0.  1.
          2    1    1    2  501    0  0.14951078444E+02  0.18932099241E+02  0.60062694803E+02  0.64726242246E+02  0.00000000000E+00 0. -1.
         -2    1    1    2    0  503 -0.14951078444E+02 -0.18932099241E+02 -0.27126496300E+03  0.27233552702E+03  0.00000000000E+00 0.  1.
</event>
<event>
 4    1  0.1800096E+004  0.2612505E+02  0.7546771E-02  0.1456601E+00
         21   -1    0    0  501  502  0.00000000000E+00  0.00000000000E+00  0.28774944946E+03  0.28774944946E+03  0.00000000000E+00 0. -1.
         21   -1    0    0  502  503 -0.00000000000E+00 -0.00000000000E+00 -0.40607439058E+01  0.40607439058E+01  0.00000000000E+00 0.  1.
          2    1    1    2  501    0  0.21976909391E+02  0.14125637403E+02  0.23593794904E+03  0.23737993591E+03  0.00000000000E+00 0. -1.
         -2    1    1    2    0  503 -0.21976909391E+02 -0.14125637403E+02  0.47750756519E+02  0.54430257455E+02  0.00000000000E+00 0.  1.
</event>
<event>
 4    1  0.1800096E+004  0.2791849E+02  0.7546771E-02  0.1438594E+00
         21   -1    0    0  501  502  0.00000000000E+00  0.00000000000E+00  0.95583272160E+02  0.95583272160E+02  0.00000000000E+00 0.  1.
         21   -1    0    0  502  503 -0.00000000000E+00 -0.00000000000E+00 -0.81546490997E+01  0.81546490997E+01  0.00000000000E+00 0. -1.
          2    1    1    2  501    0  0.24288450993E+02  0.13766379041E+02  0.43858229505E+02  0.51990252345E+02  0.00000000000E+00 0.  1.
         -2    1    1    2    0  503 -0.24288450993E+02 -0.13766379041E+02  0.43570393556E+02  0.51747668915E+02  0.00000000000E+00 0. -1.
</event>
<event>
 4    1  0.1800096E+004  0.2217297E+02  0.7546771E-02  0.1503153E+00
         21   -1    0    0  503  502  0.00000000000E+00  0.00000000000E+00  0.26865737174E+01  0.26865737174E+01  0.00000000000E+00 0.  1.
         21   -1    0    0  501  503 -0.00000000000E+00 -0.00000000000E+00 -0.24908053372E+03  0.24908053372E+03  0.00000000000E+00 0. -1.
          2    1    1    2  501    0  0.15770409764E+02 -0.15586361052E+02 -0.18803637419E+03  0.18933916260E+03  0.00000000000E+00 0. -1.
         -2    1    1    2    0  502 -0.15770409764E+02  0.15586361052E+02 -0.58357585813E+02  0.62427944839E+02  0.00000000000E+00 0.  1.
</event>
<event>
 4    1  0.1800096E+004  0.2191079E+02  0.7546771E-02  0.1506648E+00
         21   -1    0    0  503  502  0.00000000000E+00  0.00000000000E+00  0.69205442504E+01  0.69205442504E+01  0.00000000000E+00 0. -1.
         21   -1    0    0  501  503 -0.00000000000E+00 -0.00000000000E+00 -0.13770718542E+03  0.13770718542E+03  0.00000000000E+00 0.  1.
          2    1    1    2  501    0  0.70193173835E+00 -0.21899539032E+02 -0.11633459582E+03  0.11837998438E+03  0.00000000000E+00 0.  1.
         -2    1    1    2    0  502 -0.70193173835E+00  0.21899539032E+02 -0.14452045354E+02  0.26247745291E+02  0.00000000000E+00 0. -1.
</event>
<event>
 4    1  0.1800096E+004  0.2294061E+02  0.7546771E-02  0.1493245E+00
         21   -1    0    0  501  502  0.00000000000E+00  0.00000000000E+00  0.72589263404E+02  0.72589263404E+02  0.00000000000E+00 0.  1.
         21   -1    0    0  502  503 -0.00000000000E+00 -0.00000000000E+00 -0.72515329465E+01  0.72515329465E+01  0.00000000000E+00 0. -1.
          2    1    1    2  501    0 -0.17776478039E+02  0.14500633222E+02  0.32086817653E+02  0.39444079434E+02  0.00000000000E+00 0.  1.
         -2    1    1    2    0  503  0.17776478039E+02 -0.14500633222E+02  0.33250912805E+02  0.40396716917E+02  0.00000000000E+00 0. -1.
</event>
<event>
 4    1  0.1800096E+004  0.2976569E+02  0.7546771E-02  0.1421644E+00
         21   -1    0    0  503  502  0.00000000000E+00  0.00000000000E+00  0.40712840360E+02  0.40712840360E+02  0.00000000000E+00 0.  1.
         21   -1    0    0  501  503 -0.00000000000E+00 -0.00000000000E+00 -0.31561980069E+02  0.31561980069E+02  0.00000000000E+00 0. -1.
          2    1    1    2  501    0 -0.22920138452E+02  0.18991143535E+02 -0.15561145825E+02  0.33587877855E+02  0.00000000000E+00 0. -1.
         -2    1    1    2    0  502  0.22920138452E+02 -0.18991143535E+02  0.24712006116E+02  0.38686942573E+02  0.00000000000E+00 0.  1.
</event>
<event>
 4    1  0.1800096E+004  0.3851144E+02  0.7546771E-02  0.1357437E+00
         21   -1    0    0  501  502  0.00000000000E+00  0.00000000000E+00  0.82224212613E+02  0.82224212613E+02  0.00000000000E+00 0. -1.
         21   -1    0    0  502  503 -0.00000000000E+00 -0.00000000000E+00 -0.37371189199E+02  0.37371189199E+02  0.00000000000E+00 0.  1.
          2    1    1    2  501    0  0.27836263618E+02  0.26613404040E+02  0.65436745959E+02  0.75928246184E+02  0.00000000000E+00 0. -1.
         -2    1    1    2    0  503 -0.27836263618E+02 -0.26613404040E+02 -0.20583722545E+02  0.43667155628E+02  0.00000000000E+00 0.  1.
</event>
<event>
 4    1  0.1800096E+004  0.2632457E+02  0.7546771E-02  0.1454514E+00
         21   -1    0    0  503  502  0.00000000000E+00  0.00000000000E+00  0.28297042299E+03  0.28297042299E+03  0.00000000000E+00 0. -1.
         21   -1    0    0  501  503 -0.00000000000E+00 -0.00000000000E+00 -0.54618905034E+01  0.54618905034E+01  0.00000000000E+00 0.  1.
          2    1    1    2  501    0 -0.21703447337E+02 -0.14897755565E+02  0.31642518067E+02  0.41161045866E+02  0.00000000000E+00 0.  1.
         -2    1    1    2    0  502  0.21703447337E+02  0.14897755565E+02  0.24586601442E+03  0.24727126763E+03  0.00000000000E+00 0. -1.
</event>
<event>
 4    1  0.1800096E+004  0.2659988E+02  0.7546771E-02  0.1451669E+00
         21   -1    0    0  503  502  0.00000000000E+00  0.00000000000E+00  0.11294136846E+02  0.11294136846E+02  0.00000000000E+00 0. -1.
         21   -1    0    0  501  503 -0.00000000000E+00 -0.00000000000E+00 -0.64005487439E+02  0.64005487439E+02  0.00000000000E+00 0.  1.
          2    1    1    2  501    0 -0.20077763911E+02 -0.17448121102E+02 -0.31839001615E+02  0.41488258068E+02  0.00000000000E+00 0.  1.
         -2    1    1    2    0  502  0.20077763911E+02  0.17448121102E+02 -0.20872348978E+02  0.33811366217E+02  0.00000000000E+00 0. -1.
</event>
<event>
 4    1  0.1800096E+004  0.2198697E+02  0.7546771E-02  0.1505626E+00
         21   -1    0    0  503  502  0.00000000000E+00  0.00000000000E+00  0.11662955580E+03  0.11662955580E+03  0.00000000000E+00 0. -1.
         21   -1    0    0  501  503 -0.00000000000E+00 -0.00000000000E+00 -0.50325914891E+01  0.50325914891E+01  0.00000000000E+00 0.  1.
          2    1    1    2  501    0  0.19917214268E+02 -0.93129674264E+01  0.30251363964E+02  0.37397483982E+02  0.00000000000E+00 0. -1.
         -2    1    1    2    0  502 -0.19917214268E+02  0.93129674264E+01  0.81345600343E+02  0.84264663303E+02  0.00000000000E+00 0.  1.
</event>
<event>
 4    1  0.1800096E+004  0.2647941E+02  0.7546771E-02  0.1452909E+00
         21   -1    0    0  503  502  0.00000000000E+00  0.00000000000E+00  0.66416750958E+03  0.66416750958E+03  0.00000000000E+00 0. -1.
         21   -1    0    0  501  503 -0.00000000000E+00 -0.00000000000E+00 -0.17484644602E+01  0.17484644602E+01  0.00000000000E+00 0.  1.
          2    1    1    2  501    0  0.17340091777E+02  0.20012004149E+02  0.12162701386E+03  0.12447606033E+03  0.00000000000E+00 0.  1.
         -2    1    1    2    0  502 -0.17340091777E+02 -0.20012004149E+02  0.54079203126E+03  0.54143991372E+03  0.00000000000E+00 0. -1.
</event>
<event>
 4    1  0.1800096E+004  0.2053326E+02  0.7546771E-02  0.1526034E+00
         21   -1    0    0  503  502  0.00000000000E+00  0.00000000000E+00  0.16847174448E+03  0.16847174448E+03  0.00000000000E+00 0.  1.
         21   -1    0    0  501  503 -0.00000000000E+00 -0.00000000000E+00 -0.32754925335E+01  0.32754925335E+01  0.00000000000E+00 0. -1.
          2    1    1    2  501    0 -0.42192329691E+01 -0.20095094643E+02  0.40883783538E+02  0.45750393571E+02  0.00000000000E+00 0. -1.
         -2    1    1    2    0  502  0.42192329691E+01  0.20095094643E+02  0.12431246841E+03  0.12599684345E+03  0.00000000000E+00 0.  1.
</event>
<event>
 4    1  0.1800096E+004  0.2901030E+02  0.7546771E-02  0.1428396E+00
         21   -1    0    0  503  502  0.00000000000E+00  0.00000000000E+00  0.18102043781E+01  0.18102043781E+01  0.00000000000E+00 0. -1.
         21   -1    0    0  501  503 -0.00000000000E+00 -0.00000000000E+00 -0.47195129762E+03  0.47195129762E+03  0.00000000000E+00 0.  1.
          2    1    1    2  501    0  0.23996204151E+02 -0.16302743179E+02 -0.20615378901E+03  0.20818497057E+03  0.00000000000E+00 0. -1.
         -2    1    1    2    0  502 -0.23996204151E+02  0.16302743179E+02 -0.26398730423E+03  0.26557653142E+03  0.00000000000E+00 0.  1.
</event>
<event>
 4    1  0.1800096E+004  0.3310393E+02  0.7546771E-02  0.1394407E+00
         21   -1    0    0  501  502  0.00000000000E+00  0.00000000000E+00  0.21410713563E+02  0.21410713563E+02  0.00000000000E+00 0.  1.
         21   -1    0    0  502  503 -0.00000000000E+00 -0.00000000000E+00 -0.20999627412E+03  0.20999627412E+03  0.00000000000E+00 0. -1.
          2    1    1    2  501    0  0.26575178011E+02 -0.19739045441E+02  0.63270847368E+01  0.33703145291E+02  0.00000000000E+00 0.  1.
         -2    1    1    2    0  503 -0.26575178011E+02  0.19739045441E+02 -0.19491264530E+03  0.19770384240E+03  0.00000000000E+00 0. -1.
</event>
<event>
 4    1  0.1800096E+004  0.2281213E+02  0.7546771E-02  0.1494871E+00
         21   -1    0    0  503  502  0.00000000000E+00  0.00000000000E+00  0.49812289488E+02  0.49812289488E+02  0.00000000000E+00 0. -1.
         21   -1    0    0  501  503 -0.00000000000E+00 -0.00000000000E+00 -0.22926196652E+02  0.22926196652E+02  0.00000000000E+00 0.  1.
          2    1    1    2  501    0  0.19804161132E+02  0.11322034053E+02 -0.13389388225E+02  0.26451256498E+02  0.00000000000E+00 0.  1.
         -2    1    1    2    0  502 -0.19804161132E+02 -0.11322034053E+02  0.40275481061E+02  0.46287229642E+02  0.00000000000E+00 0. -1.
</event>
<event>
 4    1  0.1800096E+004  0.2210063E+02  0.7546771E-02  0.1504111E+00
         21   -1    0    0  503  502  0.00000000000E+00  0.00000000000E+00  0.14805710280E+02  0.14805710280E+02  0.00000000000E+00 0. -1.
         21   -1    0    0  501  503 -0.00000000000E+00 -0.00000000000E+00 -0.59597801853E+02  0.59597801853E+02  0.00000000000E+00 0.  1.
          2    1    1    2  501    0  0.10177252255E+02  0.19617885309E+02 -0.47253359518E+02  0.52166252244E+02  0.00000000000E+00 0.  1.
         -2    1    1    2    0  502 -0.10177252255E+02 -0.19617885309E+02  0.24612679448E+01  0.22237259889E+02  0.00000000000E+00 0. -1.
</event>
<event>
 4    1  0.1800096E+004  0.2491471E+02  0.7546771E-02  0.1469760E+00
         21   -1    0    0  503  502  0.00000000000E+00  0.00000000000E+00  0.60685447947E+03  0.60685447947E+03  0.00000000000E+00 0. -1.
         21   -1    0    0  501  503 -0.00000000000E+00 -0.00000000000E+00 -0.25073322959E+01  0.25073322959E+01  0.00000000000E+00 0.  1.
          2    1    1    2  501    0 -0.22424999730E+02  0.10856436581E+02  0.67739051079E+02  0.72175632101E+02  0.00000000000E+00 0. -1.
         -2    1    1    2    0  502  0.22424999730E+02 -0.10856436581E+02  0.53660809609E+03  0.53718617966E+03  0.00000000000E+00 0.  1.
</event>
<event>
 4    1  0.1800096E+004  0.3549842E+02  0.7546771E-02  0.1377093E+00
         21   -1    0    0  501  502  0.00000000000E+00  0.00000000000E+00  0.18156203018E+02  0.18156203018E+02  0.00000000000E+00 0. -1.
         21   -1    0    0  502  503 -0.00000000000E+00 -0.00000000000E+00 -0.82960483853E+02  0.82960483853E+02  0.00000000000E+00 0.  1.
          2    1    1    2  501    0  0.35491897064E+02 -0.68051603415E+00 -0.11965528583E+02  0.37460802628E+02  0.00000000000E+00 0.  1.
         -2    1    1    2    0  503 -0.35491897064E+02  0.68051603415E+00 -0.52838752251E+02  0.63655884243E+02  0.00000000000E+00 0. -1.
</event>
<event>
 4    1  0.1800096E+004  0.2394790E+02  0.7546771E-02  0.1480926E+00
         21   -1    0    0  503  502  0.00000000000E+00  0.00000000000E+00  0.11381889123E+02  0.11381889123E+02  0.00000000000E+00 0. -1.
         21   -1    0    0  501  503 -0.00000000000E+00 -0.00000000000E+00 -0.11233524335E+03  0.11233524335E+03  0.00000000000E+00 0.  1.
          2    1    1    2  501    0  0.23634865532E+02 -0.38593977374E+01 -0.96412927262E+02  0.99342611013E+02  0.00000000000E+00 0.  1.
         -2    1    1    2    0  502 -0.23634865532E+02  0.38593977374E+01 -0.45404269694E+01  0.24374521465E+02  0.00000000000E+00 0. -1.
</event>
<event>
 4    1  0.1800096E+004  0.2037475E+02  0.7546771E-02  0.1528382E+00
         21   -1    0    0  503  502  0.00000000000E+00  0.00000000000E+00  0.61686875587E+01  0.61686875587E+01  0.00000000000E+00 0. -1.
         21   -1    0    0  501  503 -0.00000000000E+00 -0.00000000000E+00 -0.14518571864E+03  0.14518571864E+03  0.00000000000E+00 0.  1.
          2    1    1    2  501    0  0.20362111831E+02  0.71751050262E+00 -0.12493816049E+03  0.12658860282E+03  0.00000000000E+00 0.  1.
         -2    1    1    2    0  502 -0.20362111831E+02 -0.71751050262E+00 -0.14078870597E+02  0.24765803376E+02  0.00000000000E+00 0. -1.
</event>
<event>
 4    1  0.1800096E+004  0.4625361E+02  0.7546771E-02  0.1315287E+00
         21   -1    0    0  501  502  0.00000000000E+00  0.00000000000E+00  0.21963191782E+01  0.21963191782E+01  0.00000000000E+00 0.  1.
         21   -1    0    0  502  503 -0.00000000000E+00 -0.00000000000E+00 -0.10442360757E+04  0.10442360757E+04  0.00000000000E+00 0. -1.
          2    1    1    2  501    0  0.46243921163E+02 -0.94652921749E+00 -0.38540522490E+03  0.38817081748E+03  0.00000000000E+00 0.  1.
         -2    1    1    2    0  503 -0.46243921163E+02  0.94652921749E+00 -0.65663453161E+03  0.65826157739E+03  0.00000000000E+00 0. -1.
</event>
<event>
 4    1  0.1800096E+004  0.2120883E+02  0.7546771E-02  0.1516304E+00
         21   -1    0    0  501  502  0.00000000000E+00  0.00000000000E+00  0.48190075342E+03  0.48190075342E+03  0.00000000000E+00 0. -1.
         21   -1    0    0  502  503 -0.00000000000E+00 -0.00000000000E+00 -0.30727026486E+01  0.30727026486E+01  0.00000000000E+00 0.  1.
          2    1    1    2  501    0  0.18805944869E+01 -0.21125286421E+02  0.44174486959E+03  0.44225371018E+03  0.00000000000E+00 0. -1.
         -2    1    1    2    0  503 -0.18805944869E+01  0.21125286421E+02  0.37083181183E+02  0.42719745887E+02  0.00000000000E+00 0.  1.
</event>
<event>
 4    1  0.1800096E+004  0.2619551E+02  0.7546771E-02  0.1455861E+00
         21   -1    0    0  503  502  0.00000000000E+00  0.00000000000E+00  0.15789561582E+03  0.15789561582E+03  0.00000000000E+00 0.  1.
         21   -1    0    0  501  503 -0.00000000000E+00 -0.00000000000E+00 -0.46804567620E+01  0.46804567620E+01  0.00000000000E+00 0. -1.
          2    1    1    2  501    0 -0.21342267054E+02  0.15189218045E+02  0.54875957982E+02  0.60807692542E+02  0.00000000000E+00 0. -1.
         -2    1    1    2    0  502  0.21342267054E+02 -0.15189218045E+02  0.98339201076E+02  0.10176838004E+03  0.00000000000E+00 0.  1.
</event>
<event>
 4    1  0.1800096E+004  0.4459693E+02  0.7546771E-02  0.1323467E+00
         21   -1    0    0  503  502  0.00000000000E+00  0.00000000000E+00  0.40488519703E+02  0.40488519703E+02  0.00000000000E+00 0. -1.
         21   -1    0    0  501  503 -0.00000000000E+00 -0.00000000000E+00 -0.53905168249E+02  0.53905168249E+02  0.00000000000E+00 0.  1.
          2    1    1    2  501    0  0.27171126852E+01  0.44514082848E+02 -0.20767027370E+02  0.49195077995E+02  0.00000000000E+00 0.  1.
         -2    1    1    2    0  502 -0.27171126852E+01 -0.44514082848E+02  0.73503788245E+01  0.45198609957E+02  0.00000000000E+00 0. -1.
</event>
<event>
 4    1  0.1800096E+004  0.2867402E+02  0.7546771E-02  0.1431480E+00
         21   -1    0    0  503  502  0.00000000000E+00  0.00000000000E+00  0.10643775130E+03  0.10643775130E+03  0.00000000000E+00 0. -1.
         21   -1    0    0  501  503 -0.00000000000E+00 -0.00000000000E+00 -0.11860382190E+02  0.11860382190E+02  0.00000000000E+00 0.  1.
          2    1    1    2  501    0  0.17702296079E+02  0.22557224237E+02  0.12360810200E+02  0.31224818343E+02  0.00000000000E+00 0.  1.
         -2    1    1    2    0  502 -0.17702296079E+02 -0.22557224237E+02  0.82216558915E+02  0.87073315152E+02  0.00000000000E+00 0. -1.
</event>
<event>
 4    1  0.1800096E+004  0.2423690E+02  0.7546771E-02  0.1477524E+00
         21   -1    0    0  501  502  0.00000000000E+00  0.00000000000E+00  0.17899141725E+02  0.17899141725E+02  0.00000000000E+00 0.  1.
         21   -1    0    0  502  503 -0.00000000000E+00 -0.00000000000E+00 -0.45461491666E+02  0.45461491666E+02  0.00000000000E+00 0. -1.
          2    1    1    2  501    0 -0.58644100417E+01 -0.23516719237E+02  0.29254364507E+01  0.24412815635E+02  0.00000000000E+00 0. -1.
         -2    1    1    2    0  503  0.58644100417E+01  0.23516719237E+02 -0.30487786392E+02  0.38947817755E+02  0.00000000000E+00 0.  1.
</event>
<event>
 4    1  0.1800096E+004  0.2247296E+02  0.7546771E-02  0.1499224E+00
         21   -1    0    0  501  502  0.00000000000E+00  0.00000000000E+00  0.13626707586E+03  0.13626707586E+03  0.00000000000E+00 0. -1.
         21   -1    0    0  502  503 -0.00000000000E+00 -0.00000000000E+00 -0.83047744673E+01  0.83047744673E+01  0.00000000000E+00 0.  1.
          2    1    1    2  501    0 -0.13132041208E+02  0.18236865433E+02  0.11777110571E+03  0.11989606794E+03  0.00000000000E+00 0. -1.
         -2    1    1    2    0  503  0.13132041208E+02 -0.18236865433E+02  0.10191195685E+02  0.24675782390E+02  0.00000000000E+00 0.  1.
</event>
<event>
 4    1  0.1800096E+004  0.3342897E+02  0.7546771E-02  0.1391958E+00
         21   -1    0    0  503  502  0.00000000000E+00  0.00000000000E+00  0.32787505622E+02  0.32787505622E+02  0.00000000000E+00 0. -1.
         21   -1    0    0  501  503 -0.00000000000E+00 -0.00000000000E+00 -0.11580452810E+03  0.11580452810E+03  0.00000000000E+00 0.  1.
          2    1    1    2  501    0  0.28017756279E+02 -0.18234611298E+02 -0.10392093778E+03  0.10916527389E+03  0.00000000000E+00 0.  1.
         -2    1    1    2    0  502 -0.28017756279E+02  0.18234611298E+02  0.20903915295E+02  0.39426759831E+02  0.00000000000E+00 0. -1.
</event>
<event>
 4    1  0.1800096E+004  0.2337483E+02  0.7546771E-02  0.1487844E+00
         21   -1    0    0  501  502  0.00000000000E+00  0.00000000000E+00  0.47255759785E+00  0.47255759785E+00  0.00000000000E+00 0. -1.
         21   -1    0    0  502  503 -0.00000000000E+00 -0.00000000000E+00 -0.11851572692E+04  0.11851572692E+04  0.00000000000E+00 0.  1.
          2    1    1    2  501    0 -0.22477824626E+02  0.64132785808E+01 -0.49971803816E+03  0.50026443048E+03  0.00000000000E+00 0. -1.
         -2    1    1    2    0  503  0.22477824626E+02 -0.64132785808E+01 -0.68496667341E+03  0.68536539629E+03  0.00000000000E+00 0.  1.
</event>
<event>
 4    1  0.1800096E+004  0.3542130E+02  0.7546771E-02  0.1377625E+00
         21   -1    0    0  501  502  0.00000000000E+00  0.00000000000E+00  0.39380340339E+03  0.39380340339E+03  0.00000000000E+00 0. -1.
         21   -1    0    0  502  503 -0.00000000000E+00 -0.00000000000E+00 -0.57798724673E+01  0.57798724673E+01  0.00000000000E+00 0.  1.
          2    1    1    2  501    0 -0.34014997966E+02  0.98817329567E+01  0.60170469980E+02  0.69822304391E+02  0.00000000000E+00 0.  1.
         -2    1    1    2    0  503  0.34014997966E+02 -0.98817329567E+01  0.32785306095E+03  0.32976097147E+03  0.00000000000E+00 0. -1.
</event>
<event>
 4    1  0.1800096E+004  0.2873536E+02  0.7546771E-02  0.1430914E+00
         21   -1    0    0  503  502  0.00000000000E+00  0.00000000000E+00  0.21020266646E+02  0.21020266646E+02  0.00000000000E+00 0. -1.
         21   -1    0    0  501  503 -0.00000000000E+00 -0.00000000000E+00 -0.41146384719E+02  0.41146384719E+02  0.00000000000E+00 0.  1.
          2    1    1    2  501    0  0.23338245265E+02  0.16764469532E+02 -0.16679320983E+02  0.33225304802E+02  0.00000000000E+00 0. -1.
         -2    1    1    2    0  502 -0.23338245265E+02 -0.16764469532E+02 -0.34467970899E+01  0.28941346563E+02  0.00000000000E+00 0.  1.
</event>
<event>
 4    1  0.1800096E+004  0.3412075E+02  0.7546771E-02  0.1386852E+00
         21   -1    0    0  503  502  0.00000000000E+00  0.00000000000E+00  0.68994377349E+02  0.68994377349E+02  0.00000000000E+00 0. -1.
         21   -1    0    0  501  503 -0.00000000000E+00 -0.00000000000E+00 -0.55768074549E+02  0.55768074549E+02  0.00000000000E+00 0.  1.
          2    1    1    2  501    0 -0.14230900541E+02  0.31011405415E+02 -0.45482516961E+02  0.56858465905E+02  0.00000000000E+00 0.  1.
         -2    1    1    2    0  502  0.14230900541E+02 -0.31011405415E+02  0.58708819761E+02  0.67903985993E+02  0.00000000000E+00 0. -1.
</event>
<event>
 4    1  0.1800096E+004  0.2105769E+02  0.7546771E-02  0.1518443E+00
         21   -1    0    0  503  502  0.00000000000E+00  0.00000000000E+00  0.14530372086E+03  0.14530372086E+03  0.00000000000E+00 0.  1.
         21   -1    0    0  501  503 -0.00000000000E+00 -0.00000000000E+00 -0.23470679143E+02  0.23470679143E+02  0.00000000000E+00 0. -1.
          2    1    1    2  501    0  0.20537882937E+02  0.46498996921E+01 -0.17793595410E+02  0.27568791056E+02  0.00000000000E+00 0. -1.
         -2    1    1    2    0  502 -0.20537882937E+02 -0.46498996921E+01  0.13962663712E+03  0.14120560894E+03  0.00000000000E+00 0.  1.
</event>
<event>
 4    1  0.1800096E+004  0.2007314E+02  0.7546771E-02  0.1532921E+00
         21   -1    0    0  501  502  0.00000000000E+00  0.00000000000E+00  0.24415394240E+01  0.24415394240E+01  0.00000000000E+00 0. -1.
         21   -1    0    0  502  503 -0.00000000000E+00 -0.00000000000E+00 -0.18915097087E+03  0.18915097087E+03  0.00000000000E+00 0.  1.
          2    1    1    2  501    0  0.52475113734E+01  0.19375098522E+02 -0.59146652722E+02  0.62460046002E+02  0.00000000000E+00 0. -1.
         -2    1    1    2    0  503 -0.52475113734E+01 -0.19375098522E+02 -0.12756277873E+03  0.12913246430E+03  0.00000000000E+00 0.  1.
</event>
<event>
 4    1  0.1800096E+004  0.2246934E+02  0.7546771E-02  0.1499271E+00
         21   -1    0    0  503  502  0.00000000000E+00  0.00000000000E+00  0.48367763798E+00  0.48367763798E+00  0.00000000000E+00 0.  1.
         21   -1    0    0  501  503 -0.00000000000E+00 -0.00000000000E+00 -0.13065532727E+04  0.13065532727E+04  0.00000000000E+00 0. -1.
          2    1    1    2  501    0 -0.10142498268E+02 -0.20049962256E+02 -0.94609293495E+03  0.94635971639E+03  0.00000000000E+00 0. -1.
         -2    1    1    2    0  502  0.10142498268E+02  0.20049962256E+02 -0.35997666012E+03  0.36067723395E+03  0.00000000000E+00 0.  1.
</event>
<event>
 4    1  0.1800096E+004  0.2021789E+02  0.7546771E-02  0.1530731E+00
         21   -1    0    0  501  502  0.00000000000E+00  0.00000000000E+00  0.58987218846E+01  0.58987218846E+01  0.00000000000E+00 0.  1.
         21   -1    0    0  502  503 -0.00000000000E+00 -0.00000000000E+00 -0.89496802625E+02  0.89496802625E+02  0.00000000000E+00 0. -1.
          2    1    1    2  501    0 -0.20076029027E+02  0.23908120536E+01 -0.19138551362E+02  0.27839667240E+02  0.00000000000E+00 0.  1.
         -2    1    1    2    0  503  0.20076029027E+02 -0.23908120536E+01 -0.64459529379E+02  0.67555857270E+02  0.00000000000E+00 0. -1.
</event>
<event>
 4    1  0.1800096E+004  0.5051234E+02  0.7546771E-02  0.1295966E+00
         21   -1    0    0  501  502  0.00000000000E+00  0.00000000000E+00  0.19733551208E+03  0.19733551208E+03  0.00000000000E+00 0. -1.
         21   -1    0    0  502  503 -0.00000000000E+00 -0.00000000000E+00 -0.12929751408E+02  0.12929751408E+02  0.00000000000E+00 0.  1.
          2    1    1    2  501    0 -0.28439871931E+02  0.41745304602E+02  0.92303634501E+02  0.10522099464E+03  0.00000000000E+00 0.  1.
         -2    1    1    2    0  503  0.28439871931E+02 -0.41745304602E+02  0.92102126175E+02  0.10504426885E+03  0.00000000000E+00 0. -1.
</event>
<event>
 4    1  0.1800096E+004  0.2064493E+02  0.7546771E-02  0.1524395E+00
         21   -1    0    0  503  502  0.00000000000E+00  0.00000000000E+00  0.13906933120E+03  0.13906933120E+03  0.00000000000E+00 0. -1.
         21   -1    0    0  501  503 -0.00000000000E+00 -0.00000000000E+00 -0.92589522526E+01  0.92589522526E+01  0.00000000000E+00 0.  1.
          2    1    1    2  501    0  0.10568314008E+02 -0.17734822865E+02  0.42447398153E+01  0.21076788634E+02  0.00000000000E+00 0.  1.
         -2    1    1    2    0  502 -0.10568314008E+02  0.17734822865E+02  0.12556563913E+03  0.12725149482E+03  0.00000000000E+00 0. -1.
</event>
<event>
 4    1  0.1800096E+004  0.2817756E+02  0.7546771E-02  0.1436125E+00
         21   -1    0    0  501  502  0.00000000000E+00  0.00000000000E+00  0.35557934635E+01  0.35557934635E+01  0.00000000000E+00 0.  1.
         21   -1    0    0  502  503 -0.00000000000E+00 -0.00000000000E+00 -0.34316557949E+03  0.34316557949E+03  0.00000000000E+00 0. -1.
          2    1    1    2  501    0  0.26835413441E+02 -0.85927533331E+01 -0.67342793491E+02  0.73000182599E+02  0.00000000000E+00 0.  1.
         -2    1    1    2    0  503 -0.26835413441E+02  0.85927533331E+01 -0.27226699254E+03  0.27372119035E+03  0.00000000000E+00 0. -1.
</event>
<event>
 4    1  0.1800096E+004  0.2122945E+02  0.7546771E-02  0.1516014E+00
         21   -1    0    0  503  502  0.00000000000E+00  0.00000000000E+00  0.13273647022E+02  0.13273647022E+02  0.00000000000E+00 0.  1.
         21   -1    0    0  501  503 -0.00000000000E+00 -0.00000000000E+00 -0.43174908992E+02  0.43174908992E+02  0.00000000000E+00 0. -1.
          2    1    1    2  501    0  0.17953372502E+02  0.11329872223E+02 -0.19069317931E+01  0.21314923825E+02  0.00000000000E+00 0.  1.
         -2    1    1    2    0  502 -0.17953372502E+02 -0.11329872223E+02 -0.27994330177E+02  0.35133632190E+02  0.00000000000E+00 0. -1.
</event>
<event>
 4    1  0.1800096E+004  0.2502096E+02  0.7546771E-02  0.1468569E+00
         21   -1    0    0  503  502  0.00000000000E+00  0.00000000000E+00  0.94325309742E+02  0.94325309742E+02  0.00000000000E+00 0.  1.
         21   -1    0    0  501  503 -0.00000000000E+00 -0.00000000000E+00 -0.26231454062E+02  0.26231454062E+02  0.00000000000E+00 0. -1.
          2    1    1    2  501    0 -0.23020690250E+02 -0.98028635198E+01 -0.18050426299E+02  0.30852328961E+02  0.00000000000E+00 0. -1.
         -2    1    1    2    0  502  0.23020690250E+02  0.98028635198E+01  0.86144281980E+02  0.89704434843E+02  0.00000000000E+00 0.  1.
</event>
<event>
 4    1  0.1800096E+004  0.2430901E+02  0.7546771E-02  0.1476684E+00
         21   -1    0    0  501  502  0.00000000000E+00  0.00000000000E+00  0.30980422035E+02  0.30980422035E+02  0.00000000000E+00 0. -1.
         21   -1    0    0  502  503 -0.00000000000E+00 -0.00000000000E+00 -0.80564286070E+02  0.80564286070E+02  0.00000000000E+00 0.  1.
          2    1    1    2  501    0 -0.11393699081E+01  0.24282299016E+02  0.23932869669E+02  0.34113200669E+02  0.00000000000E+00 0. -1.
         -2    1    1    2    0  503  0.11393699081E+01 -0.24282299016E+02 -0.73516733704E+02  0.77431507436E+02  0.00000000000E+00 0.  1.
</event>
<event>
 4    1  0.1800096E+004  0.3740879E+02  0.7546771E-02  0.1364378E+00
         21   -1    0    0  501  502  0.00000000000E+00  0.00000000000E+00  0.85446199567E+02  0.85446199567E+02  0.00000000000E+00 0.  1.
         21   -1    0    0  502  503 -0.00000000000E+00 -0.00000000000E+00 -0.49422026553E+02  0.49422026553E+02  0.00000000000E+00 0. -1.
          2    1    1    2  501    0  0.12087725782E+02  0.35402042424E+02  0.73152168121E+02  0.82162384479E+02  0.00000000000E+00 0.  1.
         -2    1    1    2    0  503 -0.12087725782E+02 -0.35402042424E+02 -0.37127995107E+02  0.52705841641E+02  0.00000000000E+00 0. -1.
</event>
<event>
 4    1  0.1800096E+004  0.2387504E+02  0.7546771E-02  0.1481793E+00
         21   -1    0    0  501  502  0.00000000000E+00  0.00000000000E+00  0.37501817014E+01  0.37501817014E+01  0.00000000000E+00 0.  1.
         21   -1    0    0  502  503 -0.00000000000E+00 -0.00000000000E+00 -0.30464933356E+03  0.30464933356E+03  0.00000000000E+00 0. -1.
          2    1    1    2  501    0  0.23851343802E+02  0.10633806120E+01 -0.41296767309E+02  0.47701576176E+02  0.00000000000E+00 0.  1.
         -2    1    1    2    0  503 -0.23851343802E+02 -0.10633806120E+01 -0.25960238454E+03  0.26069793908E+03  0.00000000000E+00 0. -1.
</event>
<event>
 4    1  0.1800096E+004  0.2270305E+02  0.7546771E-02  0.1496261E+00
         21   -1    0    0  501  502  0.00000000000E+00  0.00000000000E+00  0.25090435881E+03  0.25090435881E+03  0.00000000000E+00 0.  1.
         21   -1    0    0  502  503 -0.00000000000E+00 -0.00000000000E+00 -0.18554256162E+02  0.18554256162E+02  0.00000000000E+00 0. -1.
          2    1    1    2  501    0 -0.20696851946E+02 -0.93310722613E+01  0.24322717266E+03  0.24428443690E+03  0.00000000000E+00 0.  1.
         -2    1    1    2    0  503  0.20696851946E+02  0.93310722613E+01 -0.10877070007E+02  0.25174178079E+02  0.00000000000E+00 0. -1.
</event>
<event>
 4    1  0.1800096E+004  0.2054579E+02  0.7546771E-02  0.1525850E+00
         21   -1    0    0  501  502  0.00000000000E+00  0.00000000000E+00  0.50149378003E+02  0.50149378003E+02  0.00000000000E+00 0.  1.
         21   -1    0    0  502  503 -0.00000000000E+00 -0.00000000000E+00 -0.86853464587E+01  0.86853464587E+01  0.00000000000E+00 0. -1.
          2    1    1    2  501    0 -0.31709895285E+01  0.20299617291E+02  0.25898529679E+02  0.33058485693E+02  0.00000000000E+00 0. -1.
         -2    1    1    2    0  503  0.31709895285E+01 -0.20299617291E+02  0.15565501865E+02  0.25776238769E+02  0.00000000000E+00 0.  1.
</event>
<event>
 4    1  0.1800096E+004  0.2108962E+02  0.7546771E-02  0.1517989E+00
         21   -1    0    0  503  502  0.00000000000E+00  0.00000000000E+00  0.32651311049E+02  0.32651311049E+02  0.00000000000E+00 0.  1.
         21   -1    0    0  501  503 -0.00000000000E+00 -0.00000000000E+00 -0.49135294403E+02  0.49135294403E+02  0.00000000000E+00 0. -1.
          2    1    1    2  501    0 -0.54699412757E+00  0.21082528199E+02 -0.43007743763E+02  0.47900294586E+02  0.00000000000E+00 0. -1.
         -2    1    1    2    0  502  0.54699412757E+00 -0.21082528199E+02  0.26523760409E+02  0.33886310866E+02  0.00000000000E+00 0.  1.
</event>
<event>
 4    1  0.1800096E+004  0.2710326E+02  0.7546771E-02  0.1446574E+00
         21   -1    0    0  501  502  0.00000000000E+00  0.00000000000E+00  0.47094274881E+03  0.47094274881E+03  0.00000000000E+00 0. -1.
         21   -1    0    0  502  503 -0.00000000000E+00 -0.00000000000E+00 -0.41205823836E+01  0.41205823836E+01  0.00000000000E+00 0.  1.
          2    1    1    2  501    0  0.11999500659E+02  0.24302240280E+02  0.42066317489E+03  0.42153540019E+03  0.00000000000E+00 0. -1.
         -2    1    1    2    0  503 -0.11999500659E+02 -0.24302240280E+02  0.46158991538E+02  0.53527931012E+02  0.00000000000E+00 0.  1.
</event>
<event>
 4    1  0.1800096E+004  0.3559538E+02  0.7546771E-02  0.1376425E+00
         21   -1    0    0  501  502  0.00000000000E+00  0.00000000000E+00  0.29846757685E+02  0.29846757685E+02  0.00000000000E+00 0.  1.
         21   -1    0    0  502  503 -0.00000000000E+00 -0.00000000000E+00 -0.53314168010E+02  0.53314168010E+02  0.00000000000E+00 0. -1.
          2    1    1    2  501    0 -0.28355831929E+02  0.21516926008E+02  0.70353249022E+01  0.36283978637E+02  0.00000000000E+00 0.  1.
         -2    1    1    2    0  503  0.28355831929E+02 -0.21516926008E+02 -0.30502735227E+02  0.46876947059E+02  0.00000000000E+00 0. -1.
</event>
<event>
 4    1  0.1800096E+004  0.2360400E+02  0.7546771E-02  0.1485050E+00
         21   -1    0    0  501  502  0.00000000000E+00  0.00000000000E+00  0.74097133754E+00  0.74097133754E+00  0.00000000000E+00 0.  1.
         21   -1    0    0  502  503 -0.00000000000E+00 -0.00000000000E+00 -0.11036682522E+04  0.11036682522E+04  0.00000000000E+00 0. -1.
          2    1    1    2  501    0  0.20474784983E+02  0.11744453607E+02 -0.23971933722E+03  0.24087862016E+03  0.00000000000E+00 0.  1.
         -2    1    1    2    0  503 -0.20474784983E+02 -0.11744453607E+02 -0.86320794367E+03  0.86353060341E+03  0.00000000000E+00 0. -1.
</event>
<event>
 4    1  0.1800096E+004  0.2007122E+02  0.7546771E-02  0.1532950E+00
         21   -1    0    0  503  502  0.00000000000E+00  0.00000000000E+00  0.11011258200E+02  0.11011258200E+02  0.00000000000E+00 0. -1.
         21   -1    0    0  501  503 -0.00000000000E+00 -0.00000000000E+00 -0.10330460948E+03  0.10330460948E+03  0.00000000000E+00 0.  1.
          2    1    1    2  501    0 -0.19241514423E+02  0.57112108329E+01 -0.92081427241E+02  0.94243530543E+02  0.00000000000E+00 0.  1.
         -2    1    1    2    0  502  0.19241514423E+02 -0.57112108329E+01 -0.21192404192E+00  0.20072337140E+02  0.00000000000E+00 0. -1.
</event>
<event>
 4    1  0.1800096E+004  0.2015126E+02  0.7546771E-02  0.1531736E+00
         21   -1    0    0  501  502  0.00000000000E+00  0.00000000000E+00  0.10444702434E+02  0.10444702434E+02  0.00000000000E+00 0.  1.
         21   -1    0    0  502  503 -0.00000000000E+00 -0.00000000000E+00 -0.90449090658E+02  0.90449090658E+02  0.00000000000E+00 0. -1.
          2    1    1    2  501    0 -0.20041296964E+02 -0.21023522469E+01 -0.19101950557E+01  0.20241598606E+02  0.00000000000E+00 0.  1.
         -2    1    1    2    0  503  0.20041296964E+02  0.21023522469E+01 -0.78094193168E+02  0.80652194487E+02  0.00000000000E+00 0. -1.
</event>
<event>
 4    1  0.1800096E+004  0.2415804E+02  0.7546771E-02  0.1478447E+00
         21   -1    0    0  503  502  0.00000000000E+00  0.00000000000E+00  0.64379391542E+02  0.64379391542E+02  0.00000000000E+00 0.  1.
         21   -1    0    0  501  503 -0.00000000000E+00 -0.00000000000E+00 -0.94933036016E+01  0.94933036016E+01  0.00000000000E+00 0. -1.
          2    1    1    2  501    0  0.11172427738E+02  0.21419329336E+02  0.35286898812E+02  0.42764191077E+02  0.00000000000E+00 0. -1.
         -2    1    1    2    0  502 -0.11172427738E+02 -0.21419329336E+02  0.19599189128E+02  0.31108504066E+02  0.00000000000E+00 0.  1.
</event>
<event>
 4    1  0.1800096E+004  0.2289367E+02  0.7546771E-02  0.1493838E+00
         21   -1    0    0  503  502  0.00000000000E+00  0.00000000000E+00  0.57207355669E+02  0.57207355669E+02  0.00000000000E+00 0.  1.
         21   -1    0    0  501  503 -0.00000000000E+00 -0.00000000000E+00 -0.13796881470E+02  0.13796881470E+02  0.00000000000E+00 0. -1.
          2    1    1    2  501    0  0.19583104507E+02 -0.11858422559E+02  0.11276581036E+01  0.22921426233E+02  0.00000000000E+00 0. -1.
         -2    1    1    2    0  502 -0.19583104507E+02  0.11858422559E+02  0.42282816096E+02  0.48082810907E+02  0.00000000000E+00 0.  1.
</event>
<event>
 4    1  0.1800096E+004  0.2241420E+02  0.7546771E-02  0.1499988E+00
         21   -1    0    0  503  502  0.00000000000E+00  0.00000000000E+00  0.93451809569E+03  0.93451809569E+03  0.00000000000E+00 0.  1.
         21   -1    0    0  501  503 -0.00000000000E+00 -0.00000000000E+00 -0.53857059890E+00  0.53857059890E+00  0.00000000000E+00 0. -1.
          2    1    1    2  501    0 -0.58344489374E+01 -0.21641525027E+02  0.48684307421E+03  0.48735877473E+03  0.00000000000E+00 0. -1.
         -2    1    1    2    0  502  0.58344489374E+01  0.21641525027E+02  0.44713645088E+03  0.44769789156E+03  0.00000000000E+00 0.  1.
</event>
<event>
 4    1  0.1800096E+004  0.4119521E+02  0.7546771E-02  0.1341621E+00
         21   -1    0    0  503  502  0.00000000000E+00  0.00000000000E+00  0.15114182352E+03  0.15114182352E+03  0.00000000000E+00 0.  1.
         21   -1    0    0  501  503 -0.00000000000E+00 -0.00000000000E+00 -0.25633205212E+02  0.25633205212E+02  0.00000000000E+00 0. -1.
          2    1    1    2  501    0  0.38243505441E+02 -0.15312727156E+02 -0.35049693113E+01  0.41344045898E+02  0.00000000000E+00 0. -1.
         -2    1    1    2    0  502 -0.38243505441E+02  0.15312727156E+02  0.12901358762E+03  0.13543098284E+03  0.00000000000E+00 0.  1.
</event>
<event>
 4    1  0.1800096E+004  0.2951264E+02  0.7546771E-02  0.1423879E+00
         21   -1    0    0  503  502  0.00000000000E+00  0.00000000000E+00  0.40739108776E+01  0.40739108776E+01  0.00000000000E+00 0.  1.
         21   -1    0    0  501  503 -0.00000000000E+00 -0.00000000000E+00 -0.11873975162E+04  0.11873975162E+04  0.00000000000E+00 0. -1.
          2    1    1    2  501    0  0.28914675733E+02  0.59107971131E+01 -0.11311048916E+04  0.11314898460E+04  0.00000000000E+00 0. -1.
         -2    1    1    2    0  502 -0.28914675733E+02 -0.59107971131E+01 -0.52218713716E+02  0.59981580985E+02  0.00000000000E+00 0.  1.
</event>
<event>
 4    1  0.1800096E+004  0.4018093E+02  0.7546771E-02  0.1347429E+00
         21   -1    0    0  503  502  0.00000000000E+00  0.00000000000E+00  0.58453237109E+02  0.58453237109E+02  0.00000000000E+00 0. -1.
         21   -1    0    0  501  503 -0.00000000000E+00 -0.00000000000E+00 -0.31950479662E+02  0.31950479662E+02  0.00000000000E+00 0.  1.
          2    1    1    2  501    0  0.92646045231E+01  0.39098266370E+02 -0.33889073943E+01  0.40323591400E+02  0.00000000000E+00 0.  1.
         -2    1    1    2    0  502 -0.92646045231E+01 -0.39098266370E+02  0.29891664842E+02  0.50080125371E+02  0.00000000000E+00 0. -1.
</event>
<event>
 4    1  0.1800096E+004  0.2747740E+02  0.7546771E-02  0.1442871E+00
         21   -1    0    0  503  502  0.00000000000E+00  0.00000000000E+00  0.83807314916E+02  0.83807314916E+02  0.00000000000E+00 0.  1.
         21   -1    0    0  501  503 -0.00000000000E+00 -0.00000000000E+00 -0.10831321155E+02  0.10831321155E+02  0.00000000000E+00 0. -1.
          2    1    1    2  501    0  0.23444593525E+02  0.14330341130E+02  0.17077889824E+02  0.32352155466E+02  0.00000000000E+00 0. -1.
         -2    1    1    2    0  502 -0.23444593525E+02 -0.14330341130E+02  0.55898103937E+02  0.62286480605E+02  0.00000000000E+00 0.  1.
</event>
<event>
 4    1  0.1800096E+004  0.2377788E+02  0.7546771E-02  0.1482955E+00
         21   -1    0    0  501  502  0.00000000000E+00  0.00000000000E+00  0.56164184546E+02  0.56164184546E+02  0.00000000000E+00 0. -1.
         21   -1    0    0  502  503 -0.00000000000E+00 -0.00000000000E+00 -0.10592369338E+02  0.10592369338E+02  0.00000000000E+00 0.  1.
          2    1    1    2  501    0 -0.58828734026E+01 -0.23038649623E+02  0.30221691726E+02  0.38454365509E+02  0.00000000000E+00 0.  1.
         -2    1    1    2    0  503  0.58828734026E+01  0.23038649623E+02  0.15350123482E+02  0.28302188375E+02  0.00000000000E+00 0. -1.
</event>
<event>
 4    1  0.1800096E+004  0.2179072E+02  0.7546771E-02  0.1508268E+00
         21   -1    0    0  501  502  0.00000000000E+00  0.00000000000E+00  0.62762749985E+01  0.62762749985E+01  0.00000000000E+00 0.  1.
         21   -1    0    0  502  503 -0.00000000000E+00 -0.00000000000E+00 -0.90238383404E+02  0.90238383404E+02  0.00000000000E+00 0. -1.
          2    1    1    2  501    0  0.20997598560E+02  0.58254761357E+01 -0.22581671056E+02  0.31381000385E+02  0.00000000000E+00 0.  1.
         -2    1    1    2    0  503 -0.20997598560E+02 -0.58254761357E+01 -0.61380437349E+02  0.65133658017E+02  0.00000000000E+00 0. -1.
</event>
<event>
 4    1  0.1800096E+004  0.2340273E+02  0.7546771E-02  0.1487502E+00
         21   -1    0    0  501  502  0.00000000000E+00  0.00000000000E+00  0.50045857932E+03  0.50045857932E+03  0.00000000000E+00 0.  1.
         21   -1    0    0  502  503 -0.00000000000E+00 -0.00000000000E+00 -0.14102536528E+01  0.14102536528E+01  0.00000000000E+00 0. -1.
          2    1    1    2  501    0 -0.19689590062E+02 -0.12649423561E+02  0.36828514794E+03  0.36902796380E+03  0.00000000000E+00 0.  1.
         -2    1    1    2    0  503  0.19689590062E+02  0.12649423561E+02  0.13076317773E+03  0.13284086917E+03  0.00000000000E+00 0. -1.
</event>
<event>
 4    1  0.1800096E+004  0.2362413E+02  0.7546771E-02  0.1484806E+00
         21   -1    0    0  503  502  0.00000000000E+00  0.00000000000E+00  0.41013695623E+01  0.41013695623E+01  0.00000000000E+00 0.  1.
         21   -1    0    0  501  503 -0.00000000000E+00 -0.00000000000E+00 -0.13987646144E+03  0.13987646144E+03  0.00000000000E+00 0. -1.
          2    1    1    2  501    0 -0.20406663788E+02 -0.11902417617E+02 -0.79753167006E+02  0.83178525591E+02  0.00000000000E+00 0. -1.
         -2    1    1    2    0  502  0.20406663788E+02  0.11902417617E+02 -0.56021924872E+02  0.60799305411E+02  0.00000000000E+00 0.  1.
</event>
<event>
 4    1  0.1800096E+004  0.2404149E+02  0.7546771E-02  0.1479818E+00
         21   -1    0    0  503  502  0.00000000000E+00  0.00000000000E+00  0.15382231770E+02  0.15382231770E+02  0.00000000000E+00 0.  1.
         21   -1    0    0  501  503 -0.00000000000E+00 -0.00000000000E+00 -0.38501513019E+02  0.38501513019E+02  0.00000000000E+00 0. -1.
          2    1    1    2  501    0  0.27519125615E+01 -0.23883474283E+02 -0.15738166372E+02  0.28734704581E+02  0.00000000000E+00 0. -1.
         -2    1    1    2    0  502 -0.27519125615E+01  0.23883474283E+02 -0.73811148766E+01  0.25149040208E+02  0.00000000000E+00 0.  1.
</event>
<event>
 4    1  0.1800096E+004  0.2341969E+02  0.7546771E-02  0.1487294E+00
         21   -1    0    0  501  502  0.00000000000E+00  0.00000000000E+00  0.19489663323E+02  0.19489663323E+02  0.00000000000E+00 0.  1.
         21   -1    0    0  502  503 -0.00000000000E+00 -0.00000000000E+00 -0.28173457526E+02  0.28173457526E+02  0.00000000000E+00 0. -1.
          2    1    1    2  501    0 -0.11887219063E+02 -0.20178596983E+02 -0.35479368488E+01  0.23686907969E+02  0.00000000000E+00 0.  1.
         -2    1    1    2    0  503  0.11887219063E+02  0.20178596983E+02 -0.51358573538E+01  0.23976212879E+02  0.00000000000E+00 0. -1.
</event>
<event>
 4    1  0.1800096E+004  0.2514889E+02  0.7546771E-02  0.1467145E+00
         21   -1    0    0  501  502  0.00000000000E+00  0.00000000000E+00  0.27247492053E+02  0.27247492053E+02  0.00000000000E+00 0. -1.
         21   -1    0    0  502  503 -0.00000000000E+00 -0.00000000000E+00 -0.43333295343E+02  0.43333295343E+02  0.00000000000E+00 0.  1.
          2    1    1    2  501    0  0.18114100720E+02 -0.17445517690E+02  0.16004847117E+02  0.29809761214E+02  0.00000000000E+00 0. -1.
         -2    1    1    2    0  503 -0.18114100720E+02  0.17445517690E+02 -0.32090650407E+02  0.40771026182E+02  0.00000000000E+00 0.  1.
</event>
<event>
 4    1  0.1800096E+004  0.2215982E+02  0.7546771E-02  0.1503327E+00
         21   -1    0    0  501  502  0.00000000000E+00  0.00000000000E+00  0.22386160907E+03  0.22386160907E+03  0.00000000000E+00 0.  1.
         21   -1    0    0  502  503 -0.00000000000E+00 -0.00000000000E+00 -0.50598349521E+01  0.50598349521E+01  0.00000000000E+00 0. -1.
          2    1    1    2  501    0 -0.23632021122E+01 -0.22033450208E+02  0.19554903602E+03  0.19680061774E+03  0.00000000000E+00 0.  1.
         -2    1    1    2    0  503  0.23632021122E+01  0.22033450208E+02  0.23252738095E+02  0.32120826284E+02  0.00000000000E+00 0. -1.
</event>
<event>
 4    1  0.1800096E+004  0.2247717E+02  0.7546771E-02  0.1499170E+00
         21   -1    0    0  503  502  0.00000000000E+00  0.00000000000E+00  0.68244143962E+00  0.68244143962E+00  0.00000000000E+00 0.  1.
         21   -1    0    0  501  503 -0.00000000000E+00 -0.00000000000E+00 -0.77867678907E+03  0.77867678907E+03  0.00000000000E+00 0. -1.
          2    1    1    2  501    0 -0.14490737234E+02 -0.17182592856E+02 -0.47548748914E+03  0.47601846108E+03  0.00000000000E+00 0.  1.
         -2    1    1    2    0  502  0.14490737234E+02  0.17182592856E+02 -0.30250685849E+03  0.30334076943E+03  0.00000000000E+00 0. -1.
</event>
<event>
 4    1  0.1800096E+004  0.2021548E+02  0.7546771E-02  0.1530767E+00
         21   -1    0    0  503  502  0.00000000000E+00  0.00000000000E+00  0.21355074947E+03  0.21355074947E+03  0.00000000000E+00 0. -1.
         21   -1    0    0  501  503 -0.00000000000E+00 -0.00000000000E+00 -0.43483878159E+01  0.43483878159E+01  0.00000000000E+00 0.  1.
          2    1    1    2  501    0 -0.19751679171E+02  0.43054341938E+01  0.23077134765E+02  0.30679304794E+02  0.00000000000E+00 0.  1.
         -2    1    1    2    0  502  0.19751679171E+02 -0.43054341938E+01  0.18612522689E+03  0.18721983249E+03  0.00000000000E+00 0. -1.
</event>
<event>
 4    1  0.1800096E+004  0.2032269E+02  0.7546771E-02  0.1529159E+00
         21   -1    0    0  503  502  0.00000000000E+00  0.00000000000E+00  0.33505578979E+02  0.33505578979E+02  0.00000000000E+00 0. -1.
         21   -1    0    0  501  503 -0.00000000000E+00 -0.00000000000E+00 -0.26982731666E+02  0.26982731666E+02  0.00000000000E+00 0.  1.
          2    1    1    2  501    0  0.20130423599E+02  0.27888427395E+01 -0.19028440271E+02  0.27840494558E+02  0.00000000000E+00 0.  1.
         -2    1    1    2    0  502 -0.20130423599E+02 -0.27888427395E+01  0.25551287584E+02  0.32647816088E+02  0.00000000000E+00 0. -1.
</event>
<event>
 4    1  0.1800096E+004  0.2083504E+02  0.7546771E-02  0.1521633E+00
         21   -1    0    0  501  502  0.00000000000E+00  0.00000000000E+00  0.52231137901E+02  0.52231137901E+02  0.00000000000E+00 0. -1.
         21   -1    0    0  502  503 -0.00000000000E+00 -0.00000000000E+00 -0.18718349634E+02  0.18718349634E+02  0.00000000000E+00 0.  1.
          2    1    1    2  501    0 -0.12922097619E+02  0.16343752045E+02  0.43208071989E+02  0.47969118429E+02  0.00000000000E+00 0. -1.
         -2    1    1    2    0  503  0.12922097619E+02 -0.16343752045E+02 -0.96952837223E+01  0.22980369106E+02  0.00000000000E+00 0.  1.
</event>
<event>
 4    1  0.1800096E+004  0.2178383E+02  0.7546771E-02  0.1508362E+00
         21   -1    0    0  501  502  0.00000000000E+00  0.00000000000E+00  0.13067832423E+04  0.13067832423E+04  0.00000000000E+00 0.  1.
         21   -1    0    0  502  503 -0.00000000000E+00 -0.00000000000E+00 -0.31093967524E+01  0.31093967524E+01  0.00000000000E+00 0. -1.
          2    1    1    2  501    0 -0.12978919833E+02  0.17495221610E+02  0.12673521726E+04  0.12675393739E+04  0.00000000000E+00 0.  1.
         -2    1    1    2    0  503  0.12978919833E+02 -0.17495221610E+02  0.36321673009E+02  0.42353265156E+02  0.00000000000E+00 0. -1.
</event>
<event>
 4    1  0.1800096E+004  0.2183133E+03  0.7546771E-02  0.1042861E+00
         21   -1    0    0  501  502  0.00000000000E+00  0.00000000000E+00  0.59538275704E+02  0.59538275704E+02  0.00000000000E+00 0. -1.
         21   -1    0    0  502  503 -0.00000000000E+00 -0.00000000000E+00 -0.85665528267E+03  0.85665528267E+03  0.00000000000E+00 0.  1.
          2    1    1    2  501    0  0.12072271231E+03  0.18189753879E+03 -0.28127683627E+03  0.35605806620E+03  0.00000000000E+00 0. -1.
         -2    1    1    2    0  503 -0.12072271231E+03 -0.18189753879E+03 -0.51584017069E+03  0.56013549217E+03  0.00000000000E+00 0.  1.
</event>
<event>
 4    1  0.1800096E+004  0.2887912E+02  0.7546771E-02  0.1429593E+00
         21   -1    0    0  503  502  0.00000000000E+00  0.00000000000E+00  0.84062865660E+02  0.84062865660E+02  0.00000000000E+00 0. -1.
         21   -1    0    0  501  503 -0.00000000000E+00 -0.00000000000E+00 -0.13563303073E+02  0.13563303073E+02  0.00000000000E+00 0.  1.
          2    1    1    2  501    0 -0.53603881845E+01 -0.28377276705E+02  0.99550379277E+01  0.30546789927E+02  0.00000000000E+00 0.  1.
         -2    1    1    2    0  502  0.53603881845E+01  0.28377276705E+02  0.60544524659E+02  0.67079378805E+02  0.00000000000E+00 0. -1.
</event>
<event>
 4    1  0.1800096E+004  0.2544614E+02  0.7546771E-02  0.1463874E+00
         21   -1    0    0  503  502  0.00000000000E+00  0.00000000000E+00  0.10026773188E+03  0.10026773188E+03  0.00000000000E+00 0.  1.
         21   -1    0    0  501  503 -0.00000000000E+00 -0.00000000000E+00 -0.85332345601E+01  0.85332345601E+01  0.00000000000E+00 0. -1.
          2    1    1    2  501    0 -0.75539460635E+01  0.24299047515E+02  0.19038295807E+02  0.31779907465E+02  0.00000000000E+00 0. -1.
         -2    1    1    2    0  502  0.75539460635E+01 -0.24299047515E+02  0.72696201510E+02  0.77021058972E+02  0.00000000000E+00 0.  1.
</event>
<event>
 4    1  0.1800096E+004  0.2617409E+02  0.7546771E-02  0.1456086E+00
         21   -1    0    0  503  502  0.00000000000E+00  0.00000000000E+00  0.86003833413E+01  0.86003833413E+01  0.00000000000E+00 0.  1.
         21   -1    0    0  501  503 -0.00000000000E+00 -0.00000000000E+00 -0.85149665738E+02  0.85149665738E+02  0.00000000000E+00 0. -1.
          2    1    1    2  501    0 -0.20711132606E+02  0.16004127280E+02 -0.50179677777E+02  0.56595787526E+02  0.00000000000E+00 0. -1.
         -2    1    1    2    0  502  0.20711132606E+02 -0.16004127280E+02 -0.26369604619E+02  0.37154261553E+02  0.00000000000E+00 0.  1.
</event>
<event>
 4    1  0.1800096E+004  0.2198131E+02  0.7546771E-02  0.1505702E+00
         21   -1    0    0  503  502  0.00000000000E+00  0.00000000000E+00  0.37102691340E+03  0.37102691340E+03  0.00000000000E+00 0. -1.
         21   -1    0    0  501  503 -0.00000000000E+00 -0.00000000000E+00 -0.16955137327E+01  0.16955137327E+01  0.00000000000E+00 0.  1.
          2    1    1    2  501    0 -0.91222240285E+00 -0.21962372857E+02  0.94915658201E+02  0.97427717530E+02  0.00000000000E+00 0.  1.
         -2    1    1    2    0  502  0.91222240285E+00  0.21962372857E+02  0.27441574146E+03  0.27529470960E+03  0.00000000000E+00 0. -1.
</event>
<event>
 4    1  0.1800096E+004  0.1271901E+03  0.7546771E-02  0.1123596E+00
         21   -1    0    0  501  502  0.00000000000E+00  0.00000000000E+00  0.92443693007E+02  0.92443693007E+02  0.00000000000E+00 0.  1.
         21   -1    0    0  502  503 -0.00000000000E+00 -0.00000000000E+00 -0.17507408415E+03  0.17507408415E+03  0.00000000000E+00 0. -1.
          2    1    1    2  501    0  0.12409701579E+03 -0.27879074247E+02 -0.44133055349E+02  0.13462926384E+03  0.00000000000E+00 0. -1.
         -2    1    1    2    0  503 -0.12409701579E+03  0.27879074247E+02 -0.38497335794E+02  0.13288851332E+03  0.00000000000E+00 0.  1.
</event>
<event>
 4    1  0.1800096E+004  0.2189586E+02  0.7546771E-02  0.1506849E+00
         21   -1    0    0  501  502  0.00000000000E+00  0.00000000000E+00  0.19806464781E+02  0.19806464781E+02  0.00000000000E+00 0. -1.
         21   -1    0    0  502  503 -0.00000000000E+00 -0.00000000000E+00 -0.46232794574E+02  0.46232794574E+02  0.00000000000E+00 0.  1.
          2    1    1    2  501    0 -0.21887434848E+02  0.60732362745E+00  0.95785015965E+01  0.23899295786E+02  0.00000000000E+00 0. -1.
         -2    1    1    2    0  503  0.21887434848E+02 -0.60732362745E+00 -0.36004831389E+02  0.42139963569E+02  0.00000000000E+00 0.  1.
</event>
<event>
 4    1  0.1800096E+004  0.2371291E+02  0.7546771E-02  0.1483735E+00
         21   -1    0    0  501  502  0.00000000000E+00  0.00000000000E+00  0.23081857212E+03  0.23081857212E+03  0.00000000000E+00 0. -1.
         21   -1    0    0  502  503 -0.00000000000E+00 -0.00000000000E+00 -0.24421239168E+01  0.24421239168E+01  0.00000000000E+00 0.  1.
          2    1    1    2  501    0 -0.14024363915E+02 -0.19121169578E+02  0.11997076247E+03  0.12229180576E+03  0.00000000000E+00 0. -1.
         -2    1    1    2    0  503  0.14024363915E+02  0.19121169578E+02  0.10840568573E+03  0.11096889027E+03  0.00000000000E+00 0.  1.
</event>
<event>
 4    1  0.1800096E+004  0.2049054E+02  0.7546771E-02  0.1526664E+00
         21   -1    0    0  501  502  0.00000000000E+00  0.00000000000E+00  0.23102324800E+03  0.23102324800E+03  0.00000000000E+00 0.  1.
         21   -1    0    0  502  503 -0.00000000000E+00 -0.00000000000E+00 -0.98315471352E+01  0.98315471352E+01  0.00000000000E+00 0. -1.
          2    1    1    2  501    0 -0.17065862292E+02 -0.11341018505E+02  0.21932423650E+03  0.22027932966E+03  0.00000000000E+00 0.  1.
         -2    1    1    2    0  503  0.17065862292E+02  0.11341018505E+02  0.18674643613E+01  0.20575465478E+02  0.00000000000E+00 0. -1.
</event>
<event>
 4    1  0.1800096E+004  0.3112628E+02  0.7546771E-02  0.1410055E+00
         21   -1    0    0  503  502  0.00000000000E+00  0.00000000000E+00  0.18669529596E+02  0.18669529596E+02  0.00000000000E+00 0. -1.
         21   -1    0    0  501  503 -0.00000000000E+00 -0.00000000000E+00 -0.82609260108E+02  0.82609260108E+02  0.00000000000E+00 0.  1.
          2    1    1    2  501    0  0.81548044876E+01  0.30039052902E+02 -0.10919590116E+01  0.31145431607E+02  0.00000000000E+00 0. -1.
         -2    1    1    2    0  502 -0.81548044876E+01 -0.30039052902E+02 -0.62847771500E+02  0.70133358098E+02  0.00000000000E+00 0.  1.
</event>
<event>
 4    1  0.1800096E+004  0.2545788E+02  0.7546771E-02  0.1463746E+00
         21   -1    0    0  501  502  0.00000000000E+00  0.00000000000E+00  0.18545808363E+03  0.18545808363E+03  0.00000000000E+00 0.  1.
         21   -1    0    0  502  503 -0.00000000000E+00 -0.00000000000E+00 -0.35325480895E+01  0.35325480895E+01  0.00000000000E+00 0. -1.
          2    1    1    2  501    0  0.14204632617E+02 -0.21126571007E+02  0.10075555998E+03  0.10392202104E+03  0.00000000000E+00 0.  1.
         -2    1    1    2    0  503 -0.14204632617E+02  0.21126571007E+02  0.81169975561E+02  0.85068610679E+02  0.00000000000E+00 0. -1.
</event>
<event>
 4    1  0.1800096E+004  0.2320506E+02  0.7546771E-02  0.1489939E+00
         21   -1    0    0  501  502  0.00000000000E+00  0.00000000000E+00  0.30376138326E+01  0.30376138326E+01  0.00000000000E+00 0. -1.
         21   -1    0    0  502  503 -0.00000000000E+00 -0.00000000000E+00 -0.19133799050E+03  0.19133799050E+03  0.00000000000E+00 0.  1.
          2    1    1    2  501    0 -0.17676549065E+02 -0.15033771548E+02 -0.12050397923E+03  0.12271790287E+03  0.00000000000E+00 0.  1.
         -2    1    1    2    0  503  0.17676549065E+02  0.15033771548E+02 -0.67796397434E+02  0.71657701462E+02  0.00000000000E+00 0. -1.
</event>
<event>
 4    1  0.1800096E+004  0.5906039E+02  0.7546771E-02  0.1263059E+00
         21   -1    0    0  503  502  0.00000000000E+00  0.00000000000E+00  0.86710683688E+02  0.86710683688E+02  0.00000000000E+00 0.  1.
         21   -1    0    0  501  503 -0.00000000000E+00 -0.00000000000E+00 -0.52033278614E+02  0.52033278614E+02  0.00000000000E+00 0. -1.
          2    1    1    2  501    0 -0.48802847680E+02  0.33262762873E+02 -0.15705559456E+02  0.61112960438E+02  0.00000000000E+00 0. -1.
         -2    1    1    2    0  502  0.48802847680E+02 -0.33262762873E+02  0.50382964530E+02  0.77631001864E+02  0.00000000000E+00 0.  1.
</event>
<event>
 4    1  0.1800096E+004  0.2994597E+02  0.7546771E-02  0.1420067E+00
         21   -1    0    0  503  502  0.00000000000E+00  0.00000000000E+00  0.64641122749E+01  0.64641122749E+01  0.00000000000E+00 0. -1.
         21   -1    0    0  501  503 -0.00000000000E+00 -0.00000000000E+00 -0.14847603805E+03  0.14847603805E+03  0.00000000000E+00 0.  1.
          2    1    1    2  501    0  0.40706662011E+01 -0.29668011011E+02 -0.51157018949E+02  0.59277329464E+02  0.00000000000E+00 0. -1.
         -2    1    1    2    0  502 -0.40706662011E+01  0.29668011011E+02 -0.90854906826E+02  0.95662820861E+02  0.00000000000E+00 0.  1.
</event>
<event>
 4    1  0.1800096E+004  0.2188004E+02  0.7546771E-02  0.1507062E+00
         21   -1    0    0  501  502  0.00000000000E+00  0.00000000000E+00  0.40269643007E+03  0.40269643007E+03  0.00000000000E+00 0.  1.
         21   -1    0    0  502  503 -0.00000000000E+00 -0.00000000000E+00 -0.72732859322E+01  0.72732859322E+01  0.00000000000E+00 0. -1.
          2    1    1    2  501    0 -0.21275617891E+02 -0.51072661102E+01  0.38519697476E+03  0.38581789156E+03  0.00000000000E+00 0.  1.
         -2    1    1    2    0  503  0.21275617891E+02  0.51072661102E+01  0.10226169378E+02  0.24151824442E+02  0.00000000000E+00 0. -1.
</event>
<event>
 4    1  0.1800096E+004  0.3898999E+02  0.7546771E-02  0.1354508E+00
         21   -1    0    0  503  502  0.00000000000E+00  0.00000000000E+00  0.54453596995E+01  0.54453596995E+01  0.00000000000E+00 0.  1.
         21   -1    0    0  501  503 -0.00000000000E+00 -0.00000000000E+00 -0.36562892467E+03  0.36562892467E+03  0.00000000000E+00 0. -1.
          2    1    1    2  501    0  0.37849270732E+02  0.93622537932E+01 -0.27031077371E+03  0.27310828159E+03  0.00000000000E+00 0.  1.
         -2    1    1    2    0  502 -0.37849270732E+02 -0.93622537932E+01 -0.89872791260E+02  0.97966002776E+02  0.00000000000E+00 0. -1.
</event>
<event>
 4    1  0.1800096E+004  0.2345302E+02  0.7546771E-02  0.1486887E+00
         21   -1    0    0  503  502  0.00000000000E+00  0.00000000000E+00  0.61815400833E+02  0.61815400833E+02  0.00000000000E+00 0.  1.
         21   -1    0    0  501  503 -0.00000000000E+00 -0.00000000000E+00 -0.18516122053E+02  0.18516122053E+02  0.00000000000E+00 0. -1.
          2    1    1    2  501    0  0.70343941779E+01 -0.22373232298E+02 -0.72986022264E+01  0.24562447340E+02  0.00000000000E+00 0. -1.
         -2    1    1    2    0  502 -0.70343941779E+01  0.22373232298E+02  0.50597881007E+02  0.55769075546E+02  0.00000000000E+00 0.  1.
</event>
<event>
 4    1  0.1800096E+004  0.2522210E+02  0.7546771E-02  0.1466334E+00
         21   -1    0    0  501  502  0.00000000000E+00  0.00000000000E+00  0.74455245680E+02  0.74455245680E+02  0.00000000000E+00 0. -1.
         21   -1    0    0  502  503 -0.00000000000E+00 -0.00000000000E+00 -0.15065202130E+02  0.15065202130E+02  0.00000000000E+00 0.  1.
          2    1    1    2  501    0  0.17605527270E+02 -0.18060993823E+02  0.59143632551E+02  0.64297148923E+02  0.00000000000E+00 0. -1.
         -2    1    1    2    0  503 -0.17605527270E+02  0.18060993823E+02  0.24641099913E+00  0.25223298886E+02  0.00000000000E+00 0.  1.
</event>
<event>
 4    1  0.1800096E+004  0.2737874E+02  0.7546771E-02  0.1443840E+00
         21   -1    0    0  501  502  0.00000000000E+00  0.00000000000E+00  0.21311822473E+02  0.21311822473E+02  0.00000000000E+00 0.  1.
         21   -1    0    0  502  503 -0.00000000000E+00 -0.00000000000E+00 -0.35186668667E+02  0.35186668667E+02  0.00000000000E+00 0. -1.
          2    1    1    2  501    0 -0.17974173626E+02  0.20652474379E+02 -0.63757784229E+01  0.28111317401E+02  0.00000000000E+00 0.  1.
         -2    1    1    2    0  503  0.17974173626E+02 -0.20652474379E+02 -0.74990677715E+01  0.28387173740E+02  0.00000000000E+00 0. -1.
</event>
<event>
 4    1  0.1800096E+004  0.2529745E+02  0.7546771E-02  0.1465503E+00
         21   -1    0    0  503  502  0.00000000000E+00  0.00000000000E+00  0.14371189093E+03  0.14371189093E+03  0.00000000000E+00 0. -1.
         21   -1    0    0  501  503 -0.00000000000E+00 -0.00000000000E+00 -0.47500452954E+01  0.47500452954E+01  0.00000000000E+00 0.  1.
          2    1    1    2  501    0  0.20328793843E+02 -0.15056597401E+02  0.50920542361E+02  0.56858267814E+02  0.00000000000E+00 0.  1.
         -2    1    1    2    0  502 -0.20328793843E+02  0.15056597401E+02  0.88041303269E+02  0.91603668407E+02  0.00000000000E+00 0. -1.
</event>
<event>
 4    1  0.1800096E+004  0.2256547E+02  0.7546771E-02  0.1498028E+00
         21   -1    0    0  503  502  0.00000000000E+00  0.00000000000E+00  0.58890501462E+01  0.58890501462E+01  0.00000000000E+00 0.  1.
         21   -1    0    0  501  503 -0.00000000000E+00 -0.00000000000E+00 -0.94723707306E+02  0.94723707306E+02  0.00000000000E+00 0. -1.
          2    1    1    2  501    0 -0.19505883169E+02  0.11345530064E+02 -0.59270963299E+02  0.63421192208E+02  0.00000000000E+00 0. -1.
         -2    1    1    2    0  502  0.19505883169E+02 -0.11345530064E+02 -0.29563693860E+02  0.37191565244E+02  0.00000000000E+00 0.  1.
</event>
<event>
 4    1  0.1800096E+004  0.2584845E+02  0.7546771E-02  0.1459532E+00
         21   -1    0    0  501  502  0.00000000000E+00  0.00000000000E+00  0.35566626298E+02  0.35566626298E+02  0.00000000000E+00 0.  1.
         21   -1    0    0  502  503 -0.00000000000E+00 -0.00000000000E+00 -0.32535084933E+02  0.32535084933E+02  0.00000000000E+00 0. -1.
          2    1    1    2  501    0  0.22328760089E+02 -0.13021860891E+02  0.23651528533E+02  0.35036226825E+02  0.00000000000E+00 0.  1.
         -2    1    1    2    0  503 -0.22328760089E+02  0.13021860891E+02 -0.20619987168E+02  0.33065484406E+02  0.00000000000E+00 0. -1.
</event>
<event>
 4    1  0.1800096E+004  0.2257978E+02  0.7546771E-02  0.1497843E+00
         21   -1    0    0  503  502  0.00000000000E+00  0.00000000000E+00  0.10580335143E+02  0.10580335143E+02  0.00000000000E+00 0.  1.
         21   -1    0    0  501  503 -0.00000000000E+00 -0.00000000000E+00 -0.58200097131E+02  0.58200097131E+02  0.00000000000E+00 0. -1.
          2    1    1    2  501    0 -0.20933880629E+02  0.84628167660E+01 -0.95461666049E+01  0.24514810271E+02  0.00000000000E+00 0.  1.
         -2    1    1    2    0  502  0.20933880629E+02 -0.84628167660E+01 -0.38073595384E+02  0.44265622002E+02  0.00000000000E+00 0. -1.
</event>
<event>
 4    1  0.1800096E+004  0.2475533E+02  0.7546771E-02  0.1471559E+00
         21   -1    0    0  501  502  0.00000000000E+00  0.00000000000E+00  0.94396113491E+03  0.94396113491E+03  0.00000000000E+00 0. -1.
         21   -1    0    0  502  503 -0.00000000000E+00 -0.00000000000E+00 -0.17744363878E+01  0.17744363878E+01  0.00000000000E+00 0.  1.
          2    1    1    2  501    0 -0.40582645224E+01  0.24420420327E+02  0.84764971198E+03  0.84801112060E+03  0.00000000000E+00 0. -1.
         -2    1    1    2    0  503  0.40582645224E+01 -0.24420420327E+02  0.94536986542E+02  0.97724450699E+02  0.00000000000E+00 0.  1.
</event>
<event>
 4    1  0.1800096E+004  0.3880715E+02  0.7546771E-02  0.1355621E+00
         21   -1    0    0  503  502  0.00000000000E+00  0.00000000000E+00  0.12076675910E+02  0.12076675910E+02  0.00000000000E+00 0. -1.
         21   -1    0    0  501  503 -0.00000000000E+00 -0.00000000000E+00 -0.17284207961E+03  0.17284207961E+03  0.00000000000E+00 0.  1.
          2    1    1    2  501    0  0.35605326434E+02 -0.15435527239E+02 -0.12917780225E+03  0.13488105636E+03  0.00000000000E+00 0.  1.
         -2    1    1    2    0  502 -0.35605326434E+02  0.15435527239E+02 -0.31587601455E+02  0.50037699161E+02  0.00000000000E+00 0. -1.
</event>
<event>
 4    1  0.1800096E+004  0.3032320E+02  0.7546771E-02  0.1416808E+00
         21   -1    0    0  501  502  0.00000000000E+00  0.00000000000E+00  0.31389343093E+02  0.31389343093E+02  0.00000000000E+00 0. -1.
         21   -1    0    0  502  503 -0.00000000000E+00 -0.00000000000E+00 -0.42585680520E+02  0.42585680520E+02  0.00000000000E+00 0.  1.
          2    1    1    2  501    0 -0.29418044209E+02  0.73535944470E+01  0.15066340880E+02  0.33859877493E+02  0.00000000000E+00 0. -1.
         -2    1    1    2    0  503  0.29418044209E+02 -0.73535944470E+01 -0.26262678306E+02  0.40115146119E+02  0.00000000000E+00 0.  1.
</event>
<event>
 4    1  0.1800096E+004  0.2302955E+02  0.7546771E-02  0.1492127E+00
         21   -1    0    0  503  502  0.00000000000E+00  0.00000000000E+00  0.24497021427E+01  0.24497021427E+01  0.00000000000E+00 0.  1.
         21   -1    0    0  501  503 -0.00000000000E+00 -0.00000000000E+00 -0.24985589541E+03  0.24985589541E+03  0.00000000000E+00 0. -1.
          2    1    1    2  501    0  0.21661023142E+02  0.78205117880E+01 -0.16979651155E+03  0.17135114724E+03  0.00000000000E+00 0.  1.
         -2    1    1    2    0  502 -0.21661023142E+02 -0.78205117880E+01 -0.77609681725E+02  0.80954450313E+02  0.00000000000E+00 0. -1.
</event>
<event>
 4    1  0.1800096E+004  0.2095056E+02  0.7546771E-02  0.1519972E+00
         21   -1    0    0  501  502  0.00000000000E+00  0.00000000000E+00  0.34316102227E+03  0.34316102227E+03  0.00000000000E+00 0. -1.
         21   -1    0    0  502  503 -0.00000000000E+00 -0.00000000000E+00 -0.22376420131E+01  0.22376420131E+01  0.00000000000E+00 0.  1.
          2    1    1    2  501    0 -0.85387790568E+01  0.19131519546E+02  0.28349553652E+03  0.28426861419E+03  0.00000000000E+00 0. -1.
         -2    1    1    2    0  503  0.85387790568E+01 -0.19131519546E+02  0.57427843742E+02  0.61130050097E+02  0.00000000000E+00 0.  1.
</event>
<event>
 4    1  0.1800096E+004  0.2003909E+02  0.7546771E-02  0.1533439E+00
         21   -1    0    0  501  502  0.00000000000E+00  0.00000000000E+00  0.10112454853E+02  0.10112454853E+02  0.00000000000E+00 0. -1.
         21   -1    0    0  502  503 -0.00000000000E+00 -0.00000000000E+00 -0.48034608657E+02  0.48034608657E+02  0.00000000000E+00 0.  1.
          2    1    1    2  501    0  0.19657765859E+02  0.38906591156E+01 -0.68577681576E+01  0.21180037087E+02  0.00000000000E+00 0. -1.
         -2    1    1    2    0  503 -0.19657765859E+02 -0.38906591156E+01 -0.31064385647E+02  0.36967026423E+02  0.00000000000E+00 0.  1.
</event>
<event>
 4    1  0.1800096E+004  0.2034621E+02  0.7546771E-02  0.1528807E+00
         21   -1    0    0  503  502  0.00000000000E+00  0.00000000000E+00  0.13326218712E+02  0.13326218712E+02  0.00000000000E+00 0. -1.
         21   -1    0    0  501  503 -0.00000000000E+00 -0.00000000000E+00 -0.40500057197E+02  0.40500057197E+02  0.00000000000E+00 0.  1.
          2    1    1    2  501    0  0.36563860763E+01 -0.20014967225E+02 -0.26577472053E+02  0.33471332404E+02  0.00000000000E+00 0.  1.
         -2    1    1    2    0  502 -0.36563860763E+01  0.20014967225E+02 -0.59636643226E+00  0.20354943505E+02  0.00000000000E+00 0. -1.
</event>
<event>
 4    1  0.1800096E+004  0.2472141E+02  0.7546771E-02  0.1471944E+00
         21   -1    0    0  503  502  0.00000000000E+00  0.00000000000E+00  0.20238811695E+03  0.20238811695E+03  0.00000000000E+00 0.  1.
         21   -1    0    0  501  503 -0.00000000000E+00 -0.00000000000E+00 -0.63470579795E+01  0.63470579795E+01  0.00000000000E+00 0. -1.
          2    1    1    2  501    0 -0.15114718822E+02  0.19562556836E+02  0.22453881780E+02  0.33396484276E+02  0.00000000000E+00 0. -1.
         -2    1    1    2    0  502  0.15114718822E+02 -0.19562556836E+02  0.17358717719E+03  0.17533869065E+03  0.00000000000E+00 0.  1.
</event>
<event>
 4    1  0.1800096E+004  0.2175219E+02  0.7546771E-02  0.1508791E+00
         21   -1    0    0  501  502  0.00000000000E+00  0.00000000000E+00  0.11437945166E+02  0.11437945166E+02  0.00000000000E+00 0.  1.
         21   -1    0    0  502  503 -0.00000000000E+00 -0.00000000000E+00 -0.78205506533E+03  0.78205506533E+03  0.00000000000E+00 0. -1.
          2    1    1    2  501    0 -0.72767614752E+01 -0.20498942493E+02  0.80228780162E+00  0.21766983406E+02  0.00000000000E+00 0.  1.
         -2    1    1    2    0  503  0.72767614752E+01  0.20498942493E+02 -0.77141940796E+03  0.77172602709E+03  0.00000000000E+00 0. -1.
</event>
<event>
 4    1  0.1800096E+004  0.2220780E+02  0.7546771E-02  0.1502693E+00
         21   -1    0    0  501  502  0.00000000000E+00  0.00000000000E+00  0.67664314698E+00  0.67664314698E+00  0.00000000000E+00 0.  1.
         21   -1    0    0  502  503 -0.00000000000E+00 -0.00000000000E+00 -0.12948783657E+04  0.12948783657E+04  0.00000000000E+00 0. -1.
          2    1    1    2  501    0 -0.13500387433E+02  0.17633092496E+02 -0.21882663698E+03  0.21995063870E+03  0.00000000000E+00 0.  1.
         -2    1    1    2    0  503  0.13500387433E+02 -0.17633092496E+02 -0.10753750856E+04  0.10756043702E+04  0.00000000000E+00 0. -1.
</event>
<event>
 4    1  0.1800096E+004  0.3259739E+02  0.7546771E-02  0.1398290E+00
         21   -1    0    0  503  502  0.00000000000E+00  0.00000000000E+00  0.29038532351E+03  0.29038532351E+03  0.00000000000E+00 0. -1.
         21   -1    0    0  501  503 -0.00000000000E+00 -0.00000000000E+00 -0.11445779063E+02  0.11445779063E+02  0.00000000000E+00 0.  1.
          2    1    1    2  501    0 -0.28853024168E+02  0.15168802253E+02  0.14994366340E+02  0.35880643631E+02  0.00000000000E+00 0.  1.
         -2    1    1    2    0  502  0.28853024168E+02 -0.15168802253E+02  0.26394517811E+03  0.26595045894E+03  0.00000000000E+00 0. -1.
</event>
<event>
 4    1  0.1800096E+004  0.2391298E+02  0.7546771E-02  0.1481341E+00
         21   -1    0    0  501  502  0.00000000000E+00  0.00000000000E+00  0.52889663766E+02  0.52889663766E+02  0.00000000000E+00 0.  1.
         21   -1    0    0  502  503 -0.00000000000E+00 -0.00000000000E+00 -0.44444056753E+02  0.44444056753E+02  0.00000000000E+00 0. -1.
          2    1    1    2  501    0 -0.14979896592E+02  0.18639556711E+02  0.46558308250E+02  0.52340294644E+02  0.00000000000E+00 0.  1.
         -2    1    1    2    0  503  0.14979896592E+02 -0.18639556711E+02 -0.38112701238E+02  0.44993425875E+02  0.00000000000E+00 0. -1.
</event>
<event>
 4    1  0.1800096E+004  0.2057951E+02  0.7546771E-02  0.1525354E+00
         21   -1    0    0  503  502  0.00000000000E+00  0.00000000000E+00  0.24976435782E+03  0.24976435782E+03  0.00000000000E+00 0. -1.
         21   -1    0    0  501  503 -0.00000000000E+00 -0.00000000000E+00 -0.64008832110E+01  0.64008832110E+01  0.00000000000E+00 0.  1.
          2    1    1    2  501    0 -0.20509528734E+02  0.16957031425E+01  0.11867100336E+02  0.23755930805E+02  0.00000000000E+00 0.  1.
         -2    1    1    2    0  502  0.20509528734E+02 -0.16957031425E+01  0.23149637427E+03  0.23240931022E+03  0.00000000000E+00 0. -1.
</event>
<event>
 4    1  0.1800096E+004  0.2509111E+02  0.7546771E-02  0.1467787E+00
         21   -1    0    0  501  502  0.00000000000E+00  0.00000000000E+00  0.62075695718E+02  0.62075695718E+02  0.00000000000E+00 0. -1.
         21   -1    0    0  502  503 -0.00000000000E+00 -0.00000000000E+00 -0.20534036542E+02  0.20534036542E+02  0.00000000000E+00 0.  1.
          2    1    1    2  501    0 -0.19316539047E+02  0.16013592413E+02  0.50155243971E+02  0.56081300988E+02  0.00000000000E+00 0. -1.
         -2    1    1    2    0  503  0.19316539047E+02 -0.16013592413E+02 -0.86135847953E+01  0.26528431272E+02  0.00000000000E+00 0.  1.
</event>
<event>
 4    1  0.1800096E+004  0.2108155E+02  0.7546771E-02  0.1518104E+00
         21   -1    0    0  501  502  0.00000000000E+00  0.00000000000E+00  0.21789698807E+02  0.21789698807E+02  0.00000000000E+00 0. -1.
         21   -1    0    0  502  503 -0.00000000000E+00 -0.00000000000E+00 -0.39889288882E+02  0.39889288882E+02  0.00000000000E+00 0.  1.
          2    1    1    2  501    0  0.17872934071E+02  0.11179893769E+02  0.12508628590E+02  0.24513212482E+02  0.00000000000E+00 0. -1.
         -2    1    1    2    0  503 -0.17872934071E+02 -0.11179893769E+02 -0.30608218664E+02  0.37165775208E+02  0.00000000000E+00 0.  1.
</event>
<event>
 4    1  0.1800096E+004  0.3351856E+02  0.7546771E-02  0.1391288E+00
         21   -1    0    0  503  502  0.00000000000E+00  0.00000000000E+00  0.11017289702E+03  0.11017289702E+03  0.00000000000E+00 0. -1.
         21   -1    0    0  501  503 -0.00000000000E+00 -0.00000000000E+00 -0.12521203513E+02  0.12521203513E+02  0.00000000000E+00 0.  1.
          2    1    1    2  501    0 -0.29873107185E+02 -0.15201687826E+02  0.22398342781E+02  0.40313516405E+02  0.00000000000E+00 0.  1.
         -2    1    1    2    0  502  0.29873107185E+02  0.15201687826E+02  0.75253350730E+02  0.82380584131E+02  0.00000000000E+00 0. -1.
</event>
<event>
 4    1  0.1800096E+004  0.2902813E+02  0.7546771E-02  0.1428234E+00
         21   -1    0    0  503  502  0.00000000000E+00  0.00000000000E+00  0.17401640174E+02  0.17401640174E+02  0.00000000000E+00 0. -1.
         21   -1    0    0  501  503 -0.00000000000E+00 -0.00000000000E+00 -0.56526869587E+02  0.56526869587E+02  0.00000000000E+00 0.  1.
          2    1    1    2  501    0 -0.65317815794E+01  0.28283711743E+02 -0.33558863223E+02  0.44371497850E+02  0.00000000000E+00 0.  1.
         -2    1    1    2    0  502  0.65317815794E+01 -0.28283711743E+02 -0.55663661891E+01  0.29557011911E+02  0.00000000000E+00 0. -1.
</event>
<event>
 4    1  0.1800096E+004  0.2036555E+02  0.7546771E-02  0.1528519E+00
         21   -1    0    0  503  502  0.00000000000E+00  0.00000000000E+00  0.73156509922E+03  0.73156509922E+03  0.00000000000E+00 0. -1.
         21   -1    0    0  501  503 -0.00000000000E+00 -0.00000000000E+00 -0.46663105557E+01  0.46663105557E+01  0.00000000000E+00 0.  1.
          2    1    1    2  501    0 -0.20251649200E+02  0.21508669831E+01  0.18420099899E+02  0.27460072913E+02  0.00000000000E+00 0.  1.
         -2    1    1    2    0  502  0.20251649200E+02 -0.21508669831E+01  0.70847868877E+03  0.70877133686E+03  0.00000000000E+00 0. -1.
</event>
<event>
 4    1  0.1800096E+004  0.2279011E+02  0.7546771E-02  0.1495151E+00
         21   -1    0    0  503  502  0.00000000000E+00  0.00000000000E+00  0.47370087093E+01  0.47370087093E+01  0.00000000000E+00 0.  1.
         21   -1    0    0  501  503 -0.00000000000E+00 -0.00000000000E+00 -0.19569621739E+03  0.19569621739E+03  0.00000000000E+00 0. -1.
          2    1    1    2  501    0 -0.21639715489E+02 -0.71492401761E+01 -0.29024670939E+02  0.36902851443E+02  0.00000000000E+00 0. -1.
         -2    1    1    2    0  502  0.21639715489E+02  0.71492401761E+01 -0.16193453774E+03  0.16353037465E+03  0.00000000000E+00 0.  1.
</event>
<event>
 4    1  0.1800096E+004  0.2131735E+02  0.7546771E-02  0.1514782E+00
         21   -1    0    0  501  502  0.00000000000E+00  0.00000000000E+00  0.70628712223E+01  0.70628712223E+01  0.00000000000E+00 0. -1.
         21   -1    0    0  502  503 -0.00000000000E+00 -0.00000000000E+00 -0.91942251429E+02  0.91942251429E+02  0.00000000000E+00 0.  1.
          2    1    1    2  501    0 -0.17134488170E+02  0.12682220560E+02 -0.15316697703E+02  0.26249392978E+02  0.00000000000E+00 0. -1.
         -2    1    1    2    0  503  0.17134488170E+02 -0.12682220560E+02 -0.69562682505E+02  0.72755729674E+02  0.00000000000E+00 0.  1.
</event>
<event>
 4    1  0.1800096E+004  0.2334207E+02  0.7546771E-02  0.1488247E+00
         21   -1    0    0  501  502  0.00000000000E+00  0.00000000000E+00  0.18297054915E+03  0.18297054915E+03  0.00000000000E+00 0.  1.
         21   -1    0    0  502  503 -0.00000000000E+00 -0.00000000000E+00 -0.93084061768E+01  0.93084061768E+01  0.00000000000E+00 0. -1.
          2    1    1    2  501    0 -0.22176965167E+02  0.72824856053E+01  0.16611519723E+03  0.16774716430E+03  0.00000000000E+00 0.  1.
         -2    1    1    2    0  503  0.22176965167E+02 -0.72824856053E+01  0.75469457370E+01  0.24531791019E+02  0.00000000000E+00 0. -1.
</event>
<event>
 4    1  0.1800096E+004  0.2904919E+02  0.7546771E-02  0.1428043E+00
         21   -1    0    0  503  502  0.00000000000E+00  0.00000000000E+00  0.19290126071E+03  0.19290126071E+03  0.00000000000E+00 0.  1.
         21   -1    0    0  501  503 -0.00000000000E+00 -0.00000000000E+00 -0.75574324568E+01  0.75574324568E+01  0.00000000000E+00 0. -1.
          2    1    1    2  501    0  0.15563762979E+02 -0.24528037380E+02  0.27626247143E+02  0.40088213568E+02  0.00000000000E+00 0. -1.
         -2    1    1    2    0  502 -0.15563762979E+02  0.24528037380E+02  0.15771758111E+03  0.16037047960E+03  0.00000000000E+00 0.  1.
</event>
<event>
 4    1  0.1800096E+004  0.2431386E+02  0.7546771E-02  0.1476628E+00
         21   -1    0    0  503  502  0.00000000000E+00  0.00000000000E+00  0.22177218457E+02  0.22177218457E+02  0.00000000000E+00 0.  1.
         21   -1    0    0  501  503 -0.00000000000E+00 -0.00000000000E+00 -0.54681431860E+02  0.54681431860E+02  0.00000000000E+00 0. -1.
          2    1    1    2  501    0 -0.22028526523E+02  0.10291146702E+02 -0.43763733366E+02  0.50064239127E+02  0.00000000000E+00 0. -1.
         -2    1    1    2    0  502  0.22028526523E+02 -0.10291146702E+02  0.11259519963E+02  0.26794411190E+02  0.00000000000E+00 0.  1.
</event>
<event>
 4    1  0.1800096E+004  0.3770027E+02  0.7546771E-02  0.1362516E+00
         21   -1    0    0  501  502  0.00000000000E+00  0.00000000000E+00  0.98277883112E+02  0.98277883112E+02  0.00000000000E+00 0.  1.
         21   -1    0    0  502  503 -0.00000000000E+00 -0.00000000000E+00 -0.15263853011E+02  0.15263853011E+02  0.00000000000E+00 0. -1.
          2    1    1    2  501    0 -0.18153314772E+02 -0.33041904109E+02  0.28496392948E+02  0.47258382065E+02  0.00000000000E+00 0. -1.
         -2    1    1    2    0  503  0.18153314772E+02  0.33041904109E+02  0.54517637153E+02  0.66283354057E+02  0.00000000000E+00 0.  1.
</event>
<event>
 4    1  0.1800096E+004  0.2079881E+02  0.7546771E-02  0.1522157E+00
         21   -1    0    0  501  502  0.00000000000E+00  0.00000000000E+00  0.22779188526E+03  0.22779188526E+03  0.00000000000E+00 0.  1.
         21   -1    0    0  502  503 -0.00000000000E+00 -0.00000000000E+00 -0.19204559439E+01  0.19204559439E+01  0.00000000000E+00 0. -1.
          2    1    1    2  501    0 -0.20754449899E+02 -0.13577146303E+01  0.10081264925E+03  0.10293580927E+03  0.00000000000E+00 0.  1.
         -2    1    1    2    0  503  0.20754449899E+02  0.13577146303E+01  0.12505878006E+03  0.12677653194E+03  0.00000000000E+00 0. -1.
</event>
<event>
 4    1  0.1800096E+004  0.2302713E+02  0.7546771E-02  0.1492158E+00
         21   -1    0    0  501  502  0.00000000000E+00  0.00000000000E+00  0.20956789419E+02  0.20956789419E+02  0.00000000000E+00 0. -1.
         21   -1    0    0  502  503 -0.00000000000E+00 -0.00000000000E+00 -0.25780383717E+02  0.25780383717E+02  0.00000000000E+00 0.  1.
          2    1    1    2  501    0  0.16988320847E+02  0.15544956919E+02  0.77148385901E+00  0.23040050307E+02  0.00000000000E+00 0.  1.
         -2    1    1    2    0  503 -0.16988320847E+02 -0.15544956919E+02 -0.55950781575E+01  0.23697122829E+02  0.00000000000E+00 0. -1.
</event>
<event>
 4    1  0.1800096E+004  0.2723849E+02  0.7546771E-02  0.1445227E+00
         21   -1    0    0  501  502  0.00000000000E+00  0.00000000000E+00  0.55101245761E+01  0.55101245761E+01  0.00000000000E+00 0. -1.
         21   -1    0    0  502  503 -0.00000000000E+00 -0.00000000000E+00 -0.20556226603E+03  0.20556226603E+03  0.00000000000E+00 0.  1.
          2    1    1    2  501    0 -0.12155622814E+02  0.24375733468E+02 -0.38040310516E+02  0.46786758514E+02  0.00000000000E+00 0. -1.
         -2    1    1    2    0  503  0.12155622814E+02 -0.24375733468E+02 -0.16201183093E+03  0.16428563209E+03  0.00000000000E+00 0.  1.
</event>
<event>
 4    1  0.1800096E+004  0.2426932E+02  0.7546771E-02  0.1477146E+00
         21   -1    0    0  503  502  0.00000000000E+00  0.00000000000E+00  0.43536685020E+01  0.43536685020E+01  0.00000000000E+00 0. -1.
         21   -1    0    0  501  503 -0.00000000000E+00 -0.00000000000E+00 -0.15572193181E+03  0.15572193181E+03  0.00000000000E+00 0.  1.
          2    1    1    2  501    0  0.17263338614E+02 -0.17058049041E+02 -0.46691056144E+02  0.52621807466E+02  0.00000000000E+00 0. -1.
         -2    1    1    2    0  502 -0.17263338614E+02  0.17058049041E+02 -0.10467720716E+03  0.10745379284E+03  0.00000000000E+00 0.  1.
</event>
<event>
 4    1  0.1800096E+004  0.2257947E+02  0.7546771E-02  0.1497847E+00
         21   -1    0    0  501  502  0.00000000000E+00  0.00000000000E+00  0.82944714577E+01  0.82944714577E+01  0.00000000000E+00 0.  1.
         21   -1    0    0  502  503 -0.00000000000E+00 -0.00000000000E+00 -0.13151209240E+03  0.13151209240E+03  0.00000000000E+00 0. -1.
          2    1    1    2  501    0  0.72131382533E+01  0.21396328979E+02 -0.10592965872E+02  0.24940793556E+02  0.00000000000E+00 0.  1.
         -2    1    1    2    0  503 -0.72131382533E+01 -0.21396328979E+02 -0.11262465507E+03  0.11486577030E+03  0.00000000000E+00 0. -1.
</event>
<event>
 4    1  0.1800096E+004  0.2738453E+02  0.7546771E-02  0.1443783E+00
         21   -1    0    0  503  502  0.00000000000E+00  0.00000000000E+00  0.83965858993E+02  0.83965858993E+02  0.00000000000E+00 0.  1.
         21   -1    0    0  501  503 -0.00000000000E+00 -0.00000000000E+00 -0.90940275464E+01  0.90940275464E+01  0.00000000000E+00 0. -1.
          2    1    1    2  501    0 -0.16568552028E+02  0.21803570674E+02  0.31209039255E+02  0.41520076369E+02  0.00000000000E+00 0.  1.
         -2    1    1    2    0  502  0.16568552028E+02 -0.21803570674E+02  0.43662792191E+02  0.51539810171E+02  0.00000000000E+00 0. -1.
</event>
<event>
 4    1  0.1800096E+004  0.2040234E+02  0.7546771E-02  0.1527971E+00
         21   -1    0    0  503  502  0.00000000000E+00  0.00000000000E+00  0.18835188702E+02  0.18835188702E+02  0.00000000000E+00 0.  1.
         21   -1    0    0  501  503 -0.00000000000E+00 -0.00000000000E+00 -0.26050027072E+02  0.26050027072E+02  0.00000000000E+00 0. -1.
          2    1    1    2  501    0 -0.25660942041E+01 -0.20240323323E+02 -0.12346696524E+02  0.23847357144E+02  0.00000000000E+00 0. -1.
         -2    1    1    2    0  502  0.25660942041E+01  0.20240323323E+02  0.51318581540E+01  0.21037858631E+02  0.00000000000E+00 0.  1.
</event>
<event>
 4    1  0.1800096E+004  0.2063987E+02  0.7546771E-02  0.1524469E+00
         21   -1    0    0  501  502  0.00000000000E+00  0.00000000000E+00  0.46547341872E+02  0.46547341872E+02  0.00000000000E+00 0.  1.
         21   -1    0    0  502  503 -0.00000000000E+00 -0.00000000000E+00 -0.13751241933E+02  0.13751241933E+02  0.00000000000E+00 0. -1.
          2    1    1    2  501    0 -0.15711140947E+02  0.13385226575E+02  0.33834026380E+02  0.39632632784E+02  0.00000000000E+00 0.  1.
         -2    1    1    2    0  503  0.15711140947E+02 -0.13385226575E+02 -0.10379264410E+01  0.20665951021E+02  0.00000000000E+00 0. -1.
</event>
<event>
 4    1  0.1800096E+004  0.2714769E+02  0.7546771E-02  0.1446130E+00
         21   -1    0    0  503  502  0.00000000000E+00  0.00000000000E+00  0.19588867280E+03  0.19588867280E+03  0.00000000000E+00 0.  1.
         21   -1    0    0  501  503 -0.00000000000E+00 -0.00000000000E+00 -0.45038545342E+01  0.45038545342E+01  0.00000000000E+00 0. -1.
          2    1    1    2  501    0  0.25177836410E+02 -0.10152516112E+02  0.55036534491E+02  0.61367883770E+02  0.00000000000E+00 0. -1.
         -2    1    1    2    0  502 -0.25177836410E+02  0.10152516112E+02  0.13634828377E+03  0.13902464356E+03  0.00000000000E+00 0.  1.
</event>
<event>
 4    1  0.1800096E+004  0.2116469E+02  0.7546771E-02  0.1516926E+00
         21   -1    0    0  501  502  0.00000000000E+00  0.00000000000E+00  0.81493397329E+01  0.81493397329E+01  0.00000000000E+00 0.  1.
         21   -1    0    0  502  503 -0.00000000000E+00 -0.00000000000E+00 -0.56449739043E+02  0.56449739043E+02  0.00000000000E+00 0. -1.
          2    1    1    2  501    0  0.58779290869E+01  0.20332099290E+02 -0.29385067501E+02  0.36213623181E+02  0.00000000000E+00 0.  1.
         -2    1    1    2    0  503 -0.58779290869E+01 -0.20332099290E+02 -0.18915331809E+02  0.28385455595E+02  0.00000000000E+00 0. -1.
</event>
<event>
 4    1  0.1800096E+004  0.2024080E+02  0.7546771E-02  0.1530386E+00
         21   -1    0    0  501  502  0.00000000000E+00  0.00000000000E+00  0.46495073203E+01  0.46495073203E+01  0.00000000000E+00 0. -1.
         21   -1    0    0  502  503 -0.00000000000E+00 -0.00000000000E+00 -0.88912779275E+02  0.88912779275E+02  0.00000000000E+00 0.  1.
          2    1    1    2  501    0 -0.31377352586E+01 -0.19996117982E+02 -0.46563654414E+02  0.50772670102E+02  0.00000000000E+00 0. -1.
         -2    1    1    2    0  503  0.31377352586E+01  0.19996117982E+02 -0.37699617541E+02  0.42789616493E+02  0.00000000000E+00 0.  1.
</event>
<event>
 4    1  0.1800096E+004  0.2023952E+02  0.7546771E-02  0.1530405E+00
         21   -1    0    0  501  502  0.00000000000E+00  0.00000000000E+00  0.37998177236E+01  0.37998177236E+01  0.00000000000E+00 0.  1.
         21   -1    0    0  502  503 -0.00000000000E+00 -0.00000000000E+00 -0.14962513561E+03  0.14962513561E+03  0.00000000000E+00 0. -1.
          2    1    1    2  501    0  0.20238830430E+02 -0.16714604171E+00 -0.32356387419E+02  0.38165088782E+02  0.00000000000E+00 0.  1.
         -2    1    1    2    0  503 -0.20238830430E+02  0.16714604171E+00 -0.11346893047E+03  0.11525986455E+03  0.00000000000E+00 0. -1.
</event>
<event>
 4    1  0.1800096E+004  0.2091572E+02  0.7546771E-02  0.1520472E+00
         21   -1    0    0  501  502  0.00000000000E+00  0.00000000000E+00  0.20333005883E+01  0.20333005883E+01  0.00000000000E+00 0.  1.
         21   -1    0    0  502  503 -0.00000000000E+00 -0.00000000000E+00 -0.31061998598E+03  0.31061998598E+03  0.00000000000E+00 0. -1.
          2    1    1    2  501    0 -0.91926337689E+01  0.18787302714E+02 -0.67627336423E+02  0.70787879546E+02  0.00000000000E+00 0.  1.
         -2    1    1    2    0  503  0.91926337689E+01 -0.18787302714E+02 -0.24095934897E+03  0.24186540703E+03  0.00000000000E+00 0. -1.
</event>
<event>
 4    1  0.1800096E+004  0.2509013E+02  0.7546771E-02  0.1467798E+00
         21   -1    0    0  503  502  0.00000000000E+00  0.00000000000E+00  0.15655718187E+03  0.15655718187E+03  0.00000000000E+00 0. -1.
         21   -1    0    0  501  503 -0.00000000000E+00 -0.00000000000E+00 -0.41991245425E+01  0.41991245425E+01  0.00000000000E+00 0.  1.
          2    1    1    2  501    0  0.22666898792E+02 -0.10757614709E+02  0.59623808643E+02  0.64687812857E+02  0.00000000000E+00 0.  1.
         -2    1    1    2    0  502 -0.22666898792E+02  0.10757614709E+02  0.92734248688E+02  0.96068493560E+02  0.00000000000E+00 0. -1.
</event>
<event>
 4    1  0.1800096E+004  0.2080152E+02  0.7546771E-02  0.1522118E+00
         21   -1    0    0  503  502  0.00000000000E+00  0.00000000000E+00  0.45283661830E+02  0.45283661830E+02  0.00000000000E+00 0.  1.
         21   -1    0    0  501  503 -0.00000000000E+00 -0.00000000000E+00 -0.96419558465E+01  0.96419558465E+01  0.00000000000E+00 0. -1.
          2    1    1    2  501    0 -0.20586663383E+02 -0.29820111070E+01  0.20423006424E+02  0.29151368594E+02  0.00000000000E+00 0.  1.
         -2    1    1    2    0  502  0.20586663383E+02  0.29820111070E+01  0.15218699560E+02  0.25774249083E+02  0.00000000000E+00 0. -1.
</event>
<event>
 4    1  0.1800096E+004  0.2062788E+02  0.7546771E-02  0.1524645E+00
         21   -1    0    0  501  502  0.00000000000E+00  0.00000000000E+00  0.39537759452E+02  0.39537759452E+02  0.00000000000E+00 0. -1.
         21   -1    0    0  502  503 -0.00000000000E+00 -0.00000000000E+00 -0.93601625223E+02  0.93601625223E+02  0.00000000000E+00 0.  1.
          2    1    1    2  501    0  0.59496632788E+01 -0.19751221635E+02  0.35593920996E+02  0.41139232626E+02  0.00000000000E+00 0. -1.
         -2    1    1    2    0  503 -0.59496632788E+01  0.19751221635E+02 -0.89657786767E+02  0.92000152050E+02  0.00000000000E+00 0.  1.
</event>
<event>
 4    1  0.1800096E+004  0.2627784E+02  0.7546771E-02  0.1455000E+00
         21   -1    0    0  503  502  0.00000000000E+00  0.00000000000E+00  0.13167916686E+03  0.13167916686E+03  0.00000000000E+00 0. -1.
         21   -1    0    0  501  503 -0.00000000000E+00 -0.00000000000E+00 -0.13055231666E+02  0.13055231666E+02  0.00000000000E+00 0.  1.
          2    1    1    2  501    0 -0.26104738214E+02  0.30112671348E+01  0.33350048065E+01  0.26488626692E+02  0.00000000000E+00 0.  1.
         -2    1    1    2    0  502  0.26104738214E+02 -0.30112671348E+01  0.11528893039E+03  0.11824577183E+03  0.00000000000E+00 0. -1.
</event>
<event>
 4    1  0.1800096E+004  0.2150311E+02  0.7546771E-02  0.1512202E+00
         21   -1    0    0  501  502  0.00000000000E+00  0.00000000000E+00  0.33131642415E+03  0.33131642415E+03  0.00000000000E+00 0. -1.
         21   -1    0    0  502  503 -0.00000000000E+00 -0.00000000000E+00 -0.25329939694E+01  0.25329939694E+01  0.00000000000E+00 0.  1.
          2    1    1    2  501    0 -0.21428766540E+02  0.17865540102E+01  0.27624785091E+03  0.27708348732E+03  0.00000000000E+00 0. -1.
         -2    1    1    2    0  503  0.21428766540E+02 -0.17865540102E+01  0.52535579266E+02  0.56765930799E+02  0.00000000000E+00 0.  1.
</event>
<event>
 4    1  0.1800096E+004  0.2105430E+02  0.7546771E-02  0.1518491E+00
         21   -1    0    0  501  502  0.00000000000E+00  0.00000000000E+00  0.76121099365E+01  0.76121099365E+01  0.00000000000E+00 0. -1.
         21   -1    0    0  502  503 -0.00000000000E+00 -0.00000000000E+00 -0.88635265614E+02  0.88635265614E+02  0.00000000000E+00 0.  1.
          2    1    1    2  501    0  0.16399787313E+02  0.13203431752E+02 -0.12327655422E+02  0.24397842571E+02  0.00000000000E+00 0.  1.
         -2    1    1    2    0  503 -0.16399787313E+02 -0.13203431752E+02 -0.68695500255E+02  0.71849532979E+02  0.00000000000E+00 0. -1.
</event>
<event>
 4    1  0.1800096E+004  0.2515200E+02  0.7546771E-02  0.1467110E+00
         21   -1    0    0  501  502  0.00000000000E+00  0.00000000000E+00  0.62289684717E+01  0.62289684717E+01  0.00000000000E+00 0. -1.
         21   -1    0    0  502  503 -0.00000000000E+00 -0.00000000000E+00 -0.17939072486E+03  0.17939072486E+03  0.00000000000E+00 0.  1.
          2    1    1    2  501    0  0.25131515817E+02  0.10148122428E+01 -0.25449298704E+02  0.35781136590E+02  0.00000000000E+00 0. -1.
         -2    1    1    2    0  503 -0.25131515817E+02 -0.10148122428E+01 -0.14771245768E+03  0.14983855674E+03  0.00000000000E+00 0.  1.
</event>
<event>
 4    1  0.1800096E+004  0.2094625E+02  0.7546771E-02  0.1520034E+00
         21   -1    0    0  501  502  0.00000000000E+00  0.00000000000E+00  0.30631943754E+03  0.30631943754E+03  0.00000000000E+00 0.  1.
         21   -1    0    0  502  503 -0.00000000000E+00 -0.00000000000E+00 -0.35042832421E+01  0.35042832421E+01  0.00000000000E+00 0. -1.
          2    1    1    2  501    0  0.17725573560E+02  0.11160163900E+02  0.27052543054E+03  0.27133513186E+03  0.00000000000E+00 0.  1.
         -2    1    1    2    0  503 -0.17725573560E+02 -0.11160163900E+02  0.32289723757E+02  0.38488588914E+02  0.00000000000E+00 0. -1.
</event>
<event>
 4    1  0.1800096E+004  0.3035663E+02  0.7546771E-02  0.1416522E+00
         21   -1    0    0  503  502  0.00000000000E+00  0.00000000000E+00  0.31898195950E+03  0.31898195950E+03  0.00000000000E+00 0. -1.
         21   -1    0    0  501  503 -0.00000000000E+00 -0.00000000000E+00 -0.19551601592E+02  0.19551601592E+02  0.00000000000E+00 0.  1.
          2    1    1    2  501    0  0.27982294175E+02 -0.11769297759E+02 -0.65465158751E+01  0.31054500916E+02  0.00000000000E+00 0.  1.
         -2    1    1    2    0  502 -0.27982294175E+02  0.11769297759E+02  0.30597687378E+03  0.30747906018E+03  0.00000000000E+00 0. -1.
</event>
<event>
 4    1  0.1800096E+004  0.2424429E+02  0.7546771E-02  0.1477438E+00
         21   -1    0    0  501  502  0.00000000000E+00  0.00000000000E+00  0.52342576793E+03  0.52342576793E+03  0.00000000000E+00 0. -1.
         21   -1    0    0  502  503 -0.00000000000E+00 -0.00000000000E+00 -0.15439434998E+01  0.15439434998E+01  0.00000000000E+00 0.  1.
          2    1    1    2  501    0  0.63644440283E+01 -0.23394004933E+02  0.39800436378E+03  0.39874209610E+03  0.00000000000E+00 0. -1.
         -2    1    1    2    0  503 -0.63644440283E+01  0.23394004933E+02  0.12387746065E+03  0.12622761533E+03  0.00000000000E+00 0.  1.
</event>
<event>
 4    1  0.1800096E+004  0.2200151E+02  0.7546771E-02  0.1505432E+00
         21   -1    0    0  501  502  0.00000000000E+00  0.00000000000E+00  0.10058185024E+03  0.10058185024E+03  0.00000000000E+00 0. -1.
         21   -1    0    0  502  503 -0.00000000000E+00 -0.00000000000E+00 -0.22184760056E+02  0.22184760056E+02  0.00000000000E+00 0.  1.
          2    1    1    2  501    0 -0.21519512205E+02  0.45800645337E+01  0.93517204581E+02  0.96070463460E+02  0.00000000000E+00 0. -1.
         -2    1    1    2    0  503  0.21519512205E+02 -0.45800645337E+01 -0.15120114396E+02  0.26696146838E+02  0.00000000000E+00 0.  1.
</event>
<event>
 4    1  0.1800096E+004  0.2618640E+02  0.7546771E-02  0.1455957E+00
         21   -1    0    0  503  502  0.00000000000E+00  0.00000000000E+00  0.46073684621E+01  0.46073684621E+01  0.00000000000E+00 0.  1.
         21   -1    0    0  501  503 -0.00000000000E+00 -0.00000000000E+00 -0.18106153402E+03  0.18106153402E+03  0.00000000000E+00 0. -1.
          2    1    1    2  501    0  0.83018060980E+00  0.26173237425E+02 -0.12739384647E+03  0.13005737071E+03  0.00000000000E+00 0. -1.
         -2    1    1    2    0  502 -0.83018060980E+00 -0.26173237425E+02 -0.49060319084E+02  0.55611531770E+02  0.00000000000E+00 0.  1.
</event>
<event>
 4    1  0.1800096E+004  0.2298164E+02  0.7546771E-02  0.1492729E+00
         21   -1    0    0  503  502  0.00000000000E+00  0.00000000000E+00  0.13756671730E+03  0.13756671730E+03  0.00000000000E+00 0. -1.
         21   -1    0    0  501  503 -0.00000000000E+00 -0.00000000000E+00 -0.18808938495E+02  0.18808938495E+02  0.00000000000E+00 0.  1.
          2    1    1    2  501    0  0.17882224216E+02 -0.14435440980E+02 -0.10374141475E+02  0.25214652695E+02  0.00000000000E+00 0.  1.
         -2    1    1    2    0  502 -0.17882224216E+02  0.14435440980E+02  0.12913192028E+03  0.13116100310E+03  0.00000000000E+00 0. -1.
</event>
<event>
 4    1  0.1800096E+004  0.2625406E+02  0.7546771E-02  0.1455249E+00
         21   -1    0    0  501  502  0.00000000000E+00  0.00000000000E+00  0.46924875926E+02  0.46924875926E+02  0.00000000000E+00 0. -1.
         21   -1    0    0  502  503 -0.00000000000E+00 -0.00000000000E+00 -0.23194896373E+02  0.23194896373E+02  0.00000000000E+00 0.  1.
          2    1    1    2  501    0  0.13465290124E+02  0.22538003912E+02  0.33096281523E+02  0.42244993894E+02  0.00000000000E+00 0. -1.
         -2    1    1    2    0  503 -0.13465290124E+02 -0.22538003912E+02 -0.93663019700E+01  0.27874778404E+02  0.00000000000E+00 0.  1.
</event>
<event>
 4    1  0.1800096E+004  0.3098644E+02  0.7546771E-02  0.1411213E+00
         21   -1    0    0  501  502  0.00000000000E+00  0.00000000000E+00  0.80766729219E+02  0.80766729219E+02  0.00000000000E+00 0.  1.
         21   -1    0    0  502  503 -0.00000000000E+00 -0.00000000000E+00 -0.13398660417E+02  0.13398660417E+02  0.00000000000E+00 0. -1.
          2    1    1    2  501    0  0.21872750958E+02  0.21948625252E+02  0.49493093529E+02  0.58392856515E+02  0.00000000000E+00 0. -1.
         -2    1    1    2    0  503 -0.21872750958E+02 -0.21948625252E+02  0.17874975273E+02  0.35772533122E+02  0.00000000000E+00 0.  1.
</event>
<event>
 4    1  0.1800096E+004  0.2434052E+02  0.7546771E-02  0.1476318E+00
         21   -1    0    0  503  502  0.00000000000E+00  0.00000000000E+00  0.24164523008E+03  0.24164523008E+03  0.00000000000E+00 0.  1.
         21   -1    0    0  501  503 -0.00000000000E+00 -0.00000000000E+00 -0.24653621929E+01  0.24653621929E+01  0.00000000000E+00 0. -1.
          2    1    1    2  501    0  0.20348441425E+02 -0.13356719019E+02  0.11053059237E+03  0.11317894178E+03  0.00000000000E+00 0.  1.
         -2    1    1    2    0  502 -0.20348441425E+02  0.13356719019E+02  0.12864927552E+03  0.13093165050E+03  0.00000000000E+00 0. -1.
</event>
<event>
 4    1  0.1800096E+004  0.2410472E+02  0.7546771E-02  0.1479073E+00
         21   -1    0    0  501  502  0.00000000000E+00  0.00000000000E+00  0.60932141546E+00  0.60932141546E+00  0.00000000000E+00 0. -1.
         21   -1    0    0  502  503 -0.00000000000E+00 -0.00000000000E+00 -0.10033286302E+04  0.10033286302E+04  0.00000000000E+00 0.  1.
          2    1    1    2  501    0  0.22392673424E+02  0.89222063242E+01 -0.61313334239E+03  0.61360698590E+03  0.00000000000E+00 0.  1.
         -2    1    1    2    0  503 -0.22392673424E+02 -0.89222063242E+01 -0.38958596644E+03  0.39033096576E+03  0.00000000000E+00 0. -1.
</event>
<event>
 4    1  0.1800096E+004  0.2831287E+02  0.7546771E-02  0.1434848E+00
         21   -1    0    0  503  502  0.00000000000E+00  0.00000000000E+00  0.17038904848E+03  0.17038904848E+03  0.00000000000E+00 0.  1.
         21   -1    0    0  501  503 -0.00000000000E+00 -0.00000000000E+00 -0.59428168043E+01  0.59428168043E+01  0.00000000000E+00 0. -1.
          2    1    1    2  501    0  0.13254228849E+02  0.25018869482E+02  0.41979526551E+02  0.50634958892E+02  0.00000000000E+00 0.  1.
         -2    1    1    2    0  502 -0.13254228849E+02 -0.25018869482E+02  0.12246670512E+03  0.12569690639E+03  0.00000000000E+00 0. -1.
</event>
<event>
 4    1  0.1800096E+004  0.4142143E+02  0.7546771E-02  0.1340352E+00
         21   -1    0    0  503  502  0.00000000000E+00  0.00000000000E+00  0.76627581561E+03  0.76627581561E+03  0.00000000000E+00 0.  1.
         21   -1    0    0  501  503 -0.00000000000E+00 -0.00000000000E+00 -0.38963709936E+01  0.38963709936E+01  0.00000000000E+00 0. -1.
          2    1    1    2  501    0 -0.38123887883E+02  0.16195813130E+02  0.13004151089E+03  0.13647904508E+03  0.00000000000E+00 0. -1.
         -2    1    1    2    0  502  0.38123887883E+02 -0.16195813130E+02  0.63233793372E+03  0.63369314152E+03  0.00000000000E+00 0.  1.
</event>
<event>
 4    1  0.1800096E+004  0.2039632E+02  0.7546771E-02  0.1528061E+00
         21   -1    0    0  503  502  0.00000000000E+00  0.00000000000E+00  0.37237812117E+02  0.37237812117E+02  0.00000000000E+00 0.  1.
         21   -1    0    0  501  503 -0.00000000000E+00 -0.00000000000E+00 -0.12425670606E+02  0.12425670606E+02  0.00000000000E+00 0. -1.
          2    1    1    2  501    0  0.19916684928E+02 -0.43972237419E+01  0.45176552965E+01  0.20890646820E+02  0.00000000000E+00 0. -1.
         -2    1    1    2    0  502 -0.19916684928E+02  0.43972237419E+01  0.20294486215E+02  0.28772835903E+02  0.00000000000E+00 0.  1.
</event>
<event>
 4    1  0.1800096E+004  0.2587674E+02  0.7546771E-02  0.1459230E+00
         21   -1    0    0  501  502  0.00000000000E+00  0.00000000000E+00  0.23847333444E+03  0.23847333444E+03  0.00000000000E+00 0. -1.
         21   -1    0    0  502  503 -0.00000000000E+00 -0.00000000000E+00 -0.59664192538E+01  0.59664192538E+01  0.00000000000E+00 0.  1.
          2    1    1    2  501    0  0.13768608354E+02 -0.21909617648E+02  0.20517923885E+03  0.20680455985E+03  0.00000000000E+00 0. -1.
         -2    1    1    2    0  503 -0.13768608354E+02  0.21909617648E+02  0.27327676341E+02  0.37635193844E+02  0.00000000000E+00 0.  1.
</event>
<event>
 4    1  0.1800096E+004  0.2716305E+02  0.7546771E-02  0.1445977E+00
         21   -1    0    0  501  502  0.00000000000E+00  0.00000000000E+00  0.30779294348E+02  0.30779294348E+02  0.00000000000E+00 0. -1.
         21   -1    0    0  502  503 -0.00000000000E+00 -0.00000000000E+00 -0.28624092133E+02  0.28624092133E+02  0.00000000000E+00 0.  1.
          2    1    1    2  501    0  0.10008855847E+02 -0.25251817378E+02  0.13052016342E+02  0.30136134571E+02  0.00000000000E+00 0. -1.
         -2    1    1    2    0  503 -0.10008855847E+02  0.25251817378E+02 -0.10896814127E+02  0.29267251911E+02  0.00000000000E+00 0.  1.
</event>
<event>
 4    1  0.1800096E+004  0.5889788E+02  0.7546771E-02  0.1263624E+00
         21   -1    0    0  503  502  0.00000000000E+00  0.00000000000E+00  0.10386995596E+02  0.10386995596E+02  0.00000000000E+00 0.  1.
         21   -1    0    0  501  503 -0.00000000000E+00 -0.00000000000E+00 -0.41274275924E+03  0.41274275924E+03  0.00000000000E+00 0. -1.
          2    1    1    2  501    0  0.29959701802E+02 -0.50708740863E+02 -0.29360253527E+03  0.29945184729E+03  0.00000000000E+00 0. -1.
         -2    1    1    2    0  502 -0.29959701802E+02  0.50708740863E+02 -0.10875322838E+03  0.12367790755E+03  0.00000000000E+00 0.  1.
</event>
<event>
 4    1  0.1800096E+004  0.3539069E+02  0.7546771E-02  0.1377837E+00
         21   -1    0    0  501  502  0.00000000000E+00  0.00000000000E+00  0.70475218095E+02  0.70475218095E+02  0.00000000000E+00 0. -1.
         21   -1    0    0  502  503 -0.00000000000E+00 -0.00000000000E+00 -0.18076115826E+02  0.18076115826E+02  0.00000000000E+00 0.  1.
          2    1    1    2  501    0  0.15363844994E+02 -0.31881862646E+02  0.31940408606E+02  0.47672744841E+02  0.00000000000E+00 0.  1.
         -2    1    1    2    0  503 -0.15363844994E+02  0.31881862646E+02  0.20458693664E+02  0.40878589080E+02  0.00000000000E+00 0. -1.
</event>
<event>
 4    1  0.1800096E+004  0.2437293E+02  0.7546771E-02  0.1475942E+00
         21   -1    0    0  501  502  0.00000000000E+00  0.00000000000E+00  0.27360706964E+03  0.27360706964E+03  0.00000000000E+00 0. -1.
         21   -1    0    0  502  503 -0.00000000000E+00 -0.00000000000E+00 -0.73284564484E+01  0.73284564484E+01  0.00000000000E+00 0.  1.
          2    1    1    2  501    0  0.22019545314E+02 -0.10448887094E+02  0.25097646055E+03  0.25215714023E+03  0.00000000000E+00 0. -1.
         -2    1    1    2    0  503 -0.22019545314E+02  0.10448887094E+02  0.15302152644E+02  0.28778385863E+02  0.00000000000E+00 0.  1.
</event>
<event>
 4    1  0.1800096E+004  0.2247952E+02  0.7546771E-02  0.1499139E+00
         21   -1    0    0  503  502  0.00000000000E+00  0.00000000000E+00  0.32970084751E+03  0.32970084751E+03  0.00000000000E+00 0.  1.
         21   -1    0    0  501  503 -0.00000000000E+00 -0.00000000000E+00 -0.16036468080E+01  0.16036468080E+01  0.00000000000E+00 0. -1.
          2    1    1    2  501    0  0.20506872195E+02 -0.92085219372E+01  0.12920325889E+03  0.13114423660E+03  0.00000000000E+00 0. -1.
         -2    1    1    2    0  502 -0.20506872195E+02  0.92085219372E+01  0.19889394180E+03  0.20016025772E+03  0.00000000000E+00 0.  1.
</event>
<event>
 4    1  0.1800096E+004  0.2559476E+02  0.7546771E-02  0.1462259E+00
         21   -1    0    0  503  502  0.00000000000E+00  0.00000000000E+00  0.11890540133E+02  0.11890540133E+02  0.00000000000E+00 0.  1.
         21   -1    0    0  501  503 -0.00000000000E+00 -0.00000000000E+00 -0.66908328205E+02  0.66908328205E+02  0.00000000000E+00 0. -1.
          2    1    1    2  501    0 -0.17129589682E+02 -0.19017588852E+02 -0.44065202724E+02  0.50959136762E+02  0.00000000000E+00 0. -1.
         -2    1    1    2    0  502  0.17129589682E+02  0.19017588852E+02 -0.10952585349E+02  0.27839731577E+02  0.00000000000E+00 0.  1.
</event>
<event>
 4    1  0.1800096E+004  0.2034244E+02  0.7546771E-02  0.1528864E+00
         21   -1    0    0  503  502  0.00000000000E+00  0.00000000000E+00  0.46067475316E+02  0.46067475316E+02  0.00000000000E+00 0. -1.
         21   -1    0    0  501  503 -0.00000000000E+00 -0.00000000000E+00 -0.22538390085E+02  0.22538390085E+02  0.00000000000E+00 0.  1.
          2    1    1    2  501    0  0.33975009077E+01  0.20056719839E+02 -0.14838357425E+02  0.25179195265E+02  0.00000000000E+00 0.  1.
         -2    1    1    2    0  502 -0.33975009077E+01 -0.20056719839E+02  0.38367442657E+02  0.43426670136E+02  0.00000000000E+00 0. -1.
</event>
<event>
 4    1  0.1800096E+004  0.2142111E+02  0.7546771E-02  0.1513337E+00
         21   -1    0    0  501  502  0.00000000000E+00  0.00000000000E+00  0.25680736527E+03  0.25680736527E+03  0.00000000000E+00 0. -1.
         21   -1    0    0  502  503 -0.00000000000E+00 -0.00000000000E+00 -0.17887939475E+01  0.17887939475E+01  0.00000000000E+00 0.  1.
          2    1    1    2  501    0 -0.83191550495E+01  0.19739691937E+02  0.12319401230E+03  0.12504250655E+03  0.00000000000E+00 0.  1.
         -2    1    1    2    0  503  0.83191550495E+01 -0.19739691937E+02  0.13182455902E+03  0.13355365266E+03  0.00000000000E+00 0. -1.
</event>
<event>
 4    1  0.1800096E+004  0.2406967E+02  0.7546771E-02  0.1479486E+00
         21   -1    0    0  503  502  0.00000000000E+00  0.00000000000E+00  0.32788393894E+02  0.32788393894E+02  0.00000000000E+00 0. -1.
         21   -1    0    0  501  503 -0.00000000000E+00 -0.00000000000E+00 -0.28052601957E+02  0.28052601957E+02  0.00000000000E+00 0.  1.
          2    1    1    2  501    0 -0.22021573242E+02 -0.97159382410E+01 -0.16139560463E+02  0.28979899170E+02  0.00000000000E+00 0.  1.
         -2    1    1    2    0  502  0.22021573242E+02  0.97159382410E+01  0.20875352399E+02  0.31861096681E+02  0.00000000000E+00 0. -1.
</event>
<event>
 4    1  0.1800096E+004  0.2214459E+02  0.7546771E-02  0.1503528E+00
         21   -1    0    0  503  502  0.00000000000E+00  0.00000000000E+00  0.66477488263E+02  0.66477488263E+02  0.00000000000E+00 0.  1.
         21   -1    0    0  501  503 -0.00000000000E+00 -0.00000000000E+00 -0.26699920305E+02  0.26699920305E+02  0.00000000000E+00 0. -1.
          2    1    1    2  501    0  0.91206007882E+01  0.20179132859E+02 -0.19745014239E+02  0.29668979575E+02  0.00000000000E+00 0. -1.
         -2    1    1    2    0  502 -0.91206007882E+01 -0.20179132859E+02  0.59522582197E+02  0.63508428993E+02  0.00000000000E+00 0.  1.
</event>
<event>
 4    1  0.1800096E+004  0.3112773E+02  0.7546771E-02  0.1410043E+00
         21   -1    0    0  503  502  0.00000000000E+00  0.00000000000E+00  0.89156916154E+02  0.89156916154E+02  0.00000000000E+00 0.  1.
         21   -1    0    0  501  503 -0.00000000000E+00 -0.00000000000E+00 -0.10495699361E+03  0.10495699361E+03  0.00000000000E+00 0. -1.
          2    1    1    2  501    0 -0.24888545559E+02 -0.18694803546E+02 -0.99794841707E+02  0.10453681558E+03  0.00000000000E+00 0. -1.
         -2    1    1    2    0  502  0.24888545559E+02  0.18694803546E+02  0.83994764256E+02  0.89577094182E+02  0.00000000000E+00 0.  1.
</event>
<event>
 4    1  0.1800096E+004  0.2201949E+02  0.7546771E-02  0.1505192E+00
         21   -1    0    0  501  502  0.00000000000E+00  0.00000000000E+00  0.53553638597E+02  0.53553638597E+02  0.00000000000E+00 0. -1.
         21   -1    0    0  502  503 -0.00000000000E+00 -0.00000000000E+00 -0.11866498771E+02  0.11866498771E+02  0.00000000000E+00 0.  1.
          2    1    1    2  501    0  0.20146677630E+02  0.88864793546E+01  0.49181780642E+01  0.22562061305E+02  0.00000000000E+00 0.  1.
         -2    1    1    2    0  503 -0.20146677630E+02 -0.88864793546E+01  0.36768961761E+02  0.42858076063E+02  0.00000000000E+00 0. -1.
</event>
<event>
 4    1  0.1800096E+004  0.2480143E+02  0.7546771E-02  0.1471037E+00
         21   -1    0    0  503  502  0.00000000000E+00  0.00000000000E+00  0.17111268915E+03  0.17111268915E+03  0.00000000000E+00 0.  1.
         21   -1    0    0  501  503 -0.00000000000E+00 -0.00000000000E+00 -0.59573510445E+01  0.59573510445E+01  0.00000000000E+00 0. -1.
          2    1    1    2  501    0  0.21259620875E+02 -0.12772609497E+02  0.26822940488E+02  0.36531919872E+02  0.00000000000E+00 0. -1.
         -2    1    1    2    0  502 -0.21259620875E+02  0.12772609497E+02  0.13833239762E+03  0.14053812032E+03  0.00000000000E+00 0.  1.
</event>
<event>
 4    1  0.1800096E+004  0.2057926E+02  0.7546771E-02  0.1525357E+00
         21   -1    0    0  501  502  0.00000000000E+00  0.00000000000E+00  0.55076423230E+03  0.55076423230E+03  0.00000000000E+00 0. -1.
         21   -1    0    0  502  503 -0.00000000000E+00 -0.00000000000E+00 -0.77201305417E+00  0.77201305417E+00  0.00000000000E+00 0.  1.
          2    1    1    2  501    0  0.13894864495E+02 -0.15180208595E+02  0.25760431464E+03  0.25842501603E+03  0.00000000000E+00 0. -1.
         -2    1    1    2    0  503 -0.13894864495E+02  0.15180208595E+02  0.29238790461E+03  0.29311122932E+03  0.00000000000E+00 0.  1.
</event>
<event>
 4    1  0.1800096E+004  0.7343585E+02  0.7546771E-02  0.1219965E+00
         21   -1    0    0  503  502  0.00000000000E+00  0.00000000000E+00  0.40417978236E+02  0.40417978236E+02  0.00000000000E+00 0.  1.
         21   -1    0    0  501  503 -0.00000000000E+00 -0.00000000000E+00 -0.18476479462E+03  0.18476479462E+03  0.00000000000E+00 0. -1.
          2    1    1    2  501    0  0.64636566916E+02  0.34855962585E+02 -0.13152287830E+03  0.15063562469E+03  0.00000000000E+00 0. -1.
         -2    1    1    2    0  502 -0.64636566916E+02 -0.34855962585E+02 -0.12823938079E+02  0.74547148157E+02  0.00000000000E+00 0.  1.
</event>
<event>
 4    1  0.1800096E+004  0.2114941E+02  0.7546771E-02  0.1517142E+00
         21   -1    0    0  501  502  0.00000000000E+00  0.00000000000E+00  0.21144929821E+03  0.21144929821E+03  0.00000000000E+00 0.  1.
         21   -1    0    0  502  503 -0.00000000000E+00 -0.00000000000E+00 -0.31820686139E+01  0.31820686139E+01  0.00000000000E+00 0. -1.
          2    1    1    2  501    0  0.94926084625E+01  0.18899411017E+02  0.16626708131E+03  0.16760680082E+03  0.00000000000E+00 0.  1.
         -2    1    1    2    0  503 -0.94926084625E+01 -0.18899411017E+02  0.42000148283E+02  0.47024566005E+02  0.00000000000E+00 0. -1.
</event>
<event>
 4    1  0.1800096E+004  0.2088954E+02  0.7546771E-02  0.1520848E+00
         21   -1    0    0  501  502  0.00000000000E+00  0.00000000000E+00  0.85883071898E+01  0.85883071898E+01  0.00000000000E+00 0. -1.
         21   -1    0    0  502  503 -0.00000000000E+00 -0.00000000000E+00 -0.59298978925E+02  0.59298978925E+02  0.00000000000E+00 0.  1.
          2    1    1    2  501    0  0.19666269780E+02  0.70434760757E+01 -0.12512524967E+02  0.24350277274E+02  0.00000000000E+00 0. -1.
         -2    1    1    2    0  503 -0.19666269780E+02 -0.70434760757E+01 -0.38198146769E+02  0.43537008841E+02  0.00000000000E+00 0.  1.
</event>
<event>
 4    1  0.1800096E+004  0.3088693E+02  0.7546771E-02  0.1412042E+00
         21   -1    0    0  503  502  0.00000000000E+00  0.00000000000E+00  0.58172309737E+00  0.58172309737E+00  0.00000000000E+00 0. -1.
         21   -1    0    0  501  503 -0.00000000000E+00 -0.00000000000E+00 -0.17219788941E+04  0.17219788941E+04  0.00000000000E+00 0.  1.
          2    1    1    2  501    0 -0.17189949037E+02 -0.25661414708E+02 -0.67272889561E+03  0.67343757657E+03  0.00000000000E+00 0. -1.
         -2    1    1    2    0  502  0.17189949037E+02  0.25661414708E+02 -0.10486682754E+04  0.10491230407E+04  0.00000000000E+00 0.  1.
</event>
<event>
 4    1  0.1800096E+004  0.3408624E+02  0.7546771E-02  0.1387103E+00
         21   -1    0    0  503  502  0.00000000000E+00  0.00000000000E+00  0.16106209214E+03  0.16106209214E+03  0.00000000000E+00 0. -1.
         21   -1    0    0  501  503 -0.00000000000E+00 -0.00000000000E+00 -0.10621740050E+02  0.10621740050E+02  0.00000000000E+00 0.  1.
          2    1    1    2  501    0  0.33599576568E+02 -0.57393813889E+01  0.26596630624E+02  0.43234856364E+02  0.00000000000E+00 0.  1.
         -2    1    1    2    0  502 -0.33599576568E+02  0.57393813889E+01  0.12384372147E+03  0.12844897583E+03  0.00000000000E+00 0. -1.
</event>
<event>
 4    1  0.1800096E+004  0.2094853E+02  0.7546771E-02  0.1520001E+00
         21   -1    0    0  503  502  0.00000000000E+00  0.00000000000E+00  0.39417285779E+01  0.39417285779E+01  0.00000000000E+00 0.  1.
         21   -1    0    0  501  503 -0.00000000000E+00 -0.00000000000E+00 -0.19117486070E+03  0.19117486070E+03  0.00000000000E+00 0. -1.
          2    1    1    2  501    0 -0.51201423229E+01 -0.20313174229E+02 -0.15666388049E+03  0.15805825621E+03  0.00000000000E+00 0. -1.
         -2    1    1    2    0  502  0.51201423229E+01  0.20313174229E+02 -0.30569251627E+02  0.37058333067E+02  0.00000000000E+00 0.  1.
</event>
<event>
 4    1  0.1800096E+004  0.2461552E+02  0.7546771E-02  0.1473151E+00
         21   -1    0    0  501  502  0.00000000000E+00  0.00000000000E+00  0.34109565835E+01  0.34109565835E+01  0.00000000000E+00 0.  1.
         21   -1    0    0  502  503 -0.00000000000E+00 -0.00000000000E+00 -0.37108655050E+03  0.37108655050E+03  0.00000000000E+00 0. -1.
          2    1    1    2  501    0  0.24333241661E+02  0.37171364221E+01 -0.48642571576E+02  0.54516268420E+02  0.00000000000E+00 0.  1.
         -2    1    1    2    0  503 -0.24333241661E+02 -0.37171364221E+01 -0.31903302234E+03  0.31998123867E+03  0.00000000000E+00 0. -1.
</event>
<event>
 4    1  0.1800096E+004  0.2176084E+02  0.7546771E-02  0.1508673E+00
         21   -1    0    0  501  502  0.00000000000E+00  0.00000000000E+00  0.10034847113E+01  0.10034847113E+01  0.00000000000E+00 0.  1.
         21   -1    0    0  502  503 -0.00000000000E+00 -0.00000000000E+00 -0.53159749269E+03  0.53159749269E+03  0.00000000000E+00 0. -1.
          2    1    1    2  501    0  0.19367718963E+02 -0.99209697088E+01 -0.35454443535E+03  0.35521161413E+03  0.00000000000E+00 0. -1.
         -2    1    1    2    0  503 -0.19367718963E+02  0.99209697088E+01 -0.17604957263E+03  0.17738936327E+03  0.00000000000E+00 0.  1.
</event>
<event>
 4    1  0.1800096E+004  0.2614214E+02  0.7546771E-02  0.1456421E+00
         21   -1    0    0  501  502  0.00000000000E+00  0.00000000000E+00  0.32317316362E+01  0.32317316362E+01  0.00000000000E+00 0. -1.
         21   -1    0    0  502  503 -0.00000000000E+00 -0.00000000000E+00 -0.24287227649E+03  0.24287227649E+03  0.00000000000E+00 0.  1.
          2    1    1    2  501    0 -0.16533911118E+01  0.26089805470E+02 -0.75573058580E+02  0.79966860854E+02  0.00000000000E+00 0. -1.
         -2    1    1    2    0  503  0.16533911118E+01 -0.26089805470E+02 -0.16406748627E+03  0.16613714727E+03  0.00000000000E+00 0.  1.
</event>
<event>
 4    1  0.1800096E+004  0.2029946E+02  0.7546771E-02  0.1529506E+00
         21   -1    0    0  501  502  0.00000000000E+00  0.00000000000E+00  0.50176595928E+02  0.50176595928E+02  0.00000000000E+00 0. -1.
         21   -1    0    0  502  503 -0.00000000000E+00 -0.00000000000E+00 -0.45803140287E+02  0.45803140287E+02  0.00000000000E+00 0.  1.
          2    1    1    2  501    0 -0.10059913599E+02  0.17631396800E+02  0.45662031946E+02  0.49970883284E+02  0.00000000000E+00 0. -1.
         -2    1    1    2    0  503  0.10059913599E+02 -0.17631396800E+02 -0.41288576305E+02  0.46008852931E+02  0.00000000000E+00 0.  1.
</event>
<event>
 4    1  0.1800096E+004  0.2789451E+02  0.7546771E-02  0.1438824E+00
         21   -1    0    0  501  502  0.00000000000E+00  0.00000000000E+00  0.41448532063E+03  0.41448532063E+03  0.00000000000E+00 0.  1.
         21   -1    0    0  502  503 -0.00000000000E+00 -0.00000000000E+00 -0.60810877407E+01  0.60810877407E+01  0.00000000000E+00 0. -1.
          2    1    1    2  501    0 -0.27625075517E+02 -0.38676919808E+01  0.37903999128E+03  0.38006501922E+03  0.00000000000E+00 0.  1.
         -2    1    1    2    0  503  0.27625075517E+02  0.38676919808E+01  0.29364241609E+02  0.40501389159E+02  0.00000000000E+00 0. -1.
</event>
<event>
 4    1  0.1800096E+004  0.2656209E+02  0.7546771E-02  0.1452057E+00
         21   -1    0    0  501  502  0.00000000000E+00  0.00000000000E+00  0.21919540922E+02  0.21919540922E+02  0.00000000000E+00 0. -1.
         21   -1    0    0  502  503 -0.00000000000E+00 -0.00000000000E+00 -0.34841581763E+02  0.34841581763E+02  0.00000000000E+00 0.  1.
          2    1    1    2  501    0 -0.20630451339E+02  0.16731076226E+02 -0.14293419653E+02  0.30163658258E+02  0.00000000000E+00 0.  1.
         -2    1    1    2    0  503  0.20630451339E+02 -0.16731076226E+02  0.13713788121E+01  0.26597464427E+02  0.00000000000E+00 0. -1.
</event>
<event>
 4    1  0.1800096E+004  0.3358029E+02  0.7546771E-02  0.1390829E+00
         21   -1    0    0  501  502  0.00000000000E+00  0.00000000000E+00  0.41947250614E+02  0.41947250614E+02  0.00000000000E+00 0.  1.
         21   -1    0    0  502  503 -0.00000000000E+00 -0.00000000000E+00 -0.80453735991E+02  0.80453735991E+02  0.00000000000E+00 0. -1.
          2    1    1    2  501    0 -0.19904223082E+02 -0.27045477024E+02  0.30686777648E+02  0.45489715831E+02  0.00000000000E+00 0.  1.
         -2    1    1    2    0  503  0.19904223082E+02  0.27045477024E+02 -0.69193263025E+02  0.76911270774E+02  0.00000000000E+00 0. -1.
</event>
<event>
 4    1  0.1800096E+004  0.2408588E+02  0.7546771E-02  0.1479295E+00
         21   -1    0    0  503  502  0.00000000000E+00  0.00000000000E+00  0.45820136021E+03  0.45820136021E+03  0.00000000000E+00 0. -1.
         21   -1    0    0  501  503 -0.00000000000E+00 -0.00000000000E+00 -0.21141798821E+01  0.21141798821E+01  0.00000000000E+00 0.  1.
          2    1    1    2  501    0 -0.13242967441E+02  0.20118489908E+02  0.82272148191E+02  0.85725353255E+02  0.00000000000E+00 0.  1.
         -2    1    1    2    0  502  0.13242967441E+02 -0.20118489908E+02  0.37381503213E+03  0.37459018683E+03  0.00000000000E+00 0. -1.
</event>
<event>
 4    1  0.1800096E+004  0.2698117E+02  0.7546771E-02  0.1447797E+00
         21   -1    0    0  501  502  0.00000000000E+00  0.00000000000E+00  0.15199115124E+03  0.15199115124E+03  0.00000000000E+00 0.  1.
         21   -1    0    0  502  503 -0.00000000000E+00 -0.00000000000E+00 -0.48450615093E+01  0.48450615093E+01  0.00000000000E+00 0. -1.
          2    1    1    2  501    0 -0.14311800255E+02 -0.22872603834E+02  0.81959664138E+02  0.86286558503E+02  0.00000000000E+00 0. -1.
         -2    1    1    2    0  503  0.14311800255E+02  0.22872603834E+02  0.65186425591E+02  0.70549654245E+02  0.00000000000E+00 0.  1.
</event>
<event>
 4    1  0.1800096E+004  0.2031139E+02  0.7546771E-02  0.1529328E+00
         21   -1    0    0  503  502  0.00000000000E+00  0.00000000000E+00  0.29406461054E+03  0.29406461054E+03  0.00000000000E+00 0.  1.
         21   -1    0    0  501  503 -0.00000000000E+00 -0.00000000000E+00 -0.24137363781E+01  0.24137363781E+01  0.00000000000E+00 0. -1.
          2    1    1    2  501    0  0.19844015437E+02 -0.43321600760E+01  0.49896045131E+02  0.53871772565E+02  0.00000000000E+00 0. -1.
         -2    1    1    2    0  502 -0.19844015437E+02  0.43321600760E+01  0.24175482903E+03  0.24260657435E+03  0.00000000000E+00 0.  1.
</event>
<event>
 4    1  0.1800096E+004  0.2575617E+02  0.7546771E-02  0.1460519E+00
         21   -1    0    0  501  502  0.00000000000E+00  0.00000000000E+00  0.21842503783E+02  0.21842503783E+02  0.00000000000E+00 0.  1.
         21   -1    0    0  502  503 -0.00000000000E+00 -0.00000000000E+00 -0.36662822983E+02  0.36662822983E+02  0.00000000000E+00 0. -1.
          2    1    1    2  501    0  0.25738658480E+02  0.94949589703E+00  0.47080510535E+01  0.26182930079E+02  0.00000000000E+00 0. -1.
         -2    1    1    2    0  503 -0.25738658480E+02 -0.94949589703E+00 -0.19528370253E+02  0.32322396687E+02  0.00000000000E+00 0.  1.
</event>
<event>
 4    1  0.1800096E+004  0.2207159E+02  0.7546771E-02  0.1504497E+00
         21   -1    0    0  503  502  0.00000000000E+00  0.00000000000E+00  0.21744499893E+02  0.21744499893E+02  0.00000000000E+00 0. -1.
         21   -1    0    0  501  503 -0.00000000000E+00 -0.00000000000E+00 -0.23696971801E+02  0.23696971801E+02  0.00000000000E+00 0.  1.
          2    1    1    2  501    0  0.13505475264E+02  0.17457295946E+02 -0.62843216140E+01  0.22948806985E+02  0.00000000000E+00 0. -1.
         -2    1    1    2    0  502 -0.13505475264E+02 -0.17457295946E+02  0.43318497056E+01  0.22492664710E+02  0.00000000000E+00 0.  1.
</event>
<event>
 4    1  0.1800096E+004  0.2175446E+02  0.7546771E-02  0.1508760E+00
         21   -1    0    0  503  502  0.00000000000E+00  0.00000000000E+00  0.62086808159E+02  0.62086808159E+02  0.00000000000E+00 0. -1.
         21   -1    0    0  501  503 -0.00000000000E+00 -0.00000000000E+00 -0.80248187668E+01  0.80248187668E+01  0.00000000000E+00 0.  1.
          2    1    1    2  501    0 -0.26765291851E+01 -0.21589178335E+02  0.34880275879E+02  0.41108272586E+02  0.00000000000E+00 0.  1.
         -2    1    1    2    0  502  0.26765291851E+01  0.21589178335E+02  0.19181713514E+02  0.29003354340E+02  0.00000000000E+00 0. -1.
</event>
<event>
 4    1  0.1800096E+004  0.2324080E+02  0.7546771E-02  0.1489496E+00
         21   -1    0    0  501  502  0.00000000000E+00  0.00000000000E+00  0.29970856596E+01  0.29970856596E+01  0.00000000000E+00 0.  1.
         21   -1    0    0  502  503 -0.00000000000E+00 -0.00000000000E+00 -0.24868936782E+03  0.24868936782E+03  0.00000000000E+00 0. -1.
          2    1    1    2  501    0  0.96171885139E+01  0.21157607186E+02 -0.56814890401E+02  0.61384578096E+02  0.00000000000E+00 0.  1.
         -2    1    1    2    0  503 -0.96171885139E+01 -0.21157607186E+02 -0.18887739176E+03  0.19030187538E+03  0.00000000000E+00 0. -1.
</event>
<event>
 4    1  0.1800096E+004  0.2409654E+02  0.7546771E-02  0.1479169E+00
         21   -1    0    0  503  502  0.00000000000E+00  0.00000000000E+00  0.59250327514E+02  0.59250327514E+02  0.00000000000E+00 0. -1.
         21   -1    0    0  501  503 -0.00000000000E+00 -0.00000000000E+00 -0.10003257598E+02  0.10003257598E+02  0.00000000000E+00 0.  1.
          2    1    1    2  501    0 -0.23031950185E+02 -0.70832673502E+01  0.29561427508E+02  0.38138188237E+02  0.00000000000E+00 0.  1.
         -2    1    1    2    0  502  0.23031950185E+02  0.70832673502E+01  0.19685642408E+02  0.31115396875E+02  0.00000000000E+00 0. -1.
</event>
<event>
 4    1  0.1800096E+004  0.4650404E+02  0.7546771E-02  0.1314085E+00
         21   -1    0    0  501  502  0.00000000000E+00  0.00000000000E+00  0.22693199974E+03  0.22693199974E+03  0.00000000000E+00 0. -1.
         21   -1    0    0  502  503 -0.00000000000E+00 -0.00000000000E+00 -0.14417523321E+02  0.14417523321E+02  0.00000000000E+00 0.  1.
          2    1    1    2  501    0 -0.39248852369E+02  0.24943000861E+02  0.17651958267E+03  0.18254256701E+03  0.00000000000E+00 0. -1.
         -2    1    1    2    0  503  0.39248852369E+02 -0.24943000861E+02  0.35994893754E+02  0.58806956056E+02  0.00000000000E+00 0.  1.
</event>
<event>
 4    1  0.1800096E+004  0.7037525E+02  0.7546771E-02  0.1228148E+00
         21   -1    0    0  501  502  0.00000000000E+00  0.00000000000E+00  0.13394529426E+03  0.13394529426E+03  0.00000000000E+00 0. -1.
         21   -1    0    0  502  503 -0.00000000000E+00 -0.00000000000E+00 -0.38797222130E+02  0.38797222130E+02  0.00000000000E+00 0.  1.
          2    1    1    2  501    0 -0.37361402627E+02 -0.59638919741E+02  0.66290636573E+02  0.96680523640E+02  0.00000000000E+00 0. -1.
         -2    1    1    2    0  503  0.37361402627E+02  0.59638919741E+02  0.28857435555E+02  0.76061992748E+02  0.00000000000E+00 0.  1.
</event>
<event>
 4    1  0.1800096E+004  0.2433231E+02  0.7546771E-02  0.1476413E+00
         21   -1    0    0  501  502  0.00000000000E+00  0.00000000000E+00  0.37900932427E+02  0.37900932427E+02  0.00000000000E+00 0. -1.
         21   -1    0    0  502  503 -0.00000000000E+00 -0.00000000000E+00 -0.16388627998E+02  0.16388627998E+02  0.00000000000E+00 0.  1.
          2    1    1    2  501    0  0.14301809255E+02 -0.19685519001E+02  0.48824928079E+01  0.24817335520E+02  0.00000000000E+00 0.  1.
         -2    1    1    2    0  503 -0.14301809255E+02  0.19685519001E+02  0.16629811621E+02  0.29472224905E+02  0.00000000000E+00 0. -1.
</event>
<event>
 4    1  0.1800096E+004  0.2025700E+02  0.7546771E-02  0.1530143E+00
         21   -1    0    0  501  502  0.00000000000E+00  0.00000000000E+00  0.56216346130E+01  0.56216346130E+01  0.00000000000E+00 0. -1.
         21   -1    0    0  502  503 -0.00000000000E+00 -0.00000000000E+00 -0.91675339446E+02  0.91675339446E+02  0.00000000000E+00 0.  1.
          2    1    1    2  501    0 -0.67081123331E+01  0.19114055481E+02 -0.64987567576E+02  0.68071505253E+02  0.00000000000E+00 0.  1.
         -2    1    1    2    0  503  0.67081123331E+01 -0.19114055481E+02 -0.21066137257E+02  0.29225468806E+02  0.00000000000E+00 0. -1.
</event>
<event>
 4    1  0.1800096E+004  0.3685818E+02  0.7546771E-02  0.1367950E+00
         21   -1    0    0  503  502  0.00000000000E+00  0.00000000000E+00  0.67631542610E+01  0.67631542610E+01  0.00000000000E+00 0. -1.
         21   -1    0    0  501  503 -0.00000000000E+00 -0.00000000000E+00 -0.29497987906E+03  0.29497987906E+03  0.00000000000E+00 0.  1.
          2    1    1    2  501    0  0.16639755220E+02 -0.32888356131E+02 -0.22932512707E+03  0.23226824864E+03  0.00000000000E+00 0.  1.
         -2    1    1    2    0  502 -0.16639755220E+02  0.32888356131E+02 -0.58891597732E+02  0.69474784679E+02  0.00000000000E+00 0. -1.
</event>
<event>
 4    1  0.1800096E+004  0.2497705E+02  0.7546771E-02  0.1469060E+00
         21   -1    0    0  501  502  0.00000000000E+00  0.00000000000E+00  0.16029021449E+02  0.16029021449E+02  0.00000000000E+00 0.  1.
         21   -1    0    0  502  503 -0.00000000000E+00 -0.00000000000E+00 -0.65979739492E+02  0.65979739492E+02  0.00000000000E+00 0. -1.
          2    1    1    2  501    0  0.24974453669E+02 -0.36045669298E+00 -0.51234764206E+02  0.56998722164E+02  0.00000000000E+00 0. -1.
         -2    1    1    2    0  503 -0.24974453669E+02  0.36045669298E+00  0.12840461633E+01  0.25010038777E+02  0.00000000000E+00 0.  1.
</event>
<event>
 4    1  0.1800096E+004  0.2007480E+02  0.7546771E-02  0.1532895E+00
         21   -1    0    0  501  502  0.00000000000E+00  0.00000000000E+00  0.22704808612E+02  0.22704808612E+02  0.00000000000E+00 0.  1.
         21   -1    0    0  502  503 -0.00000000000E+00 -0.00000000000E+00 -0.19434895198E+02  0.19434895198E+02  0.00000000000E+00 0. -1.
          2    1    1    2  501    0  0.52615828260E-01 -0.20074727896E+02  0.78397876133E+01  0.21551327995E+02  0.00000000000E+00 0.  1.
         -2    1    1    2    0  503 -0.52615828260E-01  0.20074727896E+02 -0.45698741996E+01  0.20588375815E+02  0.00000000000E+00 0. -1.
</event>
<event>
 4    1  0.1800096E+004  0.2222687E+02  0.7546771E-02  0.1502441E+00
         21   -1    0    0  503  502  0.00000000000E+00  0.00000000000E+00  0.34222628027E+03  0.34222628027E+03  0.00000000000E+00 0. -1.
         21   -1    0    0  501  503 -0.00000000000E+00 -0.00000000000E+00 -0.65048960463E+01  0.65048960463E+01  0.00000000000E+00 0.  1.
          2    1    1    2  501    0 -0.22149924134E+02  0.18478538368E+01  0.14055148099E+02  0.26297925603E+02  0.00000000000E+00 0.  1.
         -2    1    1    2    0  502  0.22149924134E+02 -0.18478538368E+01  0.32166623612E+03  0.32243325071E+03  0.00000000000E+00 0. -1.
</event>
<event>
 4    1  0.1800096E+004  0.2455198E+02  0.7546771E-02  0.1473878E+00
         21   -1    0    0  501  502  0.00000000000E+00  0.00000000000E+00  0.61103219040E+01  0.61103219040E+01  0.00000000000E+00 0. -1.
         21   -1    0    0  502  503 -0.00000000000E+00 -0.00000000000E+00 -0.10174127061E+03  0.10174127061E+03  0.00000000000E+00 0.  1.
          2    1    1    2  501    0  0.23183573965E+02  0.80821796709E+01 -0.38419820078E+02  0.45594761813E+02  0.00000000000E+00 0. -1.
         -2    1    1    2    0  503 -0.23183573965E+02 -0.80821796709E+01 -0.57211128633E+02  0.62256830706E+02  0.00000000000E+00 0.  1.
</event>
<event>
 4    1  0.1800096E+004  0.2059354E+02  0.7546771E-02  0.1525148E+00
         21   -1    0    0  501  502  0.00000000000E+00  0.00000000000E+00  0.46471215587E+02  0.46471215587E+02  0.00000000000E+00 0.  1.
         21   -1    0    0  502  503 -0.00000000000E+00 -0.00000000000E+00 -0.22515585864E+02  0.22515585864E+02  0.00000000000E+00 0. -1.
          2    1    1    2  501    0  0.20578059889E+02  0.79834325517E+00  0.38577641254E+02  0.43730176143E+02  0.00000000000E+00 0.  1.
         -2    1    1    2    0  503 -0.20578059889E+02 -0.79834325517E+00 -0.14622011531E+02  0.25256625308E+02  0.00000000000E+00 0. -1.
</event>
<event>
 4    1  0.1800096E+004  0.2177573E+02  0.7546771E-02  0.1508471E+00
         21   -1    0    0  503  502  0.00000000000E+00  0.00000000000E+00  0.27531551327E+02  0.27531551327E+02  0.00000000000E+00 0.  1.
         21   -1    0    0  501  503 -0.00000000000E+00 -0.00000000000E+00 -0.18886408417E+02  0.18886408417E+02  0.00000000000E+00 0. -1.
          2    1    1    2  501    0  0.21775635522E+02 -0.64046880022E-01 -0.25647445138E+01  0.21926247258E+02  0.00000000000E+00 0. -1.
         -2    1    1    2    0  502 -0.21775635522E+02  0.64046880022E-01  0.11209887424E+02  0.24491712485E+02  0.00000000000E+00 0.  1.
</event>
<event>
 4    1  0.1800096E+004  0.3409284E+02  0.7546771E-02  0.1387055E+00
         21   -1    0    0  503  502  0.00000000000E+00  0.00000000000E+00  0.22558923521E+03  0.22558923521E+03  0.00000000000E+00 0. -1.
         21   -1    0    0  501  503 -0.00000000000E+00 -0.00000000000E+00 -0.59820136473E+01  0.59820136473E+01  0.00000000000E+00 0.  1.
          2    1    1    2  501    0 -0.11118762197E+02  0.32228788048E+02  0.66684092262E+02  0.74893856975E+02  0.00000000000E+00 0.  1.
         -2    1    1    2    0  502  0.11118762197E+02 -0.32228788048E+02  0.15292312930E+03  0.15667739188E+03  0.00000000000E+00 0. -1.
</event>
<event>
 4    1  0.1800096E+004  0.8330798E+02  0.7546771E-02  0.1196369E+00
         21   -1    0    0  503  502  0.00000000000E+00  0.00000000000E+00  0.14888211534E+02  0.14888211534E+02  0.00000000000E+00 0.  1.
         21   -1    0    0  501  503 -0.00000000000E+00 -0.00000000000E+00 -0.73950023708E+03  0.73950023708E+03  0.00000000000E+00 0. -1.
          2    1    1    2  501    0  0.73237930666E+02 -0.39704212012E+02 -0.59163100127E+03  0.59746753938E+03  0.00000000000E+00 0. -1.
         -2    1    1    2    0  502 -0.73237930666E+02  0.39704212012E+02 -0.13298102427E+03  0.15692090924E+03  0.00000000000E+00 0.  1.
</event>
<event>
 4    1  0.1800096E+004  0.2189924E+02  0.7546771E-02  0.1506803E+00
         21   -1    0    0  501  502  0.00000000000E+00  0.00000000000E+00  0.82713092032E+03  0.82713092032E+03  0.00000000000E+00 0. -1.
         21   -1    0    0  502  503 -0.00000000000E+00 -0.00000000000E+00 -0.58086288694E+00  0.58086288694E+00  0.00000000000E+00 0.  1.
          2    1    1    2  501    0 -0.18965277218E+02 -0.10949653881E+02  0.43091634052E+03  0.43147244313E+03  0.00000000000E+00 0. -1.
         -2    1    1    2    0  503  0.18965277218E+02  0.10949653881E+02  0.39563371692E+03  0.39623934007E+03  0.00000000000E+00 0.  1.
</event>
<event>
 4    1  0.1800096E+004  0.2082557E+02  0.7546771E-02  0.1521770E+00
         21   -1    0    0  501  502  0.00000000000E+00  0.00000000000E+00  0.26827698614E+03  0.26827698614E+03  0.00000000000E+00 0.  1.
         21   -1    0    0  502  503 -0.00000000000E+00 -0.00000000000E+00 -0.21686976760E+01  0.21686976760E+01  0.00000000000E+00 0. -1.
          2    1    1    2  501    0  0.14833886077E+02  0.14617126530E+02  0.20127965564E+03  0.20235415572E+03  0.00000000000E+00 0.  1.
         -2    1    1    2    0  503 -0.14833886077E+02 -0.14617126530E+02  0.64828632824E+02  0.68091528092E+02  0.00000000000E+00 0. -1.
</event>
<event>
 4    1  0.1800096E+004  0.2437780E+02  0.7546771E-02  0.1475886E+00
         21   -1    0    0  501  502  0.00000000000E+00  0.00000000000E+00  0.33018496695E+01  0.33018496695E+01  0.00000000000E+00 0. -1.
         21   -1    0    0  502  503 -0.00000000000E+00 -0.00000000000E+00 -0.35687345766E+03  0.35687345766E+03  0.00000000000E+00 0.  1.
          2    1    1    2  501    0 -0.17856807174E+02  0.16595535520E+02 -0.49997610849E+02  0.55624081586E+02  0.00000000000E+00 0. -1.
         -2    1    1    2    0  503  0.17856807174E+02 -0.16595535520E+02 -0.30357399714E+03  0.30455122575E+03  0.00000000000E+00 0.  1.
</event>
<event>
 4    1  0.1800096E+004  0.3285763E+02  0.7546771E-02  0.1396284E+00
         21   -1    0    0  503  502  0.00000000000E+00  0.00000000000E+00  0.56655835344E+01  0.56655835344E+01  0.00000000000E+00 0. -1.
         21   -1    0    0  501  503 -0.00000000000E+00 -0.00000000000E+00 -0.30565643590E+03  0.30565643590E+03  0.00000000000E+00 0.  1.
          2    1    1    2  501    0  0.32503516403E+02 -0.48109315837E+01 -0.24551608832E+03  0.24770501260E+03  0.00000000000E+00 0.  1.
         -2    1    1    2    0  502 -0.32503516403E+02  0.48109315837E+01 -0.54474764047E+02  0.63617006840E+02  0.00000000000E+00 0. -1.
</event>
<event>
 4    1  0.1800096E+004  0.3061450E+02  0.7546771E-02  0.1414330E+00
         21   -1    0    0  503  502  0.00000000000E+00  0.00000000000E+00  0.31277178048E+02  0.31277178048E+02  0.00000000000E+00 0. -1.
         21   -1    0    0  501  503 -0.00000000000E+00 -0.00000000000E+00 -0.35100362693E+02  0.35100362693E+02  0.00000000000E+00 0.  1.
          2    1    1    2  501    0 -0.76310662295E+01  0.29648180671E+02 -0.14605174962E+02  0.33919889808E+02  0.00000000000E+00 0.  1.
         -2    1    1    2    0  502  0.76310662295E+01 -0.29648180671E+02  0.10781990317E+02  0.32457650933E+02  0.00000000000E+00 0. -1.
</event>
<event>
 4    1  0.1800096E+004  0.2528266E+02  0.7546771E-02  0.1465666E+00
         21   -1    0    0  501  502  0.00000000000E+00  0.00000000000E+00  0.32024314824E+03  0.32024314824E+03  0.00000000000E+00 0. -1.
         21   -1    0    0  502  503 -0.00000000000E+00 -0.00000000000E+00 -0.33066233260E+01  0.33066233260E+01  0.00000000000E+00 0.  1.
          2    1    1    2  501    0 -0.15743310659E+02 -0.19782841470E+02  0.26031658888E+03  0.26154146725E+03  0.00000000000E+00 0. -1.
         -2    1    1    2    0  503  0.15743310659E+02  0.19782841470E+02  0.56619936031E+02  0.62008304309E+02  0.00000000000E+00 0.  1.
</event>
<event>
 4    1  0.1800096E+004  0.3153116E+02  0.7546771E-02  0.1406741E+00
         21   -1    0    0  503  502  0.00000000000E+00  0.00000000000E+00  0.57236263839E+02  0.57236263839E+02  0.00000000000E+00 0. -1.
         21   -1    0    0  501  503 -0.00000000000E+00 -0.00000000000E+00 -0.32214842060E+02  0.32214842060E+02  0.00000000000E+00 0.  1.
          2    1    1    2  501    0  0.20955100666E+00  0.31530462181E+02 -0.17849891255E+02  0.36233031543E+02  0.00000000000E+00 0.  1.
         -2    1    1    2    0  502 -0.20955100666E+00 -0.31530462181E+02  0.42871313034E+02  0.53218074357E+02  0.00000000000E+00 0. -1.
</event>
<event>
 4    1  0.1800096E+004  0.2182487E+02  0.7546771E-02  0.1507806E+00
         21   -1    0    0  501  502  0.00000000000E+00  0.00000000000E+00  0.19798512710E+01  0.19798512710E+01  0.00000000000E+00 0.  1.
         21   -1    0    0  502  503 -0.00000000000E+00 -0.00000000000E+00 -0.35754320480E+03  0.35754320480E+03  0.00000000000E+00 0. -1.
          2    1    1    2  501    0 -0.21716848793E+02  0.21687335308E+01 -0.74969258369E+02  0.78081461482E+02  0.00000000000E+00 0.  1.
         -2    1    1    2    0  503  0.21716848793E+02 -0.21687335308E+01 -0.28059409516E+03  0.28144159459E+03  0.00000000000E+00 0. -1.
</event>
<event>
 4    1  0.1800096E+004  0.2016448E+02  0.7546771E-02  0.1531536E+00
         21   -1    0    0  501  502  0.00000000000E+00  0.00000000000E+00  0.16847429026E+02  0.16847429026E+02  0.00000000000E+00 0. -1.
         21   -1    0    0  502  503 -0.00000000000E+00 -0.00000000000E+00 -0.35451350410E+02  0.35451350410E+02  0.00000000000E+00 0.  1.
          2    1    1    2  501    0 -0.19677340968E+02  0.44055062375E+01  0.54722988803E+01  0.20893833727E+02  0.00000000000E+00 0. -1.
         -2    1    1    2    0  503  0.19677340968E+02 -0.44055062375E+01 -0.24076220265E+02  0.31404945709E+02  0.00000000000E+00 0.  1.
</event>
<event>
 4    1  0.1800096E+004  0.2380403E+02  0.7546771E-02  0.1482641E+00
         21   -1    0    0  503  502  0.00000000000E+00  0.00000000000E+00  0.34869943771E+01  0.34869943771E+01  0.00000000000E+00 0.  1.
         21   -1    0    0  501  503 -0.00000000000E+00 -0.00000000000E+00 -0.22156822941E+03  0.22156822941E+03  0.00000000000E+00 0. -1.
          2    1    1    2  501    0  0.17345810401E+02 -0.16301988867E+02 -0.16714209706E+03  0.16882864861E+03  0.00000000000E+00 0. -1.
         -2    1    1    2    0  502 -0.17345810401E+02  0.16301988867E+02 -0.50939137968E+02  0.56226575179E+02  0.00000000000E+00 0.  1.
</event>
<event>
 4    1  0.1800096E+004  0.2490673E+02  0.7546771E-02  0.1469850E+00
         21   -1    0    0  503  502  0.00000000000E+00  0.00000000000E+00  0.28579312492E+01  0.28579312492E+01  0.00000000000E+00 0. -1.
         21   -1    0    0  501  503 -0.00000000000E+00 -0.00000000000E+00 -0.36092989613E+03  0.36092989613E+03  0.00000000000E+00 0.  1.
          2    1    1    2  501    0 -0.18888241019E+01  0.24835007181E+02 -0.29387521677E+03  0.29492878508E+03  0.00000000000E+00 0.  1.
         -2    1    1    2    0  502  0.18888241019E+01 -0.24835007181E+02 -0.64196748113E+02  0.68859042299E+02  0.00000000000E+00 0. -1.
</event>
<event>
 4    1  0.1800096E+004  0.2064832E+02  0.7546771E-02  0.1524346E+00
         21   -1    0    0  503  502  0.00000000000E+00  0.00000000000E+00  0.23550763954E+01  0.23550763954E+01  0.00000000000E+00 0.  1.
         21   -1    0    0  501  503 -0.00000000000E+00 -0.00000000000E+00 -0.24603973671E+03  0.24603973671E+03  0.00000000000E+00 0. -1.
          2    1    1    2  501    0 -0.17642456495E+02 -0.10728321548E+02 -0.18568039423E+03  0.18682495004E+03  0.00000000000E+00 0. -1.
         -2    1    1    2    0  502  0.17642456495E+02  0.10728321548E+02 -0.58004266085E+02  0.61569863071E+02  0.00000000000E+00 0.  1.
</event>
<event>
 4    1  0.1800096E+004  0.2634102E+02  0.7546771E-02  0.1454342E+00
         21   -1    0    0  501  502  0.00000000000E+00  0.00000000000E+00  0.10542998455E+04  0.10542998455E+04  0.00000000000E+00 0.  1.
         21   -1    0    0  502  503 -0.00000000000E+00 -0.00000000000E+00 -0.17649315675E+01  0.17649315675E+01  0.00000000000E+00 0. -1.
          2    1    1    2  501    0  0.12647395078E+02  0.23106116155E+02  0.94441996036E+03  0.94478723040E+03  0.00000000000E+00 0.  1.
         -2    1    1    2    0  503 -0.12647395078E+02 -0.23106116155E+02  0.10811495362E+03  0.11127754671E+03  0.00000000000E+00 0. -1.
</event>
<event>
 4    1  0.1800096E+004  0.2955495E+02  0.7546771E-02  0.1423504E+00
         21   -1    0    0  503  502  0.00000000000E+00  0.00000000000E+00  0.12386043796E+03  0.12386043796E+03  0.00000000000E+00 0.  1.
         21   -1    0    0  501  503 -0.00000000000E+00 -0.00000000000E+00 -0.11769411950E+03  0.11769411950E+03  0.00000000000E+00 0. -1.
          2    1    1    2  501    0  0.29198525193E+02  0.45761244253E+01 -0.11401973004E+03  0.11778791800E+03  0.00000000000E+00 0. -1.
         -2    1    1    2    0  502 -0.29198525193E+02 -0.45761244253E+01  0.12018604850E+03  0.12376663946E+03  0.00000000000E+00 0.  1.
</event>
<event>
 4    1  0.1800096E+004  0.2449516E+02  0.7546771E-02  0.1474531E+00
         21   -1    0    0  503  502  0.00000000000E+00  0.00000000000E+00  0.49638260902E+02  0.49638260902E+02  0.00000000000E+00 0. -1.
         21   -1    0    0  501  503 -0.00000000000E+00 -0.00000000000E+00 -0.34781983796E+02  0.34781983796E+02  0.00000000000E+00 0.  1.
          2    1    1    2  501    0  0.93634918671E+01 -0.22634880442E+02 -0.26667403797E+02  0.36209987819E+02  0.00000000000E+00 0.  1.
         -2    1    1    2    0  502 -0.93634918671E+01  0.22634880442E+02  0.41523680903E+02  0.48210256878E+02  0.00000000000E+00 0. -1.
</event>
<event>
 4    1  0.1800096E+004  0.2311016E+02  0.7546771E-02  0.1491119E+00
         21   -1    0    0  503  502  0.00000000000E+00  0.00000000000E+00  0.21252306676E+02  0.21252306676E+02  0.00000000000E+00 0.  1.
         21   -1    0    0  501  503 -0.00000000000E+00 -0.00000000000E+00 -0.26093454206E+02  0.26093454206E+02  0.00000000000E+00 0. -1.
          2    1    1    2  501    0  0.17993506910E+02 -0.14502178653E+02 -0.69684148891E+01  0.24137901373E+02  0.00000000000E+00 0. -1.
         -2    1    1    2    0  502 -0.17993506910E+02  0.14502178653E+02  0.21272673589E+01  0.23207859510E+02  0.00000000000E+00 0.  1.
</event>
<event>
 4    1  0.1800096E+004  0.2157317E+02  0.7546771E-02  0.1511237E+00
         21   -1    0    0  503  502  0.00000000000E+00  0.00000000000E+00  0.95188012664E+02  0.95188012664E+02  0.00000000000E+00 0. -1.
         21   -1    0    0  501  503 -0.00000000000E+00 -0.00000000000E+00 -0.13120843483E+02  0.13120843483E+02  0.00000000000E+00 0.  1.
          2    1    1    2  501    0  0.85977029113E+01 -0.19785883174E+02 -0.18601671998E+01  0.21653218938E+02  0.00000000000E+00 0.  1.
         -2    1    1    2    0  502 -0.85977029113E+01  0.19785883174E+02  0.83927336381E+02  0.86655637210E+02  0.00000000000E+00 0. -1.
</event>
<event>
 4    1  0.1800096E+004  0.3177843E+02  0.7546771E-02  0.1404747E+00
         21   -1    0    0  501  502  0.00000000000E+00  0.00000000000E+00  0.75926807498E+02  0.75926807498E+02  0.00000000000E+00 0. -1.
         21   -1    0    0  502  503 -0.00000000000E+00 -0.00000000000E+00 -0.17714385922E+02  0.17714385922E+02  0.00000000000E+00 0.  1.
          2    1    1    2  501    0 -0.28001395458E+01  0.31654822443E+02  0.52477453924E+02  0.61349423271E+02  0.00000000000E+00 0. -1.
         -2    1    1    2    0  503  0.28001395458E+01 -0.31654822443E+02  0.57349676509E+01  0.32291770149E+02  0.00000000000E+00 0.  1.
</event>
<event>
 4    1  0.1800096E+004  0.2728357E+02  0.7546771E-02  0.1444780E+00
         21   -1    0    0  503  502  0.00000000000E+00  0.00000000000E+00  0.32188713405E+02  0.32188713405E+02  0.00000000000E+00 0. -1.
         21   -1    0    0  501  503 -0.00000000000E+00 -0.00000000000E+00 -0.24465114813E+02  0.24465114813E+02  0.00000000000E+00 0.  1.
          2    1    1    2  501    0  0.16344156862E+02 -0.21846319134E+02 -0.27657043211E+01  0.27423388624E+02  0.00000000000E+00 0.  1.
         -2    1    1    2    0  502 -0.16344156862E+02  0.21846319134E+02  0.10489302914E+02  0.29230439594E+02  0.00000000000E+00 0. -1.
</event>
<event>
 4    1  0.1800096E+004  0.3366803E+02  0.7546771E-02  0.1390177E+00
         21   -1    0    0  501  502  0.00000000000E+00  0.00000000000E+00  0.10797222160E+02  0.10797222160E+02  0.00000000000E+00 0.  1.
         21   -1    0    0  502  503 -0.00000000000E+00 -0.00000000000E+00 -0.20242103495E+03  0.20242103495E+03  0.00000000000E+00 0. -1.
          2    1    1    2  501    0  0.32039916158E+02 -0.10343123623E+02 -0.21846537994E+02  0.40134868332E+02  0.00000000000E+00 0.  1.
         -2    1    1    2    0  503 -0.32039916158E+02  0.10343123623E+02 -0.16977727480E+03  0.17308338878E+03  0.00000000000E+00 0. -1.
</event>
<event>
 4    1  0.1800096E+004  0.2731776E+02  0.7546771E-02  0.1444442E+00
         21   -1    0    0  503  502  0.00000000000E+00  0.00000000000E+00  0.11379672935E+03  0.11379672935E+03  0.00000000000E+00 0.  1.
         21   -1    0    0  501  503 -0.00000000000E+00 -0.00000000000E+00 -0.14191747351E+02  0.14191747351E+02  0.00000000000E+00 0. -1.
          2    1    1    2  501    0  0.17881488054E+02  0.20652172363E+02  0.28675141799E+01  0.27467844398E+02  0.00000000000E+00 0. -1.
         -2    1    1    2    0  502 -0.17881488054E+02 -0.20652172363E+02  0.96737467822E+02  0.10052063231E+03  0.00000000000E+00 0.  1.
</event>
<event>
 4    1  0.1800096E+004  0.2341017E+02  0.7546771E-02  0.1487411E+00
         21   -1    0    0  501  502  0.00000000000E+00  0.00000000000E+00  0.26937929475E+03  0.26937929475E+03  0.00000000000E+00 0.  1.
         21   -1    0    0  502  503 -0.00000000000E+00 -0.00000000000E+00 -0.21239832800E+01  0.21239832800E+01  0.00000000000E+00 0. -1.
          2    1    1    2  501    0  0.17123683292E+02 -0.15962949565E+02  0.16150064520E+03  0.16318852499E+03  0.00000000000E+00 0. -1.
         -2    1    1    2    0  503 -0.17123683292E+02  0.15962949565E+02  0.10575466627E+03  0.10831475304E+03  0.00000000000E+00 0.  1.
</event>
<event>
 4    1  0.1800096E+004  0.2307056E+02  0.7546771E-02  0.1491614E+00
         21   -1    0    0  501  502  0.00000000000E+00  0.00000000000E+00  0.68428989074E+01  0.68428989074E+01  0.00000000000E+00 0. -1.
         21   -1    0    0  502  503 -0.00000000000E+00 -0.00000000000E+00 -0.14568468418E+03  0.14568468418E+03  0.00000000000E+00 0.  1.
          2    1    1    2  501    0 -0.14167097685E+02 -0.18208348027E+02 -0.17354597409E+02  0.28869233552E+02  0.00000000000E+00 0. -1.
         -2    1    1    2    0  503  0.14167097685E+02  0.18208348027E+02 -0.12148718786E+03  0.12365834953E+03  0.00000000000E+00 0.  1.
</event>
<event>
 4    1  0.1800096E+004  0.2339098E+02  0.7546771E-02  0.1487646E+00
         21   -1    0    0  503  502  0.00000000000E+00  0.00000000000E+00  0.68577334636E+03  0.68577334636E+03  0.00000000000E+00 0.  1.
         21   -1    0    0  501  503 -0.00000000000E+00 -0.00000000000E+00 -0.24031692882E+01  0.24031692882E+01  0.00000000000E+00 0. -1.
          2    1    1    2  501    0  0.97522414677E+01  0.21261039541E+02  0.60456404813E+02  0.64823721730E+02  0.00000000000E+00 0. -1.
         -2    1    1    2    0  502 -0.97522414677E+01 -0.21261039541E+02  0.62291377226E+03  0.62335279392E+03  0.00000000000E+00 0.  1.
</event>
<event>
 4    1  0.1800096E+004  0.2782689E+02  0.7546771E-02  0.1439474E+00
         21   -1    0    0  501  502  0.00000000000E+00  0.00000000000E+00  0.23791647212E+02  0.23791647212E+02  0.00000000000E+00 0.  1.
         21   -1    0    0  502  503 -0.00000000000E+00 -0.00000000000E+00 -0.35415324600E+02  0.35415324600E+02  0.00000000000E+00 0. -1.
          2    1    1    2  501    0  0.27739132397E+02  0.22082482773E+01 -0.14237347146E+02  0.31257605161E+02  0.00000000000E+00 0.  1.
         -2    1    1    2    0  503 -0.27739132397E+02 -0.22082482773E+01  0.26136697576E+01  0.27949366651E+02  0.00000000000E+00 0. -1.
</event>
<event>
 4    1  0.1800096E+004  0.2270901E+02  0.7546771E-02  0.1496185E+00
         21   -1    0    0  503  502  0.00000000000E+00  0.00000000000E+00  0.20928928975E+03  0.20928928975E+03  0.00000000000E+00 0. -1.
         21   -1    0    0  501  503 -0.00000000000E+00 -0.00000000000E+00 -0.46690667829E+01  0.46690667829E+01  0.00000000000E+00 0.  1.
          2    1    1    2  501    0  0.21855592840E+02  0.61670403055E+01  0.28792711257E+02  0.36670417860E+02  0.00000000000E+00 0.  1.
         -2    1    1    2    0  502 -0.21855592840E+02 -0.61670403055E+01  0.17582751171E+03  0.17728793867E+03  0.00000000000E+00 0. -1.
</event>
<event>
 4    1  0.1800096E+004  0.2107179E+02  0.7546771E-02  0.1518242E+00
         21   -1    0    0  503  502  0.00000000000E+00  0.00000000000E+00  0.38822379021E+01  0.38822379021E+01  0.00000000000E+00 0. -1.
         21   -1    0    0  501  503 -0.00000000000E+00 -0.00000000000E+00 -0.30204886532E+03  0.30204886532E+03  0.00000000000E+00 0.  1.
          2    1    1    2  501    0  0.18495461286E+02  0.10096442374E+02 -0.26965910706E+03  0.27048115324E+03  0.00000000000E+00 0.  1.
         -2    1    1    2    0  502 -0.18495461286E+02 -0.10096442374E+02 -0.28507520352E+02  0.35449949977E+02  0.00000000000E+00 0. -1.
</event>
<event>
 4    1  0.1800096E+004  0.3941121E+02  0.7546771E-02  0.1351971E+00
         21   -1    0    0  503  502  0.00000000000E+00  0.00000000000E+00  0.90238655821E+02  0.90238655821E+02  0.00000000000E+00 0. -1.
         21   -1    0    0  501  503 -0.00000000000E+00 -0.00000000000E+00 -0.29983778286E+02  0.29983778286E+02  0.00000000000E+00 0.  1.
          2    1    1    2  501    0  0.39394580853E+02 -0.11446202642E+01 -0.91033993993E+01  0.40448918857E+02  0.00000000000E+00 0.  1.
         -2    1    1    2    0  502 -0.39394580853E+02  0.11446202642E+01  0.69358276934E+02  0.79773515250E+02  0.00000000000E+00 0. -1.
</event>
<event>
 4    1  0.1800096E+004  0.2695262E+02  0.7546771E-02  0.1448085E+00
         21   -1    0    0  501  502  0.00000000000E+00  0.00000000000E+00  0.11335169508E+01  0.11335169508E+01  0.00000000000E+00 0. -1.
         21   -1    0    0  502  503 -0.00000000000E+00 -0.00000000000E+00 -0.66942695517E+03  0.66942695517E+03  0.00000000000E+00 0.  1.
          2    1    1    2  501    0  0.20504655546E+00  0.26951840785E+02 -0.26490513914E+03  0.26627274834E+03  0.00000000000E+00 0. -1.
         -2    1    1    2    0  503 -0.20504655546E+00 -0.26951840785E+02 -0.40338829908E+03  0.40428772378E+03  0.00000000000E+00 0.  1.
</event>
<event>
 4    1  0.1800096E+004  0.2908713E+02  0.7546771E-02  0.1427699E+00
         21   -1    0    0  501  502  0.00000000000E+00  0.00000000000E+00  0.98780209147E+01  0.98780209147E+01  0.00000000000E+00 0. -1.
         21   -1    0    0  502  503 -0.00000000000E+00 -0.00000000000E+00 -0.90921109866E+02  0.90921109866E+02  0.00000000000E+00 0.  1.
          2    1    1    2  501    0 -0.94837810107E+01 -0.27497620840E+02 -0.28387406927E+02  0.40643648042E+02  0.00000000000E+00 0. -1.
         -2    1    1    2    0  503  0.94837810107E+01  0.27497620840E+02 -0.52655682024E+02  0.60155482739E+02  0.00000000000E+00 0.  1.
</event>
<event>
 4    1  0.1800096E+004  0.3748866E+02  0.7546771E-02  0.1363866E+00
         21   -1    0    0  503  502  0.00000000000E+00  0.00000000000E+00  0.23537814159E+01  0.23537814159E+01  0.00000000000E+00 0. -1.
         21   -1    0    0  501  503 -0.00000000000E+00 -0.00000000000E+00 -0.78349885572E+03  0.78349885572E+03  0.00000000000E+00 0.  1.
          2    1    1    2  501    0  0.35786363282E+02 -0.11168526081E+02 -0.58223404177E+03  0.58343969625E+03  0.00000000000E+00 0.  1.
         -2    1    1    2    0  502 -0.35786363282E+02  0.11168526081E+02 -0.19891103254E+03  0.20241294088E+03  0.00000000000E+00 0. -1.
</event>
<event>
 4    1  0.1800096E+004  0.2058447E+02  0.7546771E-02  0.1525281E+00
         21   -1    0    0  501  502  0.00000000000E+00  0.00000000000E+00  0.23208884566E+01  0.23208884566E+01  0.00000000000E+00 0. -1.
         21   -1    0    0  502  503 -0.00000000000E+00 -0.00000000000E+00 -0.20164691265E+03  0.20164691265E+03  0.00000000000E+00 0.  1.
          2    1    1    2  501    0 -0.15439264249E+02  0.13614313544E+02 -0.68293307259E+02  0.71328088648E+02  0.00000000000E+00 0.  1.
         -2    1    1    2    0  503  0.15439264249E+02 -0.13614313544E+02 -0.13103271694E+03  0.13263971246E+03  0.00000000000E+00 0. -1.
</event>
<event>
 4    1  0.1800096E+004  0.2145690E+02  0.7546771E-02  0.1512840E+00
         21   -1    0    0  501  502  0.00000000000E+00  0.00000000000E+00  0.63275784305E+01  0.63275784305E+01  0.00000000000E+00 0. -1.
         21   -1    0    0  502  503 -0.00000000000E+00 -0.00000000000E+00 -0.85273092867E+02  0.85273092867E+02  0.00000000000E+00 0.  1.
          2    1    1    2  501    0 -0.16927244978E+02  0.13185857651E+02 -0.21928523418E+02  0.30679938132E+02  0.00000000000E+00 0. -1.
         -2    1    1    2    0  503  0.16927244978E+02 -0.13185857651E+02 -0.57016991019E+02  0.60920733165E+02  0.00000000000E+00 0.  1.
</event>
<event>
 4    1  0.1800096E+004  0.2463953E+02  0.7546771E-02  0.1472877E+00
         21   -1    0    0  501  502  0.00000000000E+00  0.00000000000E+00  0.27194336879E+03  0.27194336879E+03  0.00000000000E+00 0.  1.
         21   -1    0    0  502  503 -0.00000000000E+00 -0.00000000000E+00 -0.81594597099E+01  0.81594597099E+01  0.00000000000E+00 0. -1.
          2    1    1    2  501    0  0.60276621608E+01  0.23890871795E+02  0.25125605850E+03  0.25246131070E+03  0.00000000000E+00 0.  1.
         -2    1    1    2    0  503 -0.60276621608E+01 -0.23890871795E+02  0.12527850580E+02  0.27641517802E+02  0.00000000000E+00 0. -1.
</event>
<event>
 4    1  0.1800096E+004  0.2682393E+02  0.7546771E-02  0.1449385E+00
         21   -1    0    0  503  502  0.00000000000E+00  0.00000000000E+00  0.76713062314E+02  0.76713062314E+02  0.00000000000E+00 0.  1.
         21   -1    0    0  501  503 -0.00000000000E+00 -0.00000000000E+00 -0.94684908466E+01  0.94684908466E+01  0.00000000000E+00 0. -1.
          2    1    1    2  501    0  0.13380888691E+02 -0.23248113621E+02  0.37801989208E+02  0.46352058823E+02  0.00000000000E+00 0. -1.
         -2    1    1    2    0  502 -0.13380888691E+02  0.23248113621E+02  0.29442582259E+02  0.39829494337E+02  0.00000000000E+00 0.  1.
</event>
<event>
 4    1  0.1800096E+004  0.3889399E+02  0.7546771E-02  0.1355092E+00
         21   -1    0    0  501  502  0.00000000000E+00  0.00000000000E+00  0.29030239727E+01  0.29030239727E+01  0.00000000000E+00 0.  1.
         21   -1    0    0  502  503 -0.00000000000E+00 -0.00000000000E+00 -0.52172761154E+03  0.52172761154E+03  0.00000000000E+00 0. -1.
          2    1    1    2  501    0  0.82162003628E+01 -0.38016265197E+02 -0.26856861811E+03  0.27137030973E+03  0.00000000000E+00 0.  1.
         -2    1    1    2    0  503 -0.82162003628E+01  0.38016265197E+02 -0.25025596946E+03  0.25326032579E+03  0.00000000000E+00 0. -1.
</event>
<event>
 4    1  0.1800096E+004  0.2937649E+02  0.7546771E-02  0.1425093E+00
         21   -1    0    0  503  502  0.00000000000E+00  0.00000000000E+00  0.43559089152E+01  0.43559089152E+01  0.00000000000E+00 0. -1.
         21   -1    0    0  501  503 -0.00000000000E+00 -0.00000000000E+00 -0.20642677543E+03  0.20642677543E+03  0.00000000000E+00 0.  1.
          2    1    1    2  501    0  0.29368192548E+02  0.69797684407E+00 -0.79889504195E+02  0.85119391362E+02  0.00000000000E+00 0. -1.
         -2    1    1    2    0  502 -0.29368192548E+02 -0.69797684407E+00 -0.12218136232E+03  0.12566329298E+03  0.00000000000E+00 0.  1.
</event>
<event>
 4    1  0.1800096E+004  0.2343187E+02  0.7546771E-02  0.1487145E+00
         21   -1    0    0  501  502  0.00000000000E+00  0.00000000000E+00  0.13095990785E+02  0.13095990785E+02  0.00000000000E+00 0. -1.
         21   -1    0    0  502  503 -0.00000000000E+00 -0.00000000000E+00 -0.42666707505E+02  0.42666707505E+02  0.00000000000E+00 0.  1.
          2    1    1    2  501    0 -0.19977730180E+02  0.12245106940E+02 -0.11109828400E+02  0.25932231570E+02  0.00000000000E+00 0. -1.
         -2    1    1    2    0  503  0.19977730180E+02 -0.12245106940E+02 -0.18460888321E+02  0.29830466720E+02  0.00000000000E+00 0.  1.
</event>
<event>
 4    1  0.1800096E+004  0.2065065E+02  0.7546771E-02  0.1524312E+00
         21   -1    0    0  503  502  0.00000000000E+00  0.00000000000E+00  0.60173508403E+02  0.60173508403E+02  0.00000000000E+00 0. -1.
         21   -1    0    0  501  503 -0.00000000000E+00 -0.00000000000E+00 -0.18912793668E+02  0.18912793668E+02  0.00000000000E+00 0.  1.
          2    1    1    2  501    0 -0.19301864527E+02 -0.73408151937E+01 -0.10638255396E+02  0.23229765815E+02  0.00000000000E+00 0.  1.
         -2    1    1    2    0  502  0.19301864527E+02  0.73408151937E+01  0.51898970131E+02  0.55856536257E+02  0.00000000000E+00 0. -1.
</event>
<event>
 4    1  0.1800096E+004  0.2048618E+02  0.7546771E-02  0.1526729E+00
         21   -1    0    0  503  502  0.00000000000E+00  0.00000000000E+00  0.68855678983E+01  0.68855678983E+01  0.00000000000E+00 0.  1.
         21   -1    0    0  501  503 -0.00000000000E+00 -0.00000000000E+00 -0.66502155178E+02  0.66502155178E+02  0.00000000000E+00 0. -1.
          2    1    1    2  501    0  0.13885243594E+02 -0.15062660107E+02 -0.19206999385E+02  0.28081889975E+02  0.00000000000E+00 0. -1.
         -2    1    1    2    0  502 -0.13885243594E+02  0.15062660107E+02 -0.40409587894E+02  0.45305833101E+02  0.00000000000E+00 0.  1.
</event>
<event>
 4    1  0.1800096E+004  0.2533561E+02  0.7546771E-02  0.1465084E+00
         21   -1    0    0  503  502  0.00000000000E+00  0.00000000000E+00  0.71396050737E+03  0.71396050737E+03  0.00000000000E+00 0. -1.
         21   -1    0    0  501  503 -0.00000000000E+00 -0.00000000000E+00 -0.92761342706E+00  0.92761342706E+00  0.00000000000E+00 0.  1.
          2    1    1    2  501    0  0.36490544996E+00  0.25332984849E+02  0.29380392117E+03  0.29489428169E+03  0.00000000000E+00 0. -1.
         -2    1    1    2    0  502 -0.36490544996E+00 -0.25332984849E+02  0.41922897277E+03  0.41999383911E+03  0.00000000000E+00 0.  1.
</event>
<event>
 4    1  0.1800096E+004  0.2424423E+02  0.7546771E-02  0.1477439E+00
         21   -1    0    0  501  502  0.00000000000E+00  0.00000000000E+00  0.15019313303E+02  0.15019313303E+02  0.00000000000E+00 0. -1.
         21   -1    0    0  502  503 -0.00000000000E+00 -0.00000000000E+00 -0.59106067438E+02  0.59106067438E+02  0.00000000000E+00 0.  1.
          2    1    1    2  501    0  0.24016740518E+02  0.33134572850E+01 -0.43587067576E+02  0.49875999079E+02  0.00000000000E+00 0.  1.
         -2    1    1    2    0  503 -0.24016740518E+02 -0.33134572850E+01 -0.49968655926E+00  0.24249381662E+02  0.00000000000E+00 0. -1.
</event>
<event>
 4    1  0.1800096E+004  0.2212992E+02  0.7546771E-02  0.1503723E+00
         21   -1    0    0  503  502  0.00000000000E+00  0.00000000000E+00  0.40321489731E+02  0.40321489731E+02  0.00000000000E+00 0. -1.
         21   -1    0    0  501  503 -0.00000000000E+00 -0.00000000000E+00 -0.46283592411E+02  0.46283592411E+02  0.00000000000E+00 0.  1.
          2    1    1    2  501    0  0.88618661340E+01  0.20278082498E+02 -0.40170360661E+02  0.45862742797E+02  0.00000000000E+00 0.  1.
         -2    1    1    2    0  502 -0.88618661340E+01 -0.20278082498E+02  0.34208257981E+02  0.40742339345E+02  0.00000000000E+00 0. -1.
</event>
<event>
 4    1  0.1800096E+004  0.2091563E+02  0.7546771E-02  0.1520473E+00
         21   -1    0    0  501  502  0.00000000000E+00  0.00000000000E+00  0.14455305886E+03  0.14455305886E+03  0.00000000000E+00 0. -1.
         21   -1    0    0  502  503 -0.00000000000E+00 -0.00000000000E+00 -0.50673744044E+01  0.50673744044E+01  0.00000000000E+00 0.  1.
          2    1    1    2  501    0  0.89746462216E+01 -0.18892312970E+02  0.11722131516E+03  0.11907266895E+03  0.00000000000E+00 0. -1.
         -2    1    1    2    0  503 -0.89746462216E+01  0.18892312970E+02  0.22264369295E+02  0.30547764309E+02  0.00000000000E+00 0.  1.
</event>
<event>
 4    1  0.1800096E+004  0.5909264E+02  0.7546771E-02  0.1262947E+00
         21   -1    0    0  501  502  0.00000000000E+00  0.00000000000E+00  0.42957475286E+02  0.42957475286E+02  0.00000000000E+00 0. -1.
         21   -1    0    0  502  503 -0.00000000000E+00 -0.00000000000E+00 -0.10857258879E+03  0.10857258879E+03  0.00000000000E+00 0.  1.
          2    1    1    2  501    0 -0.57122187838E+02 -0.15132605839E+02  0.51733247419E+01  0.59318659726E+02  0.00000000000E+00 0. -1.
         -2    1    1    2    0  503  0.57122187838E+02  0.15132605839E+02 -0.70788438246E+02  0.92211404350E+02  0.00000000000E+00 0.  1.
</event>
<event>
 4    1  0.1800096E+004  0.2945898E+02  0.7546771E-02  0.1424357E+00
         21   -1    0    0  501  502  0.00000000000E+00  0.00000000000E+00  0.72965001457E+01  0.72965001457E+01  0.00000000000E+00 0.  1.
         21   -1    0    0  502  503 -0.00000000000E+00 -0.00000000000E+00 -0.12523106340E+03  0.12523106340E+03  0.00000000000E+00 0. -1.
          2    1    1    2  501    0  0.15390720474E+02 -0.25118857629E+02 -0.44113038651E+02  0.53045183234E+02  0.00000000000E+00 0.  1.
         -2    1    1    2    0  503 -0.15390720474E+02  0.25118857629E+02 -0.73821524608E+02  0.79482380317E+02  0.00000000000E+00 0. -1.
</event>
<event>
 4    1  0.1800096E+004  0.2136155E+02  0.7546771E-02  0.1514165E+00
         21   -1    0    0  501  502  0.00000000000E+00  0.00000000000E+00  0.62524281130E+01  0.62524281130E+01  0.00000000000E+00 0. -1.
         21   -1    0    0  502  503 -0.00000000000E+00 -0.00000000000E+00 -0.75074277209E+02  0.75074277209E+02  0.00000000000E+00 0.  1.
          2    1    1    2  501    0  0.15639956478E+02  0.14550174165E+02 -0.27622812798E+02  0.34918986150E+02  0.00000000000E+00 0. -1.
         -2    1    1    2    0  503 -0.15639956478E+02 -0.14550174165E+02 -0.41199036299E+02  0.46407719173E+02  0.00000000000E+00 0.  1.
</event>
<event>
 4    1  0.1800096E+004  0.2077765E+02  0.7546771E-02  0.1522463E+00
         21   -1    0    0  503  502  0.00000000000E+00  0.00000000000E+00  0.14489352666E+01  0.14489352666E+01  0.00000000000E+00 0. -1.
         21   -1    0    0  501  503 -0.00000000000E+00 -0.00000000000E+00 -0.40904630393E+03  0.40904630393E+03  0.00000000000E+00 0.  1.
          2    1    1    2  501    0  0.19887563110E+02  0.60162717209E+01 -0.31076354233E+03  0.31145736455E+03  0.00000000000E+00 0.  1.
         -2    1    1    2    0  502 -0.19887563110E+02 -0.60162717209E+01 -0.96833826337E+02  0.99037874649E+02  0.00000000000E+00 0. -1.
</event>
<event>
 4    1  0.1800096E+004  0.2802991E+02  0.7546771E-02  0.1437528E+00
         21   -1    0    0  503  502  0.00000000000E+00  0.00000000000E+00  0.65961714276E+01  0.65961714276E+01  0.00000000000E+00 0.  1.
         21   -1    0    0  501  503 -0.00000000000E+00 -0.00000000000E+00 -0.12369733680E+03  0.12369733680E+03  0.00000000000E+00 0. -1.
          2    1    1    2  501    0 -0.11385069112E+02 -0.25613589460E+02 -0.71095026261E+02  0.76421060728E+02  0.00000000000E+00 0. -1.
         -2    1    1    2    0  502  0.11385069112E+02  0.25613589460E+02 -0.46006139112E+02  0.53872447501E+02  0.00000000000E+00 0.  1.
</event>
<event>
 4    1  0.1800096E+004  0.3891372E+02  0.7546771E-02  0.1354972E+00
         21   -1    0    0  503  502  0.00000000000E+00  0.00000000000E+00  0.10546176711E+03  0.10546176711E+03  0.00000000000E+00 0. -1.
         21   -1    0    0  501  503 -0.00000000000E+00 -0.00000000000E+00 -0.57843391804E+02  0.57843391804E+02  0.00000000000E+00 0.  1.
          2    1    1    2  501    0 -0.28107941151E+01  0.38812077755E+02 -0.46987344654E+02  0.61008921485E+02  0.00000000000E+00 0.  1.
         -2    1    1    2    0  502  0.28107941151E+01 -0.38812077755E+02  0.94605719957E+02  0.10229623743E+03  0.00000000000E+00 0. -1.
</event>
<event>
 4    1  0.1800096E+004  0.2085960E+02  0.7546771E-02  0.1521279E+00
         21   -1    0    0  503  502  0.00000000000E+00  0.00000000000E+00  0.77045963181E+02  0.77045963181E+02  0.00000000000E+00 0.  1.
         21   -1    0    0  501  503 -0.00000000000E+00 -0.00000000000E+00 -0.93407774086E+01  0.93407774086E+01  0.00000000000E+00 0. -1.
          2    1    1    2  501    0 -0.50050078017E+01  0.20250253168E+02  0.66927573753E+01  0.21906981941E+02  0.00000000000E+00 0. -1.
         -2    1    1    2    0  502  0.50050078017E+01 -0.20250253168E+02  0.61012428398E+02  0.64479758649E+02  0.00000000000E+00 0.  1.
</event>
<event>
 4    1  0.1800096E+004  0.2230144E+02  0.7546771E-02  0.1501461E+00
         21   -1    0    0  501  502  0.00000000000E+00  0.00000000000E+00  0.51030537029E+01  0.51030537029E+01  0.00000000000E+00 0.  1.
         21   -1    0    0  502  503 -0.00000000000E+00 -0.00000000000E+00 -0.19879669228E+03  0.19879669228E+03  0.00000000000E+00 0. -1.
          2    1    1    2  501    0  0.15637425627E+02  0.15900482078E+02 -0.24058625848E+02  0.32805058882E+02  0.00000000000E+00 0.  1.
         -2    1    1    2    0  503 -0.15637425627E+02 -0.15900482078E+02 -0.16963501273E+03  0.17109468710E+03  0.00000000000E+00 0. -1.
</event>
<event>
 4    1  0.1800096E+004  0.7199101E+02  0.7546771E-02  0.1223771E+00
         21   -1    0    0  501  502  0.00000000000E+00  0.00000000000E+00  0.35962228659E+02  0.35962228659E+02  0.00000000000E+00 0.  1.
         21   -1    0    0  502  503 -0.00000000000E+00 -0.00000000000E+00 -0.14732523187E+03  0.14732523187E+03  0.00000000000E+00 0. -1.
          2    1    1    2  501    0 -0.64308625173E+02 -0.32359030779E+02 -0.42154099252E+02  0.83424661991E+02  0.00000000000E+00 0.  1.
         -2    1    1    2    0  503  0.64308625173E+02  0.32359030779E+02 -0.69208903957E+02  0.99862798536E+02  0.00000000000E+00 0. -1.
</event>
<event>
 4    1  0.1800096E+004  0.2709438E+02  0.7546771E-02  0.1446662E+00
         21   -1    0    0  503  502  0.00000000000E+00  0.00000000000E+00  0.61873541142E+02  0.61873541142E+02  0.00000000000E+00 0. -1.
         21   -1    0    0  501  503 -0.00000000000E+00 -0.00000000000E+00 -0.56693341321E+02  0.56693341321E+02  0.00000000000E+00 0.  1.
          2    1    1    2  501    0  0.16124829187E+02  0.21773731822E+02 -0.50126282090E+02  0.56980256844E+02  0.00000000000E+00 0.  1.
         -2    1    1    2    0  502 -0.16124829187E+02 -0.21773731822E+02  0.55306481911E+02  0.61586625619E+02  0.00000000000E+00 0. -1.
</event>
<event>
 4    1  0.1800096E+004  0.2285903E+02  0.7546771E-02  0.1494276E+00
         21   -1    0    0  503  502  0.00000000000E+00  0.00000000000E+00  0.25574357943E+03  0.25574357943E+03  0.00000000000E+00 0.  1.
         21   -1    0    0  501  503 -0.00000000000E+00 -0.00000000000E+00 -0.33921897358E+01  0.33921897358E+01  0.00000000000E+00 0. -1.
          2    1    1    2  501    0 -0.21554242857E+02  0.76124662187E+01  0.44468221090E+02  0.49999577138E+02  0.00000000000E+00 0. -1.
         -2    1    1    2    0  502  0.21554242857E+02 -0.76124662187E+01  0.20788316860E+03  0.20913619203E+03  0.00000000000E+00 0.  1.
</event>
<event>
 4    1  0.1800096E+004  0.3303793E+02  0.7546771E-02  0.1394908E+00
         21   -1    0    0  503  502  0.00000000000E+00  0.00000000000E+00  0.14044100478E+02  0.14044100478E+02  0.00000000000E+00 0. -1.
         21   -1    0    0  501  503 -0.00000000000E+00 -0.00000000000E+00 -0.38527809370E+03  0.38527809370E+03  0.00000000000E+00 0.  1.
          2    1    1    2  501    0 -0.24313134756E+02  0.22369095157E+02 -0.36400679033E+03  0.36550300730E+03  0.00000000000E+00 0.  1.
         -2    1    1    2    0  502  0.24313134756E+02 -0.22369095157E+02 -0.72272029001E+01  0.33819186885E+02  0.00000000000E+00 0. -1.
</event>
<event>
 4    1  0.1800096E+004  0.2286585E+02  0.7546771E-02  0.1494190E+00
         21   -1    0    0  501  502  0.00000000000E+00  0.00000000000E+00  0.25628064098E+02  0.25628064098E+02  0.00000000000E+00 0. -1.
         21   -1    0    0  502  503 -0.00000000000E+00 -0.00000000000E+00 -0.25077223184E+02  0.25077223184E+02  0.00000000000E+00 0.  1.
          2    1    1    2  501    0 -0.21936728632E+02  0.64518856062E+01  0.11222928682E+02  0.25471572766E+02  0.00000000000E+00 0. -1.
         -2    1    1    2    0  503  0.21936728632E+02 -0.64518856062E+01 -0.10672087768E+02  0.25233714517E+02  0.00000000000E+00 0.  1.
</event>
<event>
 4    1  0.1800096E+004  0.2326666E+02  0.7546771E-02  0.1489177E+00
         21   -1    0    0  503  502  0.00000000000E+00  0.00000000000E+00  0.29706564742E+00  0.29706564742E+00  0.00000000000E+00 0. -1.
         21   -1    0    0  501  503 -0.00000000000E+00 -0.00000000000E+00 -0.22146541498E+04  0.22146541498E+04  0.00000000000E+00 0.  1.
          2    1    1    2  501    0  0.14702363398E+02  0.18032688971E+02 -0.15733335333E+04  0.15735055591E+04  0.00000000000E+00 0.  1.
         -2    1    1    2    0  502 -0.14702363398E+02 -0.18032688971E+02 -0.64102355082E+03  0.64144565636E+03  0.00000000000E+00 0. -1.
</event>
<event>
 4    1  0.1800096E+004  0.2205262E+02  0.7546771E-02  0.1504750E+00
         21   -1    0    0  501  502  0.00000000000E+00  0.00000000000E+00  0.20218802153E+02  0.20218802153E+02  0.00000000000E+00 0. -1.
         21   -1    0    0  502  503 -0.00000000000E+00 -0.00000000000E+00 -0.24320022613E+02  0.24320022613E+02  0.00000000000E+00 0.  1.
          2    1    1    2  501    0  0.21235499928E+02 -0.59473923058E+01  0.28391416566E+00  0.22054444896E+02  0.00000000000E+00 0. -1.
         -2    1    1    2    0  503 -0.21235499928E+02  0.59473923058E+01 -0.43851346259E+01  0.22484379869E+02  0.00000000000E+00 0.  1.
</event>
<event>
 4    1  0.1800096E+004  0.2031979E+02  0.7546771E-02  0.1529202E+00
         21   -1    0    0  503  502  0.00000000000E+00  0.00000000000E+00  0.11094612417E+04  0.11094612417E+04  0.00000000000E+00 0.  1.
         21   -1    0    0  501  503 -0.00000000000E+00 -0.00000000000E+00 -0.52356714095E+00  0.52356714095E+00  0.00000000000E+00 0. -1.
          2    1    1    2  501    0 -0.15609680471E+02  0.13008913339E+02  0.25601436361E+03  0.25681948588E+03  0.00000000000E+00 0. -1.
         -2    1    1    2    0  502  0.15609680471E+02 -0.13008913339E+02  0.85292331097E+03  0.85316532299E+03  0.00000000000E+00 0.  1.
</event>
<event>
 4    1  0.1800096E+004  0.2574589E+02  0.7546771E-02  0.1460629E+00
         21   -1    0    0  501  502  0.00000000000E+00  0.00000000000E+00  0.57690580352E+01  0.57690580352E+01  0.00000000000E+00 0.  1.
         21   -1    0    0  502  503 -0.00000000000E+00 -0.00000000000E+00 -0.34985838666E+03  0.34985838666E+03  0.00000000000E+00 0. -1.
          2    1    1    2  501    0  0.42555948676E+01 -0.25391745637E+02 -0.26325444634E+02  0.36822274093E+02  0.00000000000E+00 0.  1.
         -2    1    1    2    0  503 -0.42555948676E+01  0.25391745637E+02 -0.31776388399E+03  0.31880517061E+03  0.00000000000E+00 0. -1.
</event>
<event>
 4    1  0.1800096E+004  0.2203153E+02  0.7546771E-02  0.1505031E+00
         21   -1    0    0  503  502  0.00000000000E+00  0.00000000000E+00  0.17753228210E+03  0.17753228210E+03  0.00000000000E+00 0.  1.
         21   -1    0    0  501  503 -0.00000000000E+00 -0.00000000000E+00 -0.33223136844E+01  0.33223136844E+01  0.00000000000E+00 0. -1.
          2    1    1    2  501    0  0.16618799168E+02  0.14463872965E+02  0.12515482464E+03  0.12707918098E+03  0.00000000000E+00 0.  1.
         -2    1    1    2    0  502 -0.16618799168E+02 -0.14463872965E+02  0.49055143775E+02  0.53775414807E+02  0.00000000000E+00 0. -1.
</event>
<event>
 4    1  0.1800096E+004  0.2409056E+02  0.7546771E-02  0.1479240E+00
         21   -1    0    0  501  502  0.00000000000E+00  0.00000000000E+00  0.28708513487E+01  0.28708513487E+01  0.00000000000E+00 0. -1.
         21   -1    0    0  502  503 -0.00000000000E+00 -0.00000000000E+00 -0.20572490103E+03  0.20572490103E+03  0.00000000000E+00 0.  1.
          2    1    1    2  501    0  0.24080584766E+02  0.69307855715E+00 -0.11516754618E+03  0.11766018278E+03  0.00000000000E+00 0. -1.
         -2    1    1    2    0  503 -0.24080584766E+02 -0.69307855715E+00 -0.87686503508E+02  0.90935569598E+02  0.00000000000E+00 0.  1.
</event>
<event>
 4    1  0.1800096E+004  0.2025396E+02  0.7546771E-02  0.1530188E+00
         21   -1    0    0  501  502  0.00000000000E+00  0.00000000000E+00  0.56272065346E+03  0.56272065346E+03  0.00000000000E+00 0. -1.
         21   -1    0    0  502  503 -0.00000000000E+00 -0.00000000000E+00 -0.10551292766E+01  0.10551292766E+01  0.00000000000E+00 0.  1.
          2    1    1    2  501    0  0.20107024564E+02  0.24352787209E+01  0.43755076063E+03  0.43801928171E+03  0.00000000000E+00 0. -1.
         -2    1    1    2    0  503 -0.20107024564E+02 -0.24352787209E+01  0.12411476355E+03  0.12575650102E+03  0.00000000000E+00 0.  1.
</event>
<event>
 4    1  0.1800096E+004  0.2426026E+02  0.7546771E-02  0.1477252E+00
         21   -1    0    0  501  502  0.00000000000E+00  0.00000000000E+00  0.39950618521E+01  0.39950618521E+01  0.00000000000E+00 0.  1.
         21   -1    0    0  502  503 -0.00000000000E+00 -0.00000000000E+00 -0.15988601151E+03  0.15988601151E+03  0.00000000000E+00 0. -1.
          2    1    1    2  501    0  0.21669389235E+02  0.10908601678E+02 -0.10091541251E+03  0.10379056076E+03  0.00000000000E+00 0. -1.
         -2    1    1    2    0  503 -0.21669389235E+02 -0.10908601678E+02 -0.54975537150E+02  0.60090512607E+02  0.00000000000E+00 0.  1.
</event>
<event>
 4    1  0.1800096E+004  0.2771258E+02  0.7546771E-02  0.1440579E+00
         21   -1    0    0  501  502  0.00000000000E+00  0.00000000000E+00  0.39491440280E+02  0.39491440280E+02  0.00000000000E+00 0. -1.
         21   -1    0    0  502  503 -0.00000000000E+00 -0.00000000000E+00 -0.41522284575E+02  0.41522284575E+02  0.00000000000E+00 0.  1.
          2    1    1    2  501    0  0.26080396250E+02  0.93701524397E+01  0.28519915537E+02  0.39766473411E+02  0.00000000000E+00 0. -1.
         -2    1    1    2    0  503 -0.26080396250E+02 -0.93701524397E+01 -0.30550759832E+02  0.41247251443E+02  0.00000000000E+00 0.  1.
</event>
<event>
 4    1  0.1800096E+004  0.2629504E+02  0.7546771E-02  0.1454821E+00
         21   -1    0    0  501  502  0.00000000000E+00  0.00000000000E+00  0.10637879637E+03  0.10637879637E+03  0.00000000000E+00 0. -1.
         21   -1    0    0  502  503 -0.00000000000E+00 -0.00000000000E+00 -0.65310810078E+01  0.65310810078E+01  0.00000000000E+00 0.  1.
          2    1    1    2  501    0  0.14507249175E+02 -0.21930999149E+02  0.46009821626E+02  0.52993704233E+02  0.00000000000E+00 0.  1.
         -2    1    1    2    0  503 -0.14507249175E+02  0.21930999149E+02  0.53837893732E+02  0.59916173141E+02  0.00000000000E+00 0. -1.
</event>
<event>
 4    1  0.1800096E+004  0.2204851E+02  0.7546771E-02  0.1504805E+00
         21   -1    0    0  503  502  0.00000000000E+00  0.00000000000E+00  0.11034307157E+03  0.11034307157E+03  0.00000000000E+00 0.  1.
         21   -1    0    0  501  503 -0.00000000000E+00 -0.00000000000E+00 -0.70613276720E+01  0.70613276720E+01  0.00000000000E+00 0. -1.
          2    1    1    2  501    0  0.74442475880E+01  0.20753791134E+02  0.15641400831E+02  0.27033129462E+02  0.00000000000E+00 0. -1.
         -2    1    1    2    0  502 -0.74442475880E+01 -0.20753791134E+02  0.87640343070E+02  0.90371269782E+02  0.00000000000E+00 0.  1.
</event>
<event>
 4    1  0.1800096E+004  0.3341660E+02  0.7546771E-02  0.1392050E+00
         21   -1    0    0  501  502  0.00000000000E+00  0.00000000000E+00  0.80663528003E+01  0.80663528003E+01  0.00000000000E+00 0.  1.
         21   -1    0    0  502  503 -0.00000000000E+00 -0.00000000000E+00 -0.35719001867E+03  0.35719001867E+03  0.00000000000E+00 0. -1.
          2    1    1    2  501    0 -0.33305961326E+02  0.27170139197E+01 -0.31640615147E+02  0.46019536627E+02  0.00000000000E+00 0.  1.
         -2    1    1    2    0  503  0.33305961326E+02 -0.27170139197E+01 -0.31748305072E+03  0.31923683484E+03  0.00000000000E+00 0. -1.
</event>
<event>
 4    1  0.1800096E+004  0.2854811E+02  0.7546771E-02  0.1432648E+00
         21   -1    0    0  501  502  0.00000000000E+00  0.00000000000E+00  0.49427038505E+02  0.49427038505E+02  0.00000000000E+00 0. -1.
         21   -1    0    0  502  503 -0.00000000000E+00 -0.00000000000E+00 -0.18017740513E+02  0.18017740513E+02  0.00000000000E+00 0.  1.
          2    1    1    2  501    0 -0.71966348339E+01  0.27626126358E+02  0.58813326143E+01  0.29147632560E+02  0.00000000000E+00 0.  1.
         -2    1    1    2    0  503  0.71966348339E+01 -0.27626126358E+02  0.25527965378E+02  0.38297146458E+02  0.00000000000E+00 0. -1.
</event>
<event>
 4    1  0.1800096E+004  0.3296510E+02  0.7546771E-02  0.1395463E+00
         21   -1    0    0  503  502  0.00000000000E+00  0.00000000000E+00  0.11536188397E+01  0.11536188397E+01  0.00000000000E+00 0.  1.
         21   -1    0    0  501  503 -0.00000000000E+00 -0.00000000000E+00 -0.94267042578E+03  0.94267042578E+03  0.00000000000E+00 0. -1.
          2    1    1    2  501    0 -0.19377047818E+01 -0.32908099177E+02 -0.48343474322E+03  0.48455737395E+03  0.00000000000E+00 0.  1.
         -2    1    1    2    0  502  0.19377047818E+01  0.32908099177E+02 -0.45808206371E+03  0.45926667067E+03  0.00000000000E+00 0. -1.
</event>
<event>
 4    1  0.1800096E+004  0.2720039E+02  0.7546771E-02  0.1445605E+00
         21   -1    0    0  501  502  0.00000000000E+00  0.00000000000E+00  0.32643858950E+01  0.32643858950E+01  0.00000000000E+00 0. -1.
         21   -1    0    0  502  503 -0.00000000000E+00 -0.00000000000E+00 -0.30776123639E+03  0.30776123639E+03  0.00000000000E+00 0.  1.
          2    1    1    2  501    0 -0.25056301155E+02 -0.10585031665E+02 -0.23208640075E+03  0.23367489924E+03  0.00000000000E+00 0.  1.
         -2    1    1    2    0  503  0.25056301155E+02  0.10585031665E+02 -0.72410449748E+02  0.77350723045E+02  0.00000000000E+00 0. -1.
</event>
<event>
 4    1  0.1800096E+004  0.2283136E+02  0.7546771E-02  0.1494627E+00
         21   -1    0    0  501  502  0.00000000000E+00  0.00000000000E+00  0.10503421350E+02  0.10503421350E+02  0.00000000000E+00 0.  1.
         21   -1    0    0  502  503 -0.00000000000E+00 -0.00000000000E+00 -0.19775481629E+03  0.19775481629E+03  0.00000000000E+00 0. -1.
          2    1    1    2  501    0  0.22776491955E+02 -0.15819266464E+01 -0.35050120099E+01  0.23098835184E+02  0.00000000000E+00 0.  1.
         -2    1    1    2    0  503 -0.22776491955E+02  0.15819266464E+01 -0.18374638293E+03  0.18515940245E+03  0.00000000000E+00 0. -1.
</event>
<event>
 4    1  0.1800096E+004  0.2104562E+02  0.7546771E-02  0.1518614E+00
         21   -1    0    0  501  502  0.00000000000E+00  0.00000000000E+00  0.70837485971E+01  0.70837485971E+01  0.00000000000E+00 0. -1.
         21   -1    0    0  502  503 -0.00000000000E+00 -0.00000000000E+00 -0.62571814068E+02  0.62571814068E+02  0.00000000000E+00 0.  1.
          2    1    1    2  501    0  0.13359609197E+01 -0.21003176330E+02 -0.26801258012E+02  0.34076760975E+02  0.00000000000E+00 0.  1.
         -2    1    1    2    0  503 -0.13359609197E+01  0.21003176330E+02 -0.28686807459E+02  0.35578801690E+02  0.00000000000E+00 0. -1.
</event>
<event>
 4    1  0.1800096E+004  0.2003289E+02  0.7546771E-02  0.1533533E+00
         21   -1    0    0  503  502  0.00000000000E+00  0.00000000000E+00  0.75717657588E+01  0.75717657588E+01  0.00000000000E+00 0.  1.
         21   -1    0    0  501  503 -0.00000000000E+00 -0.00000000000E+00 -0.56542219757E+02  0.56542219757E+02  0.00000000000E+00 0. -1.
          2    1    1    2  501    0 -0.10592608852E+02 -0.17003328913E+02 -0.32506975828E+02  0.38184028519E+02  0.00000000000E+00 0.  1.
         -2    1    1    2    0  502  0.10592608852E+02  0.17003328913E+02 -0.16463478171E+02  0.25929956998E+02  0.00000000000E+00 0. -1.
</event>
<event>
 4    1  0.1800096E+004  0.2478799E+02  0.7546771E-02  0.1471189E+00
         21   -1    0    0  501  502  0.00000000000E+00  0.00000000000E+00  0.42784987944E+01  0.42784987944E+01  0.00000000000E+00 0.  1.
         21   -1    0    0  502  503 -0.00000000000E+00 -0.00000000000E+00 -0.16974382717E+03  0.16974382717E+03  0.00000000000E+00 0. -1.
          2    1    1    2  501    0 -0.19112517617E+02 -0.15784674986E+02 -0.48592795446E+02  0.54550014329E+02  0.00000000000E+00 0.  1.
         -2    1    1    2    0  503  0.19112517617E+02  0.15784674986E+02 -0.11687253293E+03  0.11947231163E+03  0.00000000000E+00 0. -1.
</event>
<event>
 4    1  0.1800096E+004  0.2999751E+02  0.7546771E-02  0.1419618E+00
         21   -1    0    0  503  502  0.00000000000E+00  0.00000000000E+00  0.22333222977E+02  0.22333222977E+02  0.00000000000E+00 0.  1.
         21   -1    0    0  501  503 -0.00000000000E+00 -0.00000000000E+00 -0.57626256098E+02  0.57626256098E+02  0.00000000000E+00 0. -1.
          2    1    1    2  501    0 -0.28758054655E+02 -0.85337435606E+01  0.42806347116E+01  0.30301391391E+02  0.00000000000E+00 0.  1.
         -2    1    1    2    0  502  0.28758054655E+02  0.85337435606E+01 -0.39573667833E+02  0.49658087684E+02  0.00000000000E+00 0. -1.
</event>
<event>
 4    1  0.1800096E+004  0.2618767E+02  0.7546771E-02  0.1455943E+00
         21   -1    0    0  501  502  0.00000000000E+00  0.00000000000E+00  0.10071766016E+02  0.10071766016E+02  0.00000000000E+00 0.  1.
         21   -1    0    0  502  503 -0.00000000000E+00 -0.00000000000E+00 -0.70595206758E+02  0.70595206758E+02  0.00000000000E+00 0. -1.
          2    1    1    2  501    0 -0.26183658574E+02  0.45855421783E+00 -0.37858572350E+02  0.46033311294E+02  0.00000000000E+00 0. -1.
         -2    1    1    2    0  503  0.26183658574E+02 -0.45855421783E+00 -0.22664868391E+02  0.34633661480E+02  0.00000000000E+00 0.  1.
</event>
<event>
 4    1  0.1800096E+004  0.2659214E+02  0.7546771E-02  0.1451749E+00
         21   -1    0    0  503  502  0.00000000000E+00  0.00000000000E+00  0.44702933522E+01  0.44702933522E+01  0.00000000000E+00 0.  1.
         21   -1    0    0  501  503 -0.00000000000E+00 -0.00000000000E+00 -0.16286646608E+03  0.16286646608E+03  0.00000000000E+00 0. -1.
          2    1    1    2  501    0  0.20455006033E+02 -0.16992199990E+02 -0.65015829153E+02  0.70243862172E+02  0.00000000000E+00 0.  1.
         -2    1    1    2    0  502 -0.20455006033E+02  0.16992199990E+02 -0.93380343570E+02  0.97092897256E+02  0.00000000000E+00 0. -1.
</event>
<event>
 4    1  0.1800096E+004  0.2236816E+02  0.7546771E-02  0.1500588E+00
         21   -1    0    0  501  502  0.00000000000E+00  0.00000000000E+00  0.29476231255E+02  0.29476231255E+02  0.00000000000E+00 0. -1.
         21   -1    0    0  502  503 -0.00000000000E+00 -0.00000000000E+00 -0.28926274678E+02  0.28926274678E+02  0.00000000000E+00 0.  1.
          2    1    1    2  501    0 -0.17713880405E+02  0.13658437717E+02  0.19045548994E+02  0.29378009061E+02  0.00000000000E+00 0. -1.
         -2    1    1    2    0  503  0.17713880405E+02 -0.13658437717E+02 -0.18495592417E+02  0.29024496873E+02  0.00000000000E+00 0.  1.
</event>
<event>
 4    1  0.1800096E+004  0.2213601E+02  0.7546771E-02  0.1503642E+00
         21   -1    0    0  501  502  0.00000000000E+00  0.00000000000E+00  0.13634277534E+02  0.13634277534E+02  0.00000000000E+00 0. -1.
         21   -1    0    0  502  503 -0.00000000000E+00 -0.00000000000E+00 -0.73058178772E+03  0.73058178772E+03  0.00000000000E+00 0.  1.
          2    1    1    2  501    0 -0.19831846244E+02  0.98336636559E+01  0.43664236315E+01  0.22562551311E+02  0.00000000000E+00 0. -1.
         -2    1    1    2    0  503  0.19831846244E+02 -0.98336636559E+01 -0.72131393382E+03  0.72165351394E+03  0.00000000000E+00 0.  1.
</event>
<event>
 4    1  0.1800096E+004  0.2005880E+02  0.7546771E-02  0.1533139E+00
         21   -1    0    0  501  502  0.00000000000E+00  0.00000000000E+00  0.67676955051E+01  0.67676955051E+01  0.00000000000E+00 0. -1.
         21   -1    0    0  502  503 -0.00000000000E+00 -0.00000000000E+00 -0.35641349760E+03  0.35641349760E+03  0.00000000000E+00 0.  1.
          2    1    1    2  501    0  0.18738886156E+02  0.71560889224E+01 -0.90681086451E+01  0.22013315457E+02  0.00000000000E+00 0. -1.
         -2    1    1    2    0  503 -0.18738886156E+02 -0.71560889224E+01 -0.34057769345E+03  0.34116787765E+03  0.00000000000E+00 0.  1.
</event>
<event>
 4    1  0.1800096E+004  0.2791666E+02  0.7546771E-02  0.1438611E+00
         21   -1    0    0  501  502  0.00000000000E+00  0.00000000000E+00  0.15279642187E+03  0.15279642187E+03  0.00000000000E+00 0.  1.
         21   -1    0    0  502  503 -0.00000000000E+00 -0.00000000000E+00 -0.88711868339E+02  0.88711868339E+02  0.00000000000E+00 0. -1.
          2    1    1    2  501    0  0.12696277711E+02 -0.24862514344E+02  0.14927364053E+03  0.15186164705E+03  0.00000000000E+00 0.  1.
         -2    1    1    2    0  503 -0.12696277711E+02  0.24862514344E+02 -0.85189086996E+02  0.89646643164E+02  0.00000000000E+00 0. -1.
</event>
<event>
 4    1  0.1800096E+004  0.2583356E+02  0.7546771E-02  0.1459691E+00
         21   -1    0    0  501  502  0.00000000000E+00  0.00000000000E+00  0.26065903323E+03  0.26065903323E+03  0.00000000000E+00 0.  1.
         21   -1    0    0  502  503 -0.00000000000E+00 -0.00000000000E+00 -0.25700370490E+01  0.25700370490E+01  0.00000000000E+00 0. -1.
          2    1    1    2  501    0  0.24888795063E+02  0.69224827759E+01  0.13713358801E+03  0.13954566940E+03  0.00000000000E+00 0.  1.
         -2    1    1    2    0  503 -0.24888795063E+02 -0.69224827759E+01  0.12095540818E+03  0.12368340089E+03  0.00000000000E+00 0. -1.
</event>
<event>
 4    1  0.1800096E+004  0.3275159E+02  0.7546771E-02  0.1397099E+00
         21   -1    0    0  501  502  0.00000000000E+00  0.00000000000E+00  0.37867209298E+02  0.37867209298E+02  0.00000000000E+00 0.  1.
         21   -1    0    0  502  503 -0.00000000000E+00 -0.00000000000E+00 -0.57118218685E+02  0.57118218685E+02  0.00000000000E+00 0. -1.
          2    1    1    2  501    0  0.24235351106E+02  0.22029850863E+02  0.24093073988E+02  0.40658858647E+02  0.00000000000E+00 0.  1.
         -2    1    1    2    0  503 -0.24235351106E+02 -0.22029850863E+02 -0.43344083375E+02  0.54326569336E+02  0.00000000000E+00 0. -1.
</event>
<event>
 4    1  0.1800096E+004  0.2090201E+02  0.7546771E-02  0.1520668E+00
         21   -1    0    0  501  502  0.00000000000E+00  0.00000000000E+00  0.10223147419E+03  0.10223147419E+03  0.00000000000E+00 0. -1.
         21   -1    0    0  502  503 -0.00000000000E+00 -0.00000000000E+00 -0.13187078274E+02  0.13187078274E+02  0.00000000000E+00 0.  1.
          2    1    1    2  501    0  0.75393229485E+01 -0.19494943310E+02  0.91967746319E+02  0.94313098603E+02  0.00000000000E+00 0. -1.
         -2    1    1    2    0  503 -0.75393229485E+01  0.19494943310E+02 -0.29233504003E+01  0.21105453863E+02  0.00000000000E+00 0.  1.
</event>
<event>
 4    1  0.1800096E+004  0.2044599E+02  0.7546771E-02  0.1527324E+00
         21   -1    0    0  501  502  0.00000000000E+00  0.00000000000E+00  0.11217008148E+03  0.11217008148E+03  0.00000000000E+00 0.  1.
         21   -1    0    0  502  503 -0.00000000000E+00 -0.00000000000E+00 -0.66375555594E+01  0.66375555594E+01  0.00000000000E+00 0. -1.
          2    1    1    2  501    0 -0.37510893445E+01  0.20098949071E+02  0.92104163101E+02  0.94346252102E+02  0.00000000000E+00 0.  1.
         -2    1    1    2    0  503  0.37510893445E+01 -0.20098949071E+02  0.13428362818E+02  0.24461384936E+02  0.00000000000E+00 0. -1.
</event>
<event>
 4    1  0.1800096E+004  0.2231477E+02  0.7546771E-02  0.1501287E+00
         21   -1    0    0  501  502  0.00000000000E+00  0.00000000000E+00  0.66295788851E+02  0.66295788851E+02  0.00000000000E+00 0. -1.
         21   -1    0    0  502  503 -0.00000000000E+00 -0.00000000000E+00 -0.17011559007E+02  0.17011559007E+02  0.00000000000E+00 0.  1.
          2    1    1    2  501    0  0.14886657025E+02  0.16623369600E+02  0.55770413623E+02  0.60069027043E+02  0.00000000000E+00 0. -1.
         -2    1    1    2    0  503 -0.14886657025E+02 -0.16623369600E+02 -0.64861837798E+01  0.23238320814E+02  0.00000000000E+00 0.  1.
</event>
<event>
 4    1  0.1800096E+004  0.2321270E+02  0.7546771E-02  0.1489844E+00
         21   -1    0    0  501  502  0.00000000000E+00  0.00000000000E+00  0.69184736314E+01  0.69184736314E+01  0.00000000000E+00 0.  1.
         21   -1    0    0  502  503 -0.00000000000E+00 -0.00000000000E+00 -0.10970413646E+03  0.10970413646E+03  0.00000000000E+00 0. -1.
          2    1    1    2  501    0 -0.18727195774E+02  0.13715744582E+02 -0.82797994043E+02  0.85990332762E+02  0.00000000000E+00 0. -1.
         -2    1    1    2    0  503  0.18727195774E+02 -0.13715744582E+02 -0.19987668789E+02  0.30632277333E+02  0.00000000000E+00 0.  1.
</event>
<event>
 4    1  0.1800096E+004  0.2353636E+02  0.7546771E-02  0.1485871E+00
         21   -1    0    0  501  502  0.00000000000E+00  0.00000000000E+00  0.25917814394E+02  0.25917814394E+02  0.00000000000E+00 0. -1.
         21   -1    0    0  502  503 -0.00000000000E+00 -0.00000000000E+00 -0.65789875277E+02  0.65789875277E+02  0.00000000000E+00 0.  1.
          2    1    1    2  501    0  0.10009256766E+02 -0.21301994312E+02  0.17740134781E+02  0.29473251682E+02  0.00000000000E+00 0. -1.
         -2    1    1    2    0  503 -0.10009256766E+02  0.21301994312E+02 -0.57612195664E+02  0.62234437989E+02  0.00000000000E+00 0.  1.
</event>
<event>
 4    1  0.1800096E+004  0.4868841E+02  0.7546771E-02  0.1303961E+00
         21   -1    0    0  503  502  0.00000000000E+00  0.00000000000E+00  0.38268750703E+02  0.38268750703E+02  0.00000000000E+00 0. -1.
         21   -1    0    0  501  503 -0.00000000000E+00 -0.00000000000E+00 -0.64608770368E+02  0.64608770368E+02  0.00000000000E+00 0.  1.
          2    1    1    2  501    0  0.48627486242E+02 -0.24349384553E+01 -0.27255611462E+01  0.48764639105E+02  0.00000000000E+00 0.  1.
         -2    1    1    2    0  502 -0.48627486242E+02  0.24349384553E+01 -0.23614458519E+02  0.54112881965E+02  0.00000000000E+00 0. -1.
</event>
<event>
 4    1  0.1800096E+004  0.3723730E+02  0.7546771E-02  0.1365483E+00
         21   -1    0    0  501  502  0.00000000000E+00  0.00000000000E+00  0.15764291258E+02  0.15764291258E+02  0.00000000000E+00 0. -1.
         21   -1    0    0  502  503 -0.00000000000E+00 -0.00000000000E+00 -0.25773938046E+03  0.25773938046E+03  0.00000000000E+00 0.  1.
          2    1    1    2  501    0  0.17142898426E+01  0.37197818900E+02 -0.99969693069E+01  0.38555880432E+02  0.00000000000E+00 0. -1.
         -2    1    1    2    0  503 -0.17142898426E+01 -0.37197818900E+02 -0.23197811989E+03  0.23494779129E+03  0.00000000000E+00 0.  1.
</event>
<event>
 4    1  0.1800096E+004  0.2992255E+02  0.7546771E-02  0.1420271E+00
         21   -1    0    0  501  502  0.00000000000E+00  0.00000000000E+00  0.33543553727E+02  0.33543553727E+02  0.00000000000E+00 0.  1.
         21   -1    0    0  502  503 -0.00000000000E+00 -0.00000000000E+00 -0.20606807151E+03  0.20606807151E+03  0.00000000000E+00 0. -1.
          2    1    1    2  501    0 -0.14123967155E+02  0.26379398744E+02  0.25515208024E+02  0.39324101602E+02  0.00000000000E+00 0.  1.
         -2    1    1    2    0  503  0.14123967155E+02 -0.26379398744E+02 -0.19803972581E+03  0.20028752363E+03  0.00000000000E+00 0. -1.
</event>
<event>
 4    1  0.1800096E+004  0.2285154E+02  0.7546771E-02  0.1494371E+00
         21   -1    0    0  501  502  0.00000000000E+00  0.00000000000E+00  0.24862730607E+01  0.24862730607E+01  0.00000000000E+00 0. -1.
         21   -1    0    0  502  503 -0.00000000000E+00 -0.00000000000E+00 -0.59935808776E+03  0.59935808776E+03  0.00000000000E+00 0.  1.
          2    1    1    2  501    0  0.21790103066E+02  0.68836289200E+01 -0.55904125682E+02  0.60394239850E+02  0.00000000000E+00 0. -1.
         -2    1    1    2    0  503 -0.21790103066E+02 -0.68836289200E+01 -0.54096768902E+03  0.54145012098E+03  0.00000000000E+00 0.  1.
</event>
<event>
 4    1  0.1800096E+004  0.2415497E+02  0.7546771E-02  0.1478483E+00
         21   -1    0    0  501  502  0.00000000000E+00  0.00000000000E+00  0.15293732283E+04  0.15293732283E+04  0.00000000000E+00 0. -1.
         21   -1    0    0  502  503 -0.00000000000E+00 -0.00000000000E+00 -0.49621878906E+00  0.49621878906E+00  0.00000000000E+00 0.  1.
          2    1    1    2  501    0 -0.22313928175E+02 -0.92493940064E+01  0.11322257316E+04  0.11324833641E+04  0.00000000000E+00 0. -1.
         -2    1    1    2    0  503  0.22313928175E+02  0.92493940064E+01  0.39665127791E+03  0.39738608298E+03  0.00000000000E+00 0.  1.
</event>
<event>
 4    1  0.1800096E+004  0.2020023E+02  0.7546771E-02  0.1530997E+00
         21   -1    0    0  501  502  0.00000000000E+00  0.00000000000E+00  0.98456178860E+01  0.98456178860E+01  0.00000000000E+00 0. -1.
         21   -1    0    0  502  503 -0.00000000000E+00 -0.00000000000E+00 -0.42498987816E+02  0.42498987816E+02  0.00000000000E+00 0.  1.
          2    1    1    2  501    0  0.13666092338E+02  0.14875728509E+02 -0.20448776364E+02  0.28743726850E+02  0.00000000000E+00 0.  1.
         -2    1    1    2    0  503 -0.13666092338E+02 -0.14875728509E+02 -0.12204593566E+02  0.23600878852E+02  0.00000000000E+00 0. -1.
</event>
<event>
 4    1  0.1800096E+004  0.2598441E+02  0.7546771E-02  0.1458085E+00
         21   -1    0    0  503  502  0.00000000000E+00  0.00000000000E+00  0.18060947083E+02  0.18060947083E+02  0.00000000000E+00 0. -1.
         21   -1    0    0  501  503 -0.00000000000E+00 -0.00000000000E+00 -0.37490692128E+02  0.37490692128E+02  0.00000000000E+00 0.  1.
          2    1    1    2  501    0  0.13102856219E+02  0.22438911325E+02 -0.82328029495E+01  0.27257450852E+02  0.00000000000E+00 0. -1.
         -2    1    1    2    0  502 -0.13102856219E+02 -0.22438911325E+02 -0.11196942096E+02  0.28294188358E+02  0.00000000000E+00 0.  1.
</event>
<event>
 4    1  0.1800096E+004  0.2691684E+02  0.7546771E-02  0.1448445E+00
         21   -1    0    0  501  502  0.00000000000E+00  0.00000000000E+00  0.88647773717E+02  0.88647773717E+02  0.00000000000E+00 0. -1.
         21   -1    0    0  502  503 -0.00000000000E+00 -0.00000000000E+00 -0.10156107789E+02  0.10156107789E+02  0.00000000000E+00 0.  1.
          2    1    1    2  501    0  0.25309386914E+02  0.91624801625E+01  0.61075955351E+02  0.66744201477E+02  0.00000000000E+00 0. -1.
         -2    1    1    2    0  503 -0.25309386914E+02 -0.91624801625E+01  0.17415710576E+02  0.32059680029E+02  0.00000000000E+00 0.  1.
</event>
<event>
 4    1  0.1800096E+004  0.3315664E+02  0.7546771E-02  0.1394007E+00
         21   -1    0    0  501  502  0.00000000000E+00  0.00000000000E+00  0.57301055733E+01  0.57301055733E+01  0.00000000000E+00 0.  1.
         21   -1    0    0  502  503 -0.00000000000E+00 -0.00000000000E+00 -0.23039835702E+03  0.23039835702E+03  0.00000000000E+00 0. -1.
          2    1    1    2  501    0 -0.28927754716E+02 -0.16203327991E+02 -0.64046014005E+02  0.72119725046E+02  0.00000000000E+00 0.  1.
         -2    1    1    2    0  503  0.28927754716E+02  0.16203327991E+02 -0.16062223744E+03  0.16400873755E+03  0.00000000000E+00 0. -1.
</event>
<event>
 4    1  0.1800096E+004  0.2062807E+02  0.7546771E-02  0.1524642E+00
         21   -1    0    0  503  502  0.00000000000E+00  0.00000000000E+00  0.18762781892E+03  0.18762781892E+03  0.00000000000E+00 0.  1.
         21   -1    0    0  501  503 -0.00000000000E+00 -0.00000000000E+00 -0.30462867249E+02  0.30462867249E+02  0.00000000000E+00 0. -1.
          2    1    1    2  501    0  0.20627840177E+02  0.96604205923E-01 -0.26325303967E+02  0.33444562363E+02  0.00000000000E+00 0. -1.
         -2    1    1    2    0  502 -0.20627840177E+02 -0.96604205923E-01  0.18349025563E+03  0.18464612380E+03  0.00000000000E+00 0.  1.
</event>
<event>
 4    1  0.1800096E+004  0.2658480E+02  0.7546771E-02  0.1451824E+00
         21   -1    0    0  503  502  0.00000000000E+00  0.00000000000E+00  0.68289914692E+01  0.68289914692E+01  0.00000000000E+00 0. -1.
         21   -1    0    0  501  503 -0.00000000000E+00 -0.00000000000E+00 -0.14753274773E+03  0.14753274773E+03  0.00000000000E+00 0.  1.
          2    1    1    2  501    0 -0.21459502365E+02  0.15692077911E+02 -0.11252043858E+03  0.11561834045E+03  0.00000000000E+00 0.  1.
         -2    1    1    2    0  502  0.21459502365E+02 -0.15692077911E+02 -0.28183317682E+02  0.38743398747E+02  0.00000000000E+00 0. -1.
</event>
<event>
 4    1  0.1800096E+004  0.5750577E+02  0.7546771E-02  0.1268551E+00
         21   -1    0    0  503  502  0.00000000000E+00  0.00000000000E+00  0.57264929553E+02  0.57264929553E+02  0.00000000000E+00 0.  1.
         21   -1    0    0  501  503 -0.00000000000E+00 -0.00000000000E+00 -0.65476526890E+02  0.65476526890E+02  0.00000000000E+00 0. -1.
          2    1    1    2  501    0 -0.16062772483E+02  0.55216851699E+02 -0.25190988077E+02  0.62781360702E+02  0.00000000000E+00 0.  1.
         -2    1    1    2    0  502  0.16062772483E+02 -0.55216851699E+02  0.16979390740E+02  0.59960095741E+02  0.00000000000E+00 0. -1.
</event>
<event>
 4    1  0.1800096E+004  0.2674986E+02  0.7546771E-02  0.1450137E+00
         21   -1    0    0  501  502  0.00000000000E+00  0.00000000000E+00  0.22642323037E+03  0.22642323037E+03  0.00000000000E+00 0.  1.
         21   -1    0    0  502  503 -0.00000000000E+00 -0.00000000000E+00 -0.31660349707E+01  0.31660349707E+01  0.00000000000E+00 0. -1.
          2    1    1    2  501    0 -0.91063229472E+01  0.25152135257E+02  0.11653368228E+03  0.11956443506E+03  0.00000000000E+00 0.  1.
         -2    1    1    2    0  503  0.91063229472E+01 -0.25152135257E+02  0.10672351312E+03  0.11002483028E+03  0.00000000000E+00 0. -1.
</event>
<event>
 4    1  0.1800096E+004  0.2226534E+02  0.7546771E-02  0.1501935E+00
         21   -1    0    0  503  502  0.00000000000E+00  0.00000000000E+00  0.11944565936E+02  0.11944565936E+02  0.00000000000E+00 0.  1.
         21   -1    0    0  501  503 -0.00000000000E+00 -0.00000000000E+00 -0.49228376056E+02  0.49228376056E+02  0.00000000000E+00 0. -1.
          2    1    1    2  501    0 -0.12580519406E+02 -0.18370511168E+02 -0.30757878160E+02  0.37970939124E+02  0.00000000000E+00 0. -1.
         -2    1    1    2    0  502  0.12580519406E+02  0.18370511168E+02 -0.65259319604E+01  0.23202002867E+02  0.00000000000E+00 0.  1.
</event>
<event>
 4    1  0.1800096E+004  0.3432758E+02  0.7546771E-02  0.1385353E+00
         21   -1    0    0  503  502  0.00000000000E+00  0.00000000000E+00  0.17355326266E+02  0.17355326266E+02  0.00000000000E+00 0.  1.
         21   -1    0    0  501  503 -0.00000000000E+00 -0.00000000000E+00 -0.11760943004E+03  0.11760943004E+03  0.00000000000E+00 0. -1.
          2    1    1    2  501    0 -0.18998244590E+02 -0.28591070831E+02 -0.94000299080E+02  0.10007216824E+03  0.00000000000E+00 0. -1.
         -2    1    1    2    0  502  0.18998244590E+02  0.28591070831E+02 -0.62538046901E+01  0.34892588065E+02  0.00000000000E+00 0.  1.
</event>
<event>
 4    1  0.1800096E+004  0.3464334E+02  0.7546771E-02  0.1383088E+00
         21   -1    0    0  501  502  0.00000000000E+00  0.00000000000E+00  0.83655731756E+02  0.83655731756E+02  0.00000000000E+00 0.  1.
         21   -1    0    0  502  503 -0.00000000000E+00 -0.00000000000E+00 -0.25157799317E+02  0.25157799317E+02  0.00000000000E+00 0. -1.
          2    1    1    2  501    0  0.33460515879E+02 -0.89752299039E+01  0.64915178441E+02  0.73580848505E+02  0.00000000000E+00 0.  1.
         -2    1    1    2    0  503 -0.33460515879E+02  0.89752299039E+01 -0.64172460022E+01  0.35232682568E+02  0.00000000000E+00 0. -1.
</event>
<event>
 4    1  0.1800096E+004  0.2130491E+02  0.7546771E-02  0.1514956E+00
         21   -1    0    0  501  502  0.00000000000E+00  0.00000000000E+00  0.43445372978E+01  0.43445372978E+01  0.00000000000E+00 0.  1.
         21   -1    0    0  502  503 -0.00000000000E+00 -0.00000000000E+00 -0.13771679950E+03  0.13771679950E+03  0.00000000000E+00 0. -1.
          2    1    1    2  501    0  0.13143034319E+02 -0.16767822459E+02 -0.31789045403E+02  0.38268036647E+02  0.00000000000E+00 0.  1.
         -2    1    1    2    0  503 -0.13143034319E+02  0.16767822459E+02 -0.10158321680E+03  0.10379330015E+03  0.00000000000E+00 0. -1.
</event>
<event>
 4    1  0.1800096E+004  0.2474208E+02  0.7546771E-02  0.1471710E+00
         21   -1    0    0  501  502  0.00000000000E+00  0.00000000000E+00  0.49311607199E+02  0.49311607199E+02  0.00000000000E+00 0. -1.
         21   -1    0    0  502  503 -0.00000000000E+00 -0.00000000000E+00 -0.13348043167E+02  0.13348043167E+02  0.00000000000E+00 0.  1.
          2    1    1    2  501    0  0.52896325600E+01  0.24170027018E+02  0.96955593369E+01  0.26573940046E+02  0.00000000000E+00 0. -1.
         -2    1    1    2    0  503 -0.52896325600E+01 -0.24170027018E+02  0.26268004695E+02  0.36085710320E+02  0.00000000000E+00 0.  1.
</event>
<event>
 4    1  0.1800096E+004  0.2454646E+02  0.7546771E-02  0.1473942E+00
         21   -1    0    0  501  502  0.00000000000E+00  0.00000000000E+00  0.23465587340E+03  0.23465587340E+03  0.00000000000E+00 0. -1.
         21   -1    0    0  502  503 -0.00000000000E+00 -0.00000000000E+00 -0.36499821443E+01  0.36499821443E+01  0.00000000000E+00 0.  1.
          2    1    1    2  501    0 -0.24280184563E+02  0.36057360251E+01  0.18038538856E+03  0.18204784289E+03  0.00000000000E+00 0. -1.
         -2    1    1    2    0  503  0.24280184563E+02 -0.36057360251E+01  0.50620502690E+02  0.56258012649E+02  0.00000000000E+00 0.  1.
</event>
<event>
 4    1  0.1800096E+004  0.2863135E+02  0.7546771E-02  0.1431875E+00
         21   -1    0    0  503  502  0.00000000000E+00  0.00000000000E+00  0.23497537712E+02  0.23497537712E+02  0.00000000000E+00 0. -1.
         21   -1    0    0  501  503 -0.00000000000E+00 -0.00000000000E+00 -0.48699585019E+02  0.48699585019E+02  0.00000000000E+00 0.  1.
          2    1    1    2  501    0 -0.72981726684E+01 -0.27685568813E+02 -0.31826087580E+02  0.42809507068E+02  0.00000000000E+00 0.  1.
         -2    1    1    2    0  502  0.72981726684E+01  0.27685568813E+02  0.66240402726E+01  0.29387615662E+02  0.00000000000E+00 0. -1.
</event>
<event>
 4    1  0.1800096E+004  0.2939251E+02  0.7546771E-02  0.1424950E+00
         21   -1    0    0  503  502  0.00000000000E+00  0.00000000000E+00  0.44734181519E+02  0.44734181519E+02  0.00000000000E+00 0.  1.
         21   -1    0    0  501  503 -0.00000000000E+00 -0.00000000000E+00 -0.22355015246E+02  0.22355015246E+02  0.00000000000E+00 0. -1.
          2    1    1    2  501    0  0.41515587343E+01  0.29097836225E+02  0.23565188104E+02  0.37672770050E+02  0.00000000000E+00 0.  1.
         -2    1    1    2    0  502 -0.41515587343E+01 -0.29097836225E+02 -0.11860218308E+01  0.29416426715E+02  0.00000000000E+00 0. -1.
</event>
<event>
 4    1  0.1800096E+004  0.2813238E+02  0.7546771E-02  0.1436553E+00
         21   -1    0    0  501  502  0.00000000000E+00  0.00000000000E+00  0.75442152370E+02  0.75442152370E+02  0.00000000000E+00 0.  1.
         21   -1    0    0  502  503 -0.00000000000E+00 -0.00000000000E+00 -0.10490650536E+02  0.10490650536E+02  0.00000000000E+00 0. -1.
          2    1    1    2  501    0  0.79185603327E+01  0.26994952122E+02  0.32355314123E+02  0.42875370434E+02  0.00000000000E+00 0. -1.
         -2    1    1    2    0  503 -0.79185603327E+01 -0.26994952122E+02  0.32596187711E+02  0.43057432472E+02  0.00000000000E+00 0.  1.
</event>
<event>
 4    1  0.1800096E+004  0.2009750E+02  0.7546771E-02  0.1532550E+00
         21   -1    0    0  501  502  0.00000000000E+00  0.00000000000E+00  0.13425661236E+02  0.13425661236E+02  0.00000000000E+00 0. -1.
         21   -1    0    0  502  503 -0.00000000000E+00 -0.00000000000E+00 -0.46875186066E+02  0.46875186066E+02  0.00000000000E+00 0.  1.
          2    1    1    2  501    0 -0.18469535069E+02  0.79237560230E+01  0.13199931476E+01  0.20140804778E+02  0.00000000000E+00 0. -1.
         -2    1    1    2    0  503  0.18469535069E+02 -0.79237560230E+01 -0.34769517977E+02  0.40160042524E+02  0.00000000000E+00 0.  1.
</event>
<event>
 4    1  0.1800096E+004  0.2080867E+02  0.7546771E-02  0.1522014E+00
         21   -1    0    0  501  502  0.00000000000E+00  0.00000000000E+00  0.74562653361E+02  0.74562653361E+02  0.00000000000E+00 0.  1.
         21   -1    0    0  502  503 -0.00000000000E+00 -0.00000000000E+00 -0.10098552427E+02  0.10098552427E+02  0.00000000000E+00 0. -1.
          2    1    1    2  501    0 -0.19921836539E+02 -0.60100949167E+01  0.59826491116E+02  0.63342007003E+02  0.00000000000E+00 0.  1.
         -2    1    1    2    0  503  0.19921836539E+02  0.60100949167E+01  0.46376098181E+01  0.21319198785E+02  0.00000000000E+00 0. -1.
</event>
<event>
 4    1  0.1800096E+004  0.2633765E+02  0.7546771E-02  0.1454377E+00
         21   -1    0    0  503  502  0.00000000000E+00  0.00000000000E+00  0.34272787918E+02  0.34272787918E+02  0.00000000000E+00 0.  1.
         21   -1    0    0  501  503 -0.00000000000E+00 -0.00000000000E+00 -0.10256474563E+03  0.10256474563E+03  0.00000000000E+00 0. -1.
          2    1    1    2  501    0 -0.20980693434E+02 -0.15921134180E+02 -0.95443384862E+02  0.99010664700E+02  0.00000000000E+00 0. -1.
         -2    1    1    2    0  502  0.20980693434E+02  0.15921134180E+02  0.27151427150E+02  0.37826868848E+02  0.00000000000E+00 0.  1.
</event>
<event>
 4    1  0.1800096E+004  0.2386522E+02  0.7546771E-02  0.1481910E+00
         21   -1    0    0  503  502  0.00000000000E+00  0.00000000000E+00  0.20788864819E+03  0.20788864819E+03  0.00000000000E+00 0. -1.
         21   -1    0    0  501  503 -0.00000000000E+00 -0.00000000000E+00 -0.27892010683E+01  0.27892010683E+01  0.00000000000E+00 0.  1.
          2    1    1    2  501    0  0.10331150364E+01 -0.23842849435E+02  0.88513992950E+02  0.91674837026E+02  0.00000000000E+00 0. -1.
         -2    1    1    2    0  502 -0.10331150364E+01  0.23842849435E+02  0.11658545417E+03  0.11900301223E+03  0.00000000000E+00 0.  1.
</event>
<event>
 4    1  0.1800096E+004  0.4042795E+02  0.7546771E-02  0.1345996E+00
         21   -1    0    0  503  502  0.00000000000E+00  0.00000000000E+00  0.11907737957E+03  0.11907737957E+03  0.00000000000E+00 0.  1.
         21   -1    0    0  501  503 -0.00000000000E+00 -0.00000000000E+00 -0.15425712723E+02  0.15425712723E+02  0.00000000000E+00 0. -1.
          2    1    1    2  501    0  0.35538767431E+02  0.19272125303E+02  0.29500012375E+02  0.50046673560E+02  0.00000000000E+00 0.  1.
         -2    1    1    2    0  502 -0.35538767431E+02 -0.19272125303E+02  0.74151654471E+02  0.84456418732E+02  0.00000000000E+00 0. -1.
</event>
<event>
 4    1  0.1800096E+004  0.2019510E+02  0.7546771E-02  0.1531074E+00
         21   -1    0    0  503  502  0.00000000000E+00  0.00000000000E+00  0.11504366691E+02  0.11504366691E+02  0.00000000000E+00 0. -1.
         21   -1    0    0  501  503 -0.00000000000E+00 -0.00000000000E+00 -0.42906454003E+02  0.42906454003E+02  0.00000000000E+00 0.  1.
          2    1    1    2  501    0  0.96801984505E+01 -0.17723881084E+02 -0.27041453232E+02  0.33750294749E+02  0.00000000000E+00 0.  1.
         -2    1    1    2    0  502 -0.96801984505E+01  0.17723881084E+02 -0.43606340802E+01  0.20660525945E+02  0.00000000000E+00 0. -1.
</event>
<event>
 4    1  0.1800096E+004  0.2637145E+02  0.7546771E-02  0.1454026E+00
         21   -1    0    0  501  502  0.00000000000E+00  0.00000000000E+00  0.19342050315E+03  0.19342050315E+03  0.00000000000E+00 0.  1.
         21   -1    0    0  502  503 -0.00000000000E+00 -0.00000000000E+00 -0.13311635075E+02  0.13311635075E+02  0.00000000000E+00 0. -1.
          2    1    1    2  501    0  0.99770379582E+00 -0.26352566174E+02  0.17836403980E+03  0.18030303339E+03  0.00000000000E+00 0.  1.
         -2    1    1    2    0  503 -0.99770379582E+00  0.26352566174E+02  0.17448282808E+01  0.26429104839E+02  0.00000000000E+00 0. -1.
</event>
<event>
 4    1  0.1800096E+004  0.2970625E+02  0.7546771E-02  0.1422167E+00
         21   -1    0    0  503  502  0.00000000000E+00  0.00000000000E+00  0.52569243516E+02  0.52569243516E+02  0.00000000000E+00 0. -1.
         21   -1    0    0  501  503 -0.00000000000E+00 -0.00000000000E+00 -0.17107307554E+02  0.17107307554E+02  0.00000000000E+00 0.  1.
          2    1    1    2  501    0 -0.23711095766E+02  0.17895399025E+02  0.12961300098E+02  0.32410749280E+02  0.00000000000E+00 0. -1.
         -2    1    1    2    0  502  0.23711095766E+02 -0.17895399025E+02  0.22500635865E+02  0.37265801790E+02  0.00000000000E+00 0.  1.
</event>
<event>
 4    1  0.1800096E+004  0.2653475E+02  0.7546771E-02  0.1452338E+00
         21   -1    0    0  501  502  0.00000000000E+00  0.00000000000E+00  0.99846921587E+01  0.99846921587E+01  0.00000000000E+00 0.  1.
         21   -1    0    0  502  503 -0.00000000000E+00 -0.00000000000E+00 -0.14891983778E+03  0.14891983778E+03  0.00000000000E+00 0. -1.
          2    1    1    2  501    0 -0.21676379569E+02 -0.15304488302E+02 -0.11818109280E+02  0.29047555842E+02  0.00000000000E+00 0.  1.
         -2    1    1    2    0  503  0.21676379569E+02  0.15304488302E+02 -0.12711703634E+03  0.12985697409E+03  0.00000000000E+00 0. -1.
</event>
<event>
 4    1  0.1800096E+004  0.2506069E+02  0.7546771E-02  0.1468126E+00
         21   -1    0    0  503  502  0.00000000000E+00  0.00000000000E+00  0.57720383086E+02  0.57720383086E+02  0.00000000000E+00 0.  1.
         21   -1    0    0  501  503 -0.00000000000E+00 -0.00000000000E+00 -0.61912210662E+02  0.61912210662E+02  0.00000000000E+00 0. -1.
          2    1    1    2  501    0 -0.18770541710E+02  0.16604366561E+02 -0.56402258987E+02  0.61719146493E+02  0.00000000000E+00 0. -1.
         -2    1    1    2    0  502  0.18770541710E+02 -0.16604366561E+02  0.52210431411E+02  0.57913447256E+02  0.00000000000E+00 0.  1.
</event>
<event>
 4    1  0.1800096E+004  0.2196978E+02  0.7546771E-02  0.1505856E+00
         21   -1    0    0  501  502  0.00000000000E+00  0.00000000000E+00  0.37339952668E+02  0.37339952668E+02  0.00000000000E+00 0.  1.
         21   -1    0    0  502  503 -0.00000000000E+00 -0.00000000000E+00 -0.17962673311E+02  0.17962673311E+02  0.00000000000E+00 0. -1.
          2    1    1    2  501    0 -0.15929650773E+02  0.15130018756E+02  0.24330114621E+02  0.32781484389E+02  0.00000000000E+00 0.  1.
         -2    1    1    2    0  503  0.15929650773E+02 -0.15130018756E+02 -0.49528352639E+01  0.22521141589E+02  0.00000000000E+00 0. -1.
</event>
<event>
 4    1  0.1800096E+004  0.2123684E+02  0.7546771E-02  0.1515910E+00
         21   -1    0    0  501  502  0.00000000000E+00  0.00000000000E+00  0.81908176288E+01  0.81908176288E+01  0.00000000000E+00 0.  1.
         21   -1    0    0  502  503 -0.00000000000E+00 -0.00000000000E+00 -0.63308441302E+02  0.63308441302E+02  0.00000000000E+00 0. -1.
          2    1    1    2  501    0 -0.16428892377E+02  0.13457152121E+02 -0.14656369162E+02  0.25803344841E+02  0.00000000000E+00 0.  1.
         -2    1    1    2    0  503  0.16428892377E+02 -0.13457152121E+02 -0.40461254511E+02  0.45695914090E+02  0.00000000000E+00 0. -1.
</event>
<event>
 4    1  0.1800096E+004  0.2759559E+02  0.7546771E-02  0.1441715E+00
         21   -1    0    0  503  502  0.00000000000E+00  0.00000000000E+00  0.36486632293E+02  0.36486632293E+02  0.00000000000E+00 0. -1.
         21   -1    0    0  501  503 -0.00000000000E+00 -0.00000000000E+00 -0.54640807493E+02  0.54640807493E+02  0.00000000000E+00 0.  1.
          2    1    1    2  501    0 -0.50454816353E+01 -0.27130417821E+02 -0.44896974863E+02  0.52699666108E+02  0.00000000000E+00 0.  1.
         -2    1    1    2    0  502  0.50454816353E+01  0.27130417821E+02  0.26742799663E+02  0.38427773679E+02  0.00000000000E+00 0. -1.
</event>
<event>
 4    1  0.1800096E+004  0.4968243E+02  0.7546771E-02  0.1299555E+00
         21   -1    0    0  501  502  0.00000000000E+00  0.00000000000E+00  0.23519476090E+02  0.23519476090E+02  0.00000000000E+00 0. -1.
         21   -1    0    0  502  503 -0.00000000000E+00 -0.00000000000E+00 -0.14066449800E+03  0.14066449800E+03  0.00000000000E+00 0.  1.
          2    1    1    2  501    0  0.17616205886E+02 -0.46454421906E+02 -0.17207108587E+02  0.52577833831E+02  0.00000000000E+00 0. -1.
         -2    1    1    2    0  503 -0.17616205886E+02  0.46454421906E+02 -0.99937913327E+02  0.11160614026E+03  0.00000000000E+00 0.  1.
</event>
<event>
 4    1  0.1800096E+004  0.2899002E+02  0.7546771E-02  0.1428581E+00
         21   -1    0    0  501  502  0.00000000000E+00  0.00000000000E+00  0.27759067506E+02  0.27759067506E+02  0.00000000000E+00 0. -1.
         21   -1    0    0  502  503 -0.00000000000E+00 -0.00000000000E+00 -0.44647812049E+02  0.44647812049E+02  0.00000000000E+00 0.  1.
          2    1    1    2  501    0  0.19859000482E+02  0.21119695009E+02  0.12096179293E+02  0.31412401546E+02  0.00000000000E+00 0. -1.
         -2    1    1    2    0  503 -0.19859000482E+02 -0.21119695009E+02 -0.28984923836E+02  0.40994478009E+02  0.00000000000E+00 0.  1.
</event>
<event>
 4    1  0.1800096E+004  0.2187932E+02  0.7546771E-02  0.1507071E+00
         21   -1    0    0  501  502  0.00000000000E+00  0.00000000000E+00  0.15859623961E+03  0.15859623961E+03  0.00000000000E+00 0.  1.
         21   -1    0    0  502  503 -0.00000000000E+00 -0.00000000000E+00 -0.14205783943E+02  0.14205783943E+02  0.00000000000E+00 0. -1.
          2    1    1    2  501    0 -0.19683936785E+02  0.95523537889E+01  0.14886969192E+03  0.15046890045E+03  0.00000000000E+00 0.  1.
         -2    1    1    2    0  503  0.19683936785E+02 -0.95523537889E+01 -0.44792362492E+01  0.22333123106E+02  0.00000000000E+00 0. -1.
</event>
<event>
 4    1  0.1800096E+004  0.2305024E+02  0.7546771E-02  0.1491868E+00
         21   -1    0    0  501  502  0.00000000000E+00  0.00000000000E+00  0.10044447471E+03  0.10044447471E+03  0.00000000000E+00 0. -1.
         21   -1    0    0  502  503 -0.00000000000E+00 -0.00000000000E+00 -0.13051329230E+03  0.13051329230E+03  0.00000000000E+00 0.  1.
          2    1    1    2  501    0 -0.22589393216E+02  0.45861712597E+01  0.98080125558E+02  0.10075229368E+03  0.00000000000E+00 0. -1.
         -2    1    1    2    0  503  0.22589393216E+02 -0.45861712597E+01 -0.12814894315E+03  0.13020547332E+03  0.00000000000E+00 0.  1.
</event>
<event>
 4    1  0.1800096E+004  0.2310041E+02  0.7546771E-02  0.1491241E+00
         21   -1    0    0  501  502  0.00000000000E+00  0.00000000000E+00  0.40512012189E+02  0.40512012189E+02  0.00000000000E+00 0.  1.
         21   -1    0    0  502  503 -0.00000000000E+00 -0.00000000000E+00 -0.18693938373E+02  0.18693938373E+02  0.00000000000E+00 0. -1.
          2    1    1    2  501    0 -0.22586735035E+02 -0.48444022989E+01  0.26997933610E+02  0.35531918783E+02  0.00000000000E+00 0.  1.
         -2    1    1    2    0  503  0.22586735035E+02  0.48444022989E+01 -0.51798597932E+01  0.23674031779E+02  0.00000000000E+00 0. -1.
</event>
<event>
 4    1  0.1800096E+004  0.3078305E+02  0.7546771E-02  0.1412911E+00
         21   -1    0    0  503  502  0.00000000000E+00  0.00000000000E+00  0.93700269480E+01  0.93700269480E+01  0.00000000000E+00 0. -1.
         21   -1    0    0  501  503 -0.00000000000E+00 -0.00000000000E+00 -0.12497769350E+03  0.12497769350E+03  0.00000000000E+00 0.  1.
          2    1    1    2  501    0  0.24575773957E+02  0.18537196006E+02 -0.28461008336E+02  0.41924041990E+02  0.00000000000E+00 0.  1.
         -2    1    1    2    0  502 -0.24575773957E+02 -0.18537196006E+02 -0.87146658215E+02  0.92423678456E+02  0.00000000000E+00 0. -1.
</event>
<event>
 4    1  0.1800096E+004  0.2161697E+02  0.7546771E-02  0.1510636E+00
         21   -1    0    0  503  502  0.00000000000E+00  0.00000000000E+00  0.10706109439E+03  0.10706109439E+03  0.00000000000E+00 0. -1.
         21   -1    0    0  501  503 -0.00000000000E+00 -0.00000000000E+00 -0.28852114027E+02  0.28852114027E+02  0.00000000000E+00 0.  1.
          2    1    1    2  501    0  0.47768315046E+01 -0.21082578551E+02 -0.23501228659E+02  0.31931191429E+02  0.00000000000E+00 0.  1.
         -2    1    1    2    0  502 -0.47768315046E+01  0.21082578551E+02  0.10171020902E+03  0.10398201699E+03  0.00000000000E+00 0. -1.
</event>
<event>
 4    1  0.1800096E+004  0.2224378E+02  0.7546771E-02  0.1502219E+00
         21   -1    0    0  503  502  0.00000000000E+00  0.00000000000E+00  0.22359661822E+01  0.22359661822E+01  0.00000000000E+00 0. -1.
         21   -1    0    0  501  503 -0.00000000000E+00 -0.00000000000E+00 -0.25773082170E+03  0.25773082170E+03  0.00000000000E+00 0.  1.
          2    1    1    2  501    0 -0.21117923734E+02  0.69870768124E+01 -0.78867774427E+02  0.81944565337E+02  0.00000000000E+00 0. -1.
         -2    1    1    2    0  502  0.21117923734E+02 -0.69870768124E+01 -0.17662708109E+03  0.17802222254E+03  0.00000000000E+00 0.  1.
</event>
<event>
 4    1  0.1800096E+004  0.2142014E+02  0.7546771E-02  0.1513350E+00
         21   -1    0    0  503  502  0.00000000000E+00  0.00000000000E+00  0.70963236367E+02  0.70963236367E+02  0.00000000000E+00 0. -1.
         21   -1    0    0  501  503 -0.00000000000E+00 -0.00000000000E+00 -0.88471354870E+01  0.88471354870E+01  0.00000000000E+00 0.  1.
          2    1    1    2  501    0  0.20438677815E+02 -0.64095746680E+01  0.10354082976E+02  0.23791368866E+02  0.00000000000E+00 0.  1.
         -2    1    1    2    0  502 -0.20438677815E+02  0.64095746680E+01  0.51762017904E+02  0.56019002988E+02  0.00000000000E+00 0. -1.
</event>
<event>
 4    1  0.1800096E+004  0.3169841E+02  0.7546771E-02  0.1405390E+00
         21   -1    0    0  501  502  0.00000000000E+00  0.00000000000E+00  0.13234056979E+02  0.13234056979E+02  0.00000000000E+00 0. -1.
         21   -1    0    0  502  503 -0.00000000000E+00 -0.00000000000E+00 -0.18172038883E+03  0.18172038883E+03  0.00000000000E+00 0.  1.
          2    1    1    2  501    0 -0.24470116376E+02 -0.20149500754E+02 -0.98666649464E+01  0.33198494743E+02  0.00000000000E+00 0.  1.
         -2    1    1    2    0  503  0.24470116376E+02  0.20149500754E+02 -0.15861966691E+03  0.16175595107E+03  0.00000000000E+00 0. -1.
</event>
<event>
 4    1  0.1800096E+004  0.3635116E+02  0.7546771E-02  0.1371305E+00
         21   -1    0    0  503  502  0.00000000000E+00  0.00000000000E+00  0.39404933616E+01  0.39404933616E+01  0.00000000000E+00 0. -1.
         21   -1    0    0  501  503 -0.00000000000E+00 -0.00000000000E+00 -0.12526024870E+04  0.12526024870E+04  0.00000000000E+00 0.  1.
          2    1    1    2  501    0  0.31228593188E+02  0.18605957691E+02 -0.11619658749E+04  0.11625343441E+04  0.00000000000E+00 0.  1.
         -2    1    1    2    0  502 -0.31228593188E+02 -0.18605957691E+02 -0.86696118720E+02  0.94008636280E+02  0.00000000000E+00 0. -1.
</event>
<event>
 4    1  0.1800096E+004  0.2255256E+02  0.7546771E-02  0.1498194E+00
         21   -1    0    0  503  502  0.00000000000E+00  0.00000000000E+00  0.54970409585E+01  0.54970409585E+01  0.00000000000E+00 0. -1.
         21   -1    0    0  501  503 -0.00000000000E+00 -0.00000000000E+00 -0.10578833224E+03  0.10578833224E+03  0.00000000000E+00 0.  1.
          2    1    1    2  501    0  0.19417048729E+02  0.11471534958E+02 -0.30443973965E+02  0.37887378458E+02  0.00000000000E+00 0. -1.
         -2    1    1    2    0  502 -0.19417048729E+02 -0.11471534958E+02 -0.69847317316E+02  0.73397994740E+02  0.00000000000E+00 0.  1.
</event>
<event>
 4    1  0.1800096E+004  0.2336330E+02  0.7546771E-02  0.1487986E+00
         21   -1    0    0  501  502  0.00000000000E+00  0.00000000000E+00  0.68190175000E+01  0.68190175000E+01  0.00000000000E+00 0.  1.
         21   -1    0    0  502  503 -0.00000000000E+00 -0.00000000000E+00 -0.80056907448E+02  0.80056907448E+02  0.00000000000E+00 0. -1.
          2    1    1    2  501    0  0.23291125123E+02  0.18349614586E+01 -0.37096056093E+02  0.43840175304E+02  0.00000000000E+00 0.  1.
         -2    1    1    2    0  503 -0.23291125123E+02 -0.18349614586E+01 -0.36141833855E+02  0.43035749645E+02  0.00000000000E+00 0. -1.
</event>
<event>
 4    1  0.1800096E+004  0.2009544E+02  0.7546771E-02  0.1532582E+00
         21   -1    0    0  503  502  0.00000000000E+00  0.00000000000E+00  0.31644891232E+01  0.31644891232E+01  0.00000000000E+00 0.  1.
         21   -1    0    0  501  503 -0.00000000000E+00 -0.00000000000E+00 -0.16145948576E+03  0.16145948576E+03  0.00000000000E+00 0. -1.
          2    1    1    2  501    0  0.12386386905E+01  0.20057228940E+02 -0.11683477629E+03  0.11855037583E+03  0.00000000000E+00 0. -1.
         -2    1    1    2    0  502 -0.12386386905E+01 -0.20057228940E+02 -0.41460220349E+02  0.46073599056E+02  0.00000000000E+00 0.  1.
</event>
<event>
 4    1  0.1800096E+004  0.2294313E+02  0.7546771E-02  0.1493213E+00
         21   -1    0    0  501  502  0.00000000000E+00  0.00000000000E+00  0.90912563250E+01  0.90912563250E+01  0.00000000000E+00 0.  1.
         21   -1    0    0  502  503 -0.00000000000E+00 -0.00000000000E+00 -0.87332763239E+02  0.87332763239E+02  0.00000000000E+00 0. -1.
          2    1    1    2  501    0  0.22827209464E+02 -0.23034188934E+01 -0.11132272903E+02  0.25501269194E+02  0.00000000000E+00 0.  1.
         -2    1    1    2    0  503 -0.22827209464E+02  0.23034188934E+01 -0.67109234011E+02  0.70922750370E+02  0.00000000000E+00 0. -1.
</event>
<event>
 4    1  0.1800096E+004  0.2775127E+02  0.7546771E-02  0.1440204E+00
         21   -1    0    0  503  502  0.00000000000E+00  0.00000000000E+00  0.10557922530E+02  0.10557922530E+02  0.00000000000E+00 0. -1.
         21   -1    0    0  501  503 -0.00000000000E+00 -0.00000000000E+00 -0.81342974815E+02  0.81342974815E+02  0.00000000000E+00 0.  1.
          2    1    1    2  501    0 -0.22302283526E+02  0.16514882237E+02 -0.50158172328E+02  0.57323428343E+02  0.00000000000E+00 0. -1.
         -2    1    1    2    0  502  0.22302283526E+02 -0.16514882237E+02 -0.20626879957E+02  0.34577469001E+02  0.00000000000E+00 0.  1.
</event>
<event>
 4    1  0.1800096E+004  0.3399967E+02  0.7546771E-02  0.1387735E+00
         21   -1    0    0  503  502  0.00000000000E+00  0.00000000000E+00  0.75048774691E+01  0.75048774691E+01  0.00000000000E+00 0. -1.
         21   -1    0    0  501  503 -0.00000000000E+00 -0.00000000000E+00 -0.19633862962E+03  0.19633862962E+03  0.00000000000E+00 0.  1.
          2    1    1    2  501    0  0.78220679007E+01 -0.33087651468E+02 -0.14172957280E+03  0.14575064059E+03  0.00000000000E+00 0.  1.
         -2    1    1    2    0  502 -0.78220679007E+01  0.33087651468E+02 -0.47104179352E+02  0.58092866501E+02  0.00000000000E+00 0. -1.
</event>
<event>
 4    1  0.1800096E+004  0.2273635E+02  0.7546771E-02  0.1495836E+00
         21   -1    0    0  501  502  0.00000000000E+00  0.00000000000E+00  0.18569898201E+03  0.18569898201E+03  0.00000000000E+00 0.  1.
         21   -1    0    0  502  503 -0.00000000000E+00 -0.00000000000E+00 -0.58859505159E+01  0.58859505159E+01  0.00000000000E+00 0. -1.
          2    1    1    2  501    0 -0.22725199083E+02 -0.71201929465E+00  0.15945011938E+03  0.16106297592E+03  0.00000000000E+00 0.  1.
         -2    1    1    2    0  503  0.22725199083E+02  0.71201929465E+00  0.20362912119E+02  0.30521956602E+02  0.00000000000E+00 0. -1.
</event>
<event>
 4    1  0.1800096E+004  0.2099632E+02  0.7546771E-02  0.1519317E+00
         21   -1    0    0  503  502  0.00000000000E+00  0.00000000000E+00  0.30741137461E+01  0.30741137461E+01  0.00000000000E+00 0.  1.
         21   -1    0    0  501  503 -0.00000000000E+00 -0.00000000000E+00 -0.99116013064E+03  0.99116013064E+03  0.00000000000E+00 0. -1.
          2    1    1    2  501    0  0.20822096539E+02 -0.26991738598E+01 -0.95379313726E+03  0.95402421035E+03  0.00000000000E+00 0. -1.
         -2    1    1    2    0  502 -0.20822096539E+02  0.26991738598E+01 -0.34292879630E+02  0.40210034035E+02  0.00000000000E+00 0.  1.
</event>
<event>
 4    1  0.1800096E+004  0.3867809E+02  0.7546771E-02  0.1356411E+00
         21   -1    0    0  503  502  0.00000000000E+00  0.00000000000E+00  0.24215025032E+03  0.24215025032E+03  0.00000000000E+00 0. -1.
         21   -1    0    0  501  503 -0.00000000000E+00 -0.00000000000E+00 -0.62513330588E+01  0.62513330588E+01  0.00000000000E+00 0.  1.
          2    1    1    2  501    0 -0.21464124141E+02  0.32175856798E+02  0.10449369058E+03  0.11142228573E+03  0.00000000000E+00 0. -1.
         -2    1    1    2    0  502  0.21464124141E+02 -0.32175856798E+02  0.13140522667E+03  0.13697929764E+03  0.00000000000E+00 0.  1.
</event>
<event>
 4    1  0.1800096E+004  0.2894994E+02  0.7546771E-02  0.1428946E+00
         21   -1    0    0  503  502  0.00000000000E+00  0.00000000000E+00  0.71467028835E+02  0.71467028835E+02  0.00000000000E+00 0.  1.
         21   -1    0    0  501  503 -0.00000000000E+00 -0.00000000000E+00 -0.12456439679E+02  0.12456439679E+02  0.00000000000E+00 0. -1.
          2    1    1    2  501    0 -0.20265518218E+02 -0.20673848547E+02  0.19351492780E+02  0.34822112446E+02  0.00000000000E+00 0. -1.
         -2    1    1    2    0  502  0.20265518218E+02  0.20673848547E+02  0.39659096376E+02  0.49101356068E+02  0.00000000000E+00 0.  1.
</event>
<event>
 4    1  0.1800096E+004  0.2028196E+02  0.7546771E-02  0.1529768E+00
         21   -1    0    0  501  502  0.00000000000E+00  0.00000000000E+00  0.52859271530E+02  0.52859271530E+02  0.00000000000E+00 0.  1.
         21   -1    0    0  502  503 -0.00000000000E+00 -0.00000000000E+00 -0.10639097647E+02  0.10639097647E+02  0.00000000000E+00 0. -1.
          2    1    1    2  501    0 -0.24171208283E+01  0.20137408836E+02  0.37562623372E+02  0.42688504101E+02  0.00000000000E+00 0.  1.
         -2    1    1    2    0  503  0.24171208283E+01 -0.20137408836E+02  0.46575505108E+01  0.20809865076E+02  0.00000000000E+00 0. -1.
</event>
<event>
 4    1  0.1800096E+004  0.2367836E+02  0.7546771E-02  0.1484151E+00
         21   -1    0    0  503  502  0.00000000000E+00  0.00000000000E+00  0.84812561209E+01  0.84812561209E+01  0.00000000000E+00 0.  1.
         21   -1    0    0  501  503 -0.00000000000E+00 -0.00000000000E+00 -0.99281906912E+02  0.99281906912E+02  0.00000000000E+00 0. -1.
          2    1    1    2  501    0 -0.17989020610E+02 -0.15396751026E+02 -0.76547198458E+02  0.80125766121E+02  0.00000000000E+00 0. -1.
         -2    1    1    2    0  502  0.17989020610E+02  0.15396751026E+02 -0.14253452333E+02  0.27637396912E+02  0.00000000000E+00 0.  1.
</event>
<event>
 4    1  0.1800096E+004  0.3702044E+02  0.7546771E-02  0.1366890E+00
         21   -1    0    0  503  502  0.00000000000E+00  0.00000000000E+00  0.53126982322E+01  0.53126982322E+01  0.00000000000E+00 0.  1.
         21   -1    0    0  501  503 -0.00000000000E+00 -0.00000000000E+00 -0.49765874534E+03  0.49765874534E+03  0.00000000000E+00 0. -1.
          2    1    1    2  501    0  0.36975410299E+02  0.18253106673E+01 -0.42070380056E+03  0.42232949285E+03  0.00000000000E+00 0. -1.
         -2    1    1    2    0  502 -0.36975410299E+02 -0.18253106673E+01 -0.71642246551E+02  0.80641950725E+02  0.00000000000E+00 0.  1.
</event>
<event>
 4    1  0.1800096E+004  0.4207074E+02  0.7546771E-02  0.1336761E+00
         21   -1    0    0  503  502  0.00000000000E+00  0.00000000000E+00  0.13904630888E+02  0.13904630888E+02  0.00000000000E+00 0. -1.
         21   -1    0    0  501  503 -0.00000000000E+00 -0.00000000000E+00 -0.15060187349E+03  0.15060187349E+03  0.00000000000E+00 0.  1.
          2    1    1    2  501    0  0.54973881547E+01  0.41710026046E+02 -0.10070860809E+03  0.10914289392E+03  0.00000000000E+00 0.  1.
         -2    1    1    2    0  502 -0.54973881547E+01 -0.41710026046E+02 -0.35988634517E+02  0.55363610464E+02  0.00000000000E+00 0. -1.
</event>
<event>
 4    1  0.1800096E+004  0.2399919E+02  0.7546771E-02  0.1480318E+00
         21   -1    0    0  503  502  0.00000000000E+00  0.00000000000E+00  0.11131809009E+02  0.11131809009E+02  0.00000000000E+00 0.  1.
         21   -1    0    0  501  503 -0.00000000000E+00 -0.00000000000E+00 -0.53155122721E+02  0.53155122721E+02  0.00000000000E+00 0. -1.
          2    1    1    2  501    0  0.60016496025E+01  0.23236636563E+02 -0.26256102234E+02  0.35571673861E+02  0.00000000000E+00 0. -1.
         -2    1    1    2    0  502 -0.60016496025E+01 -0.23236636563E+02 -0.15767211478E+02  0.28715257869E+02  0.00000000000E+00 0.  1.
</event>
<event>
 4    1  0.1800096E+004  0.2512725E+02  0.7546771E-02  0.1467385E+00
         21   -1    0    0  503  502  0.00000000000E+00  0.00000000000E+00  0.26910212986E+02  0.26910212986E+02  0.00000000000E+00 0.  1.
         21   -1    0    0  501  503 -0.00000000000E+00 -0.00000000000E+00 -0.24433282142E+02  0.24433282142E+02  0.00000000000E+00 0. -1.
          2    1    1    2  501    0 -0.24778292827E+02  0.41731308925E+01  0.63557845512E+01  0.25918619063E+02  0.00000000000E+00 0.  1.
         -2    1    1    2    0  502  0.24778292827E+02 -0.41731308925E+01 -0.38788537071E+01  0.25424876066E+02  0.00000000000E+00 0. -1.
</event>
<event>
 4    1  0.1800096E+004  0.4630574E+02  0.7546771E-02  0.1315036E+00
         21   -1    0    0  501  502  0.00000000000E+00  0.00000000000E+00  0.95103808634E+00  0.95103808634E+00  0.00000000000E+00 0.  1.
         21   -1    0    0  502  503 -0.00000000000E+00 -0.00000000000E+00 -0.22823386851E+04  0.22823386851E+04  0.00000000000E+00 0. -1.
          2    1    1    2  501    0 -0.16937232297E+02  0.43097000602E+02 -0.12665268835E+04  0.12673730974E+04  0.00000000000E+00 0. -1.
         -2    1    1    2    0  503  0.16937232297E+02 -0.43097000602E+02 -0.10148607635E+04  0.10159166258E+04  0.00000000000E+00 0.  1.
</event>
<event>
 4    1  0.1800096E+004  0.2033160E+02  0.7546771E-02  0.1529026E+00
         21   -1    0    0  503  502  0.00000000000E+00  0.00000000000E+00  0.35186078306E+01  0.35186078306E+01  0.00000000000E+00 0.  1.
         21   -1    0    0  501  503 -0.00000000000E+00 -0.00000000000E+00 -0.17164270418E+03  0.17164270418E+03  0.00000000000E+00 0. -1.
          2    1    1    2  501    0  0.21255359834E+01 -0.20220188615E+02 -0.13325883144E+03  0.13480092762E+03  0.00000000000E+00 0. -1.
         -2    1    1    2    0  502 -0.21255359834E+01  0.20220188615E+02 -0.34865264910E+02  0.40360384389E+02  0.00000000000E+00 0.  1.
</event>
<event>
 4    1  0.1800096E+004  0.4264407E+02  0.7546771E-02  0.1333651E+00
         21   -1    0    0  501  502  0.00000000000E+00  0.00000000000E+00  0.15627580220E+03  0.15627580220E+03  0.00000000000E+00 0. -1.
         21   -1    0    0  502  503 -0.00000000000E+00 -0.00000000000E+00 -0.11925674225E+02  0.11925674225E+02  0.00000000000E+00 0.  1.
          2    1    1    2  501    0 -0.83798685968E+01 -0.41812608406E+02  0.85269157114E+02  0.95338059422E+02  0.00000000000E+00 0. -1.
         -2    1    1    2    0  503  0.83798685968E+01  0.41812608406E+02  0.59080970863E+02  0.72863417004E+02  0.00000000000E+00 0.  1.
</event>
<event>
 4    1  0.1800096E+004  0.2981089E+02  0.7546771E-02  0.1421247E+00
         21   -1    0    0  501  502  0.00000000000E+00  0.00000000000E+00  0.26198081470E+02  0.26198081470E+02  0.00000000000E+00 0.  1.
         21   -1    0    0  502  503 -0.00000000000E+00 -0.00000000000E+00 -0.36531128791E+02  0.36531128791E+02  0.00000000000E+00 0. -1.
          2    1    1    2  501    0  0.25904058044E+02 -0.14753611831E+02  0.32157628236E+01  0.29983835907E+02  0.00000000000E+00 0.  1.
         -2    1    1    2    0  503 -0.25904058044E+02  0.14753611831E+02 -0.13548810145E+02  0.32745374353E+02  0.00000000000E+00 0. -1.
</event>
<event>
 4    1  0.1800096E+004  0.2610529E+02  0.7546771E-02  0.1456809E+00
         21   -1    0    0  503  502  0.00000000000E+00  0.00000000000E+00  0.18681253667E+03  0.18681253667E+03  0.00000000000E+00 0.  1.
         21   -1    0    0  501  503 -0.00000000000E+00 -0.00000000000E+00 -0.52335144857E+01  0.52335144857E+01  0.00000000000E+00 0. -1.
          2    1    1    2  501    0 -0.25515822051E+02 -0.55162334649E+01  0.37936678266E+02  0.46050815025E+02  0.00000000000E+00 0. -1.
         -2    1    1    2    0  502  0.25515822051E+02  0.55162334649E+01  0.14364234392E+03  0.14599523613E+03  0.00000000000E+00 0.  1.
</event>
<event>
 4    1  0.1800096E+004  0.2418266E+02  0.7546771E-02  0.1478158E+00
         21   -1    0    0  503  502  0.00000000000E+00  0.00000000000E+00  0.90229757386E+01  0.90229757386E+01  0.00000000000E+00 0. -1.
         21   -1    0    0  501  503 -0.00000000000E+00 -0.00000000000E+00 -0.67031689781E+02  0.67031689781E+02  0.00000000000E+00 0.  1.
          2    1    1    2  501    0  0.59721316772E+01  0.23433624941E+02 -0.35923594129E+02  0.43304800539E+02  0.00000000000E+00 0. -1.
         -2    1    1    2    0  502 -0.59721316772E+01 -0.23433624941E+02 -0.22085119914E+02  0.32749864981E+02  0.00000000000E+00 0.  1.
</event>
<event>
 4    1  0.1800096E+004  0.2199054E+02  0.7546771E-02  0.1505578E+00
         21   -1    0    0  503  502  0.00000000000E+00  0.00000000000E+00  0.34235029082E+02  0.34235029082E+02  0.00000000000E+00 0. -1.
         21   -1    0    0  501  503 -0.00000000000E+00 -0.00000000000E+00 -0.16560395189E+02  0.16560395189E+02  0.00000000000E+00 0.  1.
          2    1    1    2  501    0 -0.21504672339E+02  0.45970744935E+01 -0.90151515125E+00  0.22009015332E+02  0.00000000000E+00 0.  1.
         -2    1    1    2    0  502  0.21504672339E+02 -0.45970744935E+01  0.18576149044E+02  0.28786408939E+02  0.00000000000E+00 0. -1.
</event>
<event>
 4    1  0.1800096E+004  0.2302295E+02  0.7546771E-02  0.1492210E+00
         21   -1    0    0  501  502  0.00000000000E+00  0.00000000000E+00  0.16396707975E+03  0.16396707975E+03  0.00000000000E+00 0. -1.
         21   -1    0    0  502  503 -0.00000000000E+00 -0.00000000000E+00 -0.41595564676E+01  0.41595564676E+01  0.00000000000E+00 0.  1.
          2    1    1    2  501    0 -0.16899022237E+02  0.15635835436E+02  0.11958537924E+03  0.12178144042E+03  0.00000000000E+00 0. -1.
         -2    1    1    2    0  503  0.16899022237E+02 -0.15635835436E+02  0.40222144045E+02  0.46345195802E+02  0.00000000000E+00 0.  1.
</event>
<event>
 4    1  0.1800096E+004  0.2180204E+02  0.7546771E-02  0.1508115E+00
         21   -1    0    0  501  502  0.00000000000E+00  0.00000000000E+00  0.40343019965E+03  0.40343019965E+03  0.00000000000E+00 0.  1.
         21   -1    0    0  502  503 -0.00000000000E+00 -0.00000000000E+00 -0.24798887043E+01  0.24798887043E+01  0.00000000000E+00 0. -1.
          2    1    1    2  501    0  0.32654404256E+01 -0.21556108057E+02  0.34751473369E+03  0.34819795954E+03  0.00000000000E+00 0.  1.
         -2    1    1    2    0  503 -0.32654404256E+01  0.21556108057E+02  0.53435577256E+02  0.57712128816E+02  0.00000000000E+00 0. -1.
</event>
<event>
 4    1  0.1800096E+004  0.2127510E+02  0.7546771E-02  0.1515373E+00
         21   -1    0    0  503  502  0.00000000000E+00  0.00000000000E+00  0.70265943887E+02  0.70265943887E+02  0.00000000000E+00 0.  1.
         21   -1    0    0  501  503 -0.00000000000E+00 -0.00000000000E+00 -0.89429258029E+02  0.89429258029E+02  0.00000000000E+00 0. -1.
          2    1    1    2  501    0  0.11892095520E+02  0.17641082913E+02 -0.86499773382E+02  0.89077721891E+02  0.00000000000E+00 0. -1.
         -2    1    1    2    0  502 -0.11892095520E+02 -0.17641082913E+02  0.67336459240E+02  0.70617480026E+02  0.00000000000E+00 0.  1.
</event>
<event>
 4    1  0.1800096E+004  0.2406074E+02  0.7546771E-02  0.1479591E+00
         21   -1    0    0  503  502  0.00000000000E+00  0.00000000000E+00  0.52584126286E+02  0.52584126286E+02  0.00000000000E+00 0.  1.
         21   -1    0    0  501  503 -0.00000000000E+00 -0.00000000000E+00 -0.25798553782E+02  0.25798553782E+02  0.00000000000E+00 0. -1.
          2    1    1    2  501    0 -0.24058328849E+02 -0.34089337032E+00 -0.16280399458E+02  0.29051175567E+02  0.00000000000E+00 0. -1.
         -2    1    1    2    0  502  0.24058328849E+02  0.34089337032E+00  0.43065971962E+02  0.49331504501E+02  0.00000000000E+00 0.  1.
</event>
<event>
 4    1  0.1800096E+004  0.3596895E+02  0.7546771E-02  0.1373876E+00
         21   -1    0    0  503  502  0.00000000000E+00  0.00000000000E+00  0.10728842018E+02  0.10728842018E+02  0.00000000000E+00 0.  1.
         21   -1    0    0  501  503 -0.00000000000E+00 -0.00000000000E+00 -0.12252280603E+03  0.12252280603E+03  0.00000000000E+00 0. -1.
          2    1    1    2  501    0  0.14472453192E+01 -0.35939825677E+02 -0.64270246553E+02  0.73650731026E+02  0.00000000000E+00 0.  1.
         -2    1    1    2    0  502 -0.14472453192E+01  0.35939825677E+02 -0.47523717464E+02  0.59600917026E+02  0.00000000000E+00 0. -1.
</event>
<event>
 4    1  0.1800096E+004  0.3461148E+02  0.7546771E-02  0.1383315E+00
         21   -1    0    0  503  502  0.00000000000E+00  0.00000000000E+00  0.58967158059E+02  0.58967158059E+02  0.00000000000E+00 0.  1.
         21   -1    0    0  501  503 -0.00000000000E+00 -0.00000000000E+00 -0.73979389453E+02  0.73979389453E+02  0.00000000000E+00 0. -1.
          2    1    1    2  501    0 -0.18377767455E+02 -0.29329369122E+02 -0.64121217703E+02  0.72866211576E+02  0.00000000000E+00 0. -1.
         -2    1    1    2    0  502  0.18377767455E+02  0.29329369122E+02  0.49108986309E+02  0.60080335935E+02  0.00000000000E+00 0.  1.
</event>
<event>
 4    1  0.1800096E+004  0.2167761E+02  0.7546771E-02  0.1509806E+00
         21   -1    0    0  503  502  0.00000000000E+00  0.00000000000E+00  0.17417485447E+03  0.17417485447E+03  0.00000000000E+00 0.  1.
         21   -1    0    0  501  503 -0.00000000000E+00 -0.00000000000E+00 -0.47598466203E+01  0.47598466203E+01  0.00000000000E+00 0. -1.
          2    1    1    2  501    0 -0.16092617148E+02 -0.14523998816E+02  0.25823242638E+02  0.33715852779E+02  0.00000000000E+00 0. -1.
         -2    1    1    2    0  502  0.16092617148E+02  0.14523998816E+02  0.14359176521E+03  0.14521884831E+03  0.00000000000E+00 0.  1.
</event>
<event>
 4    1  0.1800096E+004  0.2585956E+02  0.7546771E-02  0.1459413E+00
         21   -1    0    0  503  502  0.00000000000E+00  0.00000000000E+00  0.68875563539E+02  0.68875563539E+02  0.00000000000E+00 0.  1.
         21   -1    0    0  501  503 -0.00000000000E+00 -0.00000000000E+00 -0.11990647408E+02  0.11990647408E+02  0.00000000000E+00 0. -1.
          2    1    1    2  501    0 -0.25754938625E+02 -0.23237629366E+01  0.10805053722E+02  0.28026164984E+02  0.00000000000E+00 0. -1.
         -2    1    1    2    0  502  0.25754938625E+02  0.23237629366E+01  0.46079862408E+02  0.52840045963E+02  0.00000000000E+00 0.  1.
</event>
<event>
 4    1  0.1800096E+004  0.2155980E+02  0.7546771E-02  0.1511420E+00
         21   -1    0    0  501  502  0.00000000000E+00  0.00000000000E+00  0.42408724734E+00  0.42408724734E+00  0.00000000000E+00 0.  1.
         21   -1    0    0  502  503 -0.00000000000E+00 -0.00000000000E+00 -0.11818931807E+04  0.11818931807E+04  0.00000000000E+00 0. -1.
          2    1    1    2  501    0  0.18460462945E+02 -0.11137156395E+02 -0.43142446359E+03  0.43196283721E+03  0.00000000000E+00 0.  1.
         -2    1    1    2    0  503 -0.18460462945E+02  0.11137156395E+02 -0.75004462991E+03  0.75035443079E+03  0.00000000000E+00 0. -1.
</event>
<event>
 4    1  0.1800096E+004  0.2545445E+02  0.7546771E-02  0.1463783E+00
         21   -1    0    0  501  502  0.00000000000E+00  0.00000000000E+00  0.11345617695E+02  0.11345617695E+02  0.00000000000E+00 0.  1.
         21   -1    0    0  502  503 -0.00000000000E+00 -0.00000000000E+00 -0.14562707859E+03  0.14562707859E+03  0.00000000000E+00 0. -1.
          2    1    1    2  501    0 -0.20496735950E+02 -0.15093472661E+02 -0.59492831735E+01  0.26140448960E+02  0.00000000000E+00 0.  1.
         -2    1    1    2    0  503  0.20496735950E+02  0.15093472661E+02 -0.12833217772E+03  0.13083224733E+03  0.00000000000E+00 0. -1.
</event>
<event>
 4    1  0.1800096E+004  0.2094135E+02  0.7546771E-02  0.1520104E+00
         21   -1    0    0  501  502  0.00000000000E+00  0.00000000000E+00  0.13179449289E+02  0.13179449289E+02  0.00000000000E+00 0. -1.
         21   -1    0    0  502  503 -0.00000000000E+00 -0.00000000000E+00 -0.36629719024E+02  0.36629719024E+02  0.00000000000E+00 0.  1.
          2    1    1    2  501    0 -0.32673142043E+01 -0.20684894384E+02 -0.41877631927E+01  0.21355972428E+02  0.00000000000E+00 0. -1.
         -2    1    1    2    0  503  0.32673142043E+01  0.20684894384E+02 -0.19262506542E+02  0.28453195885E+02  0.00000000000E+00 0.  1.
</event>
<event>
 4    1  0.1800096E+004  0.2277990E+02  0.7546771E-02  0.1495281E+00
         21   -1    0    0  501  502  0.00000000000E+00  0.00000000000E+00  0.29861825818E+02  0.29861825818E+02  0.00000000000E+00 0.  1.
         21   -1    0    0  502  503 -0.00000000000E+00 -0.00000000000E+00 -0.26557131829E+02  0.26557131829E+02  0.00000000000E+00 0. -1.
          2    1    1    2  501    0 -0.89736515163E+01 -0.20937947112E+02  0.18237404154E+02  0.29180934891E+02  0.00000000000E+00 0.  1.
         -2    1    1    2    0  503  0.89736515163E+01  0.20937947112E+02 -0.14932710165E+02  0.27238022757E+02  0.00000000000E+00 0. -1.
</event>
<event>
 4    1  0.1800096E+004  0.2034350E+02  0.7546771E-02  0.1528848E+00
         21   -1    0    0  503  502  0.00000000000E+00  0.00000000000E+00  0.12716409278E+04  0.12716409278E+04  0.00000000000E+00 0. -1.
         21   -1    0    0  501  503 -0.00000000000E+00 -0.00000000000E+00 -0.11475138796E+01  0.11475138796E+01  0.00000000000E+00 0.  1.
          2    1    1    2  501    0  0.11344140913E+01  0.20311849146E+02  0.96605589316E+02  0.98724353622E+02  0.00000000000E+00 0.  1.
         -2    1    1    2    0  502 -0.11344140913E+01 -0.20311849146E+02  0.11738878246E+04  0.11740640881E+04  0.00000000000E+00 0. -1.
</event>
<event>
 4    1  0.1800096E+004  0.2073162E+02  0.7546771E-02  0.1523131E+00
         21   -1    0    0  501  502  0.00000000000E+00  0.00000000000E+00  0.17078385861E+03  0.17078385861E+03  0.00000000000E+00 0. -1.
         21   -1    0    0  502  503 -0.00000000000E+00 -0.00000000000E+00 -0.19080798954E+02  0.19080798954E+02  0.00000000000E+00 0.  1.
          2    1    1    2  501    0  0.20668417311E+02 -0.16175888755E+01  0.16430210487E+03  0.16560489647E+03  0.00000000000E+00 0. -1.
         -2    1    1    2    0  503 -0.20668417311E+02  0.16175888755E+01 -0.12599045220E+02  0.24259761095E+02  0.00000000000E+00 0.  1.
</event>
<event>
 4    1  0.1800096E+004  0.4942812E+02  0.7546771E-02  0.1300671E+00
         21   -1    0    0  501  502  0.00000000000E+00  0.00000000000E+00  0.92938616830E+02  0.92938616830E+02  0.00000000000E+00 0. -1.
         21   -1    0    0  502  503 -0.00000000000E+00 -0.00000000000E+00 -0.36286721563E+02  0.36286721563E+02  0.00000000000E+00 0.  1.
          2    1    1    2  501    0 -0.35909425526E+02  0.33965461679E+02  0.62243404486E+02  0.79481952862E+02  0.00000000000E+00 0. -1.
         -2    1    1    2    0  503  0.35909425526E+02 -0.33965461679E+02 -0.55915092190E+01  0.49743385530E+02  0.00000000000E+00 0.  1.
</event>
<event>
 4    1  0.1800096E+004  0.2727829E+02  0.7546771E-02  0.1444832E+00
         21   -1    0    0  501  502  0.00000000000E+00  0.00000000000E+00  0.65303924196E+01  0.65303924196E+01  0.00000000000E+00 0. -1.
         21   -1    0    0  502  503 -0.00000000000E+00 -0.00000000000E+00 -0.13951164818E+03  0.13951164818E+03  0.00000000000E+00 0.  1.
          2    1    1    2  501    0  0.27263012807E+02 -0.91282072894E+00 -0.35231262856E+02  0.44557232762E+02  0.00000000000E+00 0. -1.
         -2    1    1    2    0  503 -0.27263012807E+02  0.91282072894E+00 -0.97749992904E+02  0.10148480784E+03  0.00000000000E+00 0.  1.
</event>
<event>
 4    1  0.1800096E+004  0.2286227E+02  0.7546771E-02  0.1494235E+00
         21   -1    0    0  501  502  0.00000000000E+00  0.00000000000E+00  0.17319316599E+03  0.17319316599E+03  0.00000000000E+00 0. -1.
         21   -1    0    0  502  503 -0.00000000000E+00 -0.00000000000E+00 -0.38208503515E+01  0.38208503515E+01  0.00000000000E+00 0.  1.
          2    1    1    2  501    0  0.44033000825E+01 -0.22434217559E+02  0.12525910039E+03  0.12732841553E+03  0.00000000000E+00 0. -1.
         -2    1    1    2    0  503 -0.44033000825E+01  0.22434217559E+02  0.44113215244E+02  0.49685600814E+02  0.00000000000E+00 0.  1.
</event>
<event>
 4    1  0.1800096E+004  0.3648394E+02  0.7546771E-02  0.1370420E+00
         21   -1    0    0  503  502  0.00000000000E+00  0.00000000000E+00  0.10461210654E+03  0.10461210654E+03  0.00000000000E+00 0.  1.
         21   -1    0    0  501  503 -0.00000000000E+00 -0.00000000000E+00 -0.13128081482E+02  0.13128081482E+02  0.00000000000E+00 0. -1.
          2    1    1    2  501    0  0.24469998661E+02 -0.27060983414E+02  0.35412890049E+02  0.50844374708E+02  0.00000000000E+00 0.  1.
         -2    1    1    2    0  502 -0.24469998661E+02  0.27060983414E+02  0.56071135013E+02  0.66895813318E+02  0.00000000000E+00 0. -1.
</event>
<event>
 4    1  0.1800096E+004  0.2363144E+02  0.7546771E-02  0.1484718E+00
         21   -1    0    0  501  502  0.00000000000E+00  0.00000000000E+00  0.66009086977E+01  0.66009086977E+01  0.00000000000E+00 0.  1.
         21   -1    0    0  502  503 -0.00000000000E+00 -0.00000000000E+00 -0.14900729680E+03  0.14900729680E+03  0.00000000000E+00 0. -1.
          2    1    1    2  501    0 -0.20133234752E+02  0.12373266640E+02 -0.20051245267E+02  0.30991890967E+02  0.00000000000E+00 0. -1.
         -2    1    1    2    0  503  0.20133234752E+02 -0.12373266640E+02 -0.12235514283E+03  0.12461631453E+03  0.00000000000E+00 0.  1.
</event>
<event>
 4    1  0.1800096E+004  0.2867206E+02  0.7546771E-02  0.1431498E+00
         21   -1    0    0  503  502  0.00000000000E+00  0.00000000000E+00  0.11658704325E+04  0.11658704325E+04  0.00000000000E+00 0. -1.
         21   -1    0    0  501  503 -0.00000000000E+00 -0.00000000000E+00 -0.75034377154E+00  0.75034377154E+00  0.00000000000E+00 0.  1.
          2    1    1    2  501    0 -0.24537332981E+02  0.14832608836E+02  0.43936822228E+03  0.44030276145E+03  0.00000000000E+00 0.  1.
         -2    1    1    2    0  502  0.24537332981E+02 -0.14832608836E+02  0.72575186646E+03  0.72631801483E+03  0.00000000000E+00 0. -1.
</event>
<event>
 4    1  0.1800096E+004  0.2668904E+02  0.7546771E-02  0.1450757E+00
         21   -1    0    0  501  502  0.00000000000E+00  0.00000000000E+00  0.61530396637E+02  0.61530396637E+02  0.00000000000E+00 0. -1.
         21   -1    0    0  502  503 -0.00000000000E+00 -0.00000000000E+00 -0.11813467376E+02  0.11813467376E+02  0.00000000000E+00 0.  1.
          2    1    1    2  501    0  0.10849298512E+02  0.24384376778E+02  0.19664342861E+02  0.33151040545E+02  0.00000000000E+00 0. -1.
         -2    1    1    2    0  503 -0.10849298512E+02 -0.24384376778E+02  0.30052586399E+02  0.40192823468E+02  0.00000000000E+00 0.  1.
</event>
<event>
 4    1  0.1800096E+004  0.2371481E+02  0.7546771E-02  0.1483712E+00
         21   -1    0    0  501  502  0.00000000000E+00  0.00000000000E+00  0.21292983022E+02  0.21292983022E+02  0.00000000000E+00 0.  1.
         21   -1    0    0  502  503 -0.00000000000E+00 -0.00000000000E+00 -0.32611364544E+03  0.32611364544E+03  0.00000000000E+00 0. -1.
          2    1    1    2  501    0  0.57035652120E+01 -0.23018722380E+02  0.14110325859E+02  0.27595172258E+02  0.00000000000E+00 0.  1.
         -2    1    1    2    0  503 -0.57035652120E+01  0.23018722380E+02 -0.31893098827E+03  0.31981145620E+03  0.00000000000E+00 0. -1.
</event>
<event>
 4    1  0.1800096E+004  0.2007085E+02  0.7546771E-02  0.1532955E+00
         21   -1    0    0  501  502  0.00000000000E+00  0.00000000000E+00  0.27870330728E+03  0.27870330728E+03  0.00000000000E+00 0. -1.
         21   -1    0    0  502  503 -0.00000000000E+00 -0.00000000000E+00 -0.19237358768E+02  0.19237358768E+02  0.00000000000E+00 0.  1.
          2    1    1    2  501    0  0.12029450941E+02 -0.16066470432E+02  0.27299757266E+03  0.27373438557E+03  0.00000000000E+00 0. -1.
         -2    1    1    2    0  503 -0.12029450941E+02  0.16066470432E+02 -0.13531624157E+02  0.24206280475E+02  0.00000000000E+00 0.  1.
</event>
<event>
 4    1  0.1800096E+004  0.3314362E+02  0.7546771E-02  0.1394106E+00
         21   -1    0    0  503  502  0.00000000000E+00  0.00000000000E+00  0.73356114890E+02  0.73356114890E+02  0.00000000000E+00 0. -1.
         21   -1    0    0  501  503 -0.00000000000E+00 -0.00000000000E+00 -0.27663947891E+02  0.27663947891E+02  0.00000000000E+00 0.  1.
          2    1    1    2  501    0  0.62929030517E+01 -0.32540727570E+02 -0.11362515557E+02  0.35037213636E+02  0.00000000000E+00 0.  1.
         -2    1    1    2    0  502 -0.62929030517E+01  0.32540727570E+02  0.57054682556E+02  0.65982849144E+02  0.00000000000E+00 0. -1.
</event>
<event>
 4    1  0.1800096E+004  0.2302266E+02  0.7546771E-02  0.1492214E+00
         21   -1    0    0  503  502  0.00000000000E+00  0.00000000000E+00  0.17378874140E+01  0.17378874140E+01  0.00000000000E+00 0. -1.
         21   -1    0    0  501  503 -0.00000000000E+00 -0.00000000000E+00 -0.43506613353E+03  0.43506613353E+03  0.00000000000E+00 0.  1.
          2    1    1    2  501    0  0.17378032180E+02  0.15101227704E+02 -0.33608305792E+03  0.33687069463E+03  0.00000000000E+00 0.  1.
         -2    1    1    2    0  502 -0.17378032180E+02 -0.15101227704E+02 -0.97245188198E+02  0.99933326314E+02  0.00000000000E+00 0. -1.
</event>
<event>
 4    1  0.1800096E+004  0.2400964E+02  0.7546771E-02  0.1480195E+00
         21   -1    0    0  501  502  0.00000000000E+00  0.00000000000E+00  0.23905768741E+03  0.23905768741E+03  0.00000000000E+00 0. -1.
         21   -1    0    0  502  503 -0.00000000000E+00 -0.00000000000E+00 -0.24927495250E+01  0.24927495250E+01  0.00000000000E+00 0.  1.
          2    1    1    2  501    0 -0.20232956331E+02  0.12926334679E+02  0.14010111648E+03  0.14214353833E+03  0.00000000000E+00 0. -1.
         -2    1    1    2    0  503  0.20232956331E+02 -0.12926334679E+02  0.96463821412E+02  0.99406898612E+02  0.00000000000E+00 0.  1.
</event>
<event>
 4    1  0.1800096E+004  0.2546539E+02  0.7546771E-02  0.1463664E+00
         21   -1    0    0  501  502  0.00000000000E+00  0.00000000000E+00  0.29981910570E+01  0.29981910570E+01  0.00000000000E+00 0. -1.
         21   -1    0    0  502  503 -0.00000000000E+00 -0.00000000000E+00 -0.21646212931E+03  0.21646212931E+03  0.00000000000E+00 0.  1.
          2    1    1    2  501    0  0.25197100140E+02 -0.36867737541E+01 -0.10980396716E+03  0.11271822107E+03  0.00000000000E+00 0. -1.
         -2    1    1    2    0  503 -0.25197100140E+02  0.36867737541E+01 -0.10365997109E+03  0.10674209930E+03  0.00000000000E+00 0.  1.
</event>
<event>
 4    1  0.1800096E+004  0.2594630E+02  0.7546771E-02  0.1458490E+00
         21   -1    0    0  503  502  0.00000000000E+00  0.00000000000E+00  0.11163450013E+03  0.11163450013E+03  0.00000000000E+00 0. -1.
         21   -1    0    0  501  503 -0.00000000000E+00 -0.00000000000E+00 -0.75719758699E+01  0.75719758699E+01  0.00000000000E+00 0.  1.
          2    1    1    2  501    0 -0.19156503251E+02  0.17499676602E+02  0.25138490073E+02  0.36126914913E+02  0.00000000000E+00 0.  1.
         -2    1    1    2    0  502  0.19156503251E+02 -0.17499676602E+02  0.78924034183E+02  0.83079561083E+02  0.00000000000E+00 0. -1.
</event>
<event>
 4    1  0.1800096E+004  0.2577478E+02  0.7546771E-02  0.1460320E+00
         21   -1    0    0  503  502  0.00000000000E+00  0.00000000000E+00  0.15844928032E+03  0.15844928032E+03  0.00000000000E+00 0.  1.
         21   -1    0    0  501  503 -0.00000000000E+00 -0.00000000000E+00 -0.76222259841E+01  0.76222259841E+01  0.00000000000E+00 0. -1.
          2    1    1    2  501    0 -0.62667516030E+01 -0.25001345914E+02  0.19715783636E+02  0.32450756502E+02  0.00000000000E+00 0. -1.
         -2    1    1    2    0  502  0.62667516030E+01  0.25001345914E+02  0.13111127070E+03  0.13362074980E+03  0.00000000000E+00 0.  1.
</event>
<event>
 4    1  0.1800096E+004  0.2388223E+02  0.7546771E-02  0.1481707E+00
         21   -1    0    0  503  502  0.00000000000E+00  0.00000000000E+00  0.34125889973E+01  0.34125889973E+01  0.00000000000E+00 0.  1.
         21   -1    0    0  501  503 -0.00000000000E+00 -0.00000000000E+00 -0.26196428389E+03  0.26196428389E+03  0.00000000000E+00 0. -1.
          2    1    1    2  501    0 -0.20170926295E+02  0.12786494259E+02 -0.49442405653E+02  0.54908215958E+02  0.00000000000E+00 0.  1.
         -2    1    1    2    0  502  0.20170926295E+02 -0.12786494259E+02 -0.20910928924E+03  0.21046865693E+03  0.00000000000E+00 0. -1.
</event>
<event>
 4    1  0.1800096E+004  0.3288145E+02  0.7546771E-02  0.1396102E+00
         21   -1    0    0  503  502  0.00000000000E+00  0.00000000000E+00  0.14927648693E+03  0.14927648693E+03  0.00000000000E+00 0.  1.
         21   -1    0    0  501  503 -0.00000000000E+00 -0.00000000000E+00 -0.10774008717E+02  0.10774008717E+02  0.00000000000E+00 0. -1.
          2    1    1    2  501    0  0.23725588605E+02 -0.22765906390E+02  0.23437492052E+02  0.40379525531E+02  0.00000000000E+00 0. -1.
         -2    1    1    2    0  502 -0.23725588605E+02  0.22765906390E+02  0.11506498616E+03  0.11967097012E+03  0.00000000000E+00 0.  1.
</event>
<event>
 4    1  0.1800096E+004  0.2020781E+02  0.7546771E-02  0.1530882E+00
         21   -1    0    0  501  502  0.00000000000E+00  0.00000000000E+00  0.31532011870E+01  0.31532011870E+01  0.00000000000E+00 0. -1.
         21   -1    0    0  502  503 -0.00000000000E+00 -0.00000000000E+00 -0.13166898277E+03  0.13166898277E+03  0.00000000000E+00 0.  1.
          2    1    1    2  501    0 -0.17529890898E+02 -0.10052777336E+02 -0.72899880425E+02  0.75648846475E+02  0.00000000000E+00 0. -1.
         -2    1    1    2    0  503  0.17529890898E+02  0.10052777336E+02 -0.55615901154E+02  0.59173337478E+02  0.00000000000E+00 0.  1.
</event>
<event>
 4    1  0.1800096E+004  0.2552718E+02  0.7546771E-02  0.1462991E+00
         21   -1    0    0  501  502  0.00000000000E+00  0.00000000000E+00  0.96191509090E+02  0.96191509090E+02  0.00000000000E+00 0.  1.
         21   -1    0    0  502  503 -0.00000000000E+00 -0.00000000000E+00 -0.75675953303E+01  0.75675953303E+01  0.00000000000E+00 0. -1.
          2    1    1    2  501    0 -0.12233417695E+02  0.22404923267E+02  0.61108307228E+02  0.66225843199E+02  0.00000000000E+00 0.  1.
         -2    1    1    2    0  503  0.12233417695E+02 -0.22404923267E+02  0.27515606531E+02  0.37533261221E+02  0.00000000000E+00 0. -1.
</event>
<event>
 4    1  0.1800096E+004  0.4070504E+02  0.7546771E-02  0.1344403E+00
         21   -1    0    0  501  502  0.00000000000E+00  0.00000000000E+00  0.16881309634E+02  0.16881309634E+02  0.00000000000E+00 0.  1.
         21   -1    0    0  502  503 -0.00000000000E+00 -0.00000000000E+00 -0.14264395450E+03  0.14264395450E+03  0.00000000000E+00 0. -1.
          2    1    1    2  501    0  0.26099129420E+02  0.31236768330E+02 -0.18333818158E+02  0.44643354941E+02  0.00000000000E+00 0.  1.
         -2    1    1    2    0  503 -0.26099129420E+02 -0.31236768330E+02 -0.10742882671E+03  0.11488190920E+03  0.00000000000E+00 0. -1.
</event>
<event>
 4    1  0.1800096E+004  0.2563747E+02  0.7546771E-02  0.1461797E+00
         21   -1    0    0  503  502  0.00000000000E+00  0.00000000000E+00  0.10753464370E+01  0.10753464370E+01  0.00000000000E+00 0. -1.
         21   -1    0    0  501  503 -0.00000000000E+00 -0.00000000000E+00 -0.12912607058E+04  0.12912607058E+04  0.00000000000E+00 0.  1.
          2    1    1    2  501    0 -0.29532559400E+01 -0.25466807415E+02 -0.11140182839E+04  0.11143132490E+04  0.00000000000E+00 0.  1.
         -2    1    1    2    0  502  0.29532559400E+01  0.25466807415E+02 -0.17616707549E+03  0.17802280328E+03  0.00000000000E+00 0. -1.
</event>
<event>
 4    1  0.1800096E+004  0.2777057E+02  0.7546771E-02  0.1440017E+00
         21   -1    0    0  501  502  0.00000000000E+00  0.00000000000E+00  0.91654146130E+02  0.91654146130E+02  0.00000000000E+00 0. -1.
         21   -1    0    0  502  503 -0.00000000000E+00 -0.00000000000E+00 -0.45764440364E+02  0.45764440364E+02  0.00000000000E+00 0.  1.
          2    1    1    2  501    0  0.27696961224E+02 -0.20206067659E+01  0.85017116602E+02  0.89437769583E+02  0.00000000000E+00 0. -1.
         -2    1    1    2    0  503 -0.27696961224E+02  0.20206067659E+01 -0.39127410836E+02  0.47980816911E+02  0.00000000000E+00 0.  1.
</event>
<event>
 4    1  0.1800096E+004  0.3570400E+02  0.7546771E-02  0.1375680E+00
         21   -1    0    0  503  502  0.00000000000E+00  0.00000000000E+00  0.21952142004E+02  0.21952142004E+02  0.00000000000E+00 0. -1.
         21   -1    0    0  501  503 -0.00000000000E+00 -0.00000000000E+00 -0.32542663342E+03  0.32542663342E+03  0.00000000000E+00 0.  1.
          2    1    1    2  501    0  0.35357096372E+02  0.49650363006E+01 -0.30916875746E+03  0.31122354737E+03  0.00000000000E+00 0.  1.
         -2    1    1    2    0  502 -0.35357096372E+02 -0.49650363006E+01  0.56942660480E+01  0.36155228047E+02  0.00000000000E+00 0. -1.
</event>
<event>
 4    1  0.1800096E+004  0.2803255E+02  0.7546771E-02  0.1437503E+00
         21   -1    0    0  501  502  0.00000000000E+00  0.00000000000E+00  0.36129783141E+02  0.36129783141E+02  0.00000000000E+00 0. -1.
         21   -1    0    0  502  503 -0.00000000000E+00 -0.00000000000E+00 -0.27373381549E+02  0.27373381549E+02  0.00000000000E+00 0.  1.
          2    1    1    2  501    0 -0.23075482908E+02 -0.15916836656E+02 -0.10013066848E+02  0.29767181732E+02  0.00000000000E+00 0. -1.
         -2    1    1    2    0  503  0.23075482908E+02  0.15916836656E+02  0.18769468441E+02  0.33735982958E+02  0.00000000000E+00 0.  1.
</event>
<event>
 4    1  0.1800096E+004  0.3118697E+02  0.7546771E-02  0.1409555E+00
         21   -1    0    0  503  502  0.00000000000E+00  0.00000000000E+00  0.31765928488E+01  0.31765928488E+01  0.00000000000E+00 0.  1.
         21   -1    0    0  501  503 -0.00000000000E+00 -0.00000000000E+00 -0.32290274953E+03  0.32290274953E+03  0.00000000000E+00 0. -1.
          2    1    1    2  501    0 -0.21290969178E+02  0.22788631459E+02 -0.19696001971E+03  0.19941383216E+03  0.00000000000E+00 0. -1.
         -2    1    1    2    0  502  0.21290969178E+02 -0.22788631459E+02 -0.12276613697E+03  0.12666551022E+03  0.00000000000E+00 0.  1.
</event>
<event>
 4    1  0.1800096E+004  0.2392829E+02  0.7546771E-02  0.1481159E+00
         21   -1    0    0  503  502  0.00000000000E+00  0.00000000000E+00  0.40798337391E+03  0.40798337391E+03  0.00000000000E+00 0.  1.
         21   -1    0    0  501  503 -0.00000000000E+00 -0.00000000000E+00 -0.35691740236E+01  0.35691740236E+01  0.00000000000E+00 0. -1.
          2    1    1    2  501    0  0.17061165015E+02  0.16777356695E+02  0.41912752262E+02  0.48262219712E+02  0.00000000000E+00 0. -1.
         -2    1    1    2    0  502 -0.17061165015E+02 -0.16777356695E+02  0.36250144763E+03  0.36329032822E+03  0.00000000000E+00 0.  1.
</event>
<event>
 4    1  0.1800096E+004  0.2157690E+02  0.7546771E-02  0.1511185E+00
         21   -1    0    0  503  502  0.00000000000E+00  0.00000000000E+00  0.24657443774E+02  0.24657443774E+02  0.00000000000E+00 0.  1.
         21   -1    0    0  501  503 -0.00000000000E+00 -0.00000000000E+00 -0.38280475476E+02  0.38280475476E+02  0.00000000000E+00 0. -1.
          2    1    1    2  501    0 -0.17516531265E+02 -0.12598955491E+02 -0.29213489813E+02  0.36317909275E+02  0.00000000000E+00 0. -1.
         -2    1    1    2    0  502  0.17516531265E+02  0.12598955491E+02  0.15590458111E+02  0.26620009976E+02  0.00000000000E+00 0.  1.
</event>
<event>
 4    1  0.1800096E+004  0.2165476E+02  0.7546771E-02  0.1510118E+00
         21   -1    0    0  503  502  0.00000000000E+00  0.00000000000E+00  0.53235453204E+02  0.53235453204E+02  0.00000000000E+00 0. -1.
         21   -1    0    0  501  503 -0.00000000000E+00 -0.00000000000E+00 -0.88101194320E+01  0.88101194320E+01  0.00000000000E+00 0.  1.
          2    1    1    2  501    0 -0.57718728089E+01 -0.20871369655E+02  0.21802181853E+02  0.30728874378E+02  0.00000000000E+00 0.  1.
         -2    1    1    2    0  502  0.57718728089E+01  0.20871369655E+02  0.22623151919E+02  0.31316698257E+02  0.00000000000E+00 0. -1.
</event>
<event>
 4    1  0.1800096E+004  0.2596271E+02  0.7546771E-02  0.1458316E+00
         21   -1    0    0  501  502  0.00000000000E+00  0.00000000000E+00  0.17510367134E+03  0.17510367134E+03  0.00000000000E+00 0.  1.
         21   -1    0    0  502  503 -0.00000000000E+00 -0.00000000000E+00 -0.40260090825E+01  0.40260090825E+01  0.00000000000E+00 0. -1.
          2    1    1    2  501    0  0.21309607158E+02 -0.14831143041E+02  0.66785447148E+02  0.71654435396E+02  0.00000000000E+00 0. -1.
         -2    1    1    2    0  503 -0.21309607158E+02  0.14831143041E+02  0.10429221511E+03  0.10747524503E+03  0.00000000000E+00 0.  1.
</event>
<event>
 4    1  0.1800096E+004  0.3824176E+02  0.7546771E-02  0.1359109E+00
         21   -1    0    0  501  502  0.00000000000E+00  0.00000000000E+00  0.53995340902E+01  0.53995340902E+01  0.00000000000E+00 0. -1.
         21   -1    0    0  502  503 -0.00000000000E+00 -0.00000000000E+00 -0.61084283684E+03  0.61084283684E+03  0.00000000000E+00 0.  1.
          2    1    1    2  501    0  0.25021641227E+02 -0.28919704568E+02 -0.72844671851E+02  0.82272583885E+02  0.00000000000E+00 0. -1.
         -2    1    1    2    0  503 -0.25021641227E+02  0.28919704568E+02 -0.53259863089E+03  0.53396978704E+03  0.00000000000E+00 0.  1.
</event>
<event>
 4    1  0.1800096E+004  0.2500247E+02  0.7546771E-02  0.1468776E+00
         21   -1    0    0  501  502  0.00000000000E+00  0.00000000000E+00  0.15760487039E+02  0.15760487039E+02  0.00000000000E+00 0. -1.
         21   -1    0    0  502  503 -0.00000000000E+00 -0.00000000000E+00 -0.70306650292E+02  0.70306650292E+02  0.00000000000E+00 0.  1.
          2    1    1    2  501    0  0.14606355970E+02 -0.20292305260E+02  0.11370092561E+01  0.25028305526E+02  0.00000000000E+00 0. -1.
         -2    1    1    2    0  503 -0.14606355970E+02  0.20292305260E+02 -0.55683172509E+02  0.61038831805E+02  0.00000000000E+00 0.  1.
</event>
<event>
 4    1  0.1800096E+004  0.2049303E+02  0.7546771E-02  0.1526628E+00
         21   -1    0    0  501  502  0.00000000000E+00  0.00000000000E+00  0.11480049560E+02  0.11480049560E+02  0.00000000000E+00 0. -1.
         21   -1    0    0  502  503 -0.00000000000E+00 -0.00000000000E+00 -0.75350112641E+02  0.75350112641E+02  0.00000000000E+00 0.  1.
          2    1    1    2  501    0  0.19597104350E+02 -0.59931569624E+01 -0.79382893327E+00  0.20508403001E+02  0.00000000000E+00 0. -1.
         -2    1    1    2    0  503 -0.19597104350E+02  0.59931569624E+01 -0.63076234147E+02  0.66321759200E+02  0.00000000000E+00 0.  1.
</event>
<event>
 4    1  0.1800096E+004  0.3984478E+02  0.7546771E-02  0.1349398E+00
         21   -1    0    0  501  502  0.00000000000E+00  0.00000000000E+00  0.28164209453E+02  0.28164209453E+02  0.00000000000E+00 0.  1.
         21   -1    0    0  502  503 -0.00000000000E+00 -0.00000000000E+00 -0.32179114930E+03  0.32179114930E+03  0.00000000000E+00 0. -1.
          2    1    1    2  501    0  0.28406355044E+02  0.27940755574E+02  0.12101074883E+02  0.41641840044E+02  0.00000000000E+00 0.  1.
         -2    1    1    2    0  503 -0.28406355044E+02 -0.27940755574E+02 -0.30572801473E+03  0.30831351871E+03  0.00000000000E+00 0. -1.
</event>
<event>
 4    1  0.1800096E+004  0.2264236E+02  0.7546771E-02  0.1497039E+00
         21   -1    0    0  503  502  0.00000000000E+00  0.00000000000E+00  0.81012830102E+02  0.81012830102E+02  0.00000000000E+00 0.  1.
         21   -1    0    0  501  503 -0.00000000000E+00 -0.00000000000E+00 -0.78017679253E+01  0.78017679253E+01  0.00000000000E+00 0. -1.
          2    1    1    2  501    0 -0.15567271351E+01 -0.22588784473E+02  0.17307074995E+02  0.28499323294E+02  0.00000000000E+00 0. -1.
         -2    1    1    2    0  502  0.15567271351E+01  0.22588784473E+02  0.55903987181E+02  0.60315274733E+02  0.00000000000E+00 0.  1.
</event>
<event>
 4    1  0.1800096E+004  0.2083172E+02  0.7546771E-02  0.1521681E+00
         21   -1    0    0  503  502  0.00000000000E+00  0.00000000000E+00  0.76184895216E+02  0.76184895216E+02  0.00000000000E+00 0. -1.
         21   -1    0    0  501  503 -0.00000000000E+00 -0.00000000000E+00 -0.65963355068E+02  0.65963355068E+02  0.00000000000E+00 0.  1.
          2    1    1    2  501    0 -0.20830155171E+02 -0.25549081586E+00 -0.62825340207E+02  0.66189002199E+02  0.00000000000E+00 0.  1.
         -2    1    1    2    0  502  0.20830155171E+02  0.25549081586E+00  0.73046880355E+02  0.75959248085E+02  0.00000000000E+00 0. -1.
</event>
<event>
 4    1  0.1800096E+004  0.4102223E+02  0.7546771E-02  0.1342598E+00
         21   -1    0    0  503  502  0.00000000000E+00  0.00000000000E+00  0.16594467755E+02  0.16594467755E+02  0.00000000000E+00 0.  1.
         21   -1    0    0  501  503 -0.00000000000E+00 -0.00000000000E+00 -0.61714135594E+03  0.61714135594E+03  0.00000000000E+00 0. -1.
          2    1    1    2  501    0 -0.22687393855E+02  0.34177554327E+02 -0.58993993697E+03  0.59136448346E+03  0.00000000000E+00 0. -1.
         -2    1    1    2    0  502  0.22687393855E+02 -0.34177554327E+02 -0.10606951216E+02  0.42371340241E+02  0.00000000000E+00 0.  1.
</event>
<event>
 4    1  0.1800096E+004  0.2247823E+02  0.7546771E-02  0.1499156E+00
         21   -1    0    0  503  502  0.00000000000E+00  0.00000000000E+00  0.61712867316E+02  0.61712867316E+02  0.00000000000E+00 0.  1.
         21   -1    0    0  501  503 -0.00000000000E+00 -0.00000000000E+00 -0.13461448401E+02  0.13461448401E+02  0.00000000000E+00 0. -1.
          2    1    1    2  501    0 -0.28941899766E+01 -0.22291130122E+02  0.59886282916E+00  0.22486205869E+02  0.00000000000E+00 0. -1.
         -2    1    1    2    0  502  0.28941899766E+01  0.22291130122E+02  0.47652556087E+02  0.52688109847E+02  0.00000000000E+00 0.  1.
</event>
<event>
 4    1  0.1800096E+004  0.2109389E+02  0.7546771E-02  0.1517928E+00
         21   -1    0    0  501  502  0.00000000000E+00  0.00000000000E+00  0.31354078176E+02  0.31354078176E+02  0.00000000000E+00 0.  1.
         21   -1    0    0  502  503 -0.00000000000E+00 -0.00000000000E+00 -0.15707872950E+02  0.15707872950E+02  0.00000000000E+00 0. -1.
          2    1    1    2  501    0 -0.16506594889E+02 -0.13133340171E+02  0.15134928183E+02  0.25961863376E+02  0.00000000000E+00 0.  1.
         -2    1    1    2    0  503  0.16506594889E+02  0.13133340171E+02  0.51127704236E+00  0.21100087750E+02  0.00000000000E+00 0. -1.
</event>
<event>
 4    1  0.1800096E+004  0.2299836E+02  0.7546771E-02  0.1492519E+00
         21   -1    0    0  503  502  0.00000000000E+00  0.00000000000E+00  0.63348031848E+01  0.63348031848E+01  0.00000000000E+00 0.  1.
         21   -1    0    0  501  503 -0.00000000000E+00 -0.00000000000E+00 -0.20012529823E+03  0.20012529823E+03  0.00000000000E+00 0. -1.
          2    1    1    2  501    0  0.15573519974E+02  0.16923065238E+02 -0.17570151501E+03  0.17720030203E+03  0.00000000000E+00 0. -1.
         -2    1    1    2    0  502 -0.15573519974E+02 -0.16923065238E+02 -0.18088980030E+02  0.29259799383E+02  0.00000000000E+00 0.  1.
</event>
<event>
 4    1  0.1800096E+004  0.2292847E+02  0.7546771E-02  0.1493398E+00
         21   -1    0    0  503  502  0.00000000000E+00  0.00000000000E+00  0.53722456374E+03  0.53722456374E+03  0.00000000000E+00 0.  1.
         21   -1    0    0  501  503 -0.00000000000E+00 -0.00000000000E+00 -0.10437360621E+01  0.10437360621E+01  0.00000000000E+00 0. -1.
          2    1    1    2  501    0  0.15489433043E+02  0.16905387519E+02  0.20084437627E+03  0.20214890092E+03  0.00000000000E+00 0.  1.
         -2    1    1    2    0  502 -0.15489433043E+02 -0.16905387519E+02  0.33533645141E+03  0.33611939888E+03  0.00000000000E+00 0. -1.
</event>
<event>
 4    1  0.1800096E+004  0.2515055E+02  0.7546771E-02  0.1467126E+00
         21   -1    0    0  503  502  0.00000000000E+00  0.00000000000E+00  0.42842422086E+03  0.42842422086E+03  0.00000000000E+00 0. -1.
         21   -1    0    0  501  503 -0.00000000000E+00 -0.00000000000E+00 -0.14768025301E+01  0.14768025301E+01  0.00000000000E+00 0.  1.
          2    1    1    2  501    0  0.12089627064E+02  0.22054280502E+02  0.21675683008E+03  0.21821107615E+03  0.00000000000E+00 0. -1.
         -2    1    1    2    0  502 -0.12089627064E+02 -0.22054280502E+02  0.21019058826E+03  0.21168994724E+03  0.00000000000E+00 0.  1.
</event>
<event>
 4    1  0.1800096E+004  0.2104158E+02  0.7546771E-02  0.1518672E+00
         21   -1    0    0  501  502  0.00000000000E+00  0.00000000000E+00  0.21981136121E+03  0.21981136121E+03  0.00000000000E+00 0. -1.
         21   -1    0    0  502  503 -0.00000000000E+00 -0.00000000000E+00 -0.49774561143E+01  0.49774561143E+01  0.00000000000E+00 0.  1.
          2    1    1    2  501    0 -0.18214589162E+02  0.10534557995E+02  0.19413793829E+03  0.19527490175E+03  0.00000000000E+00 0. -1.
         -2    1    1    2    0  503  0.18214589162E+02 -0.10534557995E+02  0.20695966809E+02  0.29513915576E+02  0.00000000000E+00 0.  1.
</event>
<event>
 4    1  0.1800096E+004  0.2021431E+02  0.7546771E-02  0.1530785E+00
         21   -1    0    0  501  502  0.00000000000E+00  0.00000000000E+00  0.28229249537E+03  0.28229249537E+03  0.00000000000E+00 0.  1.
         21   -1    0    0  502  503 -0.00000000000E+00 -0.00000000000E+00 -0.26507136371E+01  0.26507136371E+01  0.00000000000E+00 0. -1.
          2    1    1    2  501    0  0.19291783066E+02 -0.60369953661E+01  0.23580921228E+03  0.23667404336E+03  0.00000000000E+00 0.  1.
         -2    1    1    2    0  503 -0.19291783066E+02  0.60369953661E+01  0.43832569456E+02  0.48269165645E+02  0.00000000000E+00 0. -1.
</event>
<event>
 4    1  0.1800096E+004  0.3462907E+02  0.7546771E-02  0.1383190E+00
         21   -1    0    0  503  502  0.00000000000E+00  0.00000000000E+00  0.13944273356E+02  0.13944273356E+02  0.00000000000E+00 0.  1.
         21   -1    0    0  501  503 -0.00000000000E+00 -0.00000000000E+00 -0.98856177468E+02  0.98856177468E+02  0.00000000000E+00 0. -1.
          2    1    1    2  501    0 -0.12104570061E+02 -0.32444602166E+02 -0.62797166057E+02  0.71712320356E+02  0.00000000000E+00 0. -1.
         -2    1    1    2    0  502  0.12104570061E+02  0.32444602166E+02 -0.22114738056E+02  0.41088130468E+02  0.00000000000E+00 0.  1.
</event>
<event>
 4    1  0.1800096E+004  0.2254803E+02  0.7546771E-02  0.1498253E+00
         21   -1    0    0  501  502  0.00000000000E+00  0.00000000000E+00  0.98871583410E+01  0.98871583410E+01  0.00000000000E+00 0. -1.
         21   -1    0    0  502  503 -0.00000000000E+00 -0.00000000000E+00 -0.20486323545E+03  0.20486323545E+03  0.00000000000E+00 0.  1.
          2    1    1    2  501    0 -0.75169213380E+01 -0.21258161203E+02 -0.45606857598E+01  0.23004638201E+02  0.00000000000E+00 0. -1.
         -2    1    1    2    0  503  0.75169213380E+01  0.21258161203E+02 -0.19041539135E+03  0.19174575559E+03  0.00000000000E+00 0.  1.
</event>
<event>
 4    1  0.1800096E+004  0.3721305E+02  0.7546771E-02  0.1365639E+00
         21   -1    0    0  501  502  0.00000000000E+00  0.00000000000E+00  0.19250834591E+03  0.19250834591E+03  0.00000000000E+00 0. -1.
         21   -1    0    0  502  503 -0.00000000000E+00 -0.00000000000E+00 -0.84376426720E+01  0.84376426720E+01  0.00000000000E+00 0.  1.
          2    1    1    2  501    0  0.29506941177E+02  0.22674901761E+02  0.13061622860E+03  0.13581387971E+03  0.00000000000E+00 0. -1.
         -2    1    1    2    0  503 -0.29506941177E+02 -0.22674901761E+02  0.53454474631E+02  0.65132108867E+02  0.00000000000E+00 0.  1.
</event>
<event>
 4    1  0.1800096E+004  0.2230757E+02  0.7546771E-02  0.1501381E+00
         21   -1    0    0  501  502  0.00000000000E+00  0.00000000000E+00  0.13381292203E+02  0.13381292203E+02  0.00000000000E+00 0.  1.
         21   -1    0    0  502  503 -0.00000000000E+00 -0.00000000000E+00 -0.39371670859E+02  0.39371670859E+02  0.00000000000E+00 0. -1.
          2    1    1    2  501    0 -0.14499505839E+02 -0.16952641376E+02 -0.67838231777E+01  0.23316259909E+02  0.00000000000E+00 0. -1.
         -2    1    1    2    0  503  0.14499505839E+02  0.16952641376E+02 -0.19206555478E+02  0.29436703153E+02  0.00000000000E+00 0.  1.
</event>
<event>
 4    1  0.1800096E+004  0.2623255E+02  0.7546771E-02  0.1455473E+00
         21   -1    0    0  501  502  0.00000000000E+00  0.00000000000E+00  0.46862947910E+02  0.46862947910E+02  0.00000000000E+00 0. -1.
         21   -1    0    0  502  503 -0.00000000000E+00 -0.00000000000E+00 -0.15456167177E+03  0.15456167177E+03  0.00000000000E+00 0.  1.
          2    1    1    2  501    0  0.19823011866E+02  0.17181240311E+02  0.41959454870E+02  0.49484772113E+02  0.00000000000E+00 0. -1.
         -2    1    1    2    0  503 -0.19823011866E+02 -0.17181240311E+02 -0.14965817873E+03  0.15193984757E+03  0.00000000000E+00 0.  1.
</event>
<event>
 4    1  0.1800096E+004  0.2215067E+02  0.7546771E-02  0.1503448E+00
         21   -1    0    0  503  502  0.00000000000E+00  0.00000000000E+00  0.26873317065E+01  0.26873317065E+01  0.00000000000E+00 0.  1.
         21   -1    0    0  501  503 -0.00000000000E+00 -0.00000000000E+00 -0.39260291131E+03  0.39260291131E+03  0.00000000000E+00 0. -1.
          2    1    1    2  501    0  0.77692167810E+01 -0.20743469327E+02 -0.33951607110E+03  0.34023787970E+03  0.00000000000E+00 0. -1.
         -2    1    1    2    0  502 -0.77692167810E+01  0.20743469327E+02 -0.50399508508E+02  0.55052363319E+02  0.00000000000E+00 0.  1.
</event>
<event>
 4    1  0.1800096E+004  0.2180785E+02  0.7546771E-02  0.1508036E+00
         21   -1    0    0  501  502  0.00000000000E+00  0.00000000000E+00  0.47238393230E+02  0.47238393230E+02  0.00000000000E+00 0. -1.
         21   -1    0    0  502  503 -0.00000000000E+00 -0.00000000000E+00 -0.18505566003E+02  0.18505566003E+02  0.00000000000E+00 0.  1.
          2    1    1    2  501    0  0.58070944404E+01  0.21020461662E+02 -0.78304127692E+01  0.23171049145E+02  0.00000000000E+00 0.  1.
         -2    1    1    2    0  503 -0.58070944404E+01 -0.21020461662E+02  0.36563239996E+02  0.42572910088E+02  0.00000000000E+00 0. -1.
</event>
<event>
 4    1  0.1800096E+004  0.2109980E+02  0.7546771E-02  0.1517845E+00
         21   -1    0    0  501  502  0.00000000000E+00  0.00000000000E+00  0.67596592080E+00  0.67596592080E+00  0.00000000000E+00 0.  1.
         21   -1    0    0  502  503 -0.00000000000E+00 -0.00000000000E+00 -0.71619213558E+03  0.71619213558E+03  0.00000000000E+00 0. -1.
          2    1    1    2  501    0  0.15273101668E+02  0.14557946089E+02 -0.25612882406E+03  0.25699645123E+03  0.00000000000E+00 0.  1.
         -2    1    1    2    0  503 -0.15273101668E+02 -0.14557946089E+02 -0.45938734559E+03  0.45987165027E+03  0.00000000000E+00 0. -1.
</event>
<event>
 4    1  0.1800096E+004  0.2166762E+02  0.7546771E-02  0.1509943E+00
         21   -1    0    0  501  502  0.00000000000E+00  0.00000000000E+00  0.52441866591E+02  0.52441866591E+02  0.00000000000E+00 0. -1.
         21   -1    0    0  502  503 -0.00000000000E+00 -0.00000000000E+00 -0.10923012129E+02  0.10923012129E+02  0.00000000000E+00 0.  1.
          2    1    1    2  501    0  0.21667345584E+02  0.10894511579E+00  0.34216082358E+02  0.40499704019E+02  0.00000000000E+00 0. -1.
         -2    1    1    2    0  503 -0.21667345584E+02 -0.10894511579E+00  0.73027721039E+01  0.22865174701E+02  0.00000000000E+00 0.  1.
</event>
<event>
 4    1  0.1800096E+004  0.2160471E+02  0.7546771E-02  0.1510804E+00
         21   -1    0    0  501  502  0.00000000000E+00  0.00000000000E+00  0.55926110250E+02  0.55926110250E+02  0.00000000000E+00 0.  1.
         21   -1    0    0  502  503 -0.00000000000E+00 -0.00000000000E+00 -0.40316839946E+02  0.40316839946E+02  0.00000000000E+00 0. -1.
          2    1    1    2  501    0 -0.24519878436E+01  0.21465112975E+02  0.50656746653E+02  0.55071492633E+02  0.00000000000E+00 0.  1.
         -2    1    1    2    0  503  0.24519878436E+01 -0.21465112975E+02 -0.35047476349E+02  0.41171457563E+02  0.00000000000E+00 0. -1.
</event>
<event>
 4    1  0.1800096E+004  0.2397004E+02  0.7546771E-02  0.1480664E+00
         21   -1    0    0  501  502  0.00000000000E+00  0.00000000000E+00  0.15431427826E+02  0.15431427826E+02  0.00000000000E+00 0.  1.
         21   -1    0    0  502  503 -0.00000000000E+00 -0.00000000000E+00 -0.42149742734E+02  0.42149742734E+02  0.00000000000E+00 0. -1.
          2    1    1    2  501    0  0.21360571901E+02  0.10876063074E+02 -0.35263145764E+01  0.24228034886E+02  0.00000000000E+00 0. -1.
         -2    1    1    2    0  503 -0.21360571901E+02 -0.10876063074E+02 -0.23192000331E+02  0.33353135674E+02  0.00000000000E+00 0.  1.
</event>
<event>
 4    1  0.1800096E+004  0.2720974E+02  0.7546771E-02  0.1445513E+00
         21   -1    0    0  501  502  0.00000000000E+00  0.00000000000E+00  0.20045742661E+01  0.20045742661E+01  0.00000000000E+00 0.  1.
         21   -1    0    0  502  503 -0.00000000000E+00 -0.00000000000E+00 -0.57394288003E+03  0.57394288003E+03  0.00000000000E+00 0. -1.
          2    1    1    2  501    0  0.63362722652E+01  0.26461701936E+02 -0.11403026715E+03  0.11723170152E+03  0.00000000000E+00 0.  1.
         -2    1    1    2    0  503 -0.63362722652E+01 -0.26461701936E+02 -0.45790803862E+03  0.45871575278E+03  0.00000000000E+00 0. -1.
</event>
<event>
 4    1  0.1800096E+004  0.2429848E+02  0.7546771E-02  0.1476806E+00
         21   -1    0    0  503  502  0.00000000000E+00  0.00000000000E+00  0.54298522143E+01  0.54298522143E+01  0.00000000000E+00 0.  1.
         21   -1    0    0  501  503 -0.00000000000E+00 -0.00000000000E+00 -0.17299276225E+03  0.17299276225E+03  0.00000000000E+00 0. -1.
          2    1    1    2  501    0 -0.24274520245E+02  0.10789044338E+01 -0.13815252401E+03  0.14027307746E+03  0.00000000000E+00 0. -1.
         -2    1    1    2    0  502  0.24274520245E+02 -0.10789044338E+01 -0.29410386021E+02  0.38149537007E+02  0.00000000000E+00 0.  1.
</event>
<event>
 4    1  0.1800096E+004  0.2426601E+02  0.7546771E-02  0.1477185E+00
         21   -1    0    0  501  502  0.00000000000E+00  0.00000000000E+00  0.77767860642E+02  0.77767860642E+02  0.00000000000E+00 0.  1.
         21   -1    0    0  502  503 -0.00000000000E+00 -0.00000000000E+00 -0.11465579059E+02  0.11465579059E+02  0.00000000000E+00 0. -1.
          2    1    1    2  501    0 -0.21464668252E+02 -0.11318451689E+02  0.59152000056E+02  0.63935893224E+02  0.00000000000E+00 0.  1.
         -2    1    1    2    0  503  0.21464668252E+02  0.11318451689E+02  0.71502815279E+01  0.25297546476E+02  0.00000000000E+00 0. -1.
</event>
<event>
 4    1  0.1800096E+004  0.2310009E+02  0.7546771E-02  0.1491245E+00
         21   -1    0    0  501  502  0.00000000000E+00  0.00000000000E+00  0.57280801171E+01  0.57280801171E+01  0.00000000000E+00 0. -1.
         21   -1    0    0  502  503 -0.00000000000E+00 -0.00000000000E+00 -0.11982773765E+03  0.11982773765E+03  0.00000000000E+00 0.  1.
          2    1    1    2  501    0 -0.19265830330E+02 -0.12745278366E+02 -0.27432861098E+02  0.35863298886E+02  0.00000000000E+00 0. -1.
         -2    1    1    2    0  503  0.19265830330E+02  0.12745278366E+02 -0.86666796435E+02  0.89692518882E+02  0.00000000000E+00 0.  1.
</event>
<event>
 4    1  0.1800096E+004  0.2499004E+02  0.7546771E-02  0.1468915E+00
         21   -1    0    0  503  502  0.00000000000E+00  0.00000000000E+00  0.69136906414E+01  0.69136906414E+01  0.00000000000E+00 0. -1.
         21   -1    0    0  501  503 -0.00000000000E+00 -0.00000000000E+00 -0.93432042882E+03  0.93432042882E+03  0.00000000000E+00 0.  1.
          2    1    1    2  501    0  0.99321079276E+01  0.22931533522E+02 -0.91099311198E+03  0.91133580643E+03  0.00000000000E+00 0.  1.
         -2    1    1    2    0  502 -0.99321079276E+01 -0.22931533522E+02 -0.16413626203E+02  0.29898313040E+02  0.00000000000E+00 0. -1.
</event>
<event>
 4    1  0.1800096E+004  0.2016776E+02  0.7546771E-02  0.1531487E+00
         21   -1    0    0  501  502  0.00000000000E+00  0.00000000000E+00  0.60003318267E+01  0.60003318267E+01  0.00000000000E+00 0.  1.
         21   -1    0    0  502  503 -0.00000000000E+00 -0.00000000000E+00 -0.69042244777E+02  0.69042244777E+02  0.00000000000E+00 0. -1.
          2    1    1    2  501    0 -0.18805248819E+02 -0.72870491959E+01 -0.36582210303E+02  0.41773156210E+02  0.00000000000E+00 0.  1.
         -2    1    1    2    0  503  0.18805248819E+02  0.72870491959E+01 -0.26459702647E+02  0.33269420393E+02  0.00000000000E+00 0. -1.
</event>
<event>
 4    1  0.1800096E+004  0.2134227E+02  0.7546771E-02  0.1514434E+00
         21   -1    0    0  501  502  0.00000000000E+00  0.00000000000E+00  0.42186827888E+02  0.42186827888E+02  0.00000000000E+00 0.  1.
         21   -1    0    0  502  503 -0.00000000000E+00 -0.00000000000E+00 -0.33811859641E+02  0.33811859641E+02  0.00000000000E+00 0. -1.
          2    1    1    2  501    0 -0.23906292519E+01  0.21207954085E+02  0.35538055102E+02  0.41454140748E+02  0.00000000000E+00 0.  1.
         -2    1    1    2    0  503  0.23906292519E+01 -0.21207954085E+02 -0.27163086855E+02  0.34544546780E+02  0.00000000000E+00 0. -1.
</event>
<event>
 4    1  0.1800096E+004  0.2174578E+02  0.7546771E-02  0.1508878E+00
         21   -1    0    0  501  502  0.00000000000E+00  0.00000000000E+00  0.51109592008E+02  0.51109592008E+02  0.00000000000E+00 0. -1.
         21   -1    0    0  502  503 -0.00000000000E+00 -0.00000000000E+00 -0.26537249647E+02  0.26537249647E+02  0.00000000000E+00 0.  1.
          2    1    1    2  501    0 -0.69390839687E+01  0.20608936219E+02  0.43619059431E+02  0.48739116570E+02  0.00000000000E+00 0. -1.
         -2    1    1    2    0  503  0.69390839687E+01 -0.20608936219E+02 -0.19046717071E+02  0.28907725085E+02  0.00000000000E+00 0.  1.
</event>
<event>
 4    1  0.1800096E+004  0.4443621E+02  0.7546771E-02  0.1324283E+00
         21   -1    0    0  503  502  0.00000000000E+00  0.00000000000E+00  0.32215131248E+03  0.32215131248E+03  0.00000000000E+00 0. -1.
         21   -1    0    0  501  503 -0.00000000000E+00 -0.00000000000E+00 -0.18788546442E+02  0.18788546442E+02  0.00000000000E+00 0.  1.
          2    1    1    2  501    0 -0.44340255852E+02 -0.29185671459E+01  0.11753469991E+02  0.45964338133E+02  0.00000000000E+00 0.  1.
         -2    1    1    2    0  502  0.44340255852E+02  0.29185671459E+01  0.29160929605E+03  0.29497552079E+03  0.00000000000E+00 0. -1.
</event>
<event>
 4    1  0.1800096E+004  0.3534527E+02  0.7546771E-02  0.1378152E+00
         21   -1    0    0  501  502  0.00000000000E+00  0.00000000000E+00  0.48388715696E+02  0.48388715696E+02  0.00000000000E+00 0. -1.
         21   -1    0    0  502  503 -0.00000000000E+00 -0.00000000000E+00 -0.26608700218E+02  0.26608700218E+02  0.00000000000E+00 0.  1.
          2    1    1    2  501    0  0.35161155847E+02  0.36029935150E+01  0.17355107067E+02  0.39376238826E+02  0.00000000000E+00 0. -1.
         -2    1    1    2    0  503 -0.35161155847E+02 -0.36029935150E+01  0.44249084118E+01  0.35621177089E+02  0.00000000000E+00 0.  1.
</event>
<event>
 4    1  0.1800096E+004  0.2321731E+02  0.7546771E-02  0.1489787E+00
         21   -1    0    0  503  502  0.00000000000E+00  0.00000000000E+00  0.15832209708E+03  0.15832209708E+03  0.00000000000E+00 0.  1.
         21   -1    0    0  501  503 -0.00000000000E+00 -0.00000000000E+00 -0.41859233823E+01  0.41859233823E+01  0.00000000000E+00 0. -1.
          2    1    1    2  501    0 -0.20765150505E+02  0.10385172902E+02  0.41966263433E+02  0.47960510404E+02  0.00000000000E+00 0. -1.
         -2    1    1    2    0  502  0.20765150505E+02 -0.10385172902E+02  0.11216991027E+03  0.11454751006E+03  0.00000000000E+00 0.  1.
</event>
<event>
 4    1  0.1800096E+004  0.2697020E+02  0.7546771E-02  0.1447908E+00
         21   -1    0    0  503  502  0.00000000000E+00  0.00000000000E+00  0.25162379157E+02  0.25162379157E+02  0.00000000000E+00 0.  1.
         21   -1    0    0  501  503 -0.00000000000E+00 -0.00000000000E+00 -0.74297782993E+02  0.74297782993E+02  0.00000000000E+00 0. -1.
          2    1    1    2  501    0 -0.28375573590E+01  0.26820517731E+02 -0.63437358400E+02  0.68932505713E+02  0.00000000000E+00 0. -1.
         -2    1    1    2    0  502  0.28375573590E+01 -0.26820517731E+02  0.14301954564E+02  0.30527656436E+02  0.00000000000E+00 0.  1.
</event>
<event>
 4    1  0.1800096E+004  0.2205814E+02  0.7546771E-02  0.1504676E+00
         21   -1    0    0  501  502  0.00000000000E+00  0.00000000000E+00  0.12604210376E+03  0.12604210376E+03  0.00000000000E+00 0. -1.
         21   -1    0    0  502  503 -0.00000000000E+00 -0.00000000000E+00 -0.12051600883E+02  0.12051600883E+02  0.00000000000E+00 0.  1.
          2    1    1    2  501    0  0.18398118715E+00  0.22057371095E+02  0.11391955359E+03  0.11603545216E+03  0.00000000000E+00 0. -1.
         -2    1    1    2    0  503 -0.18398118715E+00 -0.22057371095E+02  0.70949288525E-01  0.22058252480E+02  0.00000000000E+00 0.  1.
</event>
<event>
 4    1  0.1800096E+004  0.2192278E+02  0.7546771E-02  0.1506487E+00
         21   -1    0    0  503  502  0.00000000000E+00  0.00000000000E+00  0.14064155209E+03  0.14064155209E+03  0.00000000000E+00 0.  1.
         21   -1    0    0  501  503 -0.00000000000E+00 -0.00000000000E+00 -0.40662547602E+01  0.40662547602E+01  0.00000000000E+00 0. -1.
          2    1    1    2  501    0 -0.78863179732E+01  0.20455172808E+02  0.39381728288E+02  0.45072481946E+02  0.00000000000E+00 0. -1.
         -2    1    1    2    0  502  0.78863179732E+01 -0.20455172808E+02  0.97193569046E+02  0.99635324909E+02  0.00000000000E+00 0.  1.
</event>
<event>
 4    1  0.1800096E+004  0.5271667E+02  0.7546771E-02  0.1286805E+00
         21   -1    0    0  503  502  0.00000000000E+00  0.00000000000E+00  0.52989491889E+03  0.52989491889E+03  0.00000000000E+00 0. -1.
         21   -1    0    0  501  503 -0.00000000000E+00 -0.00000000000E+00 -0.17596814527E+02  0.17596814527E+02  0.00000000000E+00 0.  1.
          2    1    1    2  501    0  0.42431992505E+02 -0.31282151589E+02  0.26796129596E+02  0.59136110434E+02  0.00000000000E+00 0.  1.
         -2    1    1    2    0  502 -0.42431992505E+02  0.31282151589E+02  0.48550197477E+03  0.48835562299E+03  0.00000000000E+00 0. -1.
</event>
<event>
 4    1  0.1800096E+004  0.3364273E+02  0.7546771E-02  0.1390365E+00
         21   -1    0    0  503  502  0.00000000000E+00  0.00000000000E+00  0.32664017504E+02  0.32664017504E+02  0.00000000000E+00 0. -1.
         21   -1    0    0  501  503 -0.00000000000E+00 -0.00000000000E+00 -0.54787829374E+02  0.54787829374E+02  0.00000000000E+00 0.  1.
          2    1    1    2  501    0  0.28600472943E+02  0.17715711846E+02 -0.37571002156E+02  0.50432268457E+02  0.00000000000E+00 0.  1.
         -2    1    1    2    0  502 -0.28600472943E+02 -0.17715711846E+02  0.15447190286E+02  0.37019578421E+02  0.00000000000E+00 0. -1.
</event>
<event>
 4    1  0.1800096E+004  0.2209967E+02  0.7546771E-02  0.1504124E+00
         21   -1    0    0  503  502  0.00000000000E+00  0.00000000000E+00  0.27424769002E+03  0.27424769002E+03  0.00000000000E+00 0. -1.
         21   -1    0    0  501  503 -0.00000000000E+00 -0.00000000000E+00 -0.36982767740E+02  0.36982767740E+02  0.00000000000E+00 0.  1.
          2    1    1    2  501    0  0.20869076982E+02  0.72716539602E+01 -0.33189823635E+02  0.39874298969E+02  0.00000000000E+00 0.  1.
         -2    1    1    2    0  502 -0.20869076982E+02 -0.72716539602E+01  0.27045474591E+03  0.27135615879E+03  0.00000000000E+00 0. -1.
</event>
<event>
 4    1  0.1800096E+004  0.2059691E+02  0.7546771E-02  0.1525098E+00
         21   -1    0    0  503  502  0.00000000000E+00  0.00000000000E+00  0.58436627130E+02  0.58436627130E+02  0.00000000000E+00 0. -1.
         21   -1    0    0  501  503 -0.00000000000E+00 -0.00000000000E+00 -0.72619724835E+01  0.72619724835E+01  0.00000000000E+00 0.  1.
          2    1    1    2  501    0  0.17544435478E+02  0.10790070048E+02  0.26167448672E+02  0.33301174121E+02  0.00000000000E+00 0.  1.
         -2    1    1    2    0  502 -0.17544435478E+02 -0.10790070048E+02  0.25007205975E+02  0.32397425493E+02  0.00000000000E+00 0. -1.
</event>
<event>
 4    1  0.1800096E+004  0.2127947E+02  0.7546771E-02  0.1515312E+00
         21   -1    0    0  503  502  0.00000000000E+00  0.00000000000E+00  0.72076426167E+01  0.72076426167E+01  0.00000000000E+00 0. -1.
         21   -1    0    0  501  503 -0.00000000000E+00 -0.00000000000E+00 -0.82612612387E+02  0.82612612387E+02  0.00000000000E+00 0.  1.
          2    1    1    2  501    0 -0.18185428216E+02  0.11050158074E+02 -0.59682320361E+02  0.63362411227E+02  0.00000000000E+00 0.  1.
         -2    1    1    2    0  502  0.18185428216E+02 -0.11050158074E+02 -0.15722649409E+02  0.26457843777E+02  0.00000000000E+00 0. -1.
</event>
<event>
 4    1  0.1800096E+004  0.2396337E+02  0.7546771E-02  0.1480743E+00
         21   -1    0    0  501  502  0.00000000000E+00  0.00000000000E+00  0.42409367410E+01  0.42409367410E+01  0.00000000000E+00 0.  1.
         21   -1    0    0  502  503 -0.00000000000E+00 -0.00000000000E+00 -0.13714491279E+03  0.13714491279E+03  0.00000000000E+00 0. -1.
          2    1    1    2  501    0 -0.17847541430E+02 -0.15990887266E+02 -0.74414942387E+02  0.78178173815E+02  0.00000000000E+00 0.  1.
         -2    1    1    2    0  503  0.17847541430E+02  0.15990887266E+02 -0.58489033663E+02  0.63207675716E+02  0.00000000000E+00 0. -1.
</event>
<event>
 4    1  0.1800096E+004  0.2348929E+02  0.7546771E-02  0.1486444E+00
         21   -1    0    0  503  502  0.00000000000E+00  0.00000000000E+00  0.14191546749E+02  0.14191546749E+02  0.00000000000E+00 0.  1.
         21   -1    0    0  501  503 -0.00000000000E+00 -0.00000000000E+00 -0.42541238747E+02  0.42541238747E+02  0.00000000000E+00 0. -1.
          2    1    1    2  501    0 -0.51737877190E+00 -0.23483586751E+02 -0.22498231766E+02  0.32525635430E+02  0.00000000000E+00 0. -1.
         -2    1    1    2    0  502  0.51737877190E+00  0.23483586751E+02 -0.58514602308E+01  0.24207150066E+02  0.00000000000E+00 0.  1.
</event>
<event>
 4    1  0.1800096E+004  0.2127286E+02  0.7546771E-02  0.1515405E+00
         21   -1    0    0  501  502  0.00000000000E+00  0.00000000000E+00  0.67181926532E+01  0.67181926532E+01  0.00000000000E+00 0.  1.
         21   -1    0    0  502  503 -0.00000000000E+00 -0.00000000000E+00 -0.15299617281E+03  0.15299617281E+03  0.00000000000E+00 0. -1.
          2    1    1    2  501    0  0.35973361280E+01  0.20966489989E+02 -0.13393733436E+02  0.25138150788E+02  0.00000000000E+00 0.  1.
         -2    1    1    2    0  503 -0.35973361280E+01 -0.20966489989E+02 -0.13288424672E+03  0.13457621467E+03  0.00000000000E+00 0. -1.
</event>
<event>
 4    1  0.1800096E+004  0.3228516E+02  0.7546771E-02  0.1400725E+00
         21   -1    0    0  503  502  0.00000000000E+00  0.00000000000E+00  0.11651723527E+03  0.11651723527E+03  0.00000000000E+00 0.  1.
         21   -1    0    0  501  503 -0.00000000000E+00 -0.00000000000E+00 -0.92833298435E+01  0.92833298435E+01  0.00000000000E+00 0. -1.
          2    1    1    2  501    0 -0.31048179835E+02  0.88511197806E+01  0.41621919273E+02  0.52675572672E+02  0.00000000000E+00 0. -1.
         -2    1    1    2    0  502  0.31048179835E+02 -0.88511197806E+01  0.65611986151E+02  0.73124992438E+02  0.00000000000E+00 0.  1.
</event>
<event>
 4    1  0.1800096E+004  0.2460590E+02  0.7546771E-02  0.1473261E+00
         21   -1    0    0  501  502  0.00000000000E+00  0.00000000000E+00  0.18797779560E+01  0.18797779560E+01  0.00000000000E+00 0.  1.
         21   -1    0    0  502  503 -0.00000000000E+00 -0.00000000000E+00 -0.34624537123E+03  0.34624537123E+03  0.00000000000E+00 0. -1.
          2    1    1    2  501    0 -0.22839290813E+01 -0.24499675936E+02 -0.12620429222E+03  0.12858061218E+03  0.00000000000E+00 0.  1.
         -2    1    1    2    0  503  0.22839290813E+01  0.24499675936E+02 -0.21816130105E+03  0.21954453701E+03  0.00000000000E+00 0. -1.
</event>
<event>
 4    1  0.1800096E+004  0.2718941E+02  0.7546771E-02  0.1445715E+00
         21   -1    0    0  501  502  0.00000000000E+00  0.00000000000E+00  0.12865617782E+02  0.12865617782E+02  0.00000000000E+00 0.  1.
         21   -1    0    0  502  503 -0.00000000000E+00 -0.00000000000E+00 -0.86257052861E+02  0.86257052861E+02  0.00000000000E+00 0. -1.
          2    1    1    2  501    0 -0.15457668450E+02  0.22367932616E+02 -0.80594458369E+01  0.28358748044E+02  0.00000000000E+00 0.  1.
         -2    1    1    2    0  503  0.15457668450E+02 -0.22367932616E+02 -0.65331989242E+02  0.70763922600E+02  0.00000000000E+00 0. -1.
</event>
<event>
 4    1  0.1800096E+004  0.2139996E+02  0.7546771E-02  0.1513630E+00
         21   -1    0    0  503  502  0.00000000000E+00  0.00000000000E+00  0.19755977609E+01  0.19755977609E+01  0.00000000000E+00 0. -1.
         21   -1    0    0  501  503 -0.00000000000E+00 -0.00000000000E+00 -0.32710550858E+03  0.32710550858E+03  0.00000000000E+00 0.  1.
          2    1    1    2  501    0  0.52793153804E+01 -0.20738543366E+02 -0.25137681567E+03  0.25228607137E+03  0.00000000000E+00 0.  1.
         -2    1    1    2    0  502 -0.52793153804E+01  0.20738543366E+02 -0.73753095148E+02  0.76795034968E+02  0.00000000000E+00 0. -1.
</event>
<event>
 4    1  0.1800096E+004  0.2457918E+02  0.7546771E-02  0.1473566E+00
         21   -1    0    0  503  502  0.00000000000E+00  0.00000000000E+00  0.50221305107E+01  0.50221305107E+01  0.00000000000E+00 0. -1.
         21   -1    0    0  501  503 -0.00000000000E+00 -0.00000000000E+00 -0.19444097012E+03  0.19444097012E+03  0.00000000000E+00 0.  1.
          2    1    1    2  501    0  0.30259419647E+01 -0.24392208242E+02 -0.15629557104E+03  0.15821643933E+03  0.00000000000E+00 0.  1.
         -2    1    1    2    0  502 -0.30259419647E+01  0.24392208242E+02 -0.33123268569E+02  0.41246661300E+02  0.00000000000E+00 0. -1.
</event>
<event>
 4    1  0.1800096E+004  0.3714041E+02  0.7546771E-02  0.1366110E+00
         21   -1    0    0  501  502  0.00000000000E+00  0.00000000000E+00  0.25140984330E+01  0.25140984330E+01  0.00000000000E+00 0. -1.
         21   -1    0    0  502  503 -0.00000000000E+00 -0.00000000000E+00 -0.56368502475E+03  0.56368502475E+03  0.00000000000E+00 0.  1.
          2    1    1    2  501    0  0.36077266254E+02 -0.88227378377E+01 -0.23438066226E+03  0.23730508778E+03  0.00000000000E+00 0. -1.
         -2    1    1    2    0  503 -0.36077266254E+02  0.88227378377E+01 -0.32679026406E+03  0.32889403541E+03  0.00000000000E+00 0.  1.
</event>
<event>
 4    1  0.1800096E+004  0.5346193E+02  0.7546771E-02  0.1283822E+00
         21   -1    0    0  503  502  0.00000000000E+00  0.00000000000E+00  0.68811661633E+02  0.68811661633E+02  0.00000000000E+00 0.  1.
         21   -1    0    0  501  503 -0.00000000000E+00 -0.00000000000E+00 -0.52209282606E+02  0.52209282606E+02  0.00000000000E+00 0. -1.
          2    1    1    2  501    0 -0.50337896657E+02  0.18007599114E+02  0.35660230317E+02  0.64263749439E+02  0.00000000000E+00 0.  1.
         -2    1    1    2    0  502  0.50337896657E+02 -0.18007599114E+02 -0.19057851290E+02  0.56757194800E+02  0.00000000000E+00 0. -1.
</event>
<event>
 4    1  0.1800096E+004  0.3118430E+02  0.7546771E-02  0.1409577E+00
         21   -1    0    0  501  502  0.00000000000E+00  0.00000000000E+00  0.89546657365E+01  0.89546657365E+01  0.00000000000E+00 0. -1.
         21   -1    0    0  502  503 -0.00000000000E+00 -0.00000000000E+00 -0.14372425320E+03  0.14372425320E+03  0.00000000000E+00 0.  1.
          2    1    1    2  501    0 -0.11714954858E+02  0.28900180419E+02 -0.29645069952E+02  0.43026628592E+02  0.00000000000E+00 0. -1.
         -2    1    1    2    0  503  0.11714954858E+02 -0.28900180419E+02 -0.10512451751E+03  0.10965229034E+03  0.00000000000E+00 0.  1.
</event>
<event>
 4    1  0.1800096E+004  0.2600158E+02  0.7546771E-02  0.1457904E+00
         21   -1    0    0  501  502  0.00000000000E+00  0.00000000000E+00  0.76891332927E+02  0.76891332927E+02  0.00000000000E+00 0. -1.
         21   -1    0    0  502  503 -0.00000000000E+00 -0.00000000000E+00 -0.24036654639E+02  0.24036654639E+02  0.00000000000E+00 0.  1.
          2    1    1    2  501    0  0.22462188328E+02  0.13097022816E+02  0.66615073707E+02  0.71509789233E+02  0.00000000000E+00 0. -1.
         -2    1    1    2    0  503 -0.22462188328E+02 -0.13097022816E+02 -0.13760395419E+02  0.29418198334E+02  0.00000000000E+00 0.  1.
</event>
<event>
 4    1  0.1800096E+004  0.2174956E+02  0.7546771E-02  0.1508827E+00
         21   -1    0    0  501  502  0.00000000000E+00  0.00000000000E+00  0.61651199860E+02  0.61651199860E+02  0.00000000000E+00 0.  1.
         21   -1    0    0  502  503 -0.00000000000E+00 -0.00000000000E+00 -0.24171445536E+02  0.24171445536E+02  0.00000000000E+00 0. -1.
          2    1    1    2  501    0  0.36516689934E+01  0.21440818951E+02  0.54192097375E+02  0.58393722450E+02  0.00000000000E+00 0.  1.
         -2    1    1    2    0  503 -0.36516689934E+01 -0.21440818951E+02 -0.16712343051E+02  0.27428922946E+02  0.00000000000E+00 0. -1.
</event>
<event>
 4    1  0.1800096E+004  0.4562445E+02  0.7546771E-02  0.1318346E+00
         21   -1    0    0  501  502  0.00000000000E+00  0.00000000000E+00  0.71524232989E+02  0.71524232989E+02  0.00000000000E+00 0.  1.
         21   -1    0    0  502  503 -0.00000000000E+00 -0.00000000000E+00 -0.37405445444E+02  0.37405445444E+02  0.00000000000E+00 0. -1.
          2    1    1    2  501    0  0.44917790406E+02  0.79988958394E+01  0.42718666196E+02  0.62501797343E+02  0.00000000000E+00 0.  1.
         -2    1    1    2    0  503 -0.44917790406E+02 -0.79988958394E+01 -0.85998786509E+01  0.46427881089E+02  0.00000000000E+00 0. -1.
</event>
<event>
 4    1  0.1800096E+004  0.2664787E+02  0.7546771E-02  0.1451178E+00
         21   -1    0    0  501  502  0.00000000000E+00  0.00000000000E+00  0.37239720196E+01  0.37239720196E+01  0.00000000000E+00 0.  1.
         21   -1    0    0  502  503 -0.00000000000E+00 -0.00000000000E+00 -0.20433802669E+03  0.20433802669E+03  0.00000000000E+00 0. -1.
          2    1    1    2  501    0  0.26208579326E+02  0.48186259347E+01 -0.73417135604E+02  0.78103678444E+02  0.00000000000E+00 0.  1.
         -2    1    1    2    0  503 -0.26208579326E+02 -0.48186259347E+01 -0.12719691906E+03  0.12995832026E+03  0.00000000000E+00 0. -1.
</event>
<event>
 4    1  0.1800096E+004  0.2286783E+02  0.7546771E-02  0.1494165E+00
         21   -1    0    0  503  502  0.00000000000E+00  0.00000000000E+00  0.16760961734E+02  0.16760961734E+02  0.00000000000E+00 0.  1.
         21   -1    0    0  501  503 -0.00000000000E+00 -0.00000000000E+00 -0.20936195328E+03  0.20936195328E+03  0.00000000000E+00 0. -1.
          2    1    1    2  501    0  0.20562515221E+02  0.10006021087E+02 -0.20059790250E+03  0.20189714207E+03  0.00000000000E+00 0. -1.
         -2    1    1    2    0  502 -0.20562515221E+02 -0.10006021087E+02  0.79969109463E+01  0.24225772947E+02  0.00000000000E+00 0.  1.
</event>
<event>
 4    1  0.1800096E+004  0.2073063E+02  0.7546771E-02  0.1523146E+00
         21   -1    0    0  503  502  0.00000000000E+00  0.00000000000E+00  0.25488527439E+02  0.25488527439E+02  0.00000000000E+00 0.  1.
         21   -1    0    0  501  503 -0.00000000000E+00 -0.00000000000E+00 -0.32569460326E+02  0.32569460326E+02  0.00000000000E+00 0. -1.
          2    1    1    2  501    0  0.77704872228E+01  0.19219228615E+02 -0.23700676513E+02  0.31487795849E+02  0.00000000000E+00 0. -1.
         -2    1    1    2    0  502 -0.77704872228E+01 -0.19219228615E+02  0.16619743627E+02  0.26570191916E+02  0.00000000000E+00 0.  1.
</event>
<event>
 4    1  0.1800096E+004  0.3681345E+02  0.7546771E-02  0.1368244E+00
         21   -1    0    0  503  502  0.00000000000E+00  0.00000000000E+00  0.30237756400E+02  0.30237756400E+02  0.00000000000E+00 0. -1.
         21   -1    0    0  501  503 -0.00000000000E+00 -0.00000000000E+00 -0.23116132177E+03  0.23116132177E+03  0.00000000000E+00 0.  1.
          2    1    1    2  501    0  0.35377679243E+02  0.10180864855E+02 -0.21780880155E+03  0.22089794981E+03  0.00000000000E+00 0.  1.
         -2    1    1    2    0  502 -0.35377679243E+02 -0.10180864855E+02  0.16885236178E+02  0.40501128362E+02  0.00000000000E+00 0. -1.
</event>
<event>
 4    1  0.1800096E+004  0.2967847E+02  0.7546771E-02  0.1422411E+00
         21   -1    0    0  501  502  0.00000000000E+00  0.00000000000E+00  0.10696590967E+02  0.10696590967E+02  0.00000000000E+00 0. -1.
         21   -1    0    0  502  503 -0.00000000000E+00 -0.00000000000E+00 -0.97425553829E+02  0.97425553829E+02  0.00000000000E+00 0.  1.
          2    1    1    2  501    0 -0.12512827861E+02 -0.26911717928E+02 -0.22095044191E+02  0.37000032442E+02  0.00000000000E+00 0.  1.
         -2    1    1    2    0  503  0.12512827861E+02  0.26911717928E+02 -0.64633918671E+02  0.71122112354E+02  0.00000000000E+00 0. -1.
</event>
<event>
 4    1  0.1800096E+004  0.2797193E+02  0.7546771E-02  0.1438082E+00
         21   -1    0    0  501  502  0.00000000000E+00  0.00000000000E+00  0.25391521580E+03  0.25391521580E+03  0.00000000000E+00 0. -1.
         21   -1    0    0  502  503 -0.00000000000E+00 -0.00000000000E+00 -0.44154771588E+01  0.44154771588E+01  0.00000000000E+00 0.  1.
          2    1    1    2  501    0  0.35171726704E+01  0.27749926562E+02  0.19574659479E+03  0.19773507099E+03  0.00000000000E+00 0. -1.
         -2    1    1    2    0  503 -0.35171726704E+01 -0.27749926562E+02  0.53753143846E+02  0.60595621963E+02  0.00000000000E+00 0.  1.
</event>
<event>
 4    1  0.1800096E+004  0.2645104E+02  0.7546771E-02  0.1453202E+00
         21   -1    0    0  503  502  0.00000000000E+00  0.00000000000E+00  0.13598497589E+01  0.13598497589E+01  0.00000000000E+00 0. -1.
         21   -1    0    0  501  503 -0.00000000000E+00 -0.00000000000E+00 -0.65199937775E+03  0.65199937775E+03  0.00000000000E+00 0.  1.
          2    1    1    2  501    0  0.23581895817E+02  0.11981306105E+02 -0.17530582514E+03  0.17729012898E+03  0.00000000000E+00 0. -1.
         -2    1    1    2    0  502 -0.23581895817E+02 -0.11981306105E+02 -0.47533370286E+03  0.47606909853E+03  0.00000000000E+00 0.  1.
</event>
<event>
 4    1  0.1800096E+004  0.2230637E+02  0.7546771E-02  0.1501397E+00
         21   -1    0    0  503  502  0.00000000000E+00  0.00000000000E+00  0.17182807209E+03  0.17182807209E+03  0.00000000000E+00 0. -1.
         21   -1    0    0  501  503 -0.00000000000E+00 -0.00000000000E+00 -0.34864170626E+01  0.34864170626E+01  0.00000000000E+00 0.  1.
          2    1    1    2  501    0 -0.19631257888E+01 -0.22219815529E+02  0.48091098756E+02  0.53012525355E+02  0.00000000000E+00 0. -1.
         -2    1    1    2    0  502  0.19631257888E+01  0.22219815529E+02  0.12025055627E+03  0.12230196380E+03  0.00000000000E+00 0.  1.
</event>
<event>
 4    1  0.1800096E+004  0.2710321E+02  0.7546771E-02  0.1446574E+00
         21   -1    0    0  501  502  0.00000000000E+00  0.00000000000E+00  0.36986124153E+02  0.36986124153E+02  0.00000000000E+00 0.  1.
         21   -1    0    0  502  503 -0.00000000000E+00 -0.00000000000E+00 -0.36697367200E+02  0.36697367200E+02  0.00000000000E+00 0. -1.
          2    1    1    2  501    0  0.17533990671E+02 -0.20667443515E+02  0.25098714623E+02  0.36939538790E+02  0.00000000000E+00 0.  1.
         -2    1    1    2    0  503 -0.17533990671E+02  0.20667443515E+02 -0.24809957670E+02  0.36743952562E+02  0.00000000000E+00 0. -1.
</event>
<event>
 4    1  0.1800096E+004  0.2348964E+02  0.7546771E-02  0.1486440E+00
         21   -1    0    0  501  502  0.00000000000E+00  0.00000000000E+00  0.29656909330E+03  0.29656909330E+03  0.00000000000E+00 0. -1.
         21   -1    0    0  502  503 -0.00000000000E+00 -0.00000000000E+00 -0.33539598791E+01  0.33539598791E+01  0.00000000000E+00 0.  1.
          2    1    1    2  501    0  0.22941575152E+02  0.50445454060E+01  0.24667653263E+03  0.24779240315E+03  0.00000000000E+00 0. -1.
         -2    1    1    2    0  503 -0.22941575152E+02 -0.50445454060E+01  0.46538600793E+02  0.52130650030E+02  0.00000000000E+00 0.  1.
</event>
<event>
 4    1  0.1800096E+004  0.2129186E+02  0.7546771E-02  0.1515138E+00
         21   -1    0    0  503  502  0.00000000000E+00  0.00000000000E+00  0.24910290638E+02  0.24910290638E+02  0.00000000000E+00 0. -1.
         21   -1    0    0  501  503 -0.00000000000E+00 -0.00000000000E+00 -0.25071449427E+02  0.25071449427E+02  0.00000000000E+00 0.  1.
          2    1    1    2  501    0  0.17518147007E+02  0.12101980704E+02 -0.13164747701E+02  0.25033058014E+02  0.00000000000E+00 0.  1.
         -2    1    1    2    0  502 -0.17518147007E+02 -0.12101980704E+02  0.13003588912E+02  0.24948682052E+02  0.00000000000E+00 0. -1.
</event>
<event>
 4    1  0.1800096E+004  0.3591937E+02  0.7546771E-02  0.1374213E+00
         21   -1    0    0  503  502  0.00000000000E+00  0.00000000000E+00  0.27874486329E+03  0.27874486329E+03  0.00000000000E+00 0. -1.
         21   -1    0    0  501  503 -0.00000000000E+00 -0.00000000000E+00 -0.53733667689E+01  0.53733667689E+01  0.00000000000E+00 0.  1.
          2    1    1    2  501    0 -0.23275158272E+02  0.27358141224E+02  0.83798193615E+02  0.91172024969E+02  0.00000000000E+00 0.  1.
         -2    1    1    2    0  502  0.23275158272E+02 -0.27358141224E+02  0.18957330290E+03  0.19294620508E+03  0.00000000000E+00 0. -1.
</event>
<event>
 4    1  0.1800096E+004  0.2425688E+02  0.7546771E-02  0.1477291E+00
         21   -1    0    0  503  502  0.00000000000E+00  0.00000000000E+00  0.93044530664E+01  0.93044530664E+01  0.00000000000E+00 0. -1.
         21   -1    0    0  501  503 -0.00000000000E+00 -0.00000000000E+00 -0.10790076048E+03  0.10790076048E+03  0.00000000000E+00 0.  1.
          2    1    1    2  501    0  0.21253595325E+02  0.11691061347E+02 -0.87001233059E+02  0.90319492821E+02  0.00000000000E+00 0.  1.
         -2    1    1    2    0  502 -0.21253595325E+02 -0.11691061347E+02 -0.11595074356E+02  0.26885720726E+02  0.00000000000E+00 0. -1.
</event>
<event>
 4    1  0.1800096E+004  0.2573750E+02  0.7546771E-02  0.1460720E+00
         21   -1    0    0  503  502  0.00000000000E+00  0.00000000000E+00  0.70723888443E+02  0.70723888443E+02  0.00000000000E+00 0.  1.
         21   -1    0    0  501  503 -0.00000000000E+00 -0.00000000000E+00 -0.30399673233E+02  0.30399673233E+02  0.00000000000E+00 0. -1.
          2    1    1    2  501    0  0.73219478887E+01 -0.24674030310E+02 -0.21895322125E+02  0.33790883735E+02  0.00000000000E+00 0. -1.
         -2    1    1    2    0  502 -0.73219478887E+01  0.24674030310E+02  0.62219537335E+02  0.67332677942E+02  0.00000000000E+00 0.  1.
</event>
<event>
 4    1  0.1800096E+004  0.2416689E+02  0.7546771E-02  0.1478343E+00
         21   -1    0    0  503  502  0.00000000000E+00  0.00000000000E+00  0.83553480798E+03  0.83553480798E+03  0.00000000000E+00 0. -1.
         21   -1    0    0  501  503 -0.00000000000E+00 -0.00000000000E+00 -0.16659975015E+01  0.16659975015E+01  0.00000000000E+00 0.  1.
          2    1    1    2  501    0  0.17465659764E+00 -0.24166259926E+02  0.98019218681E+02  0.10095447417E+03  0.00000000000E+00 0.  1.
         -2    1    1    2    0  502 -0.17465659764E+00  0.24166259926E+02  0.73584959179E+03  0.73624633131E+03  0.00000000000E+00 0. -1.
</event>
<event>
 4    1  0.1800096E+004  0.3226118E+02  0.7546771E-02  0.1400913E+00
         21   -1    0    0  501  502  0.00000000000E+00  0.00000000000E+00  0.95006965442E+03  0.95006965442E+03  0.00000000000E+00 0. -1.
         21   -1    0    0  502  503 -0.00000000000E+00 -0.00000000000E+00 -0.38970955202E+01  0.38970955202E+01  0.00000000000E+00 0.  1.
          2    1    1    2  501    0  0.32063271715E+02  0.35679212642E+01  0.87751025148E+03  0.87810308331E+03  0.00000000000E+00 0. -1.
         -2    1    1    2    0  503 -0.32063271715E+02 -0.35679212642E+01  0.68662307413E+02  0.75863666630E+02  0.00000000000E+00 0.  1.
</event>
<event>
 4    1  0.1800096E+004  0.2598318E+02  0.7546771E-02  0.1458098E+00
         21   -1    0    0  501  502  0.00000000000E+00  0.00000000000E+00  0.25621186825E+02  0.25621186825E+02  0.00000000000E+00 0. -1.
         21   -1    0    0  502  503 -0.00000000000E+00 -0.00000000000E+00 -0.27430528861E+02  0.27430528861E+02  0.00000000000E+00 0.  1.
          2    1    1    2  501    0  0.25564020912E+02  0.46482988764E+01  0.43592711670E+01  0.26346329778E+02  0.00000000000E+00 0.  1.
         -2    1    1    2    0  503 -0.25564020912E+02 -0.46482988764E+01 -0.61686132027E+01  0.26705385908E+02  0.00000000000E+00 0. -1.
</event>
<event>
 4    1  0.1800096E+004  0.2017691E+02  0.7546771E-02  0.1531348E+00
         21   -1    0    0  503  502  0.00000000000E+00  0.00000000000E+00  0.90261914169E+02  0.90261914169E+02  0.00000000000E+00 0. -1.
         21   -1    0    0  501  503 -0.00000000000E+00 -0.00000000000E+00 -0.14856606102E+02  0.14856606102E+02  0.00000000000E+00 0.  1.
          2    1    1    2  501    0 -0.19282219682E+02  0.59416928900E+01 -0.61587207522E+01  0.21095913149E+02  0.00000000000E+00 0.  1.
         -2    1    1    2    0  502  0.19282219682E+02 -0.59416928900E+01  0.81564028819E+02  0.84022607122E+02  0.00000000000E+00 0. -1.
</event>
<event>
 4    1  0.1800096E+004  0.3473146E+02  0.7546771E-02  0.1382461E+00
         21   -1    0    0  503  502  0.00000000000E+00  0.00000000000E+00  0.15363203409E+02  0.15363203409E+02  0.00000000000E+00 0.  1.
         21   -1    0    0  501  503 -0.00000000000E+00 -0.00000000000E+00 -0.15019471512E+03  0.15019471512E+03  0.00000000000E+00 0. -1.
          2    1    1    2  501    0  0.90213094269E+01  0.33539386650E+02 -0.12460104878E+03  0.12935105658E+03  0.00000000000E+00 0. -1.
         -2    1    1    2    0  502 -0.90213094269E+01 -0.33539386650E+02 -0.10230462930E+02  0.36206861951E+02  0.00000000000E+00 0.  1.
</event>
<event>
 4    1  0.1800096E+004  0.3376398E+02  0.7546771E-02  0.1389467E+00
         21   -1    0    0  503  502  0.00000000000E+00  0.00000000000E+00  0.20182462337E+03  0.20182462337E+03  0.00000000000E+00 0. -1.
         21   -1    0    0  501  503 -0.00000000000E+00 -0.00000000000E+00 -0.60540964352E+01  0.60540964352E+01  0.00000000000E+00 0.  1.
          2    1    1    2  501    0  0.28207212588E+02  0.18556923582E+02  0.70982135280E+02  0.78603242832E+02  0.00000000000E+00 0. -1.
         -2    1    1    2    0  502 -0.28207212588E+02 -0.18556923582E+02  0.12478839166E+03  0.12927547697E+03  0.00000000000E+00 0.  1.
</event>
<event>
 4    1  0.1800096E+004  0.2801539E+02  0.7546771E-02  0.1437667E+00
         21   -1    0    0  501  502  0.00000000000E+00  0.00000000000E+00  0.41748952803E+02  0.41748952803E+02  0.00000000000E+00 0.  1.
         21   -1    0    0  502  503 -0.00000000000E+00 -0.00000000000E+00 -0.34698946615E+02  0.34698946615E+02  0.00000000000E+00 0. -1.
          2    1    1    2  501    0 -0.22564616484E+02 -0.16604227650E+02  0.29399236182E+02  0.40610065021E+02  0.00000000000E+00 0.  1.
         -2    1    1    2    0  503  0.22564616484E+02  0.16604227650E+02 -0.22349229994E+02  0.35837834397E+02  0.00000000000E+00 0. -1.
</event>
<event>
 4    1  0.1800096E+004  0.2530961E+02  0.7546771E-02  0.1465369E+00
         21   -1    0    0  503  502  0.00000000000E+00  0.00000000000E+00  0.24869360798E+02  0.24869360798E+02  0.00000000000E+00 0.  1.
         21   -1    0    0  501  503 -0.00000000000E+00 -0.00000000000E+00 -0.26086993359E+02  0.26086993359E+02  0.00000000000E+00 0. -1.
          2    1    1    2  501    0 -0.24507362597E+02 -0.63218358578E+01  0.22538921036E+01  0.25409770950E+02  0.00000000000E+00 0.  1.
         -2    1    1    2    0  502  0.24507362597E+02  0.63218358578E+01 -0.34715246645E+01  0.25546583208E+02  0.00000000000E+00 0. -1.
</event>
<event>
 4    1  0.1800096E+004  0.2271482E+02  0.7546771E-02  0.1496110E+00
         21   -1    0    0  501  502  0.00000000000E+00  0.00000000000E+00  0.23953816637E+01  0.23953816637E+01  0.00000000000E+00 0. -1.
         21   -1    0    0  502  503 -0.00000000000E+00 -0.00000000000E+00 -0.26484277764E+03  0.26484277764E+03  0.00000000000E+00 0.  1.
          2    1    1    2  501    0  0.16325174066E+02  0.15794046708E+02 -0.73489984942E+02  0.76920355605E+02  0.00000000000E+00 0. -1.
         -2    1    1    2    0  503 -0.16325174066E+02 -0.15794046708E+02 -0.18895741104E+03  0.19031780370E+03  0.00000000000E+00 0.  1.
</event>
<event>
 4    1  0.1800096E+004  0.2294888E+02  0.7546771E-02  0.1493141E+00
         21   -1    0    0  503  502  0.00000000000E+00  0.00000000000E+00  0.36338556132E+02  0.36338556132E+02  0.00000000000E+00 0. -1.
         21   -1    0    0  501  503 -0.00000000000E+00 -0.00000000000E+00 -0.23837353203E+02  0.23837353203E+02  0.00000000000E+00 0.  1.
          2    1    1    2  501    0  0.17622898835E+02  0.14699817305E+02 -0.12587646651E+02  0.26174415759E+02  0.00000000000E+00 0.  1.
         -2    1    1    2    0  502 -0.17622898835E+02 -0.14699817305E+02  0.25088849580E+02  0.34001493575E+02  0.00000000000E+00 0. -1.
</event>
<event>
 4    1  0.1800096E+004  0.2349156E+02  0.7546771E-02  0.1486416E+00
         21   -1    0    0  503  502  0.00000000000E+00  0.00000000000E+00  0.39499635259E+02  0.39499635259E+02  0.00000000000E+00 0.  1.
         21   -1    0    0  501  503 -0.00000000000E+00 -0.00000000000E+00 -0.15140287223E+02  0.15140287223E+02  0.00000000000E+00 0. -1.
          2    1    1    2  501    0 -0.79550986940E+01 -0.22103610274E+02  0.45876799519E+01  0.23935329321E+02  0.00000000000E+00 0. -1.
         -2    1    1    2    0  502  0.79550986940E+01  0.22103610274E+02  0.19771668085E+02  0.30704593161E+02  0.00000000000E+00 0.  1.
</event>
<event>
 4    1  0.1800096E+004  0.2066316E+02  0.7546771E-02  0.1524129E+00
         21   -1    0    0  503  502  0.00000000000E+00  0.00000000000E+00  0.81862544113E+01  0.81862544113E+01  0.00000000000E+00 0.  1.
         21   -1    0    0  501  503 -0.00000000000E+00 -0.00000000000E+00 -0.72063182888E+02  0.72063182888E+02  0.00000000000E+00 0. -1.
          2    1    1    2  501    0  0.18243093027E+01  0.20582465936E+02 -0.53027427097E+02  0.56911106411E+02  0.00000000000E+00 0. -1.
         -2    1    1    2    0  502 -0.18243093027E+01 -0.20582465936E+02 -0.10849501379E+02  0.23338330888E+02  0.00000000000E+00 0.  1.
</event>
<event>
 4    1  0.1800096E+004  0.2621281E+02  0.7546771E-02  0.1455680E+00
         21   -1    0    0  501  502  0.00000000000E+00  0.00000000000E+00  0.37372494248E+02  0.37372494248E+02  0.00000000000E+00 0. -1.
         21   -1    0    0  502  503 -0.00000000000E+00 -0.00000000000E+00 -0.35181857436E+02  0.35181857436E+02  0.00000000000E+00 0.  1.
          2    1    1    2  501    0 -0.25812164056E+02  0.45654802154E+01  0.26161133935E+02  0.37033989141E+02  0.00000000000E+00 0. -1.
         -2    1    1    2    0  503  0.25812164056E+02 -0.45654802154E+01 -0.23970497124E+02  0.35520362544E+02  0.00000000000E+00 0.  1.
</event>
<event>
 4    1  0.1800096E+004  0.2061131E+02  0.7546771E-02  0.1524887E+00
         21   -1    0    0  503  502  0.00000000000E+00  0.00000000000E+00  0.11530267966E+03  0.11530267966E+03  0.00000000000E+00 0.  1.
         21   -1    0    0  501  503 -0.00000000000E+00 -0.00000000000E+00 -0.50695679614E+01  0.50695679614E+01  0.00000000000E+00 0. -1.
          2    1    1    2  501    0  0.13580913536E+02 -0.15504346369E+02  0.23656779925E+02  0.31376252250E+02  0.00000000000E+00 0.  1.
         -2    1    1    2    0  502 -0.13580913536E+02  0.15504346369E+02  0.86576331777E+02  0.88995995375E+02  0.00000000000E+00 0. -1.
</event>
<event>
 4    1  0.1800096E+004  0.2280377E+02  0.7546771E-02  0.1494977E+00
         21   -1    0    0  501  502  0.00000000000E+00  0.00000000000E+00  0.14217363300E+02  0.14217363300E+02  0.00000000000E+00 0.  1.
         21   -1    0    0  502  503 -0.00000000000E+00 -0.00000000000E+00 -0.38726633762E+02  0.38726633762E+02  0.00000000000E+00 0. -1.
          2    1    1    2  501    0  0.16523990736E+02  0.15715274915E+02 -0.60161332813E+01  0.23584019911E+02  0.00000000000E+00 0. -1.
         -2    1    1    2    0  503 -0.16523990736E+02 -0.15715274915E+02 -0.18493137181E+02  0.29359977151E+02  0.00000000000E+00 0.  1.
</event>
<event>
 4    1  0.1800096E+004  0.3004828E+02  0.7546771E-02  0.1419177E+00
         21   -1    0    0  501  502  0.00000000000E+00  0.00000000000E+00  0.22860541096E+01  0.22860541096E+01  0.00000000000E+00 0. -1.
         21   -1    0    0  502  503 -0.00000000000E+00 -0.00000000000E+00 -0.44006728977E+03  0.44006728977E+03  0.00000000000E+00 0.  1.
          2    1    1    2  501    0 -0.73156430367E+01  0.29144130995E+02 -0.14807890609E+03  0.15109686110E+03  0.00000000000E+00 0. -1.
         -2    1    1    2    0  503  0.73156430367E+01 -0.29144130995E+02 -0.28970232956E+03  0.29125648278E+03  0.00000000000E+00 0.  1.
</event>
<event>
 4    1  0.1800096E+004  0.2215061E+02  0.7546771E-02  0.1503449E+00
         21   -1    0    0  503  502  0.00000000000E+00  0.00000000000E+00  0.53368270694E+01  0.53368270694E+01  0.00000000000E+00 0.  1.
         21   -1    0    0  501  503 -0.00000000000E+00 -0.00000000000E+00 -0.93013908834E+02  0.93013908834E+02  0.00000000000E+00 0. -1.
          2    1    1    2  501    0  0.92104705566E+01 -0.20144890146E+02 -0.49131002355E+02  0.53893457481E+02  0.00000000000E+00 0. -1.
         -2    1    1    2    0  502 -0.92104705566E+01  0.20144890146E+02 -0.38546079410E+02  0.44457278423E+02  0.00000000000E+00 0.  1.
</event>
<event>
 4    1  0.1800096E+004  0.2376631E+02  0.7546771E-02  0.1483093E+00
         21   -1    0    0  501  502  0.00000000000E+00  0.00000000000E+00  0.79049524350E+02  0.79049524350E+02  0.00000000000E+00 0.  1.
         21   -1    0    0  502  503 -0.00000000000E+00 -0.00000000000E+00 -0.10022916768E+02  0.10022916768E+02  0.00000000000E+00 0. -1.
          2    1    1    2  501    0 -0.23598829251E+02  0.28164735251E+01  0.10650125320E+02  0.26043472012E+02  0.00000000000E+00 0.  1.
         -2    1    1    2    0  503  0.23598829251E+02 -0.28164735251E+01  0.58376482263E+02  0.63028969106E+02  0.00000000000E+00 0. -1.
</event>
<event>
 4    1  0.1800096E+004  0.2231918E+02  0.7546771E-02  0.1501229E+00
         21   -1    0    0  501  502  0.00000000000E+00  0.00000000000E+00  0.16710164184E+02  0.16710164184E+02  0.00000000000E+00 0. -1.
         21   -1    0    0  502  503 -0.00000000000E+00 -0.00000000000E+00 -0.53331799252E+02  0.53331799252E+02  0.00000000000E+00 0.  1.
          2    1    1    2  501    0  0.86110700808E+01 -0.20591150081E+02  0.49466075631E+01  0.22860772428E+02  0.00000000000E+00 0. -1.
         -2    1    1    2    0  503 -0.86110700808E+01  0.20591150081E+02 -0.41568242630E+02  0.47181191009E+02  0.00000000000E+00 0.  1.
</event>
<event>
 4    1  0.1800096E+004  0.2150763E+02  0.7546771E-02  0.1512139E+00
         21   -1    0    0  501  502  0.00000000000E+00  0.00000000000E+00  0.24703506187E+02  0.24703506187E+02  0.00000000000E+00 0.  1.
         21   -1    0    0  502  503 -0.00000000000E+00 -0.00000000000E+00 -0.95758979763E+02  0.95758979763E+02  0.00000000000E+00 0. -1.
          2    1    1    2  501    0 -0.20481998282E+02  0.65624650947E+01  0.18494512421E+02  0.28365916016E+02  0.00000000000E+00 0.  1.
         -2    1    1    2    0  503  0.20481998282E+02 -0.65624650947E+01 -0.89549985996E+02  0.92096569934E+02  0.00000000000E+00 0. -1.
</event>
<event>
 4    1  0.1800096E+004  0.3431474E+02  0.7546771E-02  0.1385446E+00
         21   -1    0    0  503  502  0.00000000000E+00  0.00000000000E+00  0.41502858180E+02  0.41502858180E+02  0.00000000000E+00 0.  1.
         21   -1    0    0  501  503 -0.00000000000E+00 -0.00000000000E+00 -0.28383254097E+02  0.28383254097E+02  0.00000000000E+00 0. -1.
          2    1    1    2  501    0 -0.33690219638E+02 -0.65169227940E+01  0.72688180964E+01  0.35076158548E+02  0.00000000000E+00 0.  1.
         -2    1    1    2    0  502  0.33690219638E+02  0.65169227940E+01  0.58507859858E+01  0.34809953729E+02  0.00000000000E+00 0. -1.
</event>
<event>
 4    1  0.1800096E+004  0.2352223E+02  0.7546771E-02  0.1486043E+00
         21   -1    0    0  503  502  0.00000000000E+00  0.00000000000E+00  0.50295201488E+01  0.50295201488E+01  0.00000000000E+00 0.  1.
         21   -1    0    0  501  503 -0.00000000000E+00 -0.00000000000E+00 -0.12918956775E+03  0.12918956775E+03  0.00000000000E+00 0. -1.
          2    1    1    2  501    0  0.23497701790E+02 -0.10738928045E+01 -0.87938033661E+02  0.91029627041E+02  0.00000000000E+00 0. -1.
         -2    1    1    2    0  502 -0.23497701790E+02  0.10738928045E+01 -0.36222013936E+02  0.43189460853E+02  0.00000000000E+00 0.  1.
</event>
<event>
 4    1  0.1800096E+004  0.2297881E+02  0.7546771E-02  0.1492764E+00
         21   -1    0    0  501  502  0.00000000000E+00  0.00000000000E+00  0.20015356967E+02  0.20015356967E+02  0.00000000000E+00 0.  1.
         21   -1    0    0  502  503 -0.00000000000E+00 -0.00000000000E+00 -0.31934998275E+02  0.31934998275E+02  0.00000000000E+00 0. -1.
          2    1    1    2  501    0  0.14119912600E+02  0.18128811258E+02  0.48726315364E+01  0.23489748137E+02  0.00000000000E+00 0.  1.
         -2    1    1    2    0  503 -0.14119912600E+02 -0.18128811258E+02 -0.16792272845E+02  0.28460607105E+02  0.00000000000E+00 0. -1.
</event>
<event>
 4    1  0.1800096E+004  0.4264050E+02  0.7546771E-02  0.1333671E+00
         21   -1    0    0  503  502  0.00000000000E+00  0.00000000000E+00  0.79358197318E+03  0.79358197318E+03  0.00000000000E+00 0.  1.
         21   -1    0    0  501  503 -0.00000000000E+00 -0.00000000000E+00 -0.25671276296E+01  0.25671276296E+01  0.00000000000E+00 0. -1.
          2    1    1    2  501    0  0.14061598010E+02 -0.40255236799E+02  0.26498644779E+03  0.26839528710E+03  0.00000000000E+00 0. -1.
         -2    1    1    2    0  502 -0.14061598010E+02  0.40255236799E+02  0.52602839777E+03  0.52775381371E+03  0.00000000000E+00 0.  1.
</event>
<event>
 4    1  0.1800096E+004  0.2804390E+02  0.7546771E-02  0.1437395E+00
         21   -1    0    0  503  502  0.00000000000E+00  0.00000000000E+00  0.68502621784E+02  0.68502621784E+02  0.00000000000E+00 0.  1.
         21   -1    0    0  501  503 -0.00000000000E+00 -0.00000000000E+00 -0.11929775401E+02  0.11929775401E+02  0.00000000000E+00 0. -1.
          2    1    1    2  501    0 -0.21408541387E+02 -0.18114480577E+02  0.20483984021E+02  0.34728283175E+02  0.00000000000E+00 0.  1.
         -2    1    1    2    0  502  0.21408541387E+02  0.18114480577E+02  0.36088862361E+02  0.45704114010E+02  0.00000000000E+00 0. -1.
</event>
<event>
 4    1  0.1800096E+004  0.4082685E+02  0.7546771E-02  0.1343707E+00
         21   -1    0    0  503  502  0.00000000000E+00  0.00000000000E+00  0.61938876149E+01  0.61938876149E+01  0.00000000000E+00 0. -1.
         21   -1    0    0  501  503 -0.00000000000E+00 -0.00000000000E+00 -0.28370412524E+03  0.28370412524E+03  0.00000000000E+00 0.  1.
          2    1    1    2  501    0 -0.20234489528E+02  0.35459798202E+02 -0.10587873502E+03  0.11347747964E+03  0.00000000000E+00 0. -1.
         -2    1    1    2    0  502  0.20234489528E+02 -0.35459798202E+02 -0.17163150261E+03  0.17642053322E+03  0.00000000000E+00 0.  1.
</event>
<event>
 4    1  0.1800096E+004  0.2589916E+02  0.7546771E-02  0.1458991E+00
         21   -1    0    0  503  502  0.00000000000E+00  0.00000000000E+00  0.21275970501E+03  0.21275970501E+03  0.00000000000E+00 0. -1.
         21   -1    0    0  501  503 -0.00000000000E+00 -0.00000000000E+00 -0.49555360678E+01  0.49555360678E+01  0.00000000000E+00 0.  1.
          2    1    1    2  501    0 -0.25740203419E+02 -0.28650709970E+01  0.16956075708E+03  0.17152730700E+03  0.00000000000E+00 0. -1.
         -2    1    1    2    0  502  0.25740203419E+02  0.28650709970E+01  0.38243411862E+02  0.46187934082E+02  0.00000000000E+00 0.  1.
</event>
<event>
 4    1  0.1800096E+004  0.2006687E+02  0.7546771E-02  0.1533016E+00
         21   -1    0    0  503  502  0.00000000000E+00  0.00000000000E+00  0.15051900284E+03  0.15051900284E+03  0.00000000000E+00 0.  1.
         21   -1    0    0  501  503 -0.00000000000E+00 -0.00000000000E+00 -0.44246718333E+01  0.44246718333E+01  0.00000000000E+00 0. -1.
          2    1    1    2  501    0  0.69125312584E+01 -0.18838691554E+02  0.24333841022E+02  0.31540691285E+02  0.00000000000E+00 0. -1.
         -2    1    1    2    0  502 -0.69125312584E+01  0.18838691554E+02  0.12176048999E+03  0.12340298339E+03  0.00000000000E+00 0.  1.
</event>
<event>
 4    1  0.1800096E+004  0.2076723E+02  0.7546771E-02  0.1522614E+00
         21   -1    0    0  501  502  0.00000000000E+00  0.00000000000E+00  0.11300205549E+02  0.11300205549E+02  0.00000000000E+00 0. -1.
         21   -1    0    0  502  503 -0.00000000000E+00 -0.00000000000E+00 -0.54657667366E+02  0.54657667366E+02  0.00000000000E+00 0.  1.
          2    1    1    2  501    0 -0.19004151995E+02  0.83737720549E+01 -0.35632389298E+01  0.21070702958E+02  0.00000000000E+00 0. -1.
         -2    1    1    2    0  503  0.19004151995E+02 -0.83737720549E+01 -0.39794222887E+02  0.44887169956E+02  0.00000000000E+00 0.  1.
</event>
<event>
 4    1  0.1800096E+004  0.2744878E+02  0.7546771E-02  0.1443151E+00
         21   -1    0    0  503  502  0.00000000000E+00  0.00000000000E+00  0.55009933981E+02  0.55009933981E+02  0.00000000000E+00 0.  1.
         21   -1    0    0  501  503 -0.00000000000E+00 -0.00000000000E+00 -0.13851161573E+02  0.13851161573E+02  0.00000000000E+00 0. -1.
          2    1    1    2  501    0  0.22253313939E+02  0.16069394326E+02  0.16939399116E+02  0.32254901297E+02  0.00000000000E+00 0.  1.
         -2    1    1    2    0  502 -0.22253313939E+02 -0.16069394326E+02  0.24219373292E+02  0.36606194256E+02  0.00000000000E+00 0. -1.
</event>
<event>
 4    1  0.1800096E+004  0.2217782E+02  0.7546771E-02  0.1503089E+00
         21   -1    0    0  503  502  0.00000000000E+00  0.00000000000E+00  0.11516336657E+02  0.11516336657E+02  0.00000000000E+00 0.  1.
         21   -1    0    0  501  503 -0.00000000000E+00 -0.00000000000E+00 -0.89147812682E+02  0.89147812682E+02  0.00000000000E+00 0. -1.
          2    1    1    2  501    0 -0.16121705090E+02 -0.15229776901E+02 -0.75142635760E+02  0.78347119847E+02  0.00000000000E+00 0. -1.
         -2    1    1    2    0  502  0.16121705090E+02  0.15229776901E+02 -0.24888402650E+01  0.22317029491E+02  0.00000000000E+00 0.  1.
</event>
<event>
 4    1  0.1800096E+004  0.3003506E+02  0.7546771E-02  0.1419292E+00
         21   -1    0    0  503  502  0.00000000000E+00  0.00000000000E+00  0.29733795205E+03  0.29733795205E+03  0.00000000000E+00 0. -1.
         21   -1    0    0  501  503 -0.00000000000E+00 -0.00000000000E+00 -0.31437922907E+01  0.31437922907E+01  0.00000000000E+00 0.  1.
          2    1    1    2  501    0  0.26732617413E+02  0.13692043634E+02  0.11901237842E+03  0.12274384347E+03  0.00000000000E+00 0. -1.
         -2    1    1    2    0  502 -0.26732617413E+02 -0.13692043634E+02  0.17518178133E+03  0.17773790087E+03  0.00000000000E+00 0.  1.
</event>
<event>
 4    1  0.1800096E+004  0.2047250E+02  0.7546771E-02  0.1526931E+00
         21   -1    0    0  501  502  0.00000000000E+00  0.00000000000E+00  0.97241444255E+01  0.97241444255E+01  0.00000000000E+00 0. -1.
         21   -1    0    0  502  503 -0.00000000000E+00 -0.00000000000E+00 -0.44360974432E+02  0.44360974432E+02  0.00000000000E+00 0.  1.
          2    1    1    2  501    0 -0.14263516680E+02 -0.14685887937E+02 -0.21875397497E+02  0.29960911672E+02  0.00000000000E+00 0. -1.
         -2    1    1    2    0  503  0.14263516680E+02  0.14685887937E+02 -0.12761432509E+02  0.24124207185E+02  0.00000000000E+00 0.  1.
</event>
<event>
 4    1  0.1800096E+004  0.2085806E+02  0.7546771E-02  0.1521301E+00
         21   -1    0    0  503  502  0.00000000000E+00  0.00000000000E+00  0.19380816970E+02  0.19380816970E+02  0.00000000000E+00 0. -1.
         21   -1    0    0  501  503 -0.00000000000E+00 -0.00000000000E+00 -0.41562712636E+02  0.41562712636E+02  0.00000000000E+00 0.  1.
          2    1    1    2  501    0  0.13369318472E+02  0.16009995155E+02 -0.31755723724E+02  0.37993217954E+02  0.00000000000E+00 0.  1.
         -2    1    1    2    0  502 -0.13369318472E+02 -0.16009995155E+02  0.95738280585E+01  0.22950311653E+02  0.00000000000E+00 0. -1.
</event>
<event>
 4    1  0.1800096E+004  0.3790596E+02  0.7546771E-02  0.1361214E+00
         21   -1    0    0  503  502  0.00000000000E+00  0.00000000000E+00  0.11946172823E+02  0.11946172823E+02  0.00000000000E+00 0. -1.
         21   -1    0    0  501  503 -0.00000000000E+00 -0.00000000000E+00 -0.12376357036E+03  0.12376357036E+03  0.00000000000E+00 0.  1.
          2    1    1    2  501    0  0.29643580647E+02 -0.23624561330E+02 -0.44521377799E+02  0.58472342630E+02  0.00000000000E+00 0.  1.
         -2    1    1    2    0  502 -0.29643580647E+02  0.23624561330E+02 -0.67296019739E+02  0.77237400554E+02  0.00000000000E+00 0. -1.
</event>
<event>
 4    1  0.1800096E+004  0.2567695E+02  0.7546771E-02  0.1461371E+00
         21   -1    0    0  503  502  0.00000000000E+00  0.00000000000E+00  0.75888581575E+02  0.75888581575E+02  0.00000000000E+00 0. -1.
         21   -1    0    0  501  503 -0.00000000000E+00 -0.00000000000E+00 -0.56348098427E+02  0.56348098427E+02  0.00000000000E+00 0.  1.
          2    1    1    2  501    0  0.11274673996E+02  0.23069185206E+02 -0.51037747595E+02  0.57132803706E+02  0.00000000000E+00 0.  1.
         -2    1    1    2    0  502 -0.11274673996E+02 -0.23069185206E+02  0.70578230743E+02  0.75103876295E+02  0.00000000000E+00 0. -1.
</event>
<event>
 4    1  0.1800096E+004  0.3142106E+02  0.7546771E-02  0.1407637E+00
         21   -1    0    0  501  502  0.00000000000E+00  0.00000000000E+00  0.15136080891E+03  0.15136080891E+03  0.00000000000E+00 0. -1.
         21   -1    0    0  502  503 -0.00000000000E+00 -0.00000000000E+00 -0.11867029767E+02  0.11867029767E+02  0.00000000000E+00 0.  1.
          2    1    1    2  501    0  0.13324760604E+02 -0.28455824840E+02  0.12451645418E+03  0.12841974371E+03  0.00000000000E+00 0.  1.
         -2    1    1    2    0  503 -0.13324760604E+02  0.28455824840E+02  0.14977324966E+02  0.34808094973E+02  0.00000000000E+00 0. -1.
</event>
<event>
 4    1  0.1800096E+004  0.2040054E+02  0.7546771E-02  0.1527998E+00
         21   -1    0    0  503  502  0.00000000000E+00  0.00000000000E+00  0.23896273269E+01  0.23896273269E+01  0.00000000000E+00 0. -1.
         21   -1    0    0  501  503 -0.00000000000E+00 -0.00000000000E+00 -0.17424225272E+03  0.17424225272E+03  0.00000000000E+00 0.  1.
          2    1    1    2  501    0  0.10189879975E+02  0.17673375136E+02 -0.84028817154E+02  0.86469786370E+02  0.00000000000E+00 0. -1.
         -2    1    1    2    0  502 -0.10189879975E+02 -0.17673375136E+02 -0.87823808241E+02  0.90162093679E+02  0.00000000000E+00 0.  1.
</event>
<event>
 4    1  0.1800096E+004  0.2010607E+02  0.7546771E-02  0.1532420E+00
         21   -1    0    0  501  502  0.00000000000E+00  0.00000000000E+00  0.12234367866E+02  0.12234367866E+02  0.00000000000E+00 0. -1.
         21   -1    0    0  502  503 -0.00000000000E+00 -0.00000000000E+00 -0.33105900499E+02  0.33105900499E+02  0.00000000000E+00 0.  1.
          2    1    1    2  501    0  0.17406351640E+02  0.10063454802E+02 -0.11427784895E+02  0.23126791121E+02  0.00000000000E+00 0. -1.
         -2    1    1    2    0  503 -0.17406351640E+02 -0.10063454802E+02 -0.94437477375E+01  0.22213477244E+02  0.00000000000E+00 0.  1.
</event>
<event>
 4    1  0.1800096E+004  0.2741772E+02  0.7546771E-02  0.1443457E+00
         21   -1    0    0  503  502  0.00000000000E+00  0.00000000000E+00  0.13531611020E+02  0.13531611020E+02  0.00000000000E+00 0.  1.
         21   -1    0    0  501  503 -0.00000000000E+00 -0.00000000000E+00 -0.14272919259E+03  0.14272919259E+03  0.00000000000E+00 0. -1.
          2    1    1    2  501    0  0.10203623597E+02  0.25448323563E+02 -0.12565936014E+03  0.12861572958E+03  0.00000000000E+00 0. -1.
         -2    1    1    2    0  502 -0.10203623597E+02 -0.25448323563E+02 -0.35382214294E+01  0.27645074020E+02  0.00000000000E+00 0.  1.
</event>
<event>
 4    1  0.1800096E+004  0.2354571E+02  0.7546771E-02  0.1485757E+00
         21   -1    0    0  503  502  0.00000000000E+00  0.00000000000E+00  0.23917860481E+03  0.23917860481E+03  0.00000000000E+00 0. -1.
         21   -1    0    0  501  503 -0.00000000000E+00 -0.00000000000E+00 -0.84876960939E+01  0.84876960939E+01  0.00000000000E+00 0.  1.
          2    1    1    2  501    0 -0.16944523376E+02 -0.16348813339E+02  0.97667886903E+01  0.25490993142E+02  0.00000000000E+00 0.  1.
         -2    1    1    2    0  502  0.16944523376E+02  0.16348813339E+02  0.22092412002E+03  0.22217530776E+03  0.00000000000E+00 0. -1.
</event>
<event>
 4    1  0.1800096E+004  0.3530314E+02  0.7546771E-02  0.1378444E+00
         21   -1    0    0  501  502  0.00000000000E+00  0.00000000000E+00  0.82021874835E+01  0.82021874835E+01  0.00000000000E+00 0.  1.
         21   -1    0    0  502  503 -0.00000000000E+00 -0.00000000000E+00 -0.15973989243E+03  0.15973989243E+03  0.00000000000E+00 0. -1.
          2    1    1    2  501    0  0.13608201466E+02  0.32574970376E+02 -0.57223956290E+02  0.67237586331E+02  0.00000000000E+00 0.  1.
         -2    1    1    2    0  503 -0.13608201466E+02 -0.32574970376E+02 -0.94313748660E+02  0.10070449359E+03  0.00000000000E+00 0. -1.
</event>
<event>
 4    1  0.1800096E+004  0.2355992E+02  0.7546771E-02  0.1485584E+00
         21   -1    0    0  501  502  0.00000000000E+00  0.00000000000E+00  0.98703009146E+02  0.98703009146E+02  0.00000000000E+00 0.  1.
         21   -1    0    0  502  503 -0.00000000000E+00 -0.00000000000E+00 -0.11154541783E+02  0.11154541783E+02  0.00000000000E+00 0. -1.
          2    1    1    2  501    0 -0.37805023551E+01  0.23254624403E+02  0.82452962876E+02  0.85752905731E+02  0.00000000000E+00 0.  1.
         -2    1    1    2    0  503  0.37805023551E+01 -0.23254624403E+02  0.50955044871E+01  0.24104645199E+02  0.00000000000E+00 0. -1.
</event>
<event>
 4    1  0.1800096E+004  0.2175132E+02  0.7546771E-02  0.1508803E+00
         21   -1    0    0  503  502  0.00000000000E+00  0.00000000000E+00  0.94129287003E+01  0.94129287003E+01  0.00000000000E+00 0.  1.
         21   -1    0    0  501  503 -0.00000000000E+00 -0.00000000000E+00 -0.52688920568E+02  0.52688920568E+02  0.00000000000E+00 0. -1.
          2    1    1    2  501    0  0.13874899567E+02 -0.16751328299E+02 -0.28301061250E+02  0.35694115841E+02  0.00000000000E+00 0.  1.
         -2    1    1    2    0  502 -0.13874899567E+02  0.16751328299E+02 -0.14974930617E+02  0.26407733427E+02  0.00000000000E+00 0. -1.
</event>
<event>
 4    1  0.1800096E+004  0.2234352E+02  0.7546771E-02  0.1500910E+00
         21   -1    0    0  503  502  0.00000000000E+00  0.00000000000E+00  0.12904762865E+04  0.12904762865E+04  0.00000000000E+00 0. -1.
         21   -1    0    0  501  503 -0.00000000000E+00 -0.00000000000E+00 -0.10689449196E+01  0.10689449196E+01  0.00000000000E+00 0.  1.
          2    1    1    2  501    0 -0.11081339700E+02 -0.19401983810E+02  0.12885617039E+03  0.13077899568E+03  0.00000000000E+00 0.  1.
         -2    1    1    2    0  502  0.11081339700E+02  0.19401983810E+02  0.11605511712E+04  0.11607662357E+04  0.00000000000E+00 0. -1.
</event>
<event>
 4    1  0.1800096E+004  0.2462328E+02  0.7546771E-02  0.1473062E+00
         21   -1    0    0  501  502  0.00000000000E+00  0.00000000000E+00  0.22352741209E+03  0.22352741209E+03  0.00000000000E+00 0.  1.
         21   -1    0    0  502  503 -0.00000000000E+00 -0.00000000000E+00 -0.41295551246E+01  0.41295551246E+01  0.00000000000E+00 0. -1.
          2    1    1    2  501    0 -0.24520545812E+02 -0.22469864129E+01  0.17637974494E+03  0.17809020338E+03  0.00000000000E+00 0.  1.
         -2    1    1    2    0  503  0.24520545812E+02  0.22469864129E+01  0.43018112031E+02  0.49566763840E+02  0.00000000000E+00 0. -1.
</event>
<event>
 4    1  0.1800096E+004  0.3473965E+02  0.7546771E-02  0.1382403E+00
         21   -1    0    0  503  502  0.00000000000E+00  0.00000000000E+00  0.14125671945E+03  0.14125671945E+03  0.00000000000E+00 0. -1.
         21   -1    0    0  501  503 -0.00000000000E+00 -0.00000000000E+00 -0.95390691196E+01  0.95390691196E+01  0.00000000000E+00 0.  1.
          2    1    1    2  501    0  0.34730089115E+02  0.81477993018E+00  0.41502208966E+02  0.54122789149E+02  0.00000000000E+00 0.  1.
         -2    1    1    2    0  502 -0.34730089115E+02 -0.81477993018E+00  0.90215441361E+02  0.96672999417E+02  0.00000000000E+00 0. -1.
</event>
<event>
 4    1  0.1800096E+004  0.3477659E+02  0.7546771E-02  0.1382141E+00
         21   -1    0    0  501  502  0.00000000000E+00  0.00000000000E+00  0.18420016587E+02  0.18420016587E+02  0.00000000000E+00 0. -1.
         21   -1    0    0  502  503 -0.00000000000E+00 -0.00000000000E+00 -0.11451001002E+03  0.11451001002E+03  0.00000000000E+00 0.  1.
          2    1    1    2  501    0  0.15472222389E+02  0.31145172325E+02 -0.46324756151E+01  0.35083774813E+02  0.00000000000E+00 0. -1.
         -2    1    1    2    0  503 -0.15472222389E+02 -0.31145172325E+02 -0.91457517815E+02  0.97846251792E+02  0.00000000000E+00 0.  1.
</event>
<event>
 4    1  0.1800096E+004  0.2744232E+02  0.7546771E-02  0.1443215E+00
         21   -1    0    0  503  502  0.00000000000E+00  0.00000000000E+00  0.56057024002E+03  0.56057024002E+03  0.00000000000E+00 0.  1.
         21   -1    0    0  501  503 -0.00000000000E+00 -0.00000000000E+00 -0.15657951488E+01  0.15657951488E+01  0.00000000000E+00 0. -1.
          2    1    1    2  501    0 -0.77820601565E+01 -0.26315783357E+02  0.17357984787E+03  0.17573572346E+03  0.00000000000E+00 0. -1.
         -2    1    1    2    0  502  0.77820601565E+01  0.26315783357E+02  0.38542459700E+03  0.38640031171E+03  0.00000000000E+00 0.  1.
</event>
<event>
 4    1  0.1800096E+004  0.2055493E+02  0.7546771E-02  0.1525715E+00
         21   -1    0    0  503  502  0.00000000000E+00  0.00000000000E+00  0.67109652493E+02  0.67109652493E+02  0.00000000000E+00 0.  1.
         21   -1    0    0  501  503 -0.00000000000E+00 -0.00000000000E+00 -0.63977505475E+01  0.63977505475E+01  0.00000000000E+00 0. -1.
          2    1    1    2  501    0  0.19771777560E+02  0.56197824894E+01  0.34996859496E+02  0.40586762839E+02  0.00000000000E+00 0.  1.
         -2    1    1    2    0  502 -0.19771777560E+02 -0.56197824894E+01  0.25715042449E+02  0.32920640202E+02  0.00000000000E+00 0. -1.
</event>
<event>
 4    1  0.1800096E+004  0.2496575E+02  0.7546771E-02  0.1469187E+00
         21   -1    0    0  501  502  0.00000000000E+00  0.00000000000E+00  0.85248328556E+03  0.85248328556E+03  0.00000000000E+00 0. -1.
         21   -1    0    0  502  503 -0.00000000000E+00 -0.00000000000E+00 -0.98767607353E+00  0.98767607353E+00  0.00000000000E+00 0.  1.
          2    1    1    2  501    0 -0.24915400983E+02 -0.15848222200E+01  0.64322889447E+03  0.64371321219E+03  0.00000000000E+00 0. -1.
         -2    1    1    2    0  503  0.24915400983E+02  0.15848222200E+01  0.20826671501E+03  0.20975774944E+03  0.00000000000E+00 0.  1.
</event>
<event>
 4    1  0.1800096E+004  0.3058921E+02  0.7546771E-02  0.1414544E+00
         21   -1    0    0  503  502  0.00000000000E+00  0.00000000000E+00  0.17067630615E+03  0.17067630615E+03  0.00000000000E+00 0. -1.
         21   -1    0    0  501  503 -0.00000000000E+00 -0.00000000000E+00 -0.16104217140E+02  0.16104217140E+02  0.00000000000E+00 0.  1.
          2    1    1    2  501    0 -0.73920879038E+01 -0.29682602339E+02  0.14399710508E+01  0.30623085439E+02  0.00000000000E+00 0.  1.
         -2    1    1    2    0  502  0.73920879038E+01  0.29682602339E+02  0.15313211796E+03  0.15615743785E+03  0.00000000000E+00 0. -1.
</event>
<event>
 4    1  0.1800096E+004  0.2372705E+02  0.7546771E-02  0.1483565E+00
         21   -1    0    0  501  502  0.00000000000E+00  0.00000000000E+00  0.58357217179E+01  0.58357217179E+01  0.00000000000E+00 0.  1.
         21   -1    0    0  502  503 -0.00000000000E+00 -0.00000000000E+00 -0.18610870124E+03  0.18610870124E+03  0.00000000000E+00 0. -1.
          2    1    1    2  501    0  0.19018884960E+02  0.14186433025E+02 -0.23531063552E+02  0.33416819402E+02  0.00000000000E+00 0.  1.
         -2    1    1    2    0  503 -0.19018884960E+02 -0.14186433025E+02 -0.15674191597E+03  0.15852760356E+03  0.00000000000E+00 0. -1.
</event>
<event>
 4    1  0.1800096E+004  0.5422920E+02  0.7546771E-02  0.1280809E+00
         21   -1    0    0  503  502  0.00000000000E+00  0.00000000000E+00  0.48753971893E+01  0.48753971893E+01  0.00000000000E+00 0.  1.
         21   -1    0    0  501  503 -0.00000000000E+00 -0.00000000000E+00 -0.64842046724E+03  0.64842046724E+03  0.00000000000E+00 0. -1.
          2    1    1    2  501    0  0.46547083680E+02  0.27824011461E+02 -0.40804089687E+03  0.41162869207E+03  0.00000000000E+00 0. -1.
         -2    1    1    2    0  502 -0.46547083680E+02 -0.27824011461E+02 -0.23550417318E+03  0.24166717237E+03  0.00000000000E+00 0.  1.
</event>
<event>
 4    1  0.1800096E+004  0.3448971E+02  0.7546771E-02  0.1384187E+00
         21   -1    0    0  503  502  0.00000000000E+00  0.00000000000E+00  0.37151092480E+02  0.37151092480E+02  0.00000000000E+00 0. -1.
         21   -1    0    0  501  503 -0.00000000000E+00 -0.00000000000E+00 -0.57524248865E+02  0.57524248865E+02  0.00000000000E+00 0.  1.
          2    1    1    2  501    0  0.22301214939E+02 -0.26309620440E+02 -0.41707311058E+02  0.54120607084E+02  0.00000000000E+00 0.  1.
         -2    1    1    2    0  502 -0.22301214939E+02  0.26309620440E+02  0.21334154673E+02  0.40554734261E+02  0.00000000000E+00 0. -1.
</event>
<event>
 4    1  0.1800096E+004  0.2439670E+02  0.7546771E-02  0.1475667E+00
         21   -1    0    0  501  502  0.00000000000E+00  0.00000000000E+00  0.16989623470E+02  0.16989623470E+02  0.00000000000E+00 0.  1.
         21   -1    0    0  502  503 -0.00000000000E+00 -0.00000000000E+00 -0.52272314052E+02  0.52272314052E+02  0.00000000000E+00 0. -1.
          2    1    1    2  501    0  0.67765506878E+00 -0.24387289026E+02  0.22464929677E+01  0.24499914553E+02  0.00000000000E+00 0. -1.
         -2    1    1    2    0  503 -0.67765506878E+00  0.24387289026E+02 -0.37529183550E+02  0.44762022970E+02  0.00000000000E+00 0.  1.
</event>
<event>
 4    1  0.1800096E+004  0.2126634E+02  0.7546771E-02  0.1515496E+00
         21   -1    0    0  503  502  0.00000000000E+00  0.00000000000E+00  0.29498386666E+02  0.29498386666E+02  0.00000000000E+00 0. -1.
         21   -1    0    0  501  503 -0.00000000000E+00 -0.00000000000E+00 -0.17684518548E+02  0.17684518548E+02  0.00000000000E+00 0.  1.
          2    1    1    2  501    0  0.20125218378E+02  0.68726149009E+01 -0.26982899552E+01  0.21436837897E+02  0.00000000000E+00 0.  1.
         -2    1    1    2    0  502 -0.20125218378E+02 -0.68726149009E+01  0.14512158073E+02  0.25746067317E+02  0.00000000000E+00 0. -1.
</event>
<event>
 4    1  0.1800096E+004  0.2934167E+02  0.7546771E-02  0.1425405E+00
         21   -1    0    0  503  502  0.00000000000E+00  0.00000000000E+00  0.42049696667E+02  0.42049696667E+02  0.00000000000E+00 0.  1.
         21   -1    0    0  501  503 -0.00000000000E+00 -0.00000000000E+00 -0.20645271152E+02  0.20645271152E+02  0.00000000000E+00 0. -1.
          2    1    1    2  501    0  0.21243663067E+02  0.20239570066E+02  0.78485979523E+01  0.30373243270E+02  0.00000000000E+00 0. -1.
         -2    1    1    2    0  502 -0.21243663067E+02 -0.20239570066E+02  0.13555827563E+02  0.32321724549E+02  0.00000000000E+00 0.  1.
</event>
<event>
 4    1  0.1800096E+004  0.2804309E+02  0.7546771E-02  0.1437402E+00
         21   -1    0    0  503  502  0.00000000000E+00  0.00000000000E+00  0.66547861420E+01  0.66547861420E+01  0.00000000000E+00 0. -1.
         21   -1    0    0  501  503 -0.00000000000E+00 -0.00000000000E+00 -0.11947623727E+03  0.11947623727E+03  0.00000000000E+00 0.  1.
          2    1    1    2  501    0  0.23278083546E+02  0.15637956853E+02 -0.62997796027E+02  0.68957502655E+02  0.00000000000E+00 0.  1.
         -2    1    1    2    0  502 -0.23278083546E+02 -0.15637956853E+02 -0.49823655100E+02  0.57173520756E+02  0.00000000000E+00 0. -1.
</event>
<event>
 4    1  0.1800096E+004  0.2039712E+02  0.7546771E-02  0.1528049E+00
         21   -1    0    0  503  502  0.00000000000E+00  0.00000000000E+00  0.13632387326E+03  0.13632387326E+03  0.00000000000E+00 0.  1.
         21   -1    0    0  501  503 -0.00000000000E+00 -0.00000000000E+00 -0.47191691642E+01  0.47191691642E+01  0.00000000000E+00 0. -1.
          2    1    1    2  501    0 -0.13214110656E+02 -0.15538016599E+02  0.23884818406E+02  0.31409031035E+02  0.00000000000E+00 0. -1.
         -2    1    1    2    0  502  0.13214110656E+02  0.15538016599E+02  0.10771988569E+03  0.10963401139E+03  0.00000000000E+00 0.  1.
</event>
<event>
 4    1  0.1800096E+004  0.2359297E+02  0.7546771E-02  0.1485183E+00
         21   -1    0    0  503  502  0.00000000000E+00  0.00000000000E+00  0.58555009347E+01  0.58555009347E+01  0.00000000000E+00 0. -1.
         21   -1    0    0  501  503 -0.00000000000E+00 -0.00000000000E+00 -0.98791276813E+02  0.98791276813E+02  0.00000000000E+00 0.  1.
          2    1    1    2  501    0  0.22475912337E+02 -0.71736670361E+01 -0.36300172078E+02  0.43293540246E+02  0.00000000000E+00 0.  1.
         -2    1    1    2    0  502 -0.22475912337E+02  0.71736670361E+01 -0.56635603801E+02  0.61353237503E+02  0.00000000000E+00 0. -1.
</event>
<event>
 4    1  0.1800096E+004  0.2096215E+02  0.7546771E-02  0.1519806E+00
         21   -1    0    0  501  502  0.00000000000E+00  0.00000000000E+00  0.15221860120E+03  0.15221860120E+03  0.00000000000E+00 0. -1.
         21   -1    0    0  502  503 -0.00000000000E+00 -0.00000000000E+00 -0.56388728789E+01  0.56388728789E+01  0.00000000000E+00 0.  1.
          2    1    1    2  501    0 -0.32000830582E+01  0.20716443147E+02  0.12843100690E+03  0.13013045409E+03  0.00000000000E+00 0. -1.
         -2    1    1    2    0  503  0.32000830582E+01 -0.20716443147E+02  0.18148721422E+02  0.27727019990E+02  0.00000000000E+00 0.  1.
</event>
<event>
 4    1  0.1800096E+004  0.3602970E+02  0.7546771E-02  0.1373465E+00
         21   -1    0    0  503  502  0.00000000000E+00  0.00000000000E+00  0.25292362714E+02  0.25292362714E+02  0.00000000000E+00 0. -1.
         21   -1    0    0  501  503 -0.00000000000E+00 -0.00000000000E+00 -0.13959858316E+03  0.13959858316E+03  0.00000000000E+00 0.  1.
          2    1    1    2  501    0  0.91350802684E+01  0.34852398646E+02 -0.12271339386E+03  0.12789337909E+03  0.00000000000E+00 0.  1.
         -2    1    1    2    0  502 -0.91350802684E+01 -0.34852398646E+02  0.84071734144E+01  0.36997566781E+02  0.00000000000E+00 0. -1.
</event>
<event>
 4    1  0.1800096E+004  0.2018008E+02  0.7546771E-02  0.1531300E+00
         21   -1    0    0  501  502  0.00000000000E+00  0.00000000000E+00  0.14240060366E+02  0.14240060366E+02  0.00000000000E+00 0.  1.
         21   -1    0    0  502  503 -0.00000000000E+00 -0.00000000000E+00 -0.43442298822E+02  0.43442298822E+02  0.00000000000E+00 0. -1.
          2    1    1    2  501    0 -0.19837144481E+02 -0.37045001375E+01  0.22581261609E+01  0.20306027582E+02  0.00000000000E+00 0.  1.
         -2    1    1    2    0  503  0.19837144481E+02  0.37045001375E+01 -0.31460364617E+02  0.37376331605E+02  0.00000000000E+00 0. -1.
</event>
<event>
 4    1  0.1800096E+004  0.2045177E+02  0.7546771E-02  0.1527238E+00
         21   -1    0    0  503  502  0.00000000000E+00  0.00000000000E+00  0.24092777334E+01  0.24092777334E+01  0.00000000000E+00 0. -1.
         21   -1    0    0  501  503 -0.00000000000E+00 -0.00000000000E+00 -0.32926942102E+03  0.32926942102E+03  0.00000000000E+00 0.  1.
          2    1    1    2  501    0  0.94303218092E+01 -0.18147837891E+02 -0.27745490001E+03  0.27820765002E+03  0.00000000000E+00 0.  1.
         -2    1    1    2    0  502 -0.94303218092E+01  0.18147837891E+02 -0.49405243278E+02  0.53471048736E+02  0.00000000000E+00 0. -1.
</event>
<event>
 4    1  0.1800096E+004  0.2357713E+02  0.7546771E-02  0.1485376E+00
         21   -1    0    0  503  502  0.00000000000E+00  0.00000000000E+00  0.14879049857E+03  0.14879049857E+03  0.00000000000E+00 0.  1.
         21   -1    0    0  501  503 -0.00000000000E+00 -0.00000000000E+00 -0.44239760984E+01  0.44239760984E+01  0.00000000000E+00 0. -1.
          2    1    1    2  501    0  0.19299849106E+02  0.13542408835E+02  0.10239325985E+03  0.10507264475E+03  0.00000000000E+00 0.  1.
         -2    1    1    2    0  502 -0.19299849106E+02 -0.13542408835E+02  0.41973262622E+02  0.48141829917E+02  0.00000000000E+00 0. -1.
</event>
<event>
 4    1  0.1800096E+004  0.3119925E+02  0.7546771E-02  0.1409453E+00
         21   -1    0    0  503  502  0.00000000000E+00  0.00000000000E+00  0.36288927439E+03  0.36288927439E+03  0.00000000000E+00 0.  1.
         21   -1    0    0  501  503 -0.00000000000E+00 -0.00000000000E+00 -0.34679241525E+01  0.34679241525E+01  0.00000000000E+00 0. -1.
          2    1    1    2  501    0  0.29504661571E+02  0.10142393920E+02  0.26689445454E+03  0.26871182161E+03  0.00000000000E+00 0.  1.
         -2    1    1    2    0  502 -0.29504661571E+02 -0.10142393920E+02  0.92526895696E+02  0.97645376931E+02  0.00000000000E+00 0. -1.
</event>
<event>
 4    1  0.1800096E+004  0.2690456E+02  0.7546771E-02  0.1448569E+00
         21   -1    0    0  501  502  0.00000000000E+00  0.00000000000E+00  0.11973044801E+02  0.11973044801E+02  0.00000000000E+00 0. -1.
         21   -1    0    0  502  503 -0.00000000000E+00 -0.00000000000E+00 -0.64764052010E+02  0.64764052010E+02  0.00000000000E+00 0.  1.
          2    1    1    2  501    0 -0.26904087506E+02  0.15863380074E+00 -0.16500968582E+02  0.31561638952E+02  0.00000000000E+00 0. -1.
         -2    1    1    2    0  503  0.26904087506E+02 -0.15863380074E+00 -0.36290038628E+02  0.45175457859E+02  0.00000000000E+00 0.  1.
</event>
<event>
 4    1  0.1800096E+004  0.2395345E+02  0.7546771E-02  0.1480861E+00
         21   -1    0    0  501  502  0.00000000000E+00  0.00000000000E+00  0.18755342888E+02  0.18755342888E+02  0.00000000000E+00 0.  1.
         21   -1    0    0  502  503 -0.00000000000E+00 -0.00000000000E+00 -0.57123053217E+02  0.57123053217E+02  0.00000000000E+00 0. -1.
          2    1    1    2  501    0 -0.67857289743E+01 -0.22972193341E+02  0.66719337824E+01  0.24865286747E+02  0.00000000000E+00 0.  1.
         -2    1    1    2    0  503  0.67857289743E+01  0.22972193341E+02 -0.45039644111E+02  0.51013109357E+02  0.00000000000E+00 0. -1.
</event>
<event>
 4    1  0.1800096E+004  0.2874580E+02  0.7546771E-02  0.1430818E+00
         21   -1    0    0  501  502  0.00000000000E+00  0.00000000000E+00  0.14421369200E+01  0.14421369200E+01  0.00000000000E+00 0.  1.
         21   -1    0    0  502  503 -0.00000000000E+00 -0.00000000000E+00 -0.13795524854E+04  0.13795524854E+04  0.00000000000E+00 0. -1.
          2    1    1    2  501    0 -0.24100583477E+02  0.15667886659E+02 -0.16107986717E+03  0.16362470597E+03  0.00000000000E+00 0.  1.
         -2    1    1    2    0  503  0.24100583477E+02 -0.15667886659E+02 -0.12170304813E+04  0.12173699164E+04  0.00000000000E+00 0. -1.
</event>
<event>
 4    1  0.1800096E+004  0.2120024E+02  0.7546771E-02  0.1516425E+00
         21   -1    0    0  501  502  0.00000000000E+00  0.00000000000E+00  0.35155631896E+01  0.35155631896E+01  0.00000000000E+00 0.  1.
         21   -1    0    0  502  503 -0.00000000000E+00 -0.00000000000E+00 -0.16912605580E+03  0.16912605580E+03  0.00000000000E+00 0. -1.
          2    1    1    2  501    0 -0.17979179072E+02 -0.11233846784E+02 -0.12545152364E+03  0.12723024395E+03  0.00000000000E+00 0. -1.
         -2    1    1    2    0  503  0.17979179072E+02  0.11233846784E+02 -0.40158968976E+02  0.45411375039E+02  0.00000000000E+00 0.  1.
</event>
<event>
 4    1  0.1800096E+004  0.2338308E+02  0.7546771E-02  0.1487743E+00
         21   -1    0    0  501  502  0.00000000000E+00  0.00000000000E+00  0.70661355174E+02  0.70661355174E+02  0.00000000000E+00 0. -1.
         21   -1    0    0  502  503 -0.00000000000E+00 -0.00000000000E+00 -0.89039034984E+01  0.89039034984E+01  0.00000000000E+00 0.  1.
          2    1    1    2  501    0 -0.23084692161E+02  0.37236298480E+01  0.45275282810E+02  0.50957037443E+02  0.00000000000E+00 0. -1.
         -2    1    1    2    0  503  0.23084692161E+02 -0.37236298480E+01  0.16482168866E+02  0.28608221230E+02  0.00000000000E+00 0.  1.
</event>
<event>
 4    1  0.1800096E+004  0.2678344E+02  0.7546771E-02  0.1449796E+00
         21   -1    0    0  501  502  0.00000000000E+00  0.00000000000E+00  0.11138865255E+02  0.11138865255E+02  0.00000000000E+00 0.  1.
         21   -1    0    0  502  503 -0.00000000000E+00 -0.00000000000E+00 -0.65338636551E+02  0.65338636551E+02  0.00000000000E+00 0. -1.
          2    1    1    2  501    0  0.64230455739E+01  0.26001869765E+02 -0.22518854150E+02  0.34992163950E+02  0.00000000000E+00 0.  1.
         -2    1    1    2    0  503 -0.64230455739E+01 -0.26001869765E+02 -0.31680917147E+02  0.41485337855E+02  0.00000000000E+00 0. -1.
</event>
<event>
 4    1  0.1800096E+004  0.4014043E+02  0.7546771E-02  0.1347665E+00
         21   -1    0    0  501  502  0.00000000000E+00  0.00000000000E+00  0.34395898494E+01  0.34395898494E+01  0.00000000000E+00 0.  1.
         21   -1    0    0  502  503 -0.00000000000E+00 -0.00000000000E+00 -0.58381525844E+03  0.58381525844E+03  0.00000000000E+00 0. -1.
          2    1    1    2  501    0 -0.40125535736E+02  0.10934846229E+01 -0.42071719240E+03  0.42262774436E+03  0.00000000000E+00 0. -1.
         -2    1    1    2    0  503  0.40125535736E+02 -0.10934846229E+01 -0.15965847619E+03  0.16462710392E+03  0.00000000000E+00 0.  1.
</event>
<event>
 4    1  0.1800096E+004  0.2087709E+02  0.7546771E-02  0.1521027E+00
         21   -1    0    0  501  502  0.00000000000E+00  0.00000000000E+00  0.50429616816E+01  0.50429616816E+01  0.00000000000E+00 0. -1.
         21   -1    0    0  502  503 -0.00000000000E+00 -0.00000000000E+00 -0.89378964707E+02  0.89378964707E+02  0.00000000000E+00 0.  1.
          2    1    1    2  501    0 -0.20183601466E+02 -0.53362018708E+01 -0.50746498478E+02  0.54873125720E+02  0.00000000000E+00 0. -1.
         -2    1    1    2    0  503  0.20183601466E+02  0.53362018708E+01 -0.33589504548E+02  0.39548800669E+02  0.00000000000E+00 0.  1.
</event>
<event>
 4    1  0.1800096E+004  0.2409677E+02  0.7546771E-02  0.1479167E+00
         21   -1    0    0  501  502  0.00000000000E+00  0.00000000000E+00  0.44596463666E+01  0.44596463666E+01  0.00000000000E+00 0. -1.
         21   -1    0    0  502  503 -0.00000000000E+00 -0.00000000000E+00 -0.41245406065E+03  0.41245406065E+03  0.00000000000E+00 0.  1.
          2    1    1    2  501    0  0.10974662623E+02 -0.21452526164E+02 -0.31553606999E+02  0.39702445934E+02  0.00000000000E+00 0. -1.
         -2    1    1    2    0  503 -0.10974662623E+02  0.21452526164E+02 -0.37644080728E+03  0.37721126108E+03  0.00000000000E+00 0.  1.
</event>
<event>
 4    1  0.1800096E+004  0.2565088E+02  0.7546771E-02  0.1461652E+00
         21   -1    0    0  503  502  0.00000000000E+00  0.00000000000E+00  0.14350904404E+02  0.14350904404E+02  0.00000000000E+00 0. -1.
         21   -1    0    0  501  503 -0.00000000000E+00 -0.00000000000E+00 -0.46721479459E+02  0.46721479459E+02  0.00000000000E+00 0.  1.
          2    1    1    2  501    0 -0.22408735163E+02 -0.12482646966E+02 -0.20359272290E+02  0.32748555008E+02  0.00000000000E+00 0.  1.
         -2    1    1    2    0  502  0.22408735163E+02  0.12482646966E+02 -0.12011302765E+02  0.28323828855E+02  0.00000000000E+00 0. -1.
</event>
<event>
 4    1  0.1800096E+004  0.2144570E+02  0.7546771E-02  0.1512996E+00
         21   -1    0    0  503  502  0.00000000000E+00  0.00000000000E+00  0.12408424860E+01  0.12408424860E+01  0.00000000000E+00 0. -1.
         21   -1    0    0  501  503 -0.00000000000E+00 -0.00000000000E+00 -0.37147048084E+03  0.37147048084E+03  0.00000000000E+00 0.  1.
          2    1    1    2  501    0  0.21177707132E+02  0.33797649056E+01 -0.17635586090E+03  0.17765502459E+03  0.00000000000E+00 0.  1.
         -2    1    1    2    0  502 -0.21177707132E+02 -0.33797649056E+01 -0.19387377745E+03  0.19505629873E+03  0.00000000000E+00 0. -1.
</event>
<event>
 4    1  0.1800096E+004  0.2044689E+02  0.7546771E-02  0.1527310E+00
         21   -1    0    0  501  502  0.00000000000E+00  0.00000000000E+00  0.55765359312E+01  0.55765359312E+01  0.00000000000E+00 0.  1.
         21   -1    0    0  502  503 -0.00000000000E+00 -0.00000000000E+00 -0.14092247264E+03  0.14092247264E+03  0.00000000000E+00 0. -1.
          2    1    1    2  501    0 -0.20419468787E+02  0.10586501415E+01 -0.17562484057E+02  0.26953966163E+02  0.00000000000E+00 0.  1.
         -2    1    1    2    0  503  0.20419468787E+02 -0.10586501415E+01 -0.11778345265E+03  0.11954504240E+03  0.00000000000E+00 0. -1.
</event>
<event>
 4    1  0.1800096E+004  0.2008323E+02  0.7546771E-02  0.1532767E+00
         21   -1    0    0  503  502  0.00000000000E+00  0.00000000000E+00  0.34607769404E+02  0.34607769404E+02  0.00000000000E+00 0.  1.
         21   -1    0    0  501  503 -0.00000000000E+00 -0.00000000000E+00 -0.12685396441E+02  0.12685396441E+02  0.00000000000E+00 0. -1.
          2    1    1    2  501    0  0.10500748240E+02  0.17119302661E+02  0.42201922070E+01  0.20521848344E+02  0.00000000000E+00 0.  1.
         -2    1    1    2    0  502 -0.10500748240E+02 -0.17119302661E+02  0.17702180756E+02  0.26771317500E+02  0.00000000000E+00 0. -1.
</event>
<event>
 4    1  0.1800096E+004  0.2306420E+02  0.7546771E-02  0.1491694E+00
         21   -1    0    0  501  502  0.00000000000E+00  0.00000000000E+00  0.84178667090E+01  0.84178667090E+01  0.00000000000E+00 0. -1.
         21   -1    0    0  502  503 -0.00000000000E+00 -0.00000000000E+00 -0.94772189227E+02  0.94772189227E+02  0.00000000000E+00 0.  1.
          2    1    1    2  501    0 -0.20076141517E+02  0.11353679473E+02 -0.13394605372E+02  0.26671575673E+02  0.00000000000E+00 0. -1.
         -2    1    1    2    0  503  0.20076141517E+02 -0.11353679473E+02 -0.72959717145E+02  0.76518480263E+02  0.00000000000E+00 0.  1.
</event>
<event>
 4    1  0.1800096E+004  0.2122290E+02  0.7546771E-02  0.1516106E+00
         21   -1    0    0  503  502  0.00000000000E+00  0.00000000000E+00  0.72629751891E+01  0.72629751891E+01  0.00000000000E+00 0. -1.
         21   -1    0    0  501  503 -0.00000000000E+00 -0.00000000000E+00 -0.22122716986E+03  0.22122716986E+03  0.00000000000E+00 0.  1.
          2    1    1    2  501    0 -0.45757883024E+01 -0.20723743801E+02 -0.20390061300E+03  0.20500212530E+03  0.00000000000E+00 0.  1.
         -2    1    1    2    0  502  0.45757883024E+01  0.20723743801E+02 -0.10063581672E+02  0.23488019750E+02  0.00000000000E+00 0. -1.
</event>
<event>
 4    1  0.1800096E+004  0.3938931E+02  0.7546771E-02  0.1352102E+00
         21   -1    0    0  503  502  0.00000000000E+00  0.00000000000E+00  0.69850813223E+02  0.69850813223E+02  0.00000000000E+00 0.  1.
         21   -1    0    0  501  503 -0.00000000000E+00 -0.00000000000E+00 -0.29789908339E+02  0.29789908339E+02  0.00000000000E+00 0. -1.
          2    1    1    2  501    0 -0.35396285597E+02  0.17280645164E+02 -0.50971156632E+01  0.39717733060E+02  0.00000000000E+00 0. -1.
         -2    1    1    2    0  502  0.35396285597E+02 -0.17280645164E+02  0.45158020547E+02  0.59922988503E+02  0.00000000000E+00 0.  1.
</event>
<event>
 4    1  0.1800096E+004  0.2056704E+02  0.7546771E-02  0.1525537E+00
         21   -1    0    0  501  502  0.00000000000E+00  0.00000000000E+00  0.16367202338E+03  0.16367202338E+03  0.00000000000E+00 0.  1.
         21   -1    0    0  502  503 -0.00000000000E+00 -0.00000000000E+00 -0.27961898639E+01  0.27961898639E+01  0.00000000000E+00 0. -1.
          2    1    1    2  501    0 -0.20155066444E+02 -0.40959111294E+01  0.10334199674E+03  0.10536874053E+03  0.00000000000E+00 0.  1.
         -2    1    1    2    0  503  0.20155066444E+02  0.40959111294E+01  0.57533836781E+02  0.61099472715E+02  0.00000000000E+00 0. -1.
</event>
<event>
 4    1  0.1800096E+004  0.2759105E+02  0.7546771E-02  0.1441760E+00
         21   -1    0    0  501  502  0.00000000000E+00  0.00000000000E+00  0.67028243884E+02  0.67028243884E+02  0.00000000000E+00 0. -1.
         21   -1    0    0  502  503 -0.00000000000E+00 -0.00000000000E+00 -0.49703688871E+02  0.49703688871E+02  0.00000000000E+00 0.  1.
          2    1    1    2  501    0  0.17602823479E+02 -0.21246338517E+02  0.59927997746E+02  0.65974473918E+02  0.00000000000E+00 0. -1.
         -2    1    1    2    0  503 -0.17602823479E+02  0.21246338517E+02 -0.42603442734E+02  0.50757458837E+02  0.00000000000E+00 0.  1.
</event>
<event>
 4    1  0.1800096E+004  0.2769626E+02  0.7546771E-02  0.1440737E+00
         21   -1    0    0  503  502  0.00000000000E+00  0.00000000000E+00  0.44367816958E+02  0.44367816958E+02  0.00000000000E+00 0.  1.
         21   -1    0    0  501  503 -0.00000000000E+00 -0.00000000000E+00 -0.57869027843E+02  0.57869027843E+02  0.00000000000E+00 0. -1.
          2    1    1    2  501    0 -0.27529598754E+02  0.30338414900E+01 -0.49557091341E+02  0.56771368699E+02  0.00000000000E+00 0. -1.
         -2    1    1    2    0  502  0.27529598754E+02 -0.30338414900E+01  0.36055880456E+02  0.45465476102E+02  0.00000000000E+00 0.  1.
</event>
<event>
 4    1  0.1800096E+004  0.2232586E+02  0.7546771E-02  0.1501141E+00
         21   -1    0    0  503  502  0.00000000000E+00  0.00000000000E+00  0.67163259844E+02  0.67163259844E+02  0.00000000000E+00 0.  1.
         21   -1    0    0  501  503 -0.00000000000E+00 -0.00000000000E+00 -0.11086125582E+02  0.11086125582E+02  0.00000000000E+00 0. -1.
          2    1    1    2  501    0  0.22295638364E+02  0.11611766504E+01  0.55437130668E+01  0.23003838285E+02  0.00000000000E+00 0. -1.
         -2    1    1    2    0  502 -0.22295638364E+02 -0.11611766504E+01  0.50533421195E+02  0.55245547141E+02  0.00000000000E+00 0.  1.
</event>
<event>
 4    1  0.1800096E+004  0.2358701E+02  0.7546771E-02  0.1485256E+00
         21   -1    0    0  503  502  0.00000000000E+00  0.00000000000E+00  0.71535015963E+00  0.71535015963E+00  0.00000000000E+00 0.  1.
         21   -1    0    0  501  503 -0.00000000000E+00 -0.00000000000E+00 -0.79600755195E+03  0.79600755195E+03  0.00000000000E+00 0. -1.
          2    1    1    2  501    0  0.23091994838E+02  0.48069451469E+01 -0.45801544509E+03  0.45862238812E+03  0.00000000000E+00 0.  1.
         -2    1    1    2    0  502 -0.23091994838E+02 -0.48069451469E+01 -0.33727675671E+03  0.33810051399E+03  0.00000000000E+00 0. -1.
</event>
<event>
 4    1  0.1800096E+004  0.2083817E+02  0.7546771E-02  0.1521588E+00
         21   -1    0    0  501  502  0.00000000000E+00  0.00000000000E+00  0.12892827519E+02  0.12892827519E+02  0.00000000000E+00 0.  1.
         21   -1    0    0  502  503 -0.00000000000E+00 -0.00000000000E+00 -0.43535346601E+02  0.43535346601E+02  0.00000000000E+00 0. -1.
          2    1    1    2  501    0  0.20838133870E+02  0.36175960569E-01 -0.18972216280E+01  0.20924353797E+02  0.00000000000E+00 0.  1.
         -2    1    1    2    0  503 -0.20838133870E+02 -0.36175960569E-01 -0.28745297454E+02  0.35503820324E+02  0.00000000000E+00 0. -1.
</event>
<event>
 4    1  0.1800096E+004  0.2683534E+02  0.7546771E-02  0.1449269E+00
         21   -1    0    0  503  502  0.00000000000E+00  0.00000000000E+00  0.70877424146E+01  0.70877424146E+01  0.00000000000E+00 0. -1.
         21   -1    0    0  501  503 -0.00000000000E+00 -0.00000000000E+00 -0.33995281708E+03  0.33995281708E+03  0.00000000000E+00 0.  1.
          2    1    1    2  501    0 -0.13103558532E+02  0.23418630794E+02 -0.31172677046E+03  0.31287971321E+03  0.00000000000E+00 0.  1.
         -2    1    1    2    0  502  0.13103558532E+02 -0.23418630794E+02 -0.21138304205E+02  0.34160846289E+02  0.00000000000E+00 0. -1.
</event>
<event>
 4    1  0.1800096E+004  0.2597441E+02  0.7546771E-02  0.1458191E+00
         21   -1    0    0  503  502  0.00000000000E+00  0.00000000000E+00  0.26050316772E+02  0.26050316772E+02  0.00000000000E+00 0.  1.
         21   -1    0    0  501  503 -0.00000000000E+00 -0.00000000000E+00 -0.33583973341E+03  0.33583973341E+03  0.00000000000E+00 0. -1.
          2    1    1    2  501    0  0.17510601870E+02 -0.19184601416E+02 -0.32872286567E+03  0.32974746781E+03  0.00000000000E+00 0. -1.
         -2    1    1    2    0  502 -0.17510601870E+02  0.19184601416E+02  0.18933449035E+02  0.32142582375E+02  0.00000000000E+00 0.  1.
</event>
<event>
 4    1  0.1800096E+004  0.2882217E+02  0.7546771E-02  0.1430115E+00
         21   -1    0    0  501  502  0.00000000000E+00  0.00000000000E+00  0.19013438963E+02  0.19013438963E+02  0.00000000000E+00 0. -1.
         21   -1    0    0  502  503 -0.00000000000E+00 -0.00000000000E+00 -0.44318643085E+02  0.44318643085E+02  0.00000000000E+00 0.  1.
          2    1    1    2  501    0 -0.51979799964E+01 -0.28349573510E+02 -0.16420819406E+02  0.33171684073E+02  0.00000000000E+00 0.  1.
         -2    1    1    2    0  503  0.51979799964E+01  0.28349573510E+02 -0.88843847160E+01  0.30160397975E+02  0.00000000000E+00 0. -1.
</event>
<event>
 4    1  0.1800096E+004  0.2190899E+02  0.7546771E-02  0.1506672E+00
         21   -1    0    0  503  502  0.00000000000E+00  0.00000000000E+00  0.13909806355E+03  0.13909806355E+03  0.00000000000E+00 0. -1.
         21   -1    0    0  501  503 -0.00000000000E+00 -0.00000000000E+00 -0.46506458300E+01  0.46506458300E+01  0.00000000000E+00 0.  1.
          2    1    1    2  501    0  0.20372264092E+02  0.80606884714E+01  0.30716845127E+02  0.37729675554E+02  0.00000000000E+00 0.  1.
         -2    1    1    2    0  502 -0.20372264092E+02 -0.80606884714E+01  0.10373057259E+03  0.10601903383E+03  0.00000000000E+00 0. -1.
</event>
<event>
 4    1  0.1800096E+004  0.2391191E+02  0.7546771E-02  0.1481354E+00
         21   -1    0    0  501  502  0.00000000000E+00  0.00000000000E+00  0.30167269131E+02  0.30167269131E+02  0.00000000000E+00 0.  1.
         21   -1    0    0  502  503 -0.00000000000E+00 -0.00000000000E+00 -0.20583027198E+02  0.20583027198E+02  0.00000000000E+00 0. -1.
          2    1    1    2  501    0 -0.21261486282E+02  0.10942060857E+02 -0.23473559896E+01  0.24026851122E+02  0.00000000000E+00 0. -1.
         -2    1    1    2    0  503  0.21261486282E+02 -0.10942060857E+02  0.11931597923E+02  0.26723445206E+02  0.00000000000E+00 0.  1.
</event>
<event>
 4    1  0.1800096E+004  0.2622515E+02  0.7546771E-02  0.1455551E+00
         21   -1    0    0  503  502  0.00000000000E+00  0.00000000000E+00  0.87141041401E+01  0.87141041401E+01  0.00000000000E+00 0. -1.
         21   -1    0    0  501  503 -0.00000000000E+00 -0.00000000000E+00 -0.79593210433E+02  0.79593210433E+02  0.00000000000E+00 0.  1.
          2    1    1    2  501    0  0.25856934478E+02  0.43792220437E+01 -0.39485877796E+02  0.47401404954E+02  0.00000000000E+00 0.  1.
         -2    1    1    2    0  502 -0.25856934478E+02 -0.43792220437E+01 -0.31393228497E+02  0.40905909619E+02  0.00000000000E+00 0. -1.
</event>
<event>
 4    1  0.1800096E+004  0.2001847E+02  0.7546771E-02  0.1533753E+00
         21   -1    0    0  501  502  0.00000000000E+00  0.00000000000E+00  0.15333452140E+03  0.15333452140E+03  0.00000000000E+00 0. -1.
         21   -1    0    0  502  503 -0.00000000000E+00 -0.00000000000E+00 -0.30550810686E+01  0.30550810686E+01  0.00000000000E+00 0.  1.
          2    1    1    2  501    0  0.19946432998E+02 -0.16967138585E+01  0.10486829711E+03  0.10676187881E+03  0.00000000000E+00 0. -1.
         -2    1    1    2    0  503 -0.19946432998E+02  0.16967138585E+01  0.45411143215E+02  0.49627723657E+02  0.00000000000E+00 0.  1.
</event>
<event>
 4    1  0.1800096E+004  0.2861268E+02  0.7546771E-02  0.1432048E+00
         21   -1    0    0  503  502  0.00000000000E+00  0.00000000000E+00  0.38416352107E+01  0.38416352107E+01  0.00000000000E+00 0.  1.
         21   -1    0    0  501  503 -0.00000000000E+00 -0.00000000000E+00 -0.21400140807E+03  0.21400140807E+03  0.00000000000E+00 0. -1.
          2    1    1    2  501    0  0.16929740927E+02 -0.23066624928E+02 -0.98044364191E+02  0.10213414054E+03  0.00000000000E+00 0. -1.
         -2    1    1    2    0  502 -0.16929740927E+02  0.23066624928E+02 -0.11211540866E+03  0.11570890274E+03  0.00000000000E+00 0.  1.
</event>
<event>
 4    1  0.1800096E+004  0.2282122E+02  0.7546771E-02  0.1494755E+00
         21   -1    0    0  503  502  0.00000000000E+00  0.00000000000E+00  0.72157777217E+02  0.72157777217E+02  0.00000000000E+00 0. -1.
         21   -1    0    0  501  503 -0.00000000000E+00 -0.00000000000E+00 -0.15586407407E+02  0.15586407407E+02  0.00000000000E+00 0.  1.
          2    1    1    2  501    0 -0.19224345844E+02 -0.12297662057E+02 -0.38617558979E+01  0.23145650213E+02  0.00000000000E+00 0.  1.
         -2    1    1    2    0  502  0.19224345844E+02  0.12297662057E+02  0.60433125708E+02  0.64598534410E+02  0.00000000000E+00 0. -1.
</event>
<event>
 4    1  0.1800096E+004  0.2585122E+02  0.7546771E-02  0.1459502E+00
         21   -1    0    0  501  502  0.00000000000E+00  0.00000000000E+00  0.12022690033E+03  0.12022690033E+03  0.00000000000E+00 0. -1.
         21   -1    0    0  502  503 -0.00000000000E+00 -0.00000000000E+00 -0.10588390434E+02  0.10588390434E+02  0.00000000000E+00 0.  1.
          2    1    1    2  501    0 -0.25343516661E+02  0.50981959612E+01  0.99900021404E+02  0.10319059897E+03  0.00000000000E+00 0. -1.
         -2    1    1    2    0  503  0.25343516661E+02 -0.50981959612E+01  0.97384884939E+01  0.27624691799E+02  0.00000000000E+00 0.  1.
</event>
<event>
 4    1  0.1800096E+004  0.2082807E+02  0.7546771E-02  0.1521734E+00
         21   -1    0    0  503  502  0.00000000000E+00  0.00000000000E+00  0.64740952137E+01  0.64740952137E+01  0.00000000000E+00 0.  1.
         21   -1    0    0  501  503 -0.00000000000E+00 -0.00000000000E+00 -0.71694125673E+02  0.71694125673E+02  0.00000000000E+00 0. -1.
          2    1    1    2  501    0 -0.41685845678E+01  0.20406646594E+02 -0.42603606594E+02  0.47422311387E+02  0.00000000000E+00 0.  1.
         -2    1    1    2    0  502  0.41685845678E+01 -0.20406646594E+02 -0.22616423866E+02  0.30745909500E+02  0.00000000000E+00 0. -1.
</event>
<event>
 4    1  0.1800096E+004  0.2720002E+02  0.7546771E-02  0.1445609E+00
         21   -1    0    0  503  502  0.00000000000E+00  0.00000000000E+00  0.18179707141E+03  0.18179707141E+03  0.00000000000E+00 0. -1.
         21   -1    0    0  501  503 -0.00000000000E+00 -0.00000000000E+00 -0.42041799333E+01  0.42041799333E+01  0.00000000000E+00 0.  1.
          2    1    1    2  501    0 -0.17563095433E+02  0.20769655932E+02  0.72156986011E+02  0.77113368225E+02  0.00000000000E+00 0.  1.
         -2    1    1    2    0  502  0.17563095433E+02 -0.20769655932E+02  0.10543590547E+03  0.10888788312E+03  0.00000000000E+00 0. -1.
</event>
<event>
 4    1  0.1800096E+004  0.5051037E+02  0.7546771E-02  0.1295975E+00
         21   -1    0    0  503  502  0.00000000000E+00  0.00000000000E+00  0.88303046994E+02  0.88303046994E+02  0.00000000000E+00 0.  1.
         21   -1    0    0  501  503 -0.00000000000E+00 -0.00000000000E+00 -0.66418674154E+02  0.66418674154E+02  0.00000000000E+00 0. -1.
          2    1    1    2  501    0 -0.17045665892E+02 -0.47547268085E+02 -0.47206944529E+02  0.69136047325E+02  0.00000000000E+00 0. -1.
         -2    1    1    2    0  502  0.17045665892E+02  0.47547268085E+02  0.69091317369E+02  0.85585673823E+02  0.00000000000E+00 0.  1.
</event>
<event>
 4    1  0.1800096E+004  0.2567357E+02  0.7546771E-02  0.1461407E+00
         21   -1    0    0  501  502  0.00000000000E+00  0.00000000000E+00  0.28370419832E+01  0.28370419832E+01  0.00000000000E+00 0. -1.
         21   -1    0    0  502  503 -0.00000000000E+00 -0.00000000000E+00 -0.32814974110E+03  0.32814974110E+03  0.00000000000E+00 0.  1.
          2    1    1    2  501    0 -0.13849343527E+02 -0.21617762193E+02 -0.73228965541E+02  0.77599055101E+02  0.00000000000E+00 0. -1.
         -2    1    1    2    0  503  0.13849343527E+02  0.21617762193E+02 -0.25208373357E+03  0.25338772798E+03  0.00000000000E+00 0.  1.
</event>
<event>
 4    1  0.1800096E+004  0.2235543E+02  0.7546771E-02  0.1500755E+00
         21   -1    0    0  501  502  0.00000000000E+00  0.00000000000E+00  0.11561619456E+03  0.11561619456E+03  0.00000000000E+00 0. -1.
         21   -1    0    0  502  503 -0.00000000000E+00 -0.00000000000E+00 -0.45415742298E+01  0.45415742298E+01  0.00000000000E+00 0.  1.
          2    1    1    2  501    0  0.16722662040E+02  0.14836364905E+02  0.68728773279E+02  0.72273158405E+02  0.00000000000E+00 0.  1.
         -2    1    1    2    0  503 -0.16722662040E+02 -0.14836364905E+02  0.42345847054E+02  0.47884610388E+02  0.00000000000E+00 0. -1.
</event>
<event>
 4    1  0.1800096E+004  0.2731824E+02  0.7546771E-02  0.1444437E+00
         21   -1    0    0  501  502  0.00000000000E+00  0.00000000000E+00  0.71409392255E+02  0.71409392255E+02  0.00000000000E+00 0. -1.
         21   -1    0    0  502  503 -0.00000000000E+00 -0.00000000000E+00 -0.41365595805E+02  0.41365595805E+02  0.00000000000E+00 0.  1.
          2    1    1    2  501    0 -0.22243809501E+02  0.15858721380E+02  0.63768715086E+02  0.69373879296E+02  0.00000000000E+00 0. -1.
         -2    1    1    2    0  503  0.22243809501E+02 -0.15858721380E+02 -0.33724918636E+02  0.43401108764E+02  0.00000000000E+00 0.  1.
</event>
<event>
 4    1  0.1800096E+004  0.2236601E+02  0.7546771E-02  0.1500616E+00
         21   -1    0    0  503  502  0.00000000000E+00  0.00000000000E+00  0.29798649856E+02  0.29798649856E+02  0.00000000000E+00 0.  1.
         21   -1    0    0  501  503 -0.00000000000E+00 -0.00000000000E+00 -0.24980809075E+02  0.24980809075E+02  0.00000000000E+00 0. -1.
          2    1    1    2  501    0  0.52881250087E+01 -0.21731867086E+02 -0.13277359563E+02  0.26010124761E+02  0.00000000000E+00 0. -1.
         -2    1    1    2    0  502 -0.52881250087E+01  0.21731867086E+02  0.18095200344E+02  0.28769334171E+02  0.00000000000E+00 0.  1.
</event>
<event>
 4    1  0.1800096E+004  0.2935891E+02  0.7546771E-02  0.1425251E+00
         21   -1    0    0  501  502  0.00000000000E+00  0.00000000000E+00  0.11283492986E+04  0.11283492986E+04  0.00000000000E+00 0.  1.
         21   -1    0    0  502  503 -0.00000000000E+00 -0.00000000000E+00 -0.16181194904E+01  0.16181194904E+01  0.00000000000E+00 0. -1.
          2    1    1    2  501    0 -0.72942266150E+01  0.28438351796E+02  0.97386776874E+03  0.97431020552E+03  0.00000000000E+00 0.  1.
         -2    1    1    2    0  503  0.72942266150E+01 -0.28438351796E+02  0.15286341042E+03  0.15565721262E+03  0.00000000000E+00 0. -1.
</event>
<event>
 4    1  0.1800096E+004  0.3466317E+02  0.7546771E-02  0.1382947E+00
         21   -1    0    0  503  502  0.00000000000E+00  0.00000000000E+00  0.45811991499E+01  0.45811991499E+01  0.00000000000E+00 0. -1.
         21   -1    0    0  501  503 -0.00000000000E+00 -0.00000000000E+00 -0.45984388592E+03  0.45984388592E+03  0.00000000000E+00 0.  1.
          2    1    1    2  501    0  0.33373178045E+02  0.93683832946E+01 -0.37984000047E+03  0.38141835506E+03  0.00000000000E+00 0.  1.
         -2    1    1    2    0  502 -0.33373178045E+02 -0.93683832946E+01 -0.75422686294E+02  0.83006730006E+02  0.00000000000E+00 0. -1.
</event>
<event>
 4    1  0.1800096E+004  0.3587464E+02  0.7546771E-02  0.1374516E+00
         21   -1    0    0  501  502  0.00000000000E+00  0.00000000000E+00  0.42665275513E+02  0.42665275513E+02  0.00000000000E+00 0. -1.
         21   -1    0    0  502  503 -0.00000000000E+00 -0.00000000000E+00 -0.39512908835E+02  0.39512908835E+02  0.00000000000E+00 0.  1.
          2    1    1    2  501    0 -0.19063053759E+02 -0.30390625607E+02  0.21561847075E+02  0.41855745038E+02  0.00000000000E+00 0. -1.
         -2    1    1    2    0  503  0.19063053759E+02  0.30390625607E+02 -0.18409480397E+02  0.40322439310E+02  0.00000000000E+00 0.  1.
</event>
<event>
 4    1  0.1800096E+004  0.4269890E+02  0.7546771E-02  0.1333357E+00
         21   -1    0    0  503  502  0.00000000000E+00  0.00000000000E+00  0.37012942563E+03  0.37012942563E+03  0.00000000000E+00 0. -1.
         21   -1    0    0  501  503 -0.00000000000E+00 -0.00000000000E+00 -0.32936585048E+02  0.32936585048E+02  0.00000000000E+00 0.  1.
          2    1    1    2  501    0 -0.23715287786E+02 -0.35507485839E+02 -0.17256447710E+02  0.46054113964E+02  0.00000000000E+00 0.  1.
         -2    1    1    2    0  502  0.23715287786E+02  0.35507485839E+02  0.35444928829E+03  0.35701189672E+03  0.00000000000E+00 0. -1.
</event>
<event>
 4    1  0.1800096E+004  0.3204395E+02  0.7546771E-02  0.1402628E+00
         21   -1    0    0  503  502  0.00000000000E+00  0.00000000000E+00  0.31953745316E+02  0.31953745316E+02  0.00000000000E+00 0.  1.
         21   -1    0    0  501  503 -0.00000000000E+00 -0.00000000000E+00 -0.61791778081E+02  0.61791778081E+02  0.00000000000E+00 0. -1.
          2    1    1    2  501    0 -0.31837470351E+02  0.36317919987E+01 -0.47391953656E+02  0.57208493275E+02  0.00000000000E+00 0. -1.
         -2    1    1    2    0  502  0.31837470351E+02 -0.36317919987E+01  0.17553920892E+02  0.36537030122E+02  0.00000000000E+00 0.  1.
</event>
<event>
 4    1  0.1800096E+004  0.2360329E+02  0.7546771E-02  0.1485058E+00
         21   -1    0    0  501  502  0.00000000000E+00  0.00000000000E+00  0.52572334035E+02  0.52572334035E+02  0.00000000000E+00 0.  1.
         21   -1    0    0  502  503 -0.00000000000E+00 -0.00000000000E+00 -0.19219493601E+02  0.19219493601E+02  0.00000000000E+00 0. -1.
          2    1    1    2  501    0 -0.21545239368E+02 -0.96393901533E+01  0.40719358074E+02  0.47065712614E+02  0.00000000000E+00 0.  1.
         -2    1    1    2    0  503  0.21545239368E+02  0.96393901533E+01 -0.73665176397E+01  0.24726115022E+02  0.00000000000E+00 0. -1.
</event>
<event>
 4    1  0.1800096E+004  0.2368287E+02  0.7546771E-02  0.1484097E+00
         21   -1    0    0  503  502  0.00000000000E+00  0.00000000000E+00  0.37519953521E+01  0.37519953521E+01  0.00000000000E+00 0. -1.
         21   -1    0    0  501  503 -0.00000000000E+00 -0.00000000000E+00 -0.34593028710E+03  0.34593028710E+03  0.00000000000E+00 0.  1.
          2    1    1    2  501    0 -0.12478024342E+02 -0.20129020080E+02 -0.30284403908E+03  0.30376864642E+03  0.00000000000E+00 0.  1.
         -2    1    1    2    0  502  0.12478024342E+02  0.20129020080E+02 -0.39334252670E+02  0.45913636035E+02  0.00000000000E+00 0. -1.
</event>
<event>
 4    1  0.1800096E+004  0.2292489E+02  0.7546771E-02  0.1493443E+00
         21   -1    0    0  501  502  0.00000000000E+00  0.00000000000E+00  0.99050991196E+02  0.99050991196E+02  0.00000000000E+00 0.  1.
         21   -1    0    0  502  503 -0.00000000000E+00 -0.00000000000E+00 -0.53412323914E+01  0.53412323914E+01  0.00000000000E+00 0. -1.
          2    1    1    2  501    0 -0.19419286274E+02  0.12183675326E+02  0.51102579633E+02  0.56009144512E+02  0.00000000000E+00 0.  1.
         -2    1    1    2    0  503  0.19419286274E+02 -0.12183675326E+02  0.42607179171E+02  0.48383079075E+02  0.00000000000E+00 0. -1.
</event>
<event>
 4    1  0.1800096E+004  0.2001125E+02  0.7546771E-02  0.1533864E+00
         21   -1    0    0  503  502  0.00000000000E+00  0.00000000000E+00  0.11254761779E+02  0.11254761779E+02  0.00000000000E+00 0.  1.
         21   -1    0    0  501  503 -0.00000000000E+00 -0.00000000000E+00 -0.65453173260E+02  0.65453173260E+02  0.00000000000E+00 0. -1.
          2    1    1    2  501    0 -0.93173843723E+01 -0.17709786524E+02 -0.53010069901E+02  0.56661430455E+02  0.00000000000E+00 0. -1.
         -2    1    1    2    0  502  0.93173843723E+01  0.17709786524E+02 -0.11883415797E+01  0.20046504583E+02  0.00000000000E+00 0.  1.
</event>
<event>
 4    1  0.1800096E+004  0.3901542E+02  0.7546771E-02  0.1354354E+00
         21   -1    0    0  503  502  0.00000000000E+00  0.00000000000E+00  0.56907924852E+03  0.56907924852E+03  0.00000000000E+00 0.  1.
         21   -1    0    0  501  503 -0.00000000000E+00 -0.00000000000E+00 -0.34014056025E+01  0.34014056025E+01  0.00000000000E+00 0. -1.
          2    1    1    2  501    0 -0.37026386987E+02  0.12298375576E+02  0.15054645349E+03  0.15551989594E+03  0.00000000000E+00 0. -1.
         -2    1    1    2    0  502  0.37026386987E+02 -0.12298375576E+02  0.41513138943E+03  0.41696075818E+03  0.00000000000E+00 0.  1.
</event>
<event>
 4    1  0.1800096E+004  0.3609060E+02  0.7546771E-02  0.1373054E+00
         21   -1    0    0  503  502  0.00000000000E+00  0.00000000000E+00  0.18247161351E+01  0.18247161351E+01  0.00000000000E+00 0.  1.
         21   -1    0    0  501  503 -0.00000000000E+00 -0.00000000000E+00 -0.10345503068E+04  0.10345503068E+04  0.00000000000E+00 0. -1.
          2    1    1    2  501    0  0.14622287406E+02  0.32995757600E+02 -0.80488319188E+03  0.80569192865E+03  0.00000000000E+00 0. -1.
         -2    1    1    2    0  502 -0.14622287406E+02 -0.32995757600E+02 -0.22784239883E+03  0.23068309434E+03  0.00000000000E+00 0.  1.
</event>
<event>
 4    1  0.1800096E+004  0.2325856E+02  0.7546771E-02  0.1489277E+00
         21   -1    0    0  503  502  0.00000000000E+00  0.00000000000E+00  0.15686962294E+03  0.15686962294E+03  0.00000000000E+00 0.  1.
         21   -1    0    0  501  503 -0.00000000000E+00 -0.00000000000E+00 -0.59016706841E+01  0.59016706841E+01  0.00000000000E+00 0. -1.
          2    1    1    2  501    0  0.92209028686E+01 -0.21352643549E+02  0.12795586912E+03  0.13005254661E+03  0.00000000000E+00 0.  1.
         -2    1    1    2    0  502 -0.92209028686E+01  0.21352643549E+02  0.23012083138E+02  0.32718747020E+02  0.00000000000E+00 0. -1.
</event>
<event>
 4    1  0.1800096E+004  0.2028819E+02  0.7546771E-02  0.1529675E+00
         21   -1    0    0  501  502  0.00000000000E+00  0.00000000000E+00  0.61452069584E+03  0.61452069584E+03  0.00000000000E+00 0. -1.
         21   -1    0    0  502  503 -0.00000000000E+00 -0.00000000000E+00 -0.22373953480E+01  0.22373953480E+01  0.00000000000E+00 0.  1.
          2    1    1    2  501    0  0.96302276672E+00 -0.20265320431E+02  0.56426626838E+03  0.56463088143E+03  0.00000000000E+00 0. -1.
         -2    1    1    2    0  503 -0.96302276672E+00  0.20265320431E+02  0.48017032108E+02  0.52127209761E+02  0.00000000000E+00 0.  1.
</event>
<event>
 4    1  0.1800096E+004  0.2129036E+02  0.7546771E-02  0.1515159E+00
         21   -1    0    0  503  502  0.00000000000E+00  0.00000000000E+00  0.51143020285E+01  0.51143020285E+01  0.00000000000E+00 0.  1.
         21   -1    0    0  501  503 -0.00000000000E+00 -0.00000000000E+00 -0.23423479750E+03  0.23423479750E+03  0.00000000000E+00 0. -1.
          2    1    1    2  501    0 -0.82804205988E+01  0.19614134593E+02 -0.20891509461E+03  0.20999713426E+03  0.00000000000E+00 0. -1.
         -2    1    1    2    0  502  0.82804205988E+01 -0.19614134593E+02 -0.20205400858E+02  0.29351965266E+02  0.00000000000E+00 0.  1.
</event>
<event>
 4    1  0.1800096E+004  0.3311438E+02  0.7546771E-02  0.1394327E+00
         21   -1    0    0  503  502  0.00000000000E+00  0.00000000000E+00  0.11173652795E+04  0.11173652795E+04  0.00000000000E+00 0. -1.
         21   -1    0    0  501  503 -0.00000000000E+00 -0.00000000000E+00 -0.15528632017E+01  0.15528632017E+01  0.00000000000E+00 0.  1.
          2    1    1    2  501    0 -0.32695345356E+02  0.52513636820E+01  0.89729899546E+03  0.89790982269E+03  0.00000000000E+00 0. -1.
         -2    1    1    2    0  502  0.32695345356E+02 -0.52513636820E+01  0.21851342088E+03  0.22100832006E+03  0.00000000000E+00 0.  1.
</event>
<event>
 4    1  0.1800096E+004  0.2571823E+02  0.7546771E-02  0.1460927E+00
         21   -1    0    0  503  502  0.00000000000E+00  0.00000000000E+00  0.19455866285E+03  0.19455866285E+03  0.00000000000E+00 0. -1.
         21   -1    0    0  501  503 -0.00000000000E+00 -0.00000000000E+00 -0.12917683400E+02  0.12917683400E+02  0.00000000000E+00 0.  1.
          2    1    1    2  501    0  0.25660929060E+02 -0.17158000688E+01  0.17732685240E+01  0.25779288806E+02  0.00000000000E+00 0.  1.
         -2    1    1    2    0  502 -0.25660929060E+02  0.17158000688E+01  0.17986771092E+03  0.18169705744E+03  0.00000000000E+00 0. -1.
</event>
<event>
 4    1  0.1800096E+004  0.2601327E+02  0.7546771E-02  0.1457780E+00
         21   -1    0    0  503  502  0.00000000000E+00  0.00000000000E+00  0.58499563870E+02  0.58499563870E+02  0.00000000000E+00 0. -1.
         21   -1    0    0  501  503 -0.00000000000E+00 -0.00000000000E+00 -0.12977241282E+02  0.12977241282E+02  0.00000000000E+00 0.  1.
          2    1    1    2  501    0  0.16159608763E+02 -0.20385219907E+02  0.10981765169E+02  0.28236311945E+02  0.00000000000E+00 0.  1.
         -2    1    1    2    0  502 -0.16159608763E+02  0.20385219907E+02  0.34540557418E+02  0.43240493207E+02  0.00000000000E+00 0. -1.
</event>
<event>
 4    1  0.1800096E+004  0.2032896E+02  0.7546771E-02  0.1529065E+00
         21   -1    0    0  503  502  0.00000000000E+00  0.00000000000E+00  0.88055990002E+01  0.88055990002E+01  0.00000000000E+00 0.  1.
         21   -1    0    0  501  503 -0.00000000000E+00 -0.00000000000E+00 -0.23617133337E+03  0.23617133337E+03  0.00000000000E+00 0. -1.
          2    1    1    2  501    0 -0.73757134661E+01 -0.18943741381E+02 -0.22332741349E+03  0.22425075273E+03  0.00000000000E+00 0. -1.
         -2    1    1    2    0  502  0.73757134661E+01  0.18943741381E+02 -0.40383208786E+01  0.20726179633E+02  0.00000000000E+00 0.  1.
</event>
<event>
 4    1  0.1800096E+004  0.2720145E+02  0.7546771E-02  0.1445595E+00
         21   -1    0    0  503  502  0.00000000000E+00  0.00000000000E+00  0.12686147713E+02  0.12686147713E+02  0.00000000000E+00 0.  1.
         21   -1    0    0  501  503 -0.00000000000E+00 -0.00000000000E+00 -0.58409868033E+02  0.58409868033E+02  0.00000000000E+00 0. -1.
          2    1    1    2  501    0  0.26132731984E+02 -0.75497976200E+01 -0.21506567742E+02  0.34676383622E+02  0.00000000000E+00 0. -1.
         -2    1    1    2    0  502 -0.26132731984E+02  0.75497976200E+01 -0.24217152579E+02  0.36419632124E+02  0.00000000000E+00 0.  1.
</event>
<event>
 4    1  0.1800096E+004  0.2428806E+02  0.7546771E-02  0.1476928E+00
         21   -1    0    0  503  502  0.00000000000E+00  0.00000000000E+00  0.34781202908E+02  0.34781202908E+02  0.00000000000E+00 0.  1.
         21   -1    0    0  501  503 -0.00000000000E+00 -0.00000000000E+00 -0.60956919513E+02  0.60956919513E+02  0.00000000000E+00 0. -1.
          2    1    1    2  501    0  0.22162946421E+02 -0.99354703373E+01 -0.53755746554E+02  0.58988050082E+02  0.00000000000E+00 0. -1.
         -2    1    1    2    0  502 -0.22162946421E+02  0.99354703373E+01  0.27580029949E+02  0.36750072339E+02  0.00000000000E+00 0.  1.
</event>
<event>
 4    1  0.1800096E+004  0.2063663E+02  0.7546771E-02  0.1524517E+00
         21   -1    0    0  503  502  0.00000000000E+00  0.00000000000E+00  0.11549068002E+02  0.11549068002E+02  0.00000000000E+00 0. -1.
         21   -1    0    0  501  503 -0.00000000000E+00 -0.00000000000E+00 -0.43089332066E+02  0.43089332066E+02  0.00000000000E+00 0.  1.
          2    1    1    2  501    0 -0.18043202554E+02 -0.10015650972E+02 -0.26145051682E+02  0.33308169422E+02  0.00000000000E+00 0.  1.
         -2    1    1    2    0  502  0.18043202554E+02  0.10015650972E+02 -0.53952123816E+01  0.21330230646E+02  0.00000000000E+00 0. -1.
</event>
<event>
 4    1  0.1800096E+004  0.2966763E+02  0.7546771E-02  0.1422507E+00
         21   -1    0    0  501  502  0.00000000000E+00  0.00000000000E+00  0.71184074786E+02  0.71184074786E+02  0.00000000000E+00 0.  1.
         21   -1    0    0  502  503 -0.00000000000E+00 -0.00000000000E+00 -0.20780006197E+02  0.20780006197E+02  0.00000000000E+00 0. -1.
          2    1    1    2  501    0 -0.17699996377E+02 -0.23809212440E+02  0.54463819734E+02  0.62019965566E+02  0.00000000000E+00 0.  1.
         -2    1    1    2    0  503  0.17699996377E+02  0.23809212440E+02 -0.40597511461E+01  0.29944115417E+02  0.00000000000E+00 0. -1.
</event>
<event>
 4    1  0.1800096E+004  0.3474634E+02  0.7546771E-02  0.1382355E+00
         21   -1    0    0  501  502  0.00000000000E+00  0.00000000000E+00  0.67746150560E+01  0.67746150560E+01  0.00000000000E+00 0.  1.
         21   -1    0    0  502  503 -0.00000000000E+00 -0.00000000000E+00 -0.46270652162E+03  0.46270652162E+03  0.00000000000E+00 0. -1.
          2    1    1    2  501    0  0.17532734643E+02 -0.29998526002E+02 -0.43900048934E+02  0.55986807756E+02  0.00000000000E+00 0.  1.
         -2    1    1    2    0  503 -0.17532734643E+02  0.29998526002E+02 -0.41203185763E+03  0.41349432892E+03  0.00000000000E+00 0. -1.
</event>
<event>
 4    1  0.1800096E+004  0.2158989E+02  0.7546771E-02  0.1511007E+00
         21   -1    0    0  501  502  0.00000000000E+00  0.00000000000E+00  0.19072216239E+02  0.19072216239E+02  0.00000000000E+00 0. -1.
         21   -1    0    0  502  503 -0.00000000000E+00 -0.00000000000E+00 -0.59760086670E+02  0.59760086670E+02  0.00000000000E+00 0.  1.
          2    1    1    2  501    0 -0.13874934284E+02 -0.16541150790E+02  0.99586701923E+01  0.23776008556E+02  0.00000000000E+00 0. -1.
         -2    1    1    2    0  503  0.13874934284E+02  0.16541150790E+02 -0.50646540624E+02  0.55056294354E+02  0.00000000000E+00 0.  1.
</event>
<event>
 4    1  0.1800096E+004  0.2271590E+02  0.7546771E-02  0.1496097E+00
         21   -1    0    0  503  502  0.00000000000E+00  0.00000000000E+00  0.26430117803E+01  0.26430117803E+01  0.00000000000E+00 0. -1.
         21   -1    0    0  501  503 -0.00000000000E+00 -0.00000000000E+00 -0.34779679494E+03  0.34779679494E+03  0.00000000000E+00 0.  1.
          2    1    1    2  501    0 -0.27062410999E+01 -0.22554121658E+02 -0.28862592555E+03  0.28951845717E+03  0.00000000000E+00 0.  1.
         -2    1    1    2    0  502  0.27062410999E+01  0.22554121658E+02 -0.56527857613E+02  0.60921349550E+02  0.00000000000E+00 0. -1.
</event>
<event>
 4    1  0.1800096E+004  0.2396938E+02  0.7546771E-02  0.1480672E+00
         21   -1    0    0  501  502  0.00000000000E+00  0.00000000000E+00  0.40100080309E+02  0.40100080309E+02  0.00000000000E+00 0.  1.
         21   -1    0    0  502  503 -0.00000000000E+00 -0.00000000000E+00 -0.42383022497E+02  0.42383022497E+02  0.00000000000E+00 0. -1.
          2    1    1    2  501    0 -0.92867970678E+01  0.22097202760E+02  0.32412874867E+02  0.40312844439E+02  0.00000000000E+00 0.  1.
         -2    1    1    2    0  503  0.92867970678E+01 -0.22097202760E+02 -0.34695817056E+02  0.42170258367E+02  0.00000000000E+00 0. -1.
</event>
<event>
 4    1  0.1800096E+004  0.2110836E+02  0.7546771E-02  0.1517723E+00
         21   -1    0    0  501  502  0.00000000000E+00  0.00000000000E+00  0.94121199022E+02  0.94121199022E+02  0.00000000000E+00 0. -1.
         21   -1    0    0  502  503 -0.00000000000E+00 -0.00000000000E+00 -0.75166401601E+01  0.75166401601E+01  0.00000000000E+00 0.  1.
          2    1    1    2  501    0 -0.19620237745E+02 -0.77851742509E+01  0.74222882053E+02  0.77166047505E+02  0.00000000000E+00 0. -1.
         -2    1    1    2    0  503  0.19620237745E+02  0.77851742509E+01  0.12381676809E+02  0.24471791677E+02  0.00000000000E+00 0.  1.
</event>
<event>
 4    1  0.1800096E+004  0.4196194E+02  0.7546771E-02  0.1337357E+00
         21   -1    0    0  501  502  0.00000000000E+00  0.00000000000E+00  0.88706031245E+03  0.88706031245E+03  0.00000000000E+00 0. -1.
         21   -1    0    0  502  503 -0.00000000000E+00 -0.00000000000E+00 -0.22861099335E+01  0.22861099335E+01  0.00000000000E+00 0.  1.
          2    1    1    2  501    0 -0.41208516765E+02 -0.79159594619E+01  0.60377220652E+03  0.60522861931E+03  0.00000000000E+00 0. -1.
         -2    1    1    2    0  503  0.41208516765E+02  0.79159594619E+01  0.28100199600E+03  0.28411780307E+03  0.00000000000E+00 0.  1.
</event>
<event>
 4    1  0.1800096E+004  0.2089642E+02  0.7546771E-02  0.1520749E+00
         21   -1    0    0  503  502  0.00000000000E+00  0.00000000000E+00  0.19232687432E+04  0.19232687432E+04  0.00000000000E+00 0. -1.
         21   -1    0    0  501  503 -0.00000000000E+00 -0.00000000000E+00 -0.27087667422E+00  0.27087667422E+00  0.00000000000E+00 0.  1.
          2    1    1    2  501    0  0.16204338834E+02 -0.13193926915E+02  0.57459725915E+03  0.57497710435E+03  0.00000000000E+00 0. -1.
         -2    1    1    2    0  502 -0.16204338834E+02  0.13193926915E+02  0.13484006074E+04  0.13485625155E+04  0.00000000000E+00 0.  1.
</event>
<event>
 4    1  0.1800096E+004  0.3295820E+02  0.7546771E-02  0.1395515E+00
         21   -1    0    0  501  502  0.00000000000E+00  0.00000000000E+00  0.36293049065E+02  0.36293049065E+02  0.00000000000E+00 0.  1.
         21   -1    0    0  502  503 -0.00000000000E+00 -0.00000000000E+00 -0.50688734757E+02  0.50688734757E+02  0.00000000000E+00 0. -1.
          2    1    1    2  501    0 -0.11768126055E+02  0.30785620831E+02  0.20634210818E+02  0.38884622885E+02  0.00000000000E+00 0.  1.
         -2    1    1    2    0  503  0.11768126055E+02 -0.30785620831E+02 -0.35029896509E+02  0.48097160938E+02  0.00000000000E+00 0. -1.
</event>
<event>
 4    1  0.1800096E+004  0.2349414E+02  0.7546771E-02  0.1486385E+00
         21   -1    0    0  503  502  0.00000000000E+00  0.00000000000E+00  0.14964844835E+03  0.14964844835E+03  0.00000000000E+00 0.  1.
         21   -1    0    0  501  503 -0.00000000000E+00 -0.00000000000E+00 -0.48919342371E+01  0.48919342371E+01  0.00000000000E+00 0. -1.
          2    1    1    2  501    0 -0.23493802533E+02  0.12562887682E+00  0.34052795013E+02  0.41371093632E+02  0.00000000000E+00 0. -1.
         -2    1    1    2    0  502  0.23493802533E+02 -0.12562887682E+00  0.11070371910E+03  0.11316928895E+03  0.00000000000E+00 0.  1.
</event>
<event>
 4    1  0.1800096E+004  0.3125182E+02  0.7546771E-02  0.1409021E+00
         21   -1    0    0  503  502  0.00000000000E+00  0.00000000000E+00  0.28494897311E+01  0.28494897311E+01  0.00000000000E+00 0. -1.
         21   -1    0    0  501  503 -0.00000000000E+00 -0.00000000000E+00 -0.35311324362E+03  0.35311324362E+03  0.00000000000E+00 0.  1.
          2    1    1    2  501    0  0.29979150915E+02 -0.88276118235E+01 -0.20561540640E+03  0.20797685345E+03  0.00000000000E+00 0. -1.
         -2    1    1    2    0  502 -0.29979150915E+02  0.88276118235E+01 -0.14464834749E+03  0.14798587991E+03  0.00000000000E+00 0.  1.
</event>
<event>
 4    1  0.1800096E+004  0.4055276E+02  0.7546771E-02  0.1345277E+00
         21   -1    0    0  503  502  0.00000000000E+00  0.00000000000E+00  0.54682752654E+02  0.54682752654E+02  0.00000000000E+00 0.  1.
         21   -1    0    0  501  503 -0.00000000000E+00 -0.00000000000E+00 -0.42584616019E+02  0.42584616019E+02  0.00000000000E+00 0. -1.
          2    1    1    2  501    0 -0.39434533278E+02  0.94574685681E+01 -0.20311277052E+02  0.45354978801E+02  0.00000000000E+00 0. -1.
         -2    1    1    2    0  502  0.39434533278E+02 -0.94574685681E+01  0.32409413687E+02  0.51912389871E+02  0.00000000000E+00 0.  1.
</event>
<event>
 4    1  0.1800096E+004  0.2330298E+02  0.7546771E-02  0.1488728E+00
         21   -1    0    0  503  502  0.00000000000E+00  0.00000000000E+00  0.13642721127E+03  0.13642721127E+03  0.00000000000E+00 0. -1.
         21   -1    0    0  501  503 -0.00000000000E+00 -0.00000000000E+00 -0.77818692088E+01  0.77818692088E+01  0.00000000000E+00 0.  1.
          2    1    1    2  501    0  0.21788855970E+02 -0.82628476495E+01  0.13926343586E+02  0.27147227141E+02  0.00000000000E+00 0.  1.
         -2    1    1    2    0  502 -0.21788855970E+02  0.82628476495E+01  0.11471899847E+03  0.11706185333E+03  0.00000000000E+00 0. -1.
</event>
<event>
 4    1  0.1800096E+004  0.2470999E+02  0.7546771E-02  0.1472074E+00
         21   -1    0    0  503  502  0.00000000000E+00  0.00000000000E+00  0.83543202248E+02  0.83543202248E+02  0.00000000000E+00 0.  1.
         21   -1    0    0  501  503 -0.00000000000E+00 -0.00000000000E+00 -0.14389494977E+02  0.14389494977E+02  0.00000000000E+00 0. -1.
          2    1    1    2  501    0 -0.31311493215E+01 -0.24510803881E+02  0.22745717553E+00  0.24711036800E+02  0.00000000000E+00 0. -1.
         -2    1    1    2    0  502  0.31311493215E+01  0.24510803881E+02  0.68926250096E+02  0.73221660424E+02  0.00000000000E+00 0.  1.
</event>
<event>
 4    1  0.1800096E+004  0.2783591E+02  0.7546771E-02  0.1439387E+00
         21   -1    0    0  503  502  0.00000000000E+00  0.00000000000E+00  0.20188544292E+01  0.20188544292E+01  0.00000000000E+00 0. -1.
         21   -1    0    0  501  503 -0.00000000000E+00 -0.00000000000E+00 -0.10520334976E+04  0.10520334976E+04  0.00000000000E+00 0.  1.
          2    1    1    2  501    0  0.13237919577E+02  0.24486631949E+02 -0.94503828760E+03  0.94544814913E+03  0.00000000000E+00 0.  1.
         -2    1    1    2    0  502 -0.13237919577E+02 -0.24486631949E+02 -0.10497635557E+03  0.10860420290E+03  0.00000000000E+00 0. -1.
</event>
<event>
 4    1  0.1800096E+004  0.2574515E+02  0.7546771E-02  0.1460637E+00
         21   -1    0    0  503  502  0.00000000000E+00  0.00000000000E+00  0.20797735563E+02  0.20797735563E+02  0.00000000000E+00 0. -1.
         21   -1    0    0  501  503 -0.00000000000E+00 -0.00000000000E+00 -0.33451160964E+02  0.33451160964E+02  0.00000000000E+00 0.  1.
          2    1    1    2  501    0  0.74427333399E+01  0.24645862861E+02 -0.12224864692E+02  0.28500178113E+02  0.00000000000E+00 0.  1.
         -2    1    1    2    0  502 -0.74427333399E+01 -0.24645862861E+02 -0.42856070919E+00  0.25748718415E+02  0.00000000000E+00 0. -1.
</event>
<event>
 4    1  0.1800096E+004  0.2970297E+02  0.7546771E-02  0.1422195E+00
         21   -1    0    0  501  502  0.00000000000E+00  0.00000000000E+00  0.56913368105E+01  0.56913368105E+01  0.00000000000E+00 0.  1.
         21   -1    0    0  502  503 -0.00000000000E+00 -0.00000000000E+00 -0.16897346197E+03  0.16897346197E+03  0.00000000000E+00 0. -1.
          2    1    1    2  501    0 -0.17145495251E+02 -0.24254868582E+02 -0.10673790538E+03  0.11079371418E+03  0.00000000000E+00 0. -1.
         -2    1    1    2    0  503  0.17145495251E+02  0.24254868582E+02 -0.56544219783E+02  0.63871084602E+02  0.00000000000E+00 0.  1.
</event>
<event>
 4    1  0.1800096E+004  0.2015279E+02  0.7546771E-02  0.1531713E+00
         21   -1    0    0  503  502  0.00000000000E+00  0.00000000000E+00  0.25701487597E+03  0.25701487597E+03  0.00000000000E+00 0.  1.
         21   -1    0    0  501  503 -0.00000000000E+00 -0.00000000000E+00 -0.34109550523E+01  0.34109550523E+01  0.00000000000E+00 0. -1.
          2    1    1    2  501    0  0.15445034966E+01 -0.20093520562E+02  0.31405751770E+02  0.37315630824E+02  0.00000000000E+00 0. -1.
         -2    1    1    2    0  502 -0.15445034966E+01  0.20093520562E+02  0.22219816915E+03  0.22311020020E+03  0.00000000000E+00 0.  1.
</event>
<event>
 4    1  0.1800096E+004  0.3121438E+02  0.7546771E-02  0.1409329E+00
         21   -1    0    0  503  502  0.00000000000E+00  0.00000000000E+00  0.54800904805E+02  0.54800904805E+02  0.00000000000E+00 0.  1.
         21   -1    0    0  501  503 -0.00000000000E+00 -0.00000000000E+00 -0.81587106382E+02  0.81587106382E+02  0.00000000000E+00 0. -1.
          2    1    1    2  501    0 -0.28361478644E+02 -0.13037016890E+02 -0.73700607940E+02  0.80038221438E+02  0.00000000000E+00 0. -1.
         -2    1    1    2    0  502  0.28361478644E+02  0.13037016890E+02  0.46914406364E+02  0.56349789748E+02  0.00000000000E+00 0.  1.
</event>
<event>
 4    1  0.1800096E+004  0.2442648E+02  0.7546771E-02  0.1475323E+00
         21   -1    0    0  503  502  0.00000000000E+00  0.00000000000E+00  0.24239179923E+01  0.24239179923E+01  0.00000000000E+00 0. -1.
         21   -1    0    0  501  503 -0.00000000000E+00 -0.00000000000E+00 -0.29603500724E+03  0.29603500724E+03  0.00000000000E+00 0.  1.
          2    1    1    2  501    0 -0.37031339295E+01 -0.24144147917E+02 -0.20806284936E+03  0.20949177159E+03  0.00000000000E+00 0. -1.
         -2    1    1    2    0  502  0.37031339295E+01  0.24144147917E+02 -0.85548239888E+02  0.88967153644E+02  0.00000000000E+00 0.  1.
</event>
<event>
 4    1  0.1800096E+004  0.2211836E+02  0.7546771E-02  0.1503876E+00
         21   -1    0    0  501  502  0.00000000000E+00  0.00000000000E+00  0.48850774749E+01  0.48850774749E+01  0.00000000000E+00 0. -1.
         21   -1    0    0  502  503 -0.00000000000E+00 -0.00000000000E+00 -0.53067994524E+03  0.53067994524E+03  0.00000000000E+00 0.  1.
          2    1    1    2  501    0  0.20654867798E+02 -0.79118939230E+01 -0.21701765742E+02  0.30986904743E+02  0.00000000000E+00 0. -1.
         -2    1    1    2    0  503 -0.20654867798E+02  0.79118939230E+01 -0.50409310202E+03  0.50457811797E+03  0.00000000000E+00 0.  1.
</event>
<event>
 4    1  0.1800096E+004  0.2648541E+02  0.7546771E-02  0.1452847E+00
         21   -1    0    0  501  502  0.00000000000E+00  0.00000000000E+00  0.83536076784E+03  0.83536076784E+03  0.00000000000E+00 0.  1.
         21   -1    0    0  502  503 -0.00000000000E+00 -0.00000000000E+00 -0.22361200774E+01  0.22361200774E+01  0.00000000000E+00 0. -1.
          2    1    1    2  501    0  0.22389694420E+02 -0.14148449117E+02  0.74751124011E+03  0.74798030129E+03  0.00000000000E+00 0.  1.
         -2    1    1    2    0  503 -0.22389694420E+02  0.14148449117E+02  0.85613407649E+02  0.89616586623E+02  0.00000000000E+00 0. -1.
</event>
<event>
 4    1  0.1800096E+004  0.4179742E+02  0.7546771E-02  0.1338263E+00
         21   -1    0    0  501  502  0.00000000000E+00  0.00000000000E+00  0.10542304273E+02  0.10542304273E+02  0.00000000000E+00 0. -1.
         21   -1    0    0  502  503 -0.00000000000E+00 -0.00000000000E+00 -0.19141812512E+03  0.19141812512E+03  0.00000000000E+00 0.  1.
          2    1    1    2  501    0 -0.41387619923E+02  0.58386162916E+01 -0.53435291731E+02  0.67840658350E+02  0.00000000000E+00 0. -1.
         -2    1    1    2    0  503  0.41387619923E+02 -0.58386162916E+01 -0.12744052912E+03  0.13411977104E+03  0.00000000000E+00 0.  1.
</event>
<event>
 4    1  0.1800096E+004  0.2443926E+02  0.7546771E-02  0.1475175E+00
         21   -1    0    0  501  502  0.00000000000E+00  0.00000000000E+00  0.90386480281E+01  0.90386480281E+01  0.00000000000E+00 0.  1.
         21   -1    0    0  502  503 -0.00000000000E+00 -0.00000000000E+00 -0.14268781714E+03  0.14268781714E+03  0.00000000000E+00 0. -1.
          2    1    1    2  501    0 -0.19533863379E+02  0.14686918488E+02 -0.11237572057E+02  0.26899078402E+02  0.00000000000E+00 0.  1.
         -2    1    1    2    0  503  0.19533863379E+02 -0.14686918488E+02 -0.12241159706E+03  0.12482738677E+03  0.00000000000E+00 0. -1.
</event>
<event>
 4    1  0.1800096E+004  0.2373648E+02  0.7546771E-02  0.1483452E+00
         21   -1    0    0  503  502  0.00000000000E+00  0.00000000000E+00  0.11849646084E+03  0.11849646084E+03  0.00000000000E+00 0.  1.
         21   -1    0    0  501  503 -0.00000000000E+00 -0.00000000000E+00 -0.47120535762E+02  0.47120535762E+02  0.00000000000E+00 0. -1.
          2    1    1    2  501    0 -0.15224194109E+02  0.18211103651E+02 -0.42831525759E+02  0.48968969576E+02  0.00000000000E+00 0. -1.
         -2    1    1    2    0  502  0.15224194109E+02 -0.18211103651E+02  0.11420745084E+03  0.11664802703E+03  0.00000000000E+00 0.  1.
</event>
<event>
 4    1  0.1800096E+004  0.3077936E+02  0.7546771E-02  0.1412942E+00
         21   -1    0    0  501  502  0.00000000000E+00  0.00000000000E+00  0.12516789365E+03  0.12516789365E+03  0.00000000000E+00 0.  1.
         21   -1    0    0  502  503 -0.00000000000E+00 -0.00000000000E+00 -0.12602154886E+02  0.12602154886E+02  0.00000000000E+00 0. -1.
          2    1    1    2  501    0 -0.29471252027E+02 -0.88777569792E+01  0.12748556081E+02  0.33315085879E+02  0.00000000000E+00 0.  1.
         -2    1    1    2    0  503  0.29471252027E+02  0.88777569792E+01  0.99817182685E+02  0.10445496266E+03  0.00000000000E+00 0. -1.
</event>
<event>
 4    1  0.1800096E+004  0.2694216E+02  0.7546771E-02  0.1448190E+00
         21   -1    0    0  503  502  0.00000000000E+00  0.00000000000E+00  0.21378159601E+02  0.21378159601E+02  0.00000000000E+00 0.  1.
         21   -1    0    0  501  503 -0.00000000000E+00 -0.00000000000E+00 -0.35419849064E+02  0.35419849064E+02  0.00000000000E+00 0. -1.
          2    1    1    2  501    0 -0.26587843543E+02  0.43550743721E+01 -0.12797578469E+02  0.29827137170E+02  0.00000000000E+00 0. -1.
         -2    1    1    2    0  502  0.26587843543E+02 -0.43550743721E+01 -0.12441109933E+01  0.26970871495E+02  0.00000000000E+00 0.  1.
</event>
<event>
 4    1  0.1800096E+004  0.2016077E+02  0.7546771E-02  0.1531592E+00
         21   -1    0    0  501  502  0.00000000000E+00  0.00000000000E+00  0.76441572682E+00  0.76441572682E+00  0.00000000000E+00 0.  1.
         21   -1    0    0  502  503 -0.00000000000E+00 -0.00000000000E+00 -0.64994046120E+03  0.64994046120E+03  0.00000000000E+00 0. -1.
          2    1    1    2  501    0  0.20027584122E+02  0.23135156451E+01 -0.46334676649E+03  0.46378516848E+03  0.00000000000E+00 0.  1.
         -2    1    1    2    0  503 -0.20027584122E+02 -0.23135156451E+01 -0.18582927898E+03  0.18691970845E+03  0.00000000000E+00 0. -1.
</event>
<event>
 4    1  0.1800096E+004  0.2712457E+02  0.7546771E-02  0.1446361E+00
         21   -1    0    0  503  502  0.00000000000E+00  0.00000000000E+00  0.51057684899E+01  0.51057684899E+01  0.00000000000E+00 0.  1.
         21   -1    0    0  501  503 -0.00000000000E+00 -0.00000000000E+00 -0.15575659875E+03  0.15575659875E+03  0.00000000000E+00 0. -1.
          2    1    1    2  501    0  0.22596369670E+02 -0.15004879555E+02 -0.97328479376E+02  0.10103749418E+03  0.00000000000E+00 0. -1.
         -2    1    1    2    0  502 -0.22596369670E+02  0.15004879555E+02 -0.53322350884E+02  0.59824873059E+02  0.00000000000E+00 0.  1.
</event>
<event>
 4    1  0.1800096E+004  0.2148142E+02  0.7546771E-02  0.1512501E+00
         21   -1    0    0  503  502  0.00000000000E+00  0.00000000000E+00  0.44213074740E+03  0.44213074740E+03  0.00000000000E+00 0. -1.
         21   -1    0    0  501  503 -0.00000000000E+00 -0.00000000000E+00 -0.11658963646E+01  0.11658963646E+01  0.00000000000E+00 0.  1.
          2    1    1    2  501    0 -0.12309351124E+02 -0.17604859265E+02  0.14872509169E+03  0.15026844011E+03  0.00000000000E+00 0. -1.
         -2    1    1    2    0  502  0.12309351124E+02  0.17604859265E+02  0.29223975935E+03  0.29302820366E+03  0.00000000000E+00 0.  1.
</event>
<event>
 4    1  0.1800096E+004  0.3295362E+02  0.7546771E-02  0.1395550E+00
         21   -1    0    0  501  502  0.00000000000E+00  0.00000000000E+00  0.20054693643E+03  0.20054693643E+03  0.00000000000E+00 0.  1.
         21   -1    0    0  502  503 -0.00000000000E+00 -0.00000000000E+00 -0.61926140372E+01  0.61926140372E+01  0.00000000000E+00 0. -1.
          2    1    1    2  501    0  0.28556991527E+02 -0.16445046637E+02  0.13380969231E+03  0.13780774681E+03  0.00000000000E+00 0.  1.
         -2    1    1    2    0  503 -0.28556991527E+02  0.16445046637E+02  0.60544630084E+02  0.68931803661E+02  0.00000000000E+00 0. -1.
</event>
<event>
 4    1  0.1800096E+004  0.2022923E+02  0.7546771E-02  0.1530560E+00
         21   -1    0    0  501  502  0.00000000000E+00  0.00000000000E+00  0.19575882069E+02  0.19575882069E+02  0.00000000000E+00 0. -1.
         21   -1    0    0  502  503 -0.00000000000E+00 -0.00000000000E+00 -0.92710974152E+02  0.92710974152E+02  0.00000000000E+00 0.  1.
          2    1    1    2  501    0  0.12307792352E+02  0.16054285469E+02  0.12842526871E+02  0.23961475976E+02  0.00000000000E+00 0. -1.
         -2    1    1    2    0  503 -0.12307792352E+02 -0.16054285469E+02 -0.85977618954E+02  0.88325380245E+02  0.00000000000E+00 0.  1.
</event>
<event>
 4    1  0.1800096E+004  0.2400935E+02  0.7546771E-02  0.1480198E+00
         21   -1    0    0  501  502  0.00000000000E+00  0.00000000000E+00  0.18066985097E+02  0.18066985097E+02  0.00000000000E+00 0. -1.
         21   -1    0    0  502  503 -0.00000000000E+00 -0.00000000000E+00 -0.38012417133E+02  0.38012417133E+02  0.00000000000E+00 0.  1.
          2    1    1    2  501    0 -0.21027135340E+02  0.11589155864E+02  0.12654782076E+01  0.24042678497E+02  0.00000000000E+00 0. -1.
         -2    1    1    2    0  503  0.21027135340E+02 -0.11589155864E+02 -0.21210910243E+02  0.32036723733E+02  0.00000000000E+00 0.  1.
</event>
<event>
 4    1  0.1800096E+004  0.3295134E+02  0.7546771E-02  0.1395568E+00
         21   -1    0    0  503  502  0.00000000000E+00  0.00000000000E+00  0.14707101526E+03  0.14707101526E+03  0.00000000000E+00 0. -1.
         21   -1    0    0  501  503 -0.00000000000E+00 -0.00000000000E+00 -0.79839553094E+01  0.79839553094E+01  0.00000000000E+00 0.  1.
          2    1    1    2  501    0 -0.22272984929E+02  0.24283839351E+02  0.48269355597E+02  0.58444173371E+02  0.00000000000E+00 0.  1.
         -2    1    1    2    0  502  0.22272984929E+02 -0.24283839351E+02  0.90817704358E+02  0.96610797203E+02  0.00000000000E+00 0. -1.
</event>
<event>
 4    1  0.1800096E+004  0.3537379E+02  0.7546771E-02  0.1377954E+00
         21   -1    0    0  503  502  0.00000000000E+00  0.00000000000E+00  0.29465201630E+02  0.29465201630E+02  0.00000000000E+00 0. -1.
         21   -1    0    0  501  503 -0.00000000000E+00 -0.00000000000E+00 -0.42564155379E+02  0.42564155379E+02  0.00000000000E+00 0.  1.
          2    1    1    2  501    0 -0.35347932054E+02 -0.13522579380E+01 -0.48306927461E+01  0.35702107703E+02  0.00000000000E+00 0.  1.
         -2    1    1    2    0  502  0.35347932054E+02  0.13522579380E+01 -0.82682610028E+01  0.36327249305E+02  0.00000000000E+00 0. -1.
</event>
<event>
 4    1  0.1800096E+004  0.3067821E+02  0.7546771E-02  0.1413793E+00
         21   -1    0    0  501  502  0.00000000000E+00  0.00000000000E+00  0.15093927238E+01  0.15093927238E+01  0.00000000000E+00 0.  1.
         21   -1    0    0  502  503 -0.00000000000E+00 -0.00000000000E+00 -0.20650255697E+04  0.20650255697E+04  0.00000000000E+00 0. -1.
          2    1    1    2  501    0 -0.20582680723E+02 -0.22748754544E+02 -0.16846829262E+03  0.17123877539E+03  0.00000000000E+00 0.  1.
         -2    1    1    2    0  503  0.20582680723E+02  0.22748754544E+02 -0.18950478843E+04  0.18952961870E+04  0.00000000000E+00 0. -1.
</event>
<event>
 4    1  0.1800096E+004  0.2305946E+02  0.7546771E-02  0.1491753E+00
         21   -1    0    0  501  502  0.00000000000E+00  0.00000000000E+00  0.41964523601E+01  0.41964523601E+01  0.00000000000E+00 0. -1.
         21   -1    0    0  502  503 -0.00000000000E+00 -0.00000000000E+00 -0.20959007311E+03  0.20959007311E+03  0.00000000000E+00 0.  1.
          2    1    1    2  501    0  0.22864571774E+02 -0.29916856040E+01 -0.35478734117E+02  0.42314056763E+02  0.00000000000E+00 0. -1.
         -2    1    1    2    0  503 -0.22864571774E+02  0.29916856040E+01 -0.16991488663E+03  0.17147246870E+03  0.00000000000E+00 0.  1.
</event>
<event>
 4    1  0.1800096E+004  0.2969301E+02  0.7546771E-02  0.1422283E+00
         21   -1    0    0  501  502  0.00000000000E+00  0.00000000000E+00  0.36616319840E+02  0.36616319840E+02  0.00000000000E+00 0. -1.
         21   -1    0    0  502  503 -0.00000000000E+00 -0.00000000000E+00 -0.41365317538E+02  0.41365317538E+02  0.00000000000E+00 0.  1.
          2    1    1    2  501    0  0.29523100570E+02 -0.31719802600E+01  0.22831194852E+02  0.37455819099E+02  0.00000000000E+00 0. -1.
         -2    1    1    2    0  503 -0.29523100570E+02  0.31719802600E+01 -0.27580192550E+02  0.40525818278E+02  0.00000000000E+00 0.  1.
</event>
<event>
 4    1  0.1800096E+004  0.2397166E+02  0.7546771E-02  0.1480645E+00
         21   -1    0    0  501  502  0.00000000000E+00  0.00000000000E+00  0.36338428412E+02  0.36338428412E+02  0.00000000000E+00 0.  1.
         21   -1    0    0  502  503 -0.00000000000E+00 -0.00000000000E+00 -0.16843736640E+02  0.16843736640E+02  0.00000000000E+00 0. -1.
          2    1    1    2  501    0  0.19436245731E+02  0.14031142040E+02  0.31712412007E+01  0.24180516243E+02  0.00000000000E+00 0. -1.
         -2    1    1    2    0  503 -0.19436245731E+02 -0.14031142040E+02  0.16323450571E+02  0.29001648808E+02  0.00000000000E+00 0.  1.
</event>
<event>
 4    1  0.1800096E+004  0.3500968E+02  0.7546771E-02  0.1380495E+00
         21   -1    0    0  503  502  0.00000000000E+00  0.00000000000E+00  0.11510511786E+03  0.11510511786E+03  0.00000000000E+00 0.  1.
         21   -1    0    0  501  503 -0.00000000000E+00 -0.00000000000E+00 -0.15451270242E+02  0.15451270242E+02  0.00000000000E+00 0. -1.
          2    1    1    2  501    0 -0.33657540773E+02  0.96357366522E+01  0.13432105724E+02  0.37497985758E+02  0.00000000000E+00 0. -1.
         -2    1    1    2    0  502  0.33657540773E+02 -0.96357366522E+01  0.86221741895E+02  0.93058402346E+02  0.00000000000E+00 0.  1.
</event>
<event>
 4    1  0.1800096E+004  0.2853932E+02  0.7546771E-02  0.1432729E+00
         21   -1    0    0  501  502  0.00000000000E+00  0.00000000000E+00  0.12817685266E+02  0.12817685266E+02  0.00000000000E+00 0. -1.
         21   -1    0    0  502  503 -0.00000000000E+00 -0.00000000000E+00 -0.18554583761E+03  0.18554583761E+03  0.00000000000E+00 0.  1.
          2    1    1    2  501    0  0.59561704063E+01 -0.27910874330E+02 -0.59395374717E+01  0.29150831500E+02  0.00000000000E+00 0. -1.
         -2    1    1    2    0  503 -0.59561704063E+01  0.27910874330E+02 -0.16678861488E+03  0.16921269138E+03  0.00000000000E+00 0.  1.
</event>
<event>
 4    1  0.1800096E+004  0.2724464E+02  0.7546771E-02  0.1445166E+00
         21   -1    0    0  503  502  0.00000000000E+00  0.00000000000E+00  0.11939304553E+02  0.11939304553E+02  0.00000000000E+00 0. -1.
         21   -1    0    0  501  503 -0.00000000000E+00 -0.00000000000E+00 -0.73084250996E+02  0.73084250996E+02  0.00000000000E+00 0.  1.
          2    1    1    2  501    0  0.71127337886E-01  0.27244542834E+02 -0.47000610396E+02  0.54326122179E+02  0.00000000000E+00 0.  1.
         -2    1    1    2    0  502 -0.71127337886E-01 -0.27244542834E+02 -0.14144336046E+02  0.30697433370E+02  0.00000000000E+00 0. -1.
</event>
<event>
 4    1  0.1800096E+004  0.2124253E+02  0.7546771E-02  0.1515830E+00
         21   -1    0    0  501  502  0.00000000000E+00  0.00000000000E+00  0.85991145948E+00  0.85991145948E+00  0.00000000000E+00 0. -1.
         21   -1    0    0  502  503 -0.00000000000E+00 -0.00000000000E+00 -0.73997003137E+03  0.73997003137E+03  0.00000000000E+00 0.  1.
          2    1    1    2  501    0  0.62913346757E+00  0.21233213572E+02 -0.16979206850E+03  0.17111572603E+03  0.00000000000E+00 0. -1.
         -2    1    1    2    0  503 -0.62913346757E+00 -0.21233213572E+02 -0.56931805141E+03  0.56971421680E+03  0.00000000000E+00 0.  1.
</event>
<event>
 4    1  0.1800096E+004  0.2356627E+02  0.7546771E-02  0.1485507E+00
         21   -1    0    0  501  502  0.00000000000E+00  0.00000000000E+00  0.42910743191E+03  0.42910743191E+03  0.00000000000E+00 0. -1.
         21   -1    0    0  502  503 -0.00000000000E+00 -0.00000000000E+00 -0.19484361989E+01  0.19484361989E+01  0.00000000000E+00 0.  1.
          2    1    1    2  501    0  0.14297628837E+02 -0.18733570390E+02  0.33846551752E+03  0.33928494720E+03  0.00000000000E+00 0. -1.
         -2    1    1    2    0  503 -0.14297628837E+02  0.18733570390E+02  0.88693478195E+02  0.91770920908E+02  0.00000000000E+00 0.  1.
</event>
<event>
 4    1  0.1800096E+004  0.2989744E+02  0.7546771E-02  0.1420490E+00
         21   -1    0    0  503  502  0.00000000000E+00  0.00000000000E+00  0.48352632783E+03  0.48352632783E+03  0.00000000000E+00 0.  1.
         21   -1    0    0  501  503 -0.00000000000E+00 -0.00000000000E+00 -0.32672540468E+01  0.32672540468E+01  0.00000000000E+00 0. -1.
          2    1    1    2  501    0 -0.22702271874E+02  0.19454145994E+02  0.79746502730E+02  0.85166669786E+02  0.00000000000E+00 0.  1.
         -2    1    1    2    0  502  0.22702271874E+02 -0.19454145994E+02  0.40051257105E+03  0.40162691209E+03  0.00000000000E+00 0. -1.
</event>
<event>
 4    1  0.1800096E+004  0.2632129E+02  0.7546771E-02  0.1454548E+00
         21   -1    0    0  503  502  0.00000000000E+00  0.00000000000E+00  0.69752570121E+02  0.69752570121E+02  0.00000000000E+00 0.  1.
         21   -1    0    0  501  503 -0.00000000000E+00 -0.00000000000E+00 -0.23640448375E+02  0.23640448375E+02  0.00000000000E+00 0. -1.
          2    1    1    2  501    0 -0.26228431379E+02  0.22089451038E+01 -0.12502523388E+02  0.29139717606E+02  0.00000000000E+00 0. -1.
         -2    1    1    2    0  502  0.26228431379E+02 -0.22089451038E+01  0.58614645134E+02  0.64253300891E+02  0.00000000000E+00 0.  1.
</event>
<event>
 4    1  0.1800096E+004  0.2238569E+02  0.7546771E-02  0.1500360E+00
         21   -1    0    0  501  502  0.00000000000E+00  0.00000000000E+00  0.41180301674E+01  0.41180301674E+01  0.00000000000E+00 0. -1.
         21   -1    0    0  502  503 -0.00000000000E+00 -0.00000000000E+00 -0.12314136224E+03  0.12314136224E+03  0.00000000000E+00 0.  1.
          2    1    1    2  501    0  0.22385232641E+02 -0.14250407411E+00 -0.52601376186E+02  0.57166631215E+02  0.00000000000E+00 0. -1.
         -2    1    1    2    0  503 -0.22385232641E+02  0.14250407411E+00 -0.66421955890E+02  0.70092761196E+02  0.00000000000E+00 0.  1.
</event>
<event>
 4    1  0.1800096E+004  0.2451707E+02  0.7546771E-02  0.1474279E+00
         21   -1    0    0  503  502  0.00000000000E+00  0.00000000000E+00  0.15622610063E+02  0.15622610063E+02  0.00000000000E+00 0.  1.
         21   -1    0    0  501  503 -0.00000000000E+00 -0.00000000000E+00 -0.81467469274E+02  0.81467469274E+02  0.00000000000E+00 0. -1.
          2    1    1    2  501    0  0.20244478335E+02  0.13829229108E+02 -0.68187667829E+02  0.72461331238E+02  0.00000000000E+00 0. -1.
         -2    1    1    2    0  502 -0.20244478335E+02 -0.13829229108E+02  0.23428086177E+01  0.24628748100E+02  0.00000000000E+00 0.  1.
</event>
<event>
 4    1  0.1800096E+004  0.2248579E+02  0.7546771E-02  0.1499058E+00
         21   -1    0    0  501  502  0.00000000000E+00  0.00000000000E+00  0.97579297685E+01  0.97579297685E+01  0.00000000000E+00 0. -1.
         21   -1    0    0  502  503 -0.00000000000E+00 -0.00000000000E+00 -0.63847097197E+02  0.63847097197E+02  0.00000000000E+00 0.  1.
          2    1    1    2  501    0  0.56404624696E+01 -0.21766856868E+02 -0.43020679050E+02  0.48542658567E+02  0.00000000000E+00 0.  1.
         -2    1    1    2    0  503 -0.56404624696E+01  0.21766856868E+02 -0.11068488379E+02  0.25062368399E+02  0.00000000000E+00 0. -1.
</event>
<event>
 4    1  0.1800096E+004  0.2985511E+02  0.7546771E-02  0.1420860E+00
         21   -1    0    0  501  502  0.00000000000E+00  0.00000000000E+00  0.66608257094E+01  0.66608257094E+01  0.00000000000E+00 0. -1.
         21   -1    0    0  502  503 -0.00000000000E+00 -0.00000000000E+00 -0.22755442804E+03  0.22755442804E+03  0.00000000000E+00 0.  1.
          2    1    1    2  501    0 -0.27732426308E+02  0.11056219415E+02 -0.35284419681E+02  0.46220317274E+02  0.00000000000E+00 0. -1.
         -2    1    1    2    0  503  0.27732426308E+02 -0.11056219415E+02 -0.18560918265E+03  0.18799493648E+03  0.00000000000E+00 0.  1.
</event>
<event>
 4    1  0.1800096E+004  0.4747365E+02  0.7546771E-02  0.1309514E+00
         21   -1    0    0  501  502  0.00000000000E+00  0.00000000000E+00  0.36420423398E+03  0.36420423398E+03  0.00000000000E+00 0.  1.
         21   -1    0    0  502  503 -0.00000000000E+00 -0.00000000000E+00 -0.48620244320E+02  0.48620244320E+02  0.00000000000E+00 0. -1.
          2    1    1    2  501    0 -0.40002384055E+02  0.25564754511E+02  0.35062179582E+03  0.35382112869E+03  0.00000000000E+00 0.  1.
         -2    1    1    2    0  503  0.40002384055E+02 -0.25564754511E+02 -0.35037806168E+02  0.59003349602E+02  0.00000000000E+00 0. -1.
</event>
<event>
 4    1  0.1800096E+004  0.3529348E+02  0.7546771E-02  0.1378512E+00
         21   -1    0    0  503  502  0.00000000000E+00  0.00000000000E+00  0.15652242680E+03  0.15652242680E+03  0.00000000000E+00 0.  1.
         21   -1    0    0  501  503 -0.00000000000E+00 -0.00000000000E+00 -0.20202663598E+02  0.20202663598E+02  0.00000000000E+00 0. -1.
          2    1    1    2  501    0  0.61540583955E+01 -0.34752798661E+02 -0.63159206394E+00  0.35299126874E+02  0.00000000000E+00 0. -1.
         -2    1    1    2    0  502 -0.61540583955E+01  0.34752798661E+02  0.13695135527E+03  0.14142596353E+03  0.00000000000E+00 0.  1.
</event>
<event>
 4    1  0.1800096E+004  0.3635527E+02  0.7546771E-02  0.1371278E+00
         21   -1    0    0  503  502  0.00000000000E+00  0.00000000000E+00  0.34992769900E+03  0.34992769900E+03  0.00000000000E+00 0.  1.
         21   -1    0    0  501  503 -0.00000000000E+00 -0.00000000000E+00 -0.42450237499E+01  0.42450237499E+01  0.00000000000E+00 0. -1.
          2    1    1    2  501    0 -0.17202139642E+02 -0.32027983716E+02  0.11404621509E+03  0.11970064547E+03  0.00000000000E+00 0.  1.
         -2    1    1    2    0  502  0.17202139642E+02  0.32027983716E+02  0.23163646016E+03  0.23447207728E+03  0.00000000000E+00 0. -1.
</event>
<event>
 4    1  0.1800096E+004  0.2178499E+02  0.7546771E-02  0.1508346E+00
         21   -1    0    0  501  502  0.00000000000E+00  0.00000000000E+00  0.96107191721E+01  0.96107191721E+01  0.00000000000E+00 0.  1.
         21   -1    0    0  502  503 -0.00000000000E+00 -0.00000000000E+00 -0.84663939882E+02  0.84663939882E+02  0.00000000000E+00 0. -1.
          2    1    1    2  501    0  0.14845335644E+02  0.15943706886E+02 -0.70968275727E+01  0.22911803535E+02  0.00000000000E+00 0.  1.
         -2    1    1    2    0  503 -0.14845335644E+02 -0.15943706886E+02 -0.67956393137E+02  0.71362855519E+02  0.00000000000E+00 0. -1.
</event>
<event>
 4    1  0.1800096E+004  0.2371321E+02  0.7546771E-02  0.1483731E+00
         21   -1    0    0  503  502  0.00000000000E+00  0.00000000000E+00  0.45692337693E+03  0.45692337693E+03  0.00000000000E+00 0.  1.
         21   -1    0    0  501  503 -0.00000000000E+00 -0.00000000000E+00 -0.22057317690E+01  0.22057317690E+01  0.00000000000E+00 0. -1.
          2    1    1    2  501    0  0.20789147611E+02 -0.11407355082E+02  0.74726251437E+02  0.78398527169E+02  0.00000000000E+00 0. -1.
         -2    1    1    2    0  502 -0.20789147611E+02  0.11407355082E+02  0.37999139372E+03  0.38073058153E+03  0.00000000000E+00 0.  1.
</event>
<event>
 4    1  0.1800096E+004  0.2237841E+02  0.7546771E-02  0.1500455E+00
         21   -1    0    0  501  502  0.00000000000E+00  0.00000000000E+00  0.31453485844E+02  0.31453485844E+02  0.00000000000E+00 0.  1.
         21   -1    0    0  502  503 -0.00000000000E+00 -0.00000000000E+00 -0.24015776384E+02  0.24015776384E+02  0.00000000000E+00 0. -1.
          2    1    1    2  501    0  0.17317582786E+02 -0.14173720369E+02  0.19820033757E+02  0.29893590630E+02  0.00000000000E+00 0.  1.
         -2    1    1    2    0  503 -0.17317582786E+02  0.14173720369E+02 -0.12382324297E+02  0.25575671597E+02  0.00000000000E+00 0. -1.
</event>
<event>
 4    1  0.1800096E+004  0.2094737E+02  0.7546771E-02  0.1520018E+00
         21   -1    0    0  503  502  0.00000000000E+00  0.00000000000E+00  0.51071773947E+02  0.51071773947E+02  0.00000000000E+00 0.  1.
         21   -1    0    0  501  503 -0.00000000000E+00 -0.00000000000E+00 -0.36095731197E+02  0.36095731197E+02  0.00000000000E+00 0. -1.
          2    1    1    2  501    0 -0.11423667718E+02 -0.17558246342E+02 -0.30556756604E+02  0.37047369312E+02  0.00000000000E+00 0. -1.
         -2    1    1    2    0  502  0.11423667718E+02  0.17558246342E+02  0.45532799354E+02  0.50120135832E+02  0.00000000000E+00 0.  1.
</event>
<event>
 4    1  0.1800096E+004  0.2036872E+02  0.7546771E-02  0.1528472E+00
         21   -1    0    0  503  502  0.00000000000E+00  0.00000000000E+00  0.79332047572E+03  0.79332047572E+03  0.00000000000E+00 0. -1.
         21   -1    0    0  501  503 -0.00000000000E+00 -0.00000000000E+00 -0.52600453684E+00  0.52600453684E+00  0.00000000000E+00 0.  1.
          2    1    1    2  501    0 -0.11868936042E+02 -0.16553344312E+02  0.42653241390E+03  0.42701848315E+03  0.00000000000E+00 0.  1.
         -2    1    1    2    0  502  0.11868936042E+02  0.16553344312E+02  0.36626205728E+03  0.36682799710E+03  0.00000000000E+00 0. -1.
</event>
<event>
 4    1  0.1800096E+004  0.2710022E+02  0.7546771E-02  0.1446604E+00
         21   -1    0    0  501  502  0.00000000000E+00  0.00000000000E+00  0.76055182624E+01  0.76055182624E+01  0.00000000000E+00 0.  1.
         21   -1    0    0  502  503 -0.00000000000E+00 -0.00000000000E+00 -0.17671688968E+03  0.17671688968E+03  0.00000000000E+00 0. -1.
          2    1    1    2  501    0  0.56967708129E+00 -0.27094228043E+02 -0.22487675055E+02  0.35215298587E+02  0.00000000000E+00 0.  1.
         -2    1    1    2    0  503 -0.56967708129E+00  0.27094228043E+02 -0.14662369637E+03  0.14910710936E+03  0.00000000000E+00 0. -1.
</event>
<event>
 4    1  0.1800096E+004  0.2528963E+02  0.7546771E-02  0.1465589E+00
         21   -1    0    0  503  502  0.00000000000E+00  0.00000000000E+00  0.10536912397E+03  0.10536912397E+03  0.00000000000E+00 0. -1.
         21   -1    0    0  501  503 -0.00000000000E+00 -0.00000000000E+00 -0.32463468747E+02  0.32463468747E+02  0.00000000000E+00 0.  1.
          2    1    1    2  501    0 -0.23895682035E+02  0.82801929060E+01 -0.25687664000E+02  0.36047486684E+02  0.00000000000E+00 0.  1.
         -2    1    1    2    0  502  0.23895682035E+02 -0.82801929060E+01  0.98593319225E+02  0.10178510603E+03  0.00000000000E+00 0. -1.
</event>
<event>
 4    1  0.1800096E+004  0.2880306E+02  0.7546771E-02  0.1430291E+00
         21   -1    0    0  501  502  0.00000000000E+00  0.00000000000E+00  0.35576285702E+02  0.35576285702E+02  0.00000000000E+00 0. -1.
         21   -1    0    0  502  503 -0.00000000000E+00 -0.00000000000E+00 -0.37281993423E+02  0.37281993423E+02  0.00000000000E+00 0.  1.
          2    1    1    2  501    0 -0.28788033247E+02  0.93025297962E+00  0.21440890267E+02  0.35907213820E+02  0.00000000000E+00 0. -1.
         -2    1    1    2    0  503  0.28788033247E+02 -0.93025297962E+00 -0.23146597988E+02  0.36951065306E+02  0.00000000000E+00 0.  1.
</event>
<event>
 4    1  0.1800096E+004  0.2675168E+02  0.7546771E-02  0.1450119E+00
         21   -1    0    0  501  502  0.00000000000E+00  0.00000000000E+00  0.10340480648E+04  0.10340480648E+04  0.00000000000E+00 0.  1.
         21   -1    0    0  502  503 -0.00000000000E+00 -0.00000000000E+00 -0.11544972990E+01  0.11544972990E+01  0.00000000000E+00 0. -1.
          2    1    1    2  501    0 -0.19258773440E+02 -0.18567496353E+02  0.84402284243E+03  0.84444668915E+03  0.00000000000E+00 0.  1.
         -2    1    1    2    0  503  0.19258773440E+02  0.18567496353E+02  0.18887072509E+03  0.19075587296E+03  0.00000000000E+00 0. -1.
</event>
<event>
 4    1  0.1800096E+004  0.2581585E+02  0.7546771E-02  0.1459880E+00
         21   -1    0    0  503  502  0.00000000000E+00  0.00000000000E+00  0.70413569009E+01  0.70413569009E+01  0.00000000000E+00 0. -1.
         21   -1    0    0  501  503 -0.00000000000E+00 -0.00000000000E+00 -0.12618062804E+03  0.12618062804E+03  0.00000000000E+00 0.  1.
          2    1    1    2  501    0  0.16006295101E+02 -0.20254788848E+02 -0.92867946720E+02  0.96389384696E+02  0.00000000000E+00 0.  1.
         -2    1    1    2    0  502 -0.16006295101E+02  0.20254788848E+02 -0.26271324424E+02  0.36832600249E+02  0.00000000000E+00 0. -1.
</event>
<event>
 4    1  0.1800096E+004  0.2476376E+02  0.7546771E-02  0.1471464E+00
         21   -1    0    0  503  502  0.00000000000E+00  0.00000000000E+00  0.34281467852E+01  0.34281467852E+01  0.00000000000E+00 0. -1.
         21   -1    0    0  501  503 -0.00000000000E+00 -0.00000000000E+00 -0.27717689694E+03  0.27717689694E+03  0.00000000000E+00 0.  1.
          2    1    1    2  501    0 -0.24002302216E+02  0.60937047620E+01 -0.22042428907E+03  0.22181098026E+03  0.00000000000E+00 0.  1.
         -2    1    1    2    0  502  0.24002302216E+02 -0.60937047620E+01 -0.53324461081E+02  0.58794063467E+02  0.00000000000E+00 0. -1.
</event>
<event>
 4    1  0.1800096E+004  0.2697675E+02  0.7546771E-02  0.1447842E+00
         21   -1    0    0  503  502  0.00000000000E+00  0.00000000000E+00  0.17580967658E+01  0.17580967658E+01  0.00000000000E+00 0.  1.
         21   -1    0    0  501  503 -0.00000000000E+00 -0.00000000000E+00 -0.55978614136E+03  0.55978614136E+03  0.00000000000E+00 0. -1.
          2    1    1    2  501    0  0.60715974426E+00  0.26969918067E+02 -0.42232900966E+03  0.42318971812E+03  0.00000000000E+00 0. -1.
         -2    1    1    2    0  502 -0.60715974426E+00 -0.26969918067E+02 -0.13569903494E+03  0.13835452001E+03  0.00000000000E+00 0.  1.
</event>
<event>
 4    1  0.1800096E+004  0.2460534E+02  0.7546771E-02  0.1473267E+00
         21   -1    0    0  501  502  0.00000000000E+00  0.00000000000E+00  0.39911605967E+01  0.39911605967E+01  0.00000000000E+00 0. -1.
         21   -1    0    0  502  503 -0.00000000000E+00 -0.00000000000E+00 -0.29854850418E+03  0.29854850418E+03  0.00000000000E+00 0.  1.
          2    1    1    2  501    0  0.37983129713E+01 -0.24310401888E+02 -0.41184123942E+02  0.47974523304E+02  0.00000000000E+00 0. -1.
         -2    1    1    2    0  503 -0.37983129713E+01  0.24310401888E+02 -0.25337321964E+03  0.25456514147E+03  0.00000000000E+00 0.  1.
</event>
<event>
 4    1  0.1800096E+004  0.2061688E+02  0.7546771E-02  0.1524806E+00
         21   -1    0    0  503  502  0.00000000000E+00  0.00000000000E+00  0.11598935237E+04  0.11598935237E+04  0.00000000000E+00 0.  1.
         21   -1    0    0  501  503 -0.00000000000E+00 -0.00000000000E+00 -0.52997170418E+00  0.52997170418E+00  0.00000000000E+00 0. -1.
          2    1    1    2  501    0  0.24393238117E+00 -0.20615432696E+02  0.25740169194E+03  0.25822603777E+03  0.00000000000E+00 0. -1.
         -2    1    1    2    0  502 -0.24393238117E+00  0.20615432696E+02  0.90196186006E+03  0.90219745764E+03  0.00000000000E+00 0.  1.
</event>
<event>
 4    1  0.1800096E+004  0.2334141E+02  0.7546771E-02  0.1488255E+00
         21   -1    0    0  503  502  0.00000000000E+00  0.00000000000E+00  0.11027036813E+02  0.11027036813E+02  0.00000000000E+00 0. -1.
         21   -1    0    0  501  503 -0.00000000000E+00 -0.00000000000E+00 -0.57653810709E+02  0.57653810709E+02  0.00000000000E+00 0.  1.
          2    1    1    2  501    0 -0.22430111303E+02  0.64584290687E+01 -0.36300559659E+02  0.43157291744E+02  0.00000000000E+00 0.  1.
         -2    1    1    2    0  502  0.22430111303E+02 -0.64584290687E+01 -0.10326214238E+02  0.25523555778E+02  0.00000000000E+00 0. -1.
</event>
<event>
 4    1  0.1800096E+004  0.2264740E+02  0.7546771E-02  0.1496974E+00
         21   -1    0    0  503  502  0.00000000000E+00  0.00000000000E+00  0.24327479276E+03  0.24327479276E+03  0.00000000000E+00 0. -1.
         21   -1    0    0  501  503 -0.00000000000E+00 -0.00000000000E+00 -0.80237721249E+01  0.80237721249E+01  0.00000000000E+00 0.  1.
          2    1    1    2  501    0 -0.16977971272E+02  0.14988441036E+02  0.97397506631E+01  0.24652943357E+02  0.00000000000E+00 0.  1.
         -2    1    1    2    0  502  0.16977971272E+02 -0.14988441036E+02  0.22551126997E+03  0.22664562153E+03  0.00000000000E+00 0. -1.
</event>
<event>
 4    1  0.1800096E+004  0.2038666E+02  0.7546771E-02  0.1528205E+00
         21   -1    0    0  503  502  0.00000000000E+00  0.00000000000E+00  0.54060670727E+02  0.54060670727E+02  0.00000000000E+00 0.  1.
         21   -1    0    0  501  503 -0.00000000000E+00 -0.00000000000E+00 -0.13634249449E+02  0.13634249449E+02  0.00000000000E+00 0. -1.
          2    1    1    2  501    0  0.17606817575E+02 -0.10276965403E+02 -0.21396775645E+01  0.20498640518E+02  0.00000000000E+00 0. -1.
         -2    1    1    2    0  502 -0.17606817575E+02  0.10276965403E+02  0.42566098842E+02  0.47196279659E+02  0.00000000000E+00 0.  1.
</event>
<event>
 4    1  0.1800096E+004  0.2894187E+02  0.7546771E-02  0.1429020E+00
         21   -1    0    0  503  502  0.00000000000E+00  0.00000000000E+00  0.41644283611E+01  0.41644283611E+01  0.00000000000E+00 0. -1.
         21   -1    0    0  501  503 -0.00000000000E+00 -0.00000000000E+00 -0.20122666726E+03  0.20122666726E+03  0.00000000000E+00 0.  1.
          2    1    1    2  501    0  0.26947732419E+02  0.10557064034E+02 -0.96396210617E+02  0.10064721211E+03  0.00000000000E+00 0.  1.
         -2    1    1    2    0  502 -0.26947732419E+02 -0.10557064034E+02 -0.10066602828E+03  0.10474388351E+03  0.00000000000E+00 0. -1.
</event>
<event>
 4    1  0.1800096E+004  0.2908766E+02  0.7546771E-02  0.1427694E+00
         21   -1    0    0  501  502  0.00000000000E+00  0.00000000000E+00  0.18585549765E+02  0.18585549765E+02  0.00000000000E+00 0. -1.
         21   -1    0    0  502  503 -0.00000000000E+00 -0.00000000000E+00 -0.73645039697E+02  0.73645039697E+02  0.00000000000E+00 0.  1.
          2    1    1    2  501    0  0.18267523444E+02 -0.22636017579E+02  0.96649909201E+00  0.29103708099E+02  0.00000000000E+00 0. -1.
         -2    1    1    2    0  503 -0.18267523444E+02  0.22636017579E+02 -0.56025989024E+02  0.63126881364E+02  0.00000000000E+00 0.  1.
</event>
<event>
 4    1  0.1800096E+004  0.2325564E+02  0.7546771E-02  0.1489313E+00
         21   -1    0    0  501  502  0.00000000000E+00  0.00000000000E+00  0.36683673167E+02  0.36683673167E+02  0.00000000000E+00 0. -1.
         21   -1    0    0  502  503 -0.00000000000E+00 -0.00000000000E+00 -0.14854279058E+02  0.14854279058E+02  0.00000000000E+00 0.  1.
          2    1    1    2  501    0 -0.79282081451E+00  0.23242119668E+02  0.86835829625E+01  0.24823966334E+02  0.00000000000E+00 0. -1.
         -2    1    1    2    0  503  0.79282081451E+00 -0.23242119668E+02  0.13145811146E+02  0.26713985891E+02  0.00000000000E+00 0.  1.
</event>
<event>
 4    1  0.1800096E+004  0.5258663E+02  0.7546771E-02  0.1287331E+00
         21   -1    0    0  501  502  0.00000000000E+00  0.00000000000E+00  0.20263718144E+01  0.20263718144E+01  0.00000000000E+00 0.  1.
         21   -1    0    0  502  503 -0.00000000000E+00 -0.00000000000E+00 -0.24230041344E+04  0.24230041344E+04  0.00000000000E+00 0. -1.
          2    1    1    2  501    0  0.21141398335E+02  0.48149710412E+02 -0.40914476446E+03  0.41251035335E+03  0.00000000000E+00 0.  1.
         -2    1    1    2    0  503 -0.21141398335E+02 -0.48149710412E+02 -0.20118329981E+04  0.20125201529E+04  0.00000000000E+00 0. -1.
</event>
<event>
 4    1  0.1800096E+004  0.4604544E+02  0.7546771E-02  0.1316293E+00
         21   -1    0    0  503  502  0.00000000000E+00  0.00000000000E+00  0.18038455509E+03  0.18038455509E+03  0.00000000000E+00 0. -1.
         21   -1    0    0  501  503 -0.00000000000E+00 -0.00000000000E+00 -0.17513398925E+02  0.17513398925E+02  0.00000000000E+00 0.  1.
          2    1    1    2  501    0 -0.45759730640E+02 -0.51214394366E+01  0.24690684577E+02  0.52247602769E+02  0.00000000000E+00 0.  1.
         -2    1    1    2    0  502  0.45759730640E+02  0.51214394366E+01  0.13818047159E+03  0.14565035125E+03  0.00000000000E+00 0. -1.
</event>
<event>
 4    1  0.1800096E+004  0.2104249E+02  0.7546771E-02  0.1518659E+00
         21   -1    0    0  503  502  0.00000000000E+00  0.00000000000E+00  0.12727432382E+01  0.12727432382E+01  0.00000000000E+00 0. -1.
         21   -1    0    0  501  503 -0.00000000000E+00 -0.00000000000E+00 -0.34932521168E+03  0.34932521168E+03  0.00000000000E+00 0.  1.
          2    1    1    2  501    0 -0.97641432641E+01  0.18639948749E+02 -0.16282550087E+03  0.16417956607E+03  0.00000000000E+00 0. -1.
         -2    1    1    2    0  502  0.97641432641E+01 -0.18639948749E+02 -0.18522696758E+03  0.18641838885E+03  0.00000000000E+00 0.  1.
</event>
<event>
 4    1  0.1800096E+004  0.3263749E+02  0.7546771E-02  0.1397979E+00
         21   -1    0    0  501  502  0.00000000000E+00  0.00000000000E+00  0.17461727974E+03  0.17461727974E+03  0.00000000000E+00 0.  1.
         21   -1    0    0  502  503 -0.00000000000E+00 -0.00000000000E+00 -0.16190580984E+02  0.16190580984E+02  0.00000000000E+00 0. -1.
          2    1    1    2  501    0 -0.64932330224E+01  0.31985055520E+02  0.15452950632E+03  0.15793851390E+03  0.00000000000E+00 0.  1.
         -2    1    1    2    0  503  0.64932330224E+01 -0.31985055520E+02  0.38971924424E+01  0.32869346824E+02  0.00000000000E+00 0. -1.
</event>
<event>
 4    1  0.1800096E+004  0.4289772E+02  0.7546771E-02  0.1332294E+00
         21   -1    0    0  501  502  0.00000000000E+00  0.00000000000E+00  0.57269041339E+02  0.57269041339E+02  0.00000000000E+00 0. -1.
         21   -1    0    0  502  503 -0.00000000000E+00 -0.00000000000E+00 -0.32513659262E+02  0.32513659262E+02  0.00000000000E+00 0.  1.
          2    1    1    2  501    0 -0.13426770913E+02 -0.40742313359E+02  0.17236342590E+02  0.46231004541E+02  0.00000000000E+00 0. -1.
         -2    1    1    2    0  503  0.13426770913E+02  0.40742313359E+02  0.75190394873E+01  0.43551696061E+02  0.00000000000E+00 0.  1.
</event>
<event>
 4    1  0.1800096E+004  0.2018786E+02  0.7546771E-02  0.1531183E+00
         21   -1    0    0  503  502  0.00000000000E+00  0.00000000000E+00  0.47821979501E+03  0.47821979501E+03  0.00000000000E+00 0.  1.
         21   -1    0    0  501  503 -0.00000000000E+00 -0.00000000000E+00 -0.51461353492E+01  0.51461353492E+01  0.00000000000E+00 0. -1.
          2    1    1    2  501    0 -0.11442930830E+02  0.16631565271E+02  0.15770897674E+02  0.25617783722E+02  0.00000000000E+00 0. -1.
         -2    1    1    2    0  502  0.11442930830E+02 -0.16631565271E+02  0.45730276198E+03  0.45774814663E+03  0.00000000000E+00 0.  1.
</event>
<event>
 4    1  0.1800096E+004  0.3131448E+02  0.7546771E-02  0.1408507E+00
         21   -1    0    0  501  502  0.00000000000E+00  0.00000000000E+00  0.96483612262E+02  0.96483612262E+02  0.00000000000E+00 0. -1.
         21   -1    0    0  502  503 -0.00000000000E+00 -0.00000000000E+00 -0.14069749878E+02  0.14069749878E+02  0.00000000000E+00 0.  1.
          2    1    1    2  501    0  0.20553197452E+02 -0.23625468713E+02  0.70333352887E+02  0.76989461784E+02  0.00000000000E+00 0. -1.
         -2    1    1    2    0  503 -0.20553197452E+02  0.23625468713E+02  0.12080509497E+02  0.33563900356E+02  0.00000000000E+00 0.  1.
</event>
<event>
 4    1  0.1800096E+004  0.2326608E+02  0.7546771E-02  0.1489184E+00
         21   -1    0    0  501  502  0.00000000000E+00  0.00000000000E+00  0.53992460717E+01  0.53992460717E+01  0.00000000000E+00 0.  1.
         21   -1    0    0  502  503 -0.00000000000E+00 -0.00000000000E+00 -0.15297260974E+03  0.15297260974E+03  0.00000000000E+00 0. -1.
          2    1    1    2  501    0  0.98136116430E+00  0.23245372474E+02 -0.27301753657E+02  0.35870547305E+02  0.00000000000E+00 0.  1.
         -2    1    1    2    0  503 -0.98136116430E+00 -0.23245372474E+02 -0.12027161001E+03  0.12250130850E+03  0.00000000000E+00 0. -1.
</event>
<event>
 4    1  0.1800096E+004  0.2081975E+02  0.7546771E-02  0.1521854E+00
         21   -1    0    0  501  502  0.00000000000E+00  0.00000000000E+00  0.12111638034E+02  0.12111638034E+02  0.00000000000E+00 0.  1.
         21   -1    0    0  502  503 -0.00000000000E+00 -0.00000000000E+00 -0.60852017563E+02  0.60852017563E+02  0.00000000000E+00 0. -1.
          2    1    1    2  501    0 -0.18746197079E+02  0.90577188287E+01 -0.95721143565E+00  0.20841747264E+02  0.00000000000E+00 0.  1.
         -2    1    1    2    0  503  0.18746197079E+02 -0.90577188287E+01 -0.47783168093E+02  0.52121908333E+02  0.00000000000E+00 0. -1.
</event>
<event>
 4    1  0.1800096E+004  0.2015117E+02  0.7546771E-02  0.1531737E+00
         21   -1    0    0  501  502  0.00000000000E+00  0.00000000000E+00  0.11187758906E+02  0.11187758906E+02  0.00000000000E+00 0. -1.
         21   -1    0    0  502  503 -0.00000000000E+00 -0.00000000000E+00 -0.47847783524E+02  0.47847783524E+02  0.00000000000E+00 0.  1.
          2    1    1    2  501    0 -0.63263740627E+01  0.19132344810E+02 -0.38262956895E+01  0.20511220476E+02  0.00000000000E+00 0. -1.
         -2    1    1    2    0  503  0.63263740627E+01 -0.19132344810E+02 -0.32833728928E+02  0.38524321955E+02  0.00000000000E+00 0.  1.
</event>
<event>
 4    1  0.1800096E+004  0.4522258E+02  0.7546771E-02  0.1320330E+00
         21   -1    0    0  501  502  0.00000000000E+00  0.00000000000E+00  0.22402564967E+02  0.22402564967E+02  0.00000000000E+00 0. -1.
         21   -1    0    0  502  503 -0.00000000000E+00 -0.00000000000E+00 -0.10194692540E+03  0.10194692540E+03  0.00000000000E+00 0.  1.
          2    1    1    2  501    0 -0.32944287094E+02 -0.30979921955E+02 -0.19667968232E+02  0.49314405510E+02  0.00000000000E+00 0. -1.
         -2    1    1    2    0  503  0.32944287094E+02  0.30979921955E+02 -0.59876392197E+02  0.75035084853E+02  0.00000000000E+00 0.  1.
</event>
<event>
 4    1  0.1800096E+004  0.2264020E+02  0.7546771E-02  0.1497066E+00
         21   -1    0    0  501  502  0.00000000000E+00  0.00000000000E+00  0.76859878868E+01  0.76859878868E+01  0.00000000000E+00 0.  1.
         21   -1    0    0  502  503 -0.00000000000E+00 -0.00000000000E+00 -0.66761153130E+02  0.66761153130E+02  0.00000000000E+00 0. -1.
          2    1    1    2  501    0 -0.14876301088E+02 -0.17066766527E+02 -0.28322724964E+02  0.36259558783E+02  0.00000000000E+00 0. -1.
         -2    1    1    2    0  503  0.14876301088E+02  0.17066766527E+02 -0.30752440279E+02  0.38187582234E+02  0.00000000000E+00 0.  1.
</event>
<event>
 4    1  0.1800096E+004  0.2180927E+02  0.7546771E-02  0.1508017E+00
         21   -1    0    0  503  502  0.00000000000E+00  0.00000000000E+00  0.12381362139E+03  0.12381362139E+03  0.00000000000E+00 0. -1.
         21   -1    0    0  501  503 -0.00000000000E+00 -0.00000000000E+00 -0.22156731266E+02  0.22156731266E+02  0.00000000000E+00 0.  1.
          2    1    1    2  501    0 -0.18653835994E+02  0.11299505873E+02 -0.15528539243E+02  0.26772746614E+02  0.00000000000E+00 0.  1.
         -2    1    1    2    0  502  0.18653835994E+02 -0.11299505873E+02  0.11718542937E+03  0.11919760604E+03  0.00000000000E+00 0. -1.
</event>
<event>
 4    1  0.1800096E+004  0.3320098E+02  0.7546771E-02  0.1393672E+00
         21   -1    0    0  503  502  0.00000000000E+00  0.00000000000E+00  0.78558651855E+02  0.78558651855E+02  0.00000000000E+00 0.  1.
         21   -1    0    0  501  503 -0.00000000000E+00 -0.00000000000E+00 -0.17525304878E+02  0.17525304878E+02  0.00000000000E+00 0. -1.
          2    1    1    2  501    0  0.24628588682E+02 -0.22265169342E+02  0.90665418999E+01  0.34416672244E+02  0.00000000000E+00 0. -1.
         -2    1    1    2    0  502 -0.24628588682E+02  0.22265169342E+02  0.51966805078E+02  0.61667284489E+02  0.00000000000E+00 0.  1.
</event>
<event>
 4    1  0.1800096E+004  0.2048605E+02  0.7546771E-02  0.1526731E+00
         21   -1    0    0  501  502  0.00000000000E+00  0.00000000000E+00  0.18340677139E+02  0.18340677139E+02  0.00000000000E+00 0. -1.
         21   -1    0    0  502  503 -0.00000000000E+00 -0.00000000000E+00 -0.23656823052E+02  0.23656823052E+02  0.00000000000E+00 0.  1.
          2    1    1    2  501    0  0.18229914794E+02 -0.93460321550E+01  0.11413141548E+01  0.20517814416E+02  0.00000000000E+00 0. -1.
         -2    1    1    2    0  503 -0.18229914794E+02  0.93460321550E+01 -0.64574600686E+01  0.21479685774E+02  0.00000000000E+00 0.  1.
</event>
<event>
 4    1  0.1800096E+004  0.2680904E+02  0.7546771E-02  0.1449536E+00
         21   -1    0    0  501  502  0.00000000000E+00  0.00000000000E+00  0.28596111576E+02  0.28596111576E+02  0.00000000000E+00 0.  1.
         21   -1    0    0  502  503 -0.00000000000E+00 -0.00000000000E+00 -0.58670325741E+02  0.58670325741E+02  0.00000000000E+00 0. -1.
          2    1    1    2  501    0  0.13008495703E+02 -0.23441498694E+02  0.17951803214E+02  0.32264408566E+02  0.00000000000E+00 0.  1.
         -2    1    1    2    0  503 -0.13008495703E+02  0.23441498694E+02 -0.48026017378E+02  0.55002028751E+02  0.00000000000E+00 0. -1.
</event>
<event>
 4    1  0.1800096E+004  0.2004352E+02  0.7546771E-02  0.1533371E+00
         21   -1    0    0  501  502  0.00000000000E+00  0.00000000000E+00  0.74517954310E+01  0.74517954310E+01  0.00000000000E+00 0. -1.
         21   -1    0    0  502  503 -0.00000000000E+00 -0.00000000000E+00 -0.72805455641E+02  0.72805455641E+02  0.00000000000E+00 0.  1.
          2    1    1    2  501    0 -0.59268836896E+00  0.20034751855E+02 -0.12234710979E+02  0.23482561915E+02  0.00000000000E+00 0. -1.
         -2    1    1    2    0  503  0.59268836896E+00 -0.20034751855E+02 -0.53118949231E+02  0.56774689156E+02  0.00000000000E+00 0.  1.
</event>
<event>
 4    1  0.1800096E+004  0.2539704E+02  0.7546771E-02  0.1464410E+00
         21   -1    0    0  501  502  0.00000000000E+00  0.00000000000E+00  0.34208608114E+03  0.34208608114E+03  0.00000000000E+00 0.  1.
         21   -1    0    0  502  503 -0.00000000000E+00 -0.00000000000E+00 -0.21744382549E+01  0.21744382549E+01  0.00000000000E+00 0. -1.
          2    1    1    2  501    0 -0.17323125017E+02 -0.18571996419E+02  0.23269981164E+03  0.23408163543E+03  0.00000000000E+00 0.  1.
         -2    1    1    2    0  503  0.17323125017E+02  0.18571996419E+02  0.10721183125E+03  0.11017888396E+03  0.00000000000E+00 0. -1.
</event>
<event>
 4    1  0.1800096E+004  0.3396683E+02  0.7546771E-02  0.1387976E+00
         21   -1    0    0  501  502  0.00000000000E+00  0.00000000000E+00  0.27004629670E+02  0.27004629670E+02  0.00000000000E+00 0.  1.
         21   -1    0    0  502  503 -0.00000000000E+00 -0.00000000000E+00 -0.55942961683E+02  0.55942961683E+02  0.00000000000E+00 0. -1.
          2    1    1    2  501    0  0.33470158221E+02  0.57874017843E+01  0.56912691991E+01  0.34440326013E+02  0.00000000000E+00 0.  1.
         -2    1    1    2    0  503 -0.33470158221E+02 -0.57874017843E+01 -0.34629601212E+02  0.48507265341E+02  0.00000000000E+00 0. -1.
</event>
<event>
 4    1  0.1800096E+004  0.2094888E+02  0.7546771E-02  0.1519996E+00
         21   -1    0    0  503  502  0.00000000000E+00  0.00000000000E+00  0.68026563636E+02  0.68026563636E+02  0.00000000000E+00 0.  1.
         21   -1    0    0  501  503 -0.00000000000E+00 -0.00000000000E+00 -0.92611981945E+01  0.92611981945E+01  0.00000000000E+00 0. -1.
          2    1    1    2  501    0 -0.15238225070E+02  0.14375396911E+02  0.50668838896E+02  0.54828703931E+02  0.00000000000E+00 0.  1.
         -2    1    1    2    0  502  0.15238225070E+02 -0.14375396911E+02  0.80965265453E+01  0.22459057900E+02  0.00000000000E+00 0. -1.
</event>
<event>
 4    1  0.1800096E+004  0.2478216E+02  0.7546771E-02  0.1471255E+00
         21   -1    0    0  501  502  0.00000000000E+00  0.00000000000E+00  0.68364276026E+01  0.68364276026E+01  0.00000000000E+00 0. -1.
         21   -1    0    0  502  503 -0.00000000000E+00 -0.00000000000E+00 -0.16588342763E+03  0.16588342763E+03  0.00000000000E+00 0.  1.
          2    1    1    2  501    0  0.73134452881E+01  0.23678453101E+02 -0.21050720571E+02  0.32515972380E+02  0.00000000000E+00 0. -1.
         -2    1    1    2    0  503 -0.73134452881E+01 -0.23678453101E+02 -0.13799627945E+03  0.14020388285E+03  0.00000000000E+00 0.  1.
</event>
<event>
 4    1  0.1800096E+004  0.2021990E+02  0.7546771E-02  0.1530700E+00
         21   -1    0    0  503  502  0.00000000000E+00  0.00000000000E+00  0.86177909576E+00  0.86177909576E+00  0.00000000000E+00 0.  1.
         21   -1    0    0  501  503 -0.00000000000E+00 -0.00000000000E+00 -0.52262378585E+03  0.52262378585E+03  0.00000000000E+00 0. -1.
          2    1    1    2  501    0 -0.98335919465E+01  0.17667622118E+02 -0.34037330599E+03  0.34097335942E+03  0.00000000000E+00 0. -1.
         -2    1    1    2    0  502  0.98335919465E+01 -0.17667622118E+02 -0.18138870077E+03  0.18251220553E+03  0.00000000000E+00 0.  1.
</event>
<event>
 4    1  0.1800096E+004  0.2040237E+02  0.7546771E-02  0.1527971E+00
         21   -1    0    0  501  502  0.00000000000E+00  0.00000000000E+00  0.17448901734E+02  0.17448901734E+02  0.00000000000E+00 0. -1.
         21   -1    0    0  502  503 -0.00000000000E+00 -0.00000000000E+00 -0.34794267685E+02  0.34794267685E+02  0.00000000000E+00 0.  1.
          2    1    1    2  501    0 -0.44281560491E+01  0.19916028031E+02  0.59735113543E+01  0.21258870535E+02  0.00000000000E+00 0. -1.
         -2    1    1    2    0  503  0.44281560491E+01 -0.19916028031E+02 -0.23318877306E+02  0.30984298884E+02  0.00000000000E+00 0.  1.
</event>
<event>
 4    1  0.1800096E+004  0.2388364E+02  0.7546771E-02  0.1481691E+00
         21   -1    0    0  503  502  0.00000000000E+00  0.00000000000E+00  0.38948244372E+03  0.38948244372E+03  0.00000000000E+00 0. -1.
         21   -1    0    0  501  503 -0.00000000000E+00 -0.00000000000E+00 -0.41874906982E+01  0.41874906982E+01  0.00000000000E+00 0.  1.
          2    1    1    2  501    0 -0.22347117415E+02 -0.84282154048E+01  0.33923707520E+02  0.41487906715E+02  0.00000000000E+00 0.  1.
         -2    1    1    2    0  502  0.22347117415E+02  0.84282154048E+01  0.35137124550E+03  0.35218202770E+03  0.00000000000E+00 0. -1.
</event>
<event>
 4    1  0.1800096E+004  0.2947623E+02  0.7546771E-02  0.1424203E+00
         21   -1    0    0  501  502  0.00000000000E+00  0.00000000000E+00  0.22529977019E+02  0.22529977019E+02  0.00000000000E+00 0.  1.
         21   -1    0    0  502  503 -0.00000000000E+00 -0.00000000000E+00 -0.38573626438E+02  0.38573626438E+02  0.00000000000E+00 0. -1.
          2    1    1    2  501    0  0.29466680724E+02 -0.75017344405E+00 -0.75414132731E+01  0.30425662643E+02  0.00000000000E+00 0.  1.
         -2    1    1    2    0  503 -0.29466680724E+02  0.75017344405E+00 -0.85022361454E+01  0.30677940814E+02  0.00000000000E+00 0. -1.
</event>
<event>
 4    1  0.1800096E+004  0.2177045E+02  0.7546771E-02  0.1508543E+00
         21   -1    0    0  503  502  0.00000000000E+00  0.00000000000E+00  0.94816872587E+01  0.94816872587E+01  0.00000000000E+00 0. -1.
         21   -1    0    0  501  503 -0.00000000000E+00 -0.00000000000E+00 -0.13403469332E+03  0.13403469332E+03  0.00000000000E+00 0.  1.
          2    1    1    2  501    0  0.15892244721E+02  0.14879153110E+02 -0.11910001476E+03  0.12107339161E+03  0.00000000000E+00 0.  1.
         -2    1    1    2    0  502 -0.15892244721E+02 -0.14879153110E+02 -0.54529912933E+01  0.22442988963E+02  0.00000000000E+00 0. -1.
</event>
<event>
 4    1  0.1800096E+004  0.2003822E+02  0.7546771E-02  0.1533452E+00
         21   -1    0    0  503  502  0.00000000000E+00  0.00000000000E+00  0.14334036493E+03  0.14334036493E+03  0.00000000000E+00 0. -1.
         21   -1    0    0  501  503 -0.00000000000E+00 -0.00000000000E+00 -0.43558191099E+01  0.43558191099E+01  0.00000000000E+00 0.  1.
          2    1    1    2  501    0 -0.14079987948E+02 -0.14257770246E+02  0.25374716659E+02  0.32332743752E+02  0.00000000000E+00 0. -1.
         -2    1    1    2    0  502  0.14079987948E+02  0.14257770246E+02  0.11360982916E+03  0.11536344029E+03  0.00000000000E+00 0.  1.
</event>
<event>
 4    1  0.1800096E+004  0.2164628E+02  0.7546771E-02  0.1510234E+00
         21   -1    0    0  501  502  0.00000000000E+00  0.00000000000E+00  0.22213826879E+01  0.22213826879E+01  0.00000000000E+00 0. -1.
         21   -1    0    0  502  503 -0.00000000000E+00 -0.00000000000E+00 -0.72343162425E+03  0.72343162425E+03  0.00000000000E+00 0.  1.
          2    1    1    2  501    0  0.21549252539E+02  0.20472292544E+01 -0.55220689021E+02  0.59311768888E+02  0.00000000000E+00 0. -1.
         -2    1    1    2    0  503 -0.21549252539E+02 -0.20472292544E+01 -0.66598955254E+03  0.66634123805E+03  0.00000000000E+00 0.  1.
</event>
<event>
 4    1  0.1800096E+004  0.2322677E+02  0.7546771E-02  0.1489670E+00
         21   -1    0    0  503  502  0.00000000000E+00  0.00000000000E+00  0.15864260890E+03  0.15864260890E+03  0.00000000000E+00 0. -1.
         21   -1    0    0  501  503 -0.00000000000E+00 -0.00000000000E+00 -0.34108466735E+01  0.34108466735E+01  0.00000000000E+00 0.  1.
          2    1    1    2  501    0 -0.14504383400E+02  0.18141274165E+02  0.73178777894E+02  0.76776405882E+02  0.00000000000E+00 0.  1.
         -2    1    1    2    0  502  0.14504383400E+02 -0.18141274165E+02  0.82052984331E+02  0.85277049690E+02  0.00000000000E+00 0. -1.
</event>
<event>
 4    1  0.1800096E+004  0.2139308E+02  0.7546771E-02  0.1513726E+00
         21   -1    0    0  501  502  0.00000000000E+00  0.00000000000E+00  0.12827839787E+01  0.12827839787E+01  0.00000000000E+00 0. -1.
         21   -1    0    0  502  503 -0.00000000000E+00 -0.00000000000E+00 -0.42954657104E+03  0.42954657104E+03  0.00000000000E+00 0.  1.
          2    1    1    2  501    0 -0.21352173449E+02  0.13223846838E+01 -0.12546654475E+03  0.12727732659E+03  0.00000000000E+00 0. -1.
         -2    1    1    2    0  503  0.21352173449E+02 -0.13223846838E+01 -0.30279724231E+03  0.30355202843E+03  0.00000000000E+00 0.  1.
</event>
<event>
 4    1  0.1800096E+004  0.2048332E+02  0.7546771E-02  0.1526771E+00
         21   -1    0    0  503  502  0.00000000000E+00  0.00000000000E+00  0.86226677887E+02  0.86226677887E+02  0.00000000000E+00 0.  1.
         21   -1    0    0  501  503 -0.00000000000E+00 -0.00000000000E+00 -0.48697161844E+01  0.48697161844E+01  0.00000000000E+00 0. -1.
          2    1    1    2  501    0 -0.14121061089E+02  0.14837852511E+02  0.41961582550E+02  0.46694117868E+02  0.00000000000E+00 0.  1.
         -2    1    1    2    0  502  0.14121061089E+02 -0.14837852511E+02  0.39395379153E+02  0.44402276203E+02  0.00000000000E+00 0. -1.
</event>
<event>
 4    1  0.1800096E+004  0.2521538E+02  0.7546771E-02  0.1466408E+00
         21   -1    0    0  501  502  0.00000000000E+00  0.00000000000E+00  0.17073688858E+03  0.17073688858E+03  0.00000000000E+00 0.  1.
         21   -1    0    0  502  503 -0.00000000000E+00 -0.00000000000E+00 -0.55961931124E+01  0.55961931124E+01  0.00000000000E+00 0. -1.
          2    1    1    2  501    0 -0.16045186406E+02 -0.19451664637E+02  0.13356666674E+03  0.13592597150E+03  0.00000000000E+00 0.  1.
         -2    1    1    2    0  503  0.16045186406E+02  0.19451664637E+02  0.31574028722E+02  0.40407110187E+02  0.00000000000E+00 0. -1.
</event>
<event>
 4    1  0.1800096E+004  0.2044858E+02  0.7546771E-02  0.1527285E+00
         21   -1    0    0  503  502  0.00000000000E+00  0.00000000000E+00  0.12490482494E+02  0.12490482494E+02  0.00000000000E+00 0.  1.
         21   -1    0    0  501  503 -0.00000000000E+00 -0.00000000000E+00 -0.33651620418E+02  0.33651620418E+02  0.00000000000E+00 0. -1.
          2    1    1    2  501    0  0.13722398808E+02  0.15160476646E+02 -0.89187940175E+01  0.22308948158E+02  0.00000000000E+00 0. -1.
         -2    1    1    2    0  502 -0.13722398808E+02 -0.15160476646E+02 -0.12242343906E+02  0.23833154754E+02  0.00000000000E+00 0.  1.
</event>
<event>
 4    1  0.1800096E+004  0.2083705E+02  0.7546771E-02  0.1521604E+00
         21   -1    0    0  503  502  0.00000000000E+00  0.00000000000E+00  0.12281065095E+03  0.12281065095E+03  0.00000000000E+00 0.  1.
         21   -1    0    0  501  503 -0.00000000000E+00 -0.00000000000E+00 -0.54131252772E+01  0.54131252772E+01  0.00000000000E+00 0. -1.
          2    1    1    2  501    0 -0.20655607549E+02  0.27438096927E+01  0.20938710390E+02  0.29540010285E+02  0.00000000000E+00 0. -1.
         -2    1    1    2    0  502  0.20655607549E+02 -0.27438096927E+01  0.96458815286E+02  0.98683765946E+02  0.00000000000E+00 0.  1.
</event>
<event>
 4    1  0.1800096E+004  0.4452388E+02  0.7546771E-02  0.1323837E+00
         21   -1    0    0  503  502  0.00000000000E+00  0.00000000000E+00  0.75134301351E+01  0.75134301351E+01  0.00000000000E+00 0.  1.
         21   -1    0    0  501  503 -0.00000000000E+00 -0.00000000000E+00 -0.78443694856E+03  0.78443694856E+03  0.00000000000E+00 0. -1.
          2    1    1    2  501    0 -0.43212557514E+02  0.10726158720E+02 -0.71104215898E+03  0.71243478821E+03  0.00000000000E+00 0. -1.
         -2    1    1    2    0  502  0.43212557514E+02 -0.10726158720E+02 -0.65881359452E+02  0.79515590490E+02  0.00000000000E+00 0.  1.
</event>
<event>
 4    1  0.1800096E+004  0.2292194E+02  0.7546771E-02  0.1493481E+00
         21   -1    0    0  503  502  0.00000000000E+00  0.00000000000E+00  0.19022674563E+01  0.19022674563E+01  0.00000000000E+00 0.  1.
         21   -1    0    0  501  503 -0.00000000000E+00 -0.00000000000E+00 -0.31811463802E+03  0.31811463802E+03  0.00000000000E+00 0. -1.
          2    1    1    2  501    0  0.77279575000E+01 -0.21579944736E+02 -0.21618386461E+03  0.21739567305E+03  0.00000000000E+00 0. -1.
         -2    1    1    2    0  502 -0.77279575000E+01  0.21579944736E+02 -0.10002850595E+03  0.10262123242E+03  0.00000000000E+00 0.  1.
</event>
<event>
 4    1  0.1800096E+004  0.3606497E+02  0.7546771E-02  0.1373227E+00
         21   -1    0    0  501  502  0.00000000000E+00  0.00000000000E+00  0.39492749677E+01  0.39492749677E+01  0.00000000000E+00 0. -1.
         21   -1    0    0  502  503 -0.00000000000E+00 -0.00000000000E+00 -0.36631233207E+03  0.36631233207E+03  0.00000000000E+00 0.  1.
          2    1    1    2  501    0  0.29230898610E+02 -0.21124317716E+02 -0.12237173263E+03  0.12757555871E+03  0.00000000000E+00 0. -1.
         -2    1    1    2    0  503 -0.29230898610E+02  0.21124317716E+02 -0.23999132447E+03  0.24268604833E+03  0.00000000000E+00 0.  1.
</event>
<event>
 4    1  0.1800096E+004  0.2774914E+02  0.7546771E-02  0.1440225E+00
         21   -1    0    0  501  502  0.00000000000E+00  0.00000000000E+00  0.13957195415E+02  0.13957195415E+02  0.00000000000E+00 0.  1.
         21   -1    0    0  502  503 -0.00000000000E+00 -0.00000000000E+00 -0.10737377814E+03  0.10737377814E+03  0.00000000000E+00 0. -1.
          2    1    1    2  501    0 -0.17457161168E+02  0.21569941318E+02 -0.44078773750E+01  0.28097050155E+02  0.00000000000E+00 0.  1.
         -2    1    1    2    0  503  0.17457161168E+02 -0.21569941318E+02 -0.89008705355E+02  0.93233923405E+02  0.00000000000E+00 0. -1.
</event>
<event>
 4    1  0.1800096E+004  0.2253614E+02  0.7546771E-02  0.1498406E+00
         21   -1    0    0  501  502  0.00000000000E+00  0.00000000000E+00  0.11568817828E+02  0.11568817828E+02  0.00000000000E+00 0.  1.
         21   -1    0    0  502  503 -0.00000000000E+00 -0.00000000000E+00 -0.48092146331E+02  0.48092146331E+02  0.00000000000E+00 0. -1.
          2    1    1    2  501    0 -0.22482893103E+02  0.15482547907E+01 -0.94549799846E+01  0.24439194375E+02  0.00000000000E+00 0.  1.
         -2    1    1    2    0  503  0.22482893103E+02 -0.15482547907E+01 -0.27068348519E+02  0.35221769784E+02  0.00000000000E+00 0. -1.
</event>
<event>
 4    1  0.1800096E+004  0.3732930E+02  0.7546771E-02  0.1364889E+00
         21   -1    0    0  503  502  0.00000000000E+00  0.00000000000E+00  0.90245698245E+01  0.90245698245E+01  0.00000000000E+00 0.  1.
         21   -1    0    0  501  503 -0.00000000000E+00 -0.00000000000E+00 -0.41045854087E+03  0.41045854087E+03  0.00000000000E+00 0. -1.
          2    1    1    2  501    0 -0.16633524504E+02  0.33418599300E+02 -0.36637468950E+03  0.36827148956E+03  0.00000000000E+00 0. -1.
         -2    1    1    2    0  502  0.16633524504E+02 -0.33418599300E+02 -0.35059281542E+02  0.51211621131E+02  0.00000000000E+00 0.  1.
</event>
<event>
 4    1  0.1800096E+004  0.3151729E+02  0.7546771E-02  0.1406854E+00
         21   -1    0    0  501  502  0.00000000000E+00  0.00000000000E+00  0.33633962614E+01  0.33633962614E+01  0.00000000000E+00 0. -1.
         21   -1    0    0  502  503 -0.00000000000E+00 -0.00000000000E+00 -0.39111584474E+03  0.39111584474E+03  0.00000000000E+00 0.  1.
          2    1    1    2  501    0  0.28180326639E+02  0.14114128545E+02 -0.96270900740E+02  0.10129869576E+03  0.00000000000E+00 0. -1.
         -2    1    1    2    0  503 -0.28180326639E+02 -0.14114128545E+02 -0.29148154774E+03  0.29318054524E+03  0.00000000000E+00 0.  1.
</event>
<event>
 4    1  0.1800096E+004  0.2029580E+02  0.7546771E-02  0.1529561E+00
         21   -1    0    0  503  502  0.00000000000E+00  0.00000000000E+00  0.23570187280E+01  0.23570187280E+01  0.00000000000E+00 0. -1.
         21   -1    0    0  501  503 -0.00000000000E+00 -0.00000000000E+00 -0.33073038784E+03  0.33073038784E+03  0.00000000000E+00 0.  1.
          2    1    1    2  501    0 -0.48472374793E+01  0.19708464974E+02 -0.27855567302E+03  0.27929407848E+03  0.00000000000E+00 0.  1.
         -2    1    1    2    0  502  0.48472374793E+01 -0.19708464974E+02 -0.49817696094E+02  0.53793328090E+02  0.00000000000E+00 0. -1.
</event>
<event>
 4    1  0.1800096E+004  0.3162981E+02  0.7546771E-02  0.1405943E+00
         21   -1    0    0  501  502  0.00000000000E+00  0.00000000000E+00  0.15999262918E+02  0.15999262918E+02  0.00000000000E+00 0.  1.
         21   -1    0    0  502  503 -0.00000000000E+00 -0.00000000000E+00 -0.10465078995E+03  0.10465078995E+03  0.00000000000E+00 0. -1.
          2    1    1    2  501    0  0.28590099408E+02 -0.13529640364E+02 -0.60546621031E+01  0.32204097343E+02  0.00000000000E+00 0.  1.
         -2    1    1    2    0  503 -0.28590099408E+02  0.13529640364E+02 -0.82596864929E+02  0.88445955524E+02  0.00000000000E+00 0. -1.
</event>
<event>
 4    1  0.1800096E+004  0.2008256E+02  0.7546771E-02  0.1532777E+00
         21   -1    0    0  503  502  0.00000000000E+00  0.00000000000E+00  0.23545721131E+03  0.23545721131E+03  0.00000000000E+00 0. -1.
         21   -1    0    0  501  503 -0.00000000000E+00 -0.00000000000E+00 -0.18631647517E+01  0.18631647517E+01  0.00000000000E+00 0.  1.
          2    1    1    2  501    0  0.19094998910E+02  0.62201488785E+01  0.83096143783E+02  0.85488469089E+02  0.00000000000E+00 0.  1.
         -2    1    1    2    0  502 -0.19094998910E+02 -0.62201488785E+01  0.15049790277E+03  0.15183190697E+03  0.00000000000E+00 0. -1.
</event>
<event>
 4    1  0.1800096E+004  0.2219291E+02  0.7546771E-02  0.1502889E+00
         21   -1    0    0  503  502  0.00000000000E+00  0.00000000000E+00  0.49488990721E+01  0.49488990721E+01  0.00000000000E+00 0.  1.
         21   -1    0    0  501  503 -0.00000000000E+00 -0.00000000000E+00 -0.99601043918E+02  0.99601043918E+02  0.00000000000E+00 0. -1.
          2    1    1    2  501    0 -0.49905937551E+01 -0.21624509604E+02 -0.48796623267E+02  0.53606304517E+02  0.00000000000E+00 0.  1.
         -2    1    1    2    0  502  0.49905937551E+01  0.21624509604E+02 -0.45855521579E+02  0.50943638474E+02  0.00000000000E+00 0. -1.
</event>
<event>
 4    1  0.1800096E+004  0.2106266E+02  0.7546771E-02  0.1518372E+00
         21   -1    0    0  501  502  0.00000000000E+00  0.00000000000E+00  0.10955214732E+02  0.10955214732E+02  0.00000000000E+00 0. -1.
         21   -1    0    0  502  503 -0.00000000000E+00 -0.00000000000E+00 -0.43448128528E+02  0.43448128528E+02  0.00000000000E+00 0.  1.
          2    1    1    2  501    0 -0.96388323581E+01  0.18727747366E+02 -0.91552018563E+01  0.22966352163E+02  0.00000000000E+00 0. -1.
         -2    1    1    2    0  503  0.96388323581E+01 -0.18727747366E+02 -0.23337711940E+02  0.31436991097E+02  0.00000000000E+00 0.  1.
</event>
<event>
 4    1  0.1800096E+004  0.2749942E+02  0.7546771E-02  0.1442655E+00
         21   -1    0    0  503  502  0.00000000000E+00  0.00000000000E+00  0.13201026171E+02  0.13201026171E+02  0.00000000000E+00 0.  1.
         21   -1    0    0  501  503 -0.00000000000E+00 -0.00000000000E+00 -0.75628017162E+02  0.75628017162E+02  0.00000000000E+00 0. -1.
          2    1    1    2  501    0 -0.69606559890E+01  0.26603894061E+02 -0.53087162433E+02  0.59786827363E+02  0.00000000000E+00 0. -1.
         -2    1    1    2    0  502  0.69606559890E+01 -0.26603894061E+02 -0.93398285584E+01  0.29042215971E+02  0.00000000000E+00 0.  1.
</event>
<event>
 4    1  0.1800096E+004  0.2568060E+02  0.7546771E-02  0.1461332E+00
         21   -1    0    0  503  502  0.00000000000E+00  0.00000000000E+00  0.24833381497E+02  0.24833381497E+02  0.00000000000E+00 0. -1.
         21   -1    0    0  501  503 -0.00000000000E+00 -0.00000000000E+00 -0.26594591070E+02  0.26594591070E+02  0.00000000000E+00 0.  1.
          2    1    1    2  501    0  0.24225601126E+02 -0.85213593569E+01 -0.18508700703E+01  0.25747214125E+02  0.00000000000E+00 0. -1.
         -2    1    1    2    0  502 -0.24225601126E+02  0.85213593569E+01  0.89660497229E-01  0.25680758443E+02  0.00000000000E+00 0.  1.
</event>
<event>
 4    1  0.1800096E+004  0.3434476E+02  0.7546771E-02  0.1385229E+00
         21   -1    0    0  501  502  0.00000000000E+00  0.00000000000E+00  0.38158421621E+01  0.38158421621E+01  0.00000000000E+00 0.  1.
         21   -1    0    0  502  503 -0.00000000000E+00 -0.00000000000E+00 -0.31037972845E+03  0.31037972845E+03  0.00000000000E+00 0. -1.
          2    1    1    2  501    0 -0.12237316702E+02  0.32090662562E+02 -0.16328047294E+03  0.16685345483E+03  0.00000000000E+00 0.  1.
         -2    1    1    2    0  503  0.12237316702E+02 -0.32090662562E+02 -0.14328341335E+03  0.14734211579E+03  0.00000000000E+00 0. -1.
</event>
<event>
 4    1  0.1800096E+004  0.1286221E+03  0.7546771E-02  0.1121793E+00
         21   -1    0    0  503  502  0.00000000000E+00  0.00000000000E+00  0.28174308662E+03  0.28174308662E+03  0.00000000000E+00 0.  1.
         21   -1    0    0  501  503 -0.00000000000E+00 -0.00000000000E+00 -0.98369886096E+02  0.98369886096E+02  0.00000000000E+00 0. -1.
          2    1    1    2  501    0 -0.74291364235E+02  0.10499729769E+03 -0.28977672961E+02  0.13184591330E+03  0.00000000000E+00 0. -1.
         -2    1    1    2    0  502  0.74291364235E+02 -0.10499729769E+03  0.21235087349E+03  0.24826705942E+03  0.00000000000E+00 0.  1.
</event>
<event>
 4    1  0.1800096E+004  0.2306269E+02  0.7546771E-02  0.1491712E+00
         21   -1    0    0  503  502  0.00000000000E+00  0.00000000000E+00  0.10130017475E+03  0.10130017475E+03  0.00000000000E+00 0.  1.
         21   -1    0    0  501  503 -0.00000000000E+00 -0.00000000000E+00 -0.98145622270E+01  0.98145622270E+01  0.00000000000E+00 0. -1.
          2    1    1    2  501    0 -0.23020508536E+02 -0.13943004734E+01  0.78569888002E+01  0.24364321457E+02  0.00000000000E+00 0. -1.
         -2    1    1    2    0  502  0.23020508536E+02  0.13943004734E+01  0.83628623727E+02  0.86750415524E+02  0.00000000000E+00 0.  1.
</event>
<event>
 4    1  0.1800096E+004  0.2273250E+02  0.7546771E-02  0.1495885E+00
         21   -1    0    0  501  502  0.00000000000E+00  0.00000000000E+00  0.33419796786E+02  0.33419796786E+02  0.00000000000E+00 0.  1.
         21   -1    0    0  502  503 -0.00000000000E+00 -0.00000000000E+00 -0.33249734814E+02  0.33249734814E+02  0.00000000000E+00 0. -1.
          2    1    1    2  501    0 -0.14913013568E+02 -0.17157168151E+02  0.24466106759E+02  0.33396957534E+02  0.00000000000E+00 0.  1.
         -2    1    1    2    0  503  0.14913013568E+02  0.17157168151E+02 -0.24296044787E+02  0.33272574065E+02  0.00000000000E+00 0. -1.
</event>
<event>
 4    1  0.1800096E+004  0.2107260E+02  0.7546771E-02  0.1518231E+00
         21   -1    0    0  503  502  0.00000000000E+00  0.00000000000E+00  0.71622312400E+01  0.71622312400E+01  0.00000000000E+00 0.  1.
         21   -1    0    0  501  503 -0.00000000000E+00 -0.00000000000E+00 -0.64951474213E+02  0.64951474213E+02  0.00000000000E+00 0. -1.
          2    1    1    2  501    0  0.73770686895E+01  0.19739135474E+02 -0.21207724364E+02  0.29896859106E+02  0.00000000000E+00 0.  1.
         -2    1    1    2    0  502 -0.73770686895E+01 -0.19739135474E+02 -0.36581518610E+02  0.42216846347E+02  0.00000000000E+00 0. -1.
</event>
<event>
 4    1  0.1800096E+004  0.2575379E+02  0.7546771E-02  0.1460545E+00
         21   -1    0    0  503  502  0.00000000000E+00  0.00000000000E+00  0.62518722579E+01  0.62518722579E+01  0.00000000000E+00 0. -1.
         21   -1    0    0  501  503 -0.00000000000E+00 -0.00000000000E+00 -0.23869164964E+03  0.23869164964E+03  0.00000000000E+00 0.  1.
          2    1    1    2  501    0 -0.16212039484E+02 -0.20010677993E+02 -0.20750349182E+03  0.20909556804E+03  0.00000000000E+00 0.  1.
         -2    1    1    2    0  502  0.16212039484E+02  0.20010677993E+02 -0.24936285564E+02  0.35847953856E+02  0.00000000000E+00 0. -1.
</event>
<event>
 4    1  0.1800096E+004  0.2140565E+02  0.7546771E-02  0.1513551E+00
         21   -1    0    0  503  502  0.00000000000E+00  0.00000000000E+00  0.25340243063E+03  0.25340243063E+03  0.00000000000E+00 0.  1.
         21   -1    0    0  501  503 -0.00000000000E+00 -0.00000000000E+00 -0.19919417440E+01  0.19919417440E+01  0.00000000000E+00 0. -1.
          2    1    1    2  501    0 -0.20682974467E+02  0.55150992722E+01  0.86921533255E+02  0.89518460086E+02  0.00000000000E+00 0.  1.
         -2    1    1    2    0  502  0.20682974467E+02 -0.55150992722E+01  0.16448895563E+03  0.16587591228E+03  0.00000000000E+00 0. -1.
</event>
<event>
 4    1  0.1800096E+004  0.2892204E+02  0.7546771E-02  0.1429201E+00
         21   -1    0    0  501  502  0.00000000000E+00  0.00000000000E+00  0.10562684127E+03  0.10562684127E+03  0.00000000000E+00 0. -1.
         21   -1    0    0  502  503 -0.00000000000E+00 -0.00000000000E+00 -0.25013970449E+02  0.25013970449E+02  0.00000000000E+00 0.  1.
          2    1    1    2  501    0 -0.42863063205E+01 -0.28602656573E+02  0.94305803473E+02  0.98641111883E+02  0.00000000000E+00 0. -1.
         -2    1    1    2    0  503  0.42863063205E+01  0.28602656573E+02 -0.13692932653E+02  0.31999699835E+02  0.00000000000E+00 0.  1.
</event>
<event>
 4    1  0.1800096E+004  0.2023085E+02  0.7546771E-02  0.1530536E+00
         21   -1    0    0  503  502  0.00000000000E+00  0.00000000000E+00  0.23707995180E+03  0.23707995180E+03  0.00000000000E+00 0.  1.
         21   -1    0    0  501  503 -0.00000000000E+00 -0.00000000000E+00 -0.34403777460E+01  0.34403777460E+01  0.00000000000E+00 0. -1.
          2    1    1    2  501    0 -0.19191866909E+02 -0.63999711597E+01  0.31935892667E+02  0.37804611184E+02  0.00000000000E+00 0. -1.
         -2    1    1    2    0  502  0.19191866909E+02  0.63999711597E+01  0.20170368139E+03  0.20271571836E+03  0.00000000000E+00 0.  1.
</event>
<event>
 4    1  0.1800096E+004  0.2011842E+02  0.7546771E-02  0.1532233E+00
         21   -1    0    0  503  502  0.00000000000E+00  0.00000000000E+00  0.11737401751E+04  0.11737401751E+04  0.00000000000E+00 0. -1.
         21   -1    0    0  501  503 -0.00000000000E+00 -0.00000000000E+00 -0.26688538042E+01  0.26688538042E+01  0.00000000000E+00 0.  1.
          2    1    1    2  501    0  0.20116100455E+02  0.30561574413E+00  0.36645500595E+02  0.41804827620E+02  0.00000000000E+00 0.  1.
         -2    1    1    2    0  502 -0.20116100455E+02 -0.30561574413E+00  0.11344258207E+04  0.11346042013E+04  0.00000000000E+00 0. -1.
</event>
<event>
 4    1  0.1800096E+004  0.2780347E+02  0.7546771E-02  0.1439700E+00
         21   -1    0    0  501  502  0.00000000000E+00  0.00000000000E+00  0.78602922000E+00  0.78602922000E+00  0.00000000000E+00 0. -1.
         21   -1    0    0  502  503 -0.00000000000E+00 -0.00000000000E+00 -0.10420391192E+04  0.10420391192E+04  0.00000000000E+00 0.  1.
          2    1    1    2  501    0 -0.13504651680E+02  0.24303446363E+02 -0.39700671282E+03  0.39797909888E+03  0.00000000000E+00 0. -1.
         -2    1    1    2    0  503  0.13504651680E+02 -0.24303446363E+02 -0.64424637716E+03  0.64484604954E+03  0.00000000000E+00 0.  1.
</event>
<event>
 4    1  0.1800096E+004  0.2476701E+02  0.7546771E-02  0.1471427E+00
         21   -1    0    0  503  502  0.00000000000E+00  0.00000000000E+00  0.45209046297E+02  0.45209046297E+02  0.00000000000E+00 0.  1.
         21   -1    0    0  501  503 -0.00000000000E+00 -0.00000000000E+00 -0.17487967454E+02  0.17487967454E+02  0.00000000000E+00 0. -1.
          2    1    1    2  501    0 -0.23778285111E+02  0.69280708984E+01 -0.98096070807E+00  0.24786433651E+02  0.00000000000E+00 0. -1.
         -2    1    1    2    0  502  0.23778285111E+02 -0.69280708984E+01  0.28702039551E+02  0.37910580101E+02  0.00000000000E+00 0.  1.
</event>
<event>
 4    1  0.1800096E+004  0.2631253E+02  0.7546771E-02  0.1454639E+00
         21   -1    0    0  501  502  0.00000000000E+00  0.00000000000E+00  0.72988279194E+02  0.72988279194E+02  0.00000000000E+00 0. -1.
         21   -1    0    0  502  503 -0.00000000000E+00 -0.00000000000E+00 -0.15940305364E+02  0.15940305364E+02  0.00000000000E+00 0.  1.
          2    1    1    2  501    0 -0.91955261327E+01  0.24653427764E+02  0.56818090532E+02  0.62615051011E+02  0.00000000000E+00 0. -1.
         -2    1    1    2    0  503  0.91955261327E+01 -0.24653427764E+02  0.22988329861E+00  0.26313533547E+02  0.00000000000E+00 0.  1.
</event>
<event>
 4    1  0.1800096E+004  0.2536027E+02  0.7546771E-02  0.1464813E+00
         21   -1    0    0  501  502  0.00000000000E+00  0.00000000000E+00  0.67104788781E+02  0.67104788781E+02  0.00000000000E+00 0.  1.
         21   -1    0    0  502  503 -0.00000000000E+00 -0.00000000000E+00 -0.63178537787E+02  0.63178537787E+02  0.00000000000E+00 0. -1.
          2    1    1    2  501    0  0.16294776940E+02 -0.19432544488E+02  0.61960693155E+02  0.66949765026E+02  0.00000000000E+00 0.  1.
         -2    1    1    2    0  503 -0.16294776940E+02  0.19432544488E+02 -0.58034442160E+02  0.63333561542E+02  0.00000000000E+00 0. -1.
</event>
<event>
 4    1  0.1800096E+004  0.2264611E+02  0.7546771E-02  0.1496990E+00
         21   -1    0    0  503  502  0.00000000000E+00  0.00000000000E+00  0.10048744350E+02  0.10048744350E+02  0.00000000000E+00 0. -1.
         21   -1    0    0  501  503 -0.00000000000E+00 -0.00000000000E+00 -0.67325132749E+02  0.67325132749E+02  0.00000000000E+00 0.  1.
          2    1    1    2  501    0 -0.22630066047E+02 -0.85221355523E+00 -0.47667669099E+02  0.52773599788E+02  0.00000000000E+00 0.  1.
         -2    1    1    2    0  502  0.22630066047E+02  0.85221355523E+00 -0.96087192996E+01  0.24600277312E+02  0.00000000000E+00 0. -1.
</event>
<event>
 4    1  0.1800096E+004  0.3669660E+02  0.7546771E-02  0.1369012E+00
         21   -1    0    0  503  502  0.00000000000E+00  0.00000000000E+00  0.15512092470E+03  0.15512092470E+03  0.00000000000E+00 0.  1.
         21   -1    0    0  501  503 -0.00000000000E+00 -0.00000000000E+00 -0.90801956644E+01  0.90801956644E+01  0.00000000000E+00 0. -1.
          2    1    1    2  501    0 -0.25890186475E+02  0.26006516317E+02  0.55810973582E+02  0.66794501412E+02  0.00000000000E+00 0. -1.
         -2    1    1    2    0  502  0.25890186475E+02 -0.26006516317E+02  0.90229755459E+02  0.97406618958E+02  0.00000000000E+00 0.  1.
</event>
<event>
 4    1  0.1800096E+004  0.2359419E+02  0.7546771E-02  0.1485169E+00
         21   -1    0    0  501  502  0.00000000000E+00  0.00000000000E+00  0.43293201493E+02  0.43293201493E+02  0.00000000000E+00 0.  1.
         21   -1    0    0  502  503 -0.00000000000E+00 -0.00000000000E+00 -0.12926577243E+02  0.12926577243E+02  0.00000000000E+00 0. -1.
          2    1    1    2  501    0 -0.20047250697E+02 -0.12441612836E+02  0.17223132317E+02  0.29211680494E+02  0.00000000000E+00 0.  1.
         -2    1    1    2    0  503  0.20047250697E+02  0.12441612836E+02  0.13143491933E+02  0.27008098242E+02  0.00000000000E+00 0. -1.
</event>
<event>
 4    1  0.1800096E+004  0.2271247E+02  0.7546771E-02  0.1496141E+00
         21   -1    0    0  503  502  0.00000000000E+00  0.00000000000E+00  0.14647880015E+02  0.14647880015E+02  0.00000000000E+00 0.  1.
         21   -1    0    0  501  503 -0.00000000000E+00 -0.00000000000E+00 -0.55887779455E+02  0.55887779455E+02  0.00000000000E+00 0. -1.
          2    1    1    2  501    0  0.19802848100E+02 -0.11122202401E+02 -0.42068475743E+02  0.47808083317E+02  0.00000000000E+00 0. -1.
         -2    1    1    2    0  502 -0.19802848100E+02  0.11122202401E+02  0.82857630288E+00  0.22727576154E+02  0.00000000000E+00 0.  1.
</event>
<event>
 4    1  0.1800096E+004  0.2111530E+02  0.7546771E-02  0.1517625E+00
         21   -1    0    0  501  502  0.00000000000E+00  0.00000000000E+00  0.13832992239E+03  0.13832992239E+03  0.00000000000E+00 0. -1.
         21   -1    0    0  502  503 -0.00000000000E+00 -0.00000000000E+00 -0.49568208951E+01  0.49568208951E+01  0.00000000000E+00 0.  1.
          2    1    1    2  501    0  0.15802109605E+02  0.14005327767E+02  0.10905667503E+03  0.11108201584E+03  0.00000000000E+00 0. -1.
         -2    1    1    2    0  503 -0.15802109605E+02 -0.14005327767E+02  0.24316426457E+02  0.32204727440E+02  0.00000000000E+00 0.  1.
</event>
<event>
 4    1  0.1800096E+004  0.2377347E+02  0.7546771E-02  0.1483007E+00
         21   -1    0    0  503  502  0.00000000000E+00  0.00000000000E+00  0.21008872011E+03  0.21008872011E+03  0.00000000000E+00 0. -1.
         21   -1    0    0  501  503 -0.00000000000E+00 -0.00000000000E+00 -0.43232856430E+01  0.43232856430E+01  0.00000000000E+00 0.  1.
          2    1    1    2  501    0  0.12615795118E+02 -0.20149931539E+02  0.36992901279E+02  0.43973318871E+02  0.00000000000E+00 0.  1.
         -2    1    1    2    0  502 -0.12615795118E+02  0.20149931539E+02  0.16877253318E+03  0.17043868688E+03  0.00000000000E+00 0. -1.
</event>
<event>
 4    1  0.1800096E+004  0.2317074E+02  0.7546771E-02  0.1490365E+00
         21   -1    0    0  501  502  0.00000000000E+00  0.00000000000E+00  0.13695458089E+03  0.13695458089E+03  0.00000000000E+00 0. -1.
         21   -1    0    0  502  503 -0.00000000000E+00 -0.00000000000E+00 -0.53632824031E+01  0.53632824031E+01  0.00000000000E+00 0.  1.
          2    1    1    2  501    0 -0.11873856026E+01  0.23140294984E+02  0.10270755570E+03  0.10528877022E+03  0.00000000000E+00 0. -1.
         -2    1    1    2    0  503  0.11873856026E+01 -0.23140294984E+02  0.28883742789E+02  0.37029093076E+02  0.00000000000E+00 0.  1.
</event>
<event>
 4    1  0.1800096E+004  0.3577868E+02  0.7546771E-02  0.1375170E+00
         21   -1    0    0  501  502  0.00000000000E+00  0.00000000000E+00  0.41178696595E+01  0.41178696595E+01  0.00000000000E+00 0. -1.
         21   -1    0    0  502  503 -0.00000000000E+00 -0.00000000000E+00 -0.62747962951E+03  0.62747962951E+03  0.00000000000E+00 0.  1.
          2    1    1    2  501    0  0.70211656236E+00 -0.35771786039E+02 -0.87357745147E+02  0.94400684750E+02  0.00000000000E+00 0. -1.
         -2    1    1    2    0  503 -0.70211656236E+00  0.35771786039E+02 -0.53600401471E+03  0.53719681442E+03  0.00000000000E+00 0.  1.
</event>
<event>
 4    1  0.1800096E+004  0.2208463E+02  0.7546771E-02  0.1504324E+00
         21   -1    0    0  503  502  0.00000000000E+00  0.00000000000E+00  0.17571067226E+02  0.17571067226E+02  0.00000000000E+00 0. -1.
         21   -1    0    0  501  503 -0.00000000000E+00 -0.00000000000E+00 -0.55480565189E+02  0.55480565189E+02  0.00000000000E+00 0.  1.
          2    1    1    2  501    0  0.93784287072E+01  0.19994397601E+02 -0.44774332919E+02  0.49924660728E+02  0.00000000000E+00 0.  1.
         -2    1    1    2    0  502 -0.93784287072E+01 -0.19994397601E+02  0.68648349559E+01  0.23126971687E+02  0.00000000000E+00 0. -1.
</event>
<event>
 4    1  0.1800096E+004  0.2653321E+02  0.7546771E-02  0.1452354E+00
         21   -1    0    0  503  502  0.00000000000E+00  0.00000000000E+00  0.68794659561E+01  0.68794659561E+01  0.00000000000E+00 0. -1.
         21   -1    0    0  501  503 -0.00000000000E+00 -0.00000000000E+00 -0.11149600912E+03  0.11149600912E+03  0.00000000000E+00 0.  1.
          2    1    1    2  501    0  0.11891305264E+02  0.23719360473E+02 -0.69273906062E+02  0.74181434761E+02  0.00000000000E+00 0.  1.
         -2    1    1    2    0  502 -0.11891305264E+02 -0.23719360473E+02 -0.35342637107E+02  0.44194040320E+02  0.00000000000E+00 0. -1.
</event>
<event>
 4    1  0.1800096E+004  0.2545994E+02  0.7546771E-02  0.1463723E+00
         21   -1    0    0  503  502  0.00000000000E+00  0.00000000000E+00  0.22829818726E+02  0.22829818726E+02  0.00000000000E+00 0.  1.
         21   -1    0    0  501  503 -0.00000000000E+00 -0.00000000000E+00 -0.45279395896E+02  0.45279395896E+02  0.00000000000E+00 0. -1.
          2    1    1    2  501    0  0.18894918691E+02 -0.17064313283E+02 -0.32021424670E+02  0.40909416741E+02  0.00000000000E+00 0. -1.
         -2    1    1    2    0  502 -0.18894918691E+02  0.17064313283E+02  0.95718475010E+01  0.27199797881E+02  0.00000000000E+00 0.  1.
</event>
<event>
 4    1  0.1800096E+004  0.2443898E+02  0.7546771E-02  0.1475178E+00
         21   -1    0    0  503  502  0.00000000000E+00  0.00000000000E+00  0.85839973134E+02  0.85839973134E+02  0.00000000000E+00 0. -1.
         21   -1    0    0  501  503 -0.00000000000E+00 -0.00000000000E+00 -0.69586085982E+01  0.69586085982E+01  0.00000000000E+00 0.  1.
          2    1    1    2  501    0  0.23306601573E+02  0.73529749048E+01  0.38964704555E+02  0.45994696628E+02  0.00000000000E+00 0. -1.
         -2    1    1    2    0  502 -0.23306601573E+02 -0.73529749048E+01  0.39916659980E+02  0.46803885104E+02  0.00000000000E+00 0.  1.
</event>
<event>
 4    1  0.1800096E+004  0.3720609E+02  0.7546771E-02  0.1365684E+00
         21   -1    0    0  503  502  0.00000000000E+00  0.00000000000E+00  0.94981842565E+01  0.94981842565E+01  0.00000000000E+00 0. -1.
         21   -1    0    0  501  503 -0.00000000000E+00 -0.00000000000E+00 -0.25241971441E+03  0.25241971441E+03  0.00000000000E+00 0.  1.
          2    1    1    2  501    0 -0.35911389574E+02  0.97296123813E+01 -0.20659583419E+03  0.20991934633E+03  0.00000000000E+00 0.  1.
         -2    1    1    2    0  502  0.35911389574E+02 -0.97296123813E+01 -0.36325695970E+02  0.51998552345E+02  0.00000000000E+00 0. -1.
</event>
<event>
 4    1  0.1800096E+004  0.3184401E+02  0.7546771E-02  0.1404221E+00
         21   -1    0    0  503  502  0.00000000000E+00  0.00000000000E+00  0.64196867069E+03  0.64196867069E+03  0.00000000000E+00 0.  1.
         21   -1    0    0  501  503 -0.00000000000E+00 -0.00000000000E+00 -0.22832669542E+01  0.22832669542E+01  0.00000000000E+00 0. -1.
          2    1    1    2  501    0  0.18369973127E+02 -0.26011251262E+02  0.14101407970E+03  0.14456490507E+03  0.00000000000E+00 0. -1.
         -2    1    1    2    0  502 -0.18369973127E+02  0.26011251262E+02  0.49867132404E+03  0.49968703258E+03  0.00000000000E+00 0.  1.
</event>
<event>
 4    1  0.1800096E+004  0.3349360E+02  0.7546771E-02  0.1391474E+00
         21   -1    0    0  501  502  0.00000000000E+00  0.00000000000E+00  0.24373201925E+02  0.24373201925E+02  0.00000000000E+00 0.  1.
         21   -1    0    0  502  503 -0.00000000000E+00 -0.00000000000E+00 -0.61681790752E+02  0.61681790752E+02  0.00000000000E+00 0. -1.
          2    1    1    2  501    0  0.32660594667E+02 -0.74233855500E+01  0.30224297828E+01  0.33629691923E+02  0.00000000000E+00 0.  1.
         -2    1    1    2    0  503 -0.32660594667E+02  0.74233855500E+01 -0.40331018610E+02  0.52425300754E+02  0.00000000000E+00 0. -1.
</event>
<event>
 4    1  0.1800096E+004  0.2228512E+02  0.7546771E-02  0.1501675E+00
         21   -1    0    0  503  502  0.00000000000E+00  0.00000000000E+00  0.20893355130E+02  0.20893355130E+02  0.00000000000E+00 0.  1.
         21   -1    0    0  501  503 -0.00000000000E+00 -0.00000000000E+00 -0.25168075641E+02  0.25168075641E+02  0.00000000000E+00 0. -1.
          2    1    1    2  501    0 -0.71408926538E+00 -0.22273673479E+02  0.32915374992E+01  0.22526887775E+02  0.00000000000E+00 0.  1.
         -2    1    1    2    0  502  0.71408926538E+00  0.22273673479E+02 -0.75662580110E+01  0.23534542996E+02  0.00000000000E+00 0. -1.
</event>
<event>
 4    1  0.1800096E+004  0.2544787E+02  0.7546771E-02  0.1463855E+00
         21   -1    0    0  503  502  0.00000000000E+00  0.00000000000E+00  0.80790396712E+01  0.80790396712E+01  0.00000000000E+00 0. -1.
         21   -1    0    0  501  503 -0.00000000000E+00 -0.00000000000E+00 -0.84553332525E+02  0.84553332525E+02  0.00000000000E+00 0.  1.
          2    1    1    2  501    0  0.25135269328E+02  0.39764392718E+01 -0.27676295004E+02  0.37597488462E+02  0.00000000000E+00 0.  1.
         -2    1    1    2    0  502 -0.25135269328E+02 -0.39764392718E+01 -0.48797997850E+02  0.55034883734E+02  0.00000000000E+00 0. -1.
</event>
<event>
 4    1  0.1800096E+004  0.2051875E+02  0.7546771E-02  0.1526248E+00
         21   -1    0    0  501  502  0.00000000000E+00  0.00000000000E+00  0.33516916265E+02  0.33516916265E+02  0.00000000000E+00 0. -1.
         21   -1    0    0  502  503 -0.00000000000E+00 -0.00000000000E+00 -0.33115688498E+02  0.33115688498E+02  0.00000000000E+00 0.  1.
          2    1    1    2  501    0 -0.31322155034E+00 -0.20516357460E+02  0.26448312967E+02  0.33474352719E+02  0.00000000000E+00 0. -1.
         -2    1    1    2    0  503  0.31322155034E+00  0.20516357460E+02 -0.26047085199E+02  0.33158252043E+02  0.00000000000E+00 0.  1.
</event>
<event>
 4    1  0.1800096E+004  0.2119682E+02  0.7546771E-02  0.1516473E+00
         21   -1    0    0  501  502  0.00000000000E+00  0.00000000000E+00  0.11390784488E+02  0.11390784488E+02  0.00000000000E+00 0.  1.
         21   -1    0    0  502  503 -0.00000000000E+00 -0.00000000000E+00 -0.63466334512E+02  0.63466334512E+02  0.00000000000E+00 0. -1.
          2    1    1    2  501    0 -0.16145570395E+02 -0.13734103033E+02 -0.30109790193E+01  0.21409601215E+02  0.00000000000E+00 0.  1.
         -2    1    1    2    0  503  0.16145570395E+02  0.13734103033E+02 -0.49064571004E+02  0.53447517785E+02  0.00000000000E+00 0. -1.
</event>
<event>
 4    1  0.1800096E+004  0.2331463E+02  0.7546771E-02  0.1488585E+00
         21   -1    0    0  501  502  0.00000000000E+00  0.00000000000E+00  0.59636408019E+02  0.59636408019E+02  0.00000000000E+00 0. -1.
         21   -1    0    0  502  503 -0.00000000000E+00 -0.00000000000E+00 -0.12843578044E+02  0.12843578044E+02  0.00000000000E+00 0.  1.
          2    1    1    2  501    0  0.10388800156E+02  0.20872100904E+02  0.42923187799E+02  0.48846410468E+02  0.00000000000E+00 0. -1.
         -2    1    1    2    0  503 -0.10388800156E+02 -0.20872100904E+02  0.38696421765E+01  0.23633575595E+02  0.00000000000E+00 0.  1.
</event>
<event>
 4    1  0.1800096E+004  0.3268967E+02  0.7546771E-02  0.1397576E+00
         21   -1    0    0  501  502  0.00000000000E+00  0.00000000000E+00  0.26595957591E+02  0.26595957591E+02  0.00000000000E+00 0. -1.
         21   -1    0    0  502  503 -0.00000000000E+00 -0.00000000000E+00 -0.61363887011E+02  0.61363887011E+02  0.00000000000E+00 0.  1.
          2    1    1    2  501    0 -0.29145368474E+02 -0.14804126607E+02  0.84567818550E+01  0.33765838172E+02  0.00000000000E+00 0. -1.
         -2    1    1    2    0  503  0.29145368474E+02  0.14804126607E+02 -0.43224711276E+02  0.54194006430E+02  0.00000000000E+00 0.  1.
</event>
<event>
 4    1  0.1800096E+004  0.2014247E+02  0.7546771E-02  0.1531869E+00
         21   -1    0    0  501  502  0.00000000000E+00  0.00000000000E+00  0.14033911408E+03  0.14033911408E+03  0.00000000000E+00 0.  1.
         21   -1    0    0  502  503 -0.00000000000E+00 -0.00000000000E+00 -0.61801493683E+01  0.61801493683E+01  0.00000000000E+00 0. -1.
          2    1    1    2  501    0 -0.16215320434E+02 -0.11949167419E+02  0.12052454484E+03  0.12219609293E+03  0.00000000000E+00 0.  1.
         -2    1    1    2    0  503  0.16215320434E+02  0.11949167419E+02  0.13634419872E+02  0.24323170517E+02  0.00000000000E+00 0. -1.
</event>
<event>
 4    1  0.1800096E+004  0.2015256E+02  0.7546771E-02  0.1531716E+00
         21   -1    0    0  501  502  0.00000000000E+00  0.00000000000E+00  0.14708656124E+03  0.14708656124E+03  0.00000000000E+00 0. -1.
         21   -1    0    0  502  503 -0.00000000000E+00 -0.00000000000E+00 -0.31563053595E+01  0.31563053595E+01  0.00000000000E+00 0.  1.
          2    1    1    2  501    0 -0.20152358663E+02  0.89005990617E-01  0.98545920385E+02  0.10058540603E+03  0.00000000000E+00 0. -1.
         -2    1    1    2    0  503  0.20152358663E+02 -0.89005990617E-01  0.45384335490E+02  0.49657460564E+02  0.00000000000E+00 0.  1.
</event>
<event>
 4    1  0.1800096E+004  0.2589599E+02  0.7546771E-02  0.1459025E+00
         21   -1    0    0  501  502  0.00000000000E+00  0.00000000000E+00  0.41210095537E+02  0.41210095537E+02  0.00000000000E+00 0.  1.
         21   -1    0    0  502  503 -0.00000000000E+00 -0.00000000000E+00 -0.17096970291E+02  0.17096970291E+02  0.00000000000E+00 0. -1.
          2    1    1    2  501    0 -0.22607962167E+02 -0.12628634160E+02  0.18457570016E+02  0.31800695668E+02  0.00000000000E+00 0.  1.
         -2    1    1    2    0  503  0.22607962167E+02  0.12628634160E+02  0.56555552301E+01  0.26506370160E+02  0.00000000000E+00 0. -1.
</event>
<event>
 4    1  0.1800096E+004  0.4295048E+02  0.7546771E-02  0.1332013E+00
         21   -1    0    0  503  502  0.00000000000E+00  0.00000000000E+00  0.15463981734E+03  0.15463981734E+03  0.00000000000E+00 0. -1.
         21   -1    0    0  501  503 -0.00000000000E+00 -0.00000000000E+00 -0.57877487841E+02  0.57877487841E+02  0.00000000000E+00 0.  1.
          2    1    1    2  501    0  0.39677788417E+02  0.16444366195E+02 -0.46295659874E+02  0.63150868533E+02  0.00000000000E+00 0.  1.
         -2    1    1    2    0  502 -0.39677788417E+02 -0.16444366195E+02  0.14305798937E+03  0.14936643665E+03  0.00000000000E+00 0. -1.
</event>
<event>
 4    1  0.1800096E+004  0.4162811E+02  0.7546771E-02  0.1339200E+00
         21   -1    0    0  501  502  0.00000000000E+00  0.00000000000E+00  0.32495693025E+03  0.32495693025E+03  0.00000000000E+00 0.  1.
         21   -1    0    0  502  503 -0.00000000000E+00 -0.00000000000E+00 -0.61323264965E+01  0.61323264965E+01  0.00000000000E+00 0. -1.
          2    1    1    2  501    0 -0.65104439817E+01  0.41115851632E+02  0.21919079295E+03  0.22310872428E+03  0.00000000000E+00 0. -1.
         -2    1    1    2    0  503  0.65104439817E+01 -0.41115851632E+02  0.99633810801E+02  0.10798053246E+03  0.00000000000E+00 0.  1.
</event>
<event>
 4    1  0.1800096E+004  0.2111752E+02  0.7546771E-02  0.1517593E+00
         21   -1    0    0  501  502  0.00000000000E+00  0.00000000000E+00  0.13868295652E+03  0.13868295652E+03  0.00000000000E+00 0.  1.
         21   -1    0    0  502  503 -0.00000000000E+00 -0.00000000000E+00 -0.73342216048E+01  0.73342216048E+01  0.00000000000E+00 0. -1.
          2    1    1    2  501    0 -0.14015349677E+02  0.15796193732E+02  0.12038510453E+03  0.12222325129E+03  0.00000000000E+00 0.  1.
         -2    1    1    2    0  503  0.14015349677E+02 -0.15796193732E+02  0.10963630383E+02  0.23793926834E+02  0.00000000000E+00 0. -1.
</event>
<event>
 4    1  0.1800096E+004  0.2060937E+02  0.7546771E-02  0.1524916E+00
         21   -1    0    0  503  502  0.00000000000E+00  0.00000000000E+00  0.46256924691E+03  0.46256924691E+03  0.00000000000E+00 0. -1.
         21   -1    0    0  501  503 -0.00000000000E+00 -0.00000000000E+00 -0.22550080190E+01  0.22550080190E+01  0.00000000000E+00 0.  1.
          2    1    1    2  501    0  0.18950118058E+02  0.81018036460E+01  0.51214432501E+02  0.55205654540E+02  0.00000000000E+00 0.  1.
         -2    1    1    2    0  502 -0.18950118058E+02 -0.81018036460E+01  0.40909980639E+03  0.40961860039E+03  0.00000000000E+00 0. -1.
</event>
<event>
 4    1  0.1800096E+004  0.2878106E+02  0.7546771E-02  0.1430493E+00
         21   -1    0    0  503  502  0.00000000000E+00  0.00000000000E+00  0.55667413831E+01  0.55667413831E+01  0.00000000000E+00 0.  1.
         21   -1    0    0  501  503 -0.00000000000E+00 -0.00000000000E+00 -0.27910551046E+03  0.27910551046E+03  0.00000000000E+00 0. -1.
          2    1    1    2  501    0 -0.15474330812E+02 -0.24267152422E+02 -0.23402323244E+03  0.23578639258E+03  0.00000000000E+00 0. -1.
         -2    1    1    2    0  502  0.15474330812E+02  0.24267152422E+02 -0.39515536630E+02  0.48885859264E+02  0.00000000000E+00 0.  1.
</event>
<event>
 4    1  0.1800096E+004  0.6165358E+02  0.7546771E-02  0.1254315E+00
         21   -1    0    0  501  502  0.00000000000E+00  0.00000000000E+00  0.16515611432E+02  0.16515611432E+02  0.00000000000E+00 0.  1.
         21   -1    0    0  502  503 -0.00000000000E+00 -0.00000000000E+00 -0.66965742934E+03  0.66965742934E+03  0.00000000000E+00 0. -1.
          2    1    1    2  501    0 -0.61059290779E+02  0.85397397922E+01 -0.48626755681E+02  0.78522133913E+02  0.00000000000E+00 0.  1.
         -2    1    1    2    0  503  0.61059290779E+02 -0.85397397922E+01 -0.60451506223E+03  0.60765090686E+03  0.00000000000E+00 0. -1.
</event>
<event>
 4    1  0.1800096E+004  0.2288608E+02  0.7546771E-02  0.1493934E+00
         21   -1    0    0  501  502  0.00000000000E+00  0.00000000000E+00  0.10777400014E+02  0.10777400014E+02  0.00000000000E+00 0.  1.
         21   -1    0    0  502  503 -0.00000000000E+00 -0.00000000000E+00 -0.85898434833E+02  0.85898434833E+02  0.00000000000E+00 0. -1.
          2    1    1    2  501    0  0.17814129886E+02  0.14367654426E+02 -0.57078773251E+01  0.23587127439E+02  0.00000000000E+00 0.  1.
         -2    1    1    2    0  503 -0.17814129886E+02 -0.14367654426E+02 -0.69413157493E+02  0.73088707407E+02  0.00000000000E+00 0. -1.
</event>
<event>
 4    1  0.1800096E+004  0.2130062E+02  0.7546771E-02  0.1515016E+00
         21   -1    0    0  503  502  0.00000000000E+00  0.00000000000E+00  0.31072383047E+03  0.31072383047E+03  0.00000000000E+00 0. -1.
         21   -1    0    0  501  503 -0.00000000000E+00 -0.00000000000E+00 -0.57248049440E+01  0.57248049440E+01  0.00000000000E+00 0.  1.
          2    1    1    2  501    0 -0.18658978574E+02 -0.10274178202E+02  0.15936612028E+02  0.26602477743E+02  0.00000000000E+00 0.  1.
         -2    1    1    2    0  502  0.18658978574E+02  0.10274178202E+02  0.28906241350E+03  0.28984615767E+03  0.00000000000E+00 0. -1.
</event>
<event>
 4    1  0.1800096E+004  0.2020562E+02  0.7546771E-02  0.1530915E+00
         21   -1    0    0  501  502  0.00000000000E+00  0.00000000000E+00  0.15051118228E+02  0.15051118228E+02  0.00000000000E+00 0. -1.
         21   -1    0    0  502  503 -0.00000000000E+00 -0.00000000000E+00 -0.53986991869E+02  0.53986991869E+02  0.00000000000E+00 0.  1.
          2    1    1    2  501    0  0.13410902955E+02  0.15113393452E+02  0.48810301932E+01  0.20786809169E+02  0.00000000000E+00 0. -1.
         -2    1    1    2    0  503 -0.13410902955E+02 -0.15113393452E+02 -0.43816903834E+02  0.48251300928E+02  0.00000000000E+00 0.  1.
</event>
<event>
 4    1  0.1800096E+004  0.2023698E+02  0.7546771E-02  0.1530443E+00
         21   -1    0    0  503  502  0.00000000000E+00  0.00000000000E+00  0.93319735343E+02  0.93319735343E+02  0.00000000000E+00 0.  1.
         21   -1    0    0  501  503 -0.00000000000E+00 -0.00000000000E+00 -0.44551542569E+01  0.44551542569E+01  0.00000000000E+00 0. -1.
          2    1    1    2  501    0 -0.17840918900E+02  0.95518107924E+01  0.38453457406E+02  0.43453467792E+02  0.00000000000E+00 0. -1.
         -2    1    1    2    0  502  0.17840918900E+02 -0.95518107924E+01  0.50411123679E+02  0.54321421808E+02  0.00000000000E+00 0.  1.
</event>
<event>
 4    1  0.1800096E+004  0.3593712E+02  0.7546771E-02  0.1374092E+00
         21   -1    0    0  501  502  0.00000000000E+00  0.00000000000E+00  0.17002636751E+02  0.17002636751E+02  0.00000000000E+00 0. -1.
         21   -1    0    0  502  503 -0.00000000000E+00 -0.00000000000E+00 -0.80365946368E+02  0.80365946368E+02  0.00000000000E+00 0.  1.
          2    1    1    2  501    0  0.18639985678E+02 -0.30725027712E+02 -0.20279166855E+02  0.41264040063E+02  0.00000000000E+00 0.  1.
         -2    1    1    2    0  503 -0.18639985678E+02  0.30725027712E+02 -0.43084142762E+02  0.56104543056E+02  0.00000000000E+00 0. -1.
</event>
<event>
 4    1  0.1800096E+004  0.3858196E+02  0.7546771E-02  0.1357002E+00
         21   -1    0    0  501  502  0.00000000000E+00  0.00000000000E+00  0.44725323254E+03  0.44725323254E+03  0.00000000000E+00 0. -1.
         21   -1    0    0  502  503 -0.00000000000E+00 -0.00000000000E+00 -0.55745243152E+01  0.55745243152E+01  0.00000000000E+00 0.  1.
          2    1    1    2  501    0  0.37619504864E+02 -0.85639178762E+01  0.36456395920E+03  0.36659984749E+03  0.00000000000E+00 0. -1.
         -2    1    1    2    0  503 -0.37619504864E+02  0.85639178762E+01  0.77114749031E+02  0.86227909366E+02  0.00000000000E+00 0.  1.
</event>
<event>
 4    1  0.1800096E+004  0.2254353E+02  0.7546771E-02  0.1498311E+00
         21   -1    0    0  503  502  0.00000000000E+00  0.00000000000E+00  0.11989715778E+02  0.11989715778E+02  0.00000000000E+00 0.  1.
         21   -1    0    0  501  503 -0.00000000000E+00 -0.00000000000E+00 -0.44330792485E+02  0.44330792485E+02  0.00000000000E+00 0. -1.
          2    1    1    2  501    0  0.18724323299E+02  0.12554307336E+02 -0.22066876391E+02  0.31546124157E+02  0.00000000000E+00 0.  1.
         -2    1    1    2    0  502 -0.18724323299E+02 -0.12554307336E+02 -0.10274200315E+02  0.24774384105E+02  0.00000000000E+00 0. -1.
</event>
<event>
 4    1  0.1800096E+004  0.3485331E+02  0.7546771E-02  0.1381597E+00
         21   -1    0    0  503  502  0.00000000000E+00  0.00000000000E+00  0.65150345852E+02  0.65150345852E+02  0.00000000000E+00 0.  1.
         21   -1    0    0  501  503 -0.00000000000E+00 -0.00000000000E+00 -0.18885499252E+02  0.18885499252E+02  0.00000000000E+00 0. -1.
          2    1    1    2  501    0  0.16786049617E+02  0.30544751801E+02  0.18394601609E+02  0.39409576155E+02  0.00000000000E+00 0. -1.
         -2    1    1    2    0  502 -0.16786049617E+02 -0.30544751801E+02  0.27870244991E+02  0.44626268948E+02  0.00000000000E+00 0.  1.
</event>
<event>
 4    1  0.1800096E+004  0.2581808E+02  0.7546771E-02  0.1459856E+00
         21   -1    0    0  503  502  0.00000000000E+00  0.00000000000E+00  0.38845007317E+01  0.38845007317E+01  0.00000000000E+00 0.  1.
         21   -1    0    0  501  503 -0.00000000000E+00 -0.00000000000E+00 -0.32484468980E+03  0.32484468980E+03  0.00000000000E+00 0. -1.
          2    1    1    2  501    0  0.24953643648E+02 -0.66248823369E+01 -0.27337273560E+03  0.27458919492E+03  0.00000000000E+00 0. -1.
         -2    1    1    2    0  502 -0.24953643648E+02  0.66248823369E+01 -0.47587453470E+02  0.54139995614E+02  0.00000000000E+00 0.  1.
</event>
<event>
 4    1  0.1800096E+004  0.2865493E+02  0.7546771E-02  0.1431657E+00
         21   -1    0    0  501  502  0.00000000000E+00  0.00000000000E+00  0.28800246068E+01  0.28800246068E+01  0.00000000000E+00 0. -1.
         21   -1    0    0  502  503 -0.00000000000E+00 -0.00000000000E+00 -0.99743921733E+03  0.99743921733E+03  0.00000000000E+00 0.  1.
          2    1    1    2  501    0 -0.28342687764E+02 -0.42186374313E+01 -0.74603397058E+02  0.79917280384E+02  0.00000000000E+00 0. -1.
         -2    1    1    2    0  503  0.28342687764E+02  0.42186374313E+01 -0.91995579566E+03  0.92040196155E+03  0.00000000000E+00 0.  1.
</event>
<event>
 4    1  0.1800096E+004  0.2066643E+02  0.7546771E-02  0.1524081E+00
         21   -1    0    0  503  502  0.00000000000E+00  0.00000000000E+00  0.20110642386E+03  0.20110642386E+03  0.00000000000E+00 0. -1.
         21   -1    0    0  501  503 -0.00000000000E+00 -0.00000000000E+00 -0.25411232242E+01  0.25411232242E+01  0.00000000000E+00 0.  1.
          2    1    1    2  501    0  0.32314833445E+01  0.20412219670E+02  0.58016408310E+02  0.61587375571E+02  0.00000000000E+00 0.  1.
         -2    1    1    2    0  502 -0.32314833445E+01 -0.20412219670E+02  0.14054889232E+03  0.14206017151E+03  0.00000000000E+00 0. -1.
</event>
<event>
 4    1  0.1800096E+004  0.2569297E+02  0.7546771E-02  0.1461198E+00
         21   -1    0    0  503  502  0.00000000000E+00  0.00000000000E+00  0.69058908239E+02  0.69058908239E+02  0.00000000000E+00 0. -1.
         21   -1    0    0  501  503 -0.00000000000E+00 -0.00000000000E+00 -0.29435266995E+02  0.29435266995E+02  0.00000000000E+00 0.  1.
          2    1    1    2  501    0  0.14838443937E+00 -0.25692542589E+02 -0.20656466105E+02  0.32966928194E+02  0.00000000000E+00 0.  1.
         -2    1    1    2    0  502 -0.14838443937E+00  0.25692542589E+02  0.60280107349E+02  0.65527247040E+02  0.00000000000E+00 0. -1.
</event>
<event>
 4    1  0.1800096E+004  0.7532511E+02  0.7546771E-02  0.1215137E+00
         21   -1    0    0  503  502  0.00000000000E+00  0.00000000000E+00  0.96326756841E+02  0.96326756841E+02  0.00000000000E+00 0. -1.
         21   -1    0    0  501  503 -0.00000000000E+00 -0.00000000000E+00 -0.13440198554E+03  0.13440198554E+03  0.00000000000E+00 0.  1.
          2    1    1    2  501    0  0.71784919682E+02  0.22821000831E+02 -0.10550279949E+03  0.12963299531E+03  0.00000000000E+00 0.  1.
         -2    1    1    2    0  502 -0.71784919682E+02 -0.22821000831E+02  0.67427570792E+02  0.10109574707E+03  0.00000000000E+00 0. -1.
</event>
<event>
 4    1  0.1800096E+004  0.3943318E+02  0.7546771E-02  0.1351840E+00
         21   -1    0    0  503  502  0.00000000000E+00  0.00000000000E+00  0.72169839664E+02  0.72169839664E+02  0.00000000000E+00 0.  1.
         21   -1    0    0  501  503 -0.00000000000E+00 -0.00000000000E+00 -0.24327396319E+02  0.24327396319E+02  0.00000000000E+00 0. -1.
          2    1    1    2  501    0  0.37356465442E+02 -0.12628148727E+02  0.40235349661E+02  0.56337012815E+02  0.00000000000E+00 0. -1.
         -2    1    1    2    0  502 -0.37356465442E+02  0.12628148727E+02  0.76070936844E+01  0.40160223168E+02  0.00000000000E+00 0.  1.
</event>
<event>
 4    1  0.1800096E+004  0.2110137E+02  0.7546771E-02  0.1517822E+00
         21   -1    0    0  501  502  0.00000000000E+00  0.00000000000E+00  0.39672999046E+02  0.39672999046E+02  0.00000000000E+00 0. -1.
         21   -1    0    0  502  503 -0.00000000000E+00 -0.00000000000E+00 -0.67440517314E+02  0.67440517314E+02  0.00000000000E+00 0.  1.
          2    1    1    2  501    0 -0.16542879582E+02 -0.13099650971E+02  0.35013886302E+02  0.40880801783E+02  0.00000000000E+00 0. -1.
         -2    1    1    2    0  503  0.16542879582E+02  0.13099650971E+02 -0.62781404571E+02  0.66232714577E+02  0.00000000000E+00 0.  1.
</event>
<event>
 4    1  0.1800096E+004  0.2399428E+02  0.7546771E-02  0.1480377E+00
         21   -1    0    0  503  502  0.00000000000E+00  0.00000000000E+00  0.10061978013E+03  0.10061978013E+03  0.00000000000E+00 0.  1.
         21   -1    0    0  501  503 -0.00000000000E+00 -0.00000000000E+00 -0.71921445594E+01  0.71921445594E+01  0.00000000000E+00 0. -1.
          2    1    1    2  501    0 -0.19196761076E+02 -0.14394777180E+02  0.71087359699E+02  0.75027581294E+02  0.00000000000E+00 0.  1.
         -2    1    1    2    0  502  0.19196761076E+02  0.14394777180E+02  0.22340275873E+02  0.32784343397E+02  0.00000000000E+00 0. -1.
</event>
<event>
 4    1  0.1800096E+004  0.5296551E+02  0.7546771E-02  0.1285803E+00
         21   -1    0    0  503  502  0.00000000000E+00  0.00000000000E+00  0.15725031809E+03  0.15725031809E+03  0.00000000000E+00 0.  1.
         21   -1    0    0  501  503 -0.00000000000E+00 -0.00000000000E+00 -0.23354962823E+02  0.23354962823E+02  0.00000000000E+00 0. -1.
          2    1    1    2  501    0 -0.28411259019E+02 -0.44700618563E+02  0.23066089393E+02  0.57770142971E+02  0.00000000000E+00 0. -1.
         -2    1    1    2    0  502  0.28411259019E+02  0.44700618563E+02  0.11082926587E+03  0.12283513794E+03  0.00000000000E+00 0.  1.
</event>
<event>
 4    1  0.1800096E+004  0.2162949E+02  0.7546771E-02  0.1510464E+00
         21   -1    0    0  503  502  0.00000000000E+00  0.00000000000E+00  0.87048668180E+01  0.87048668180E+01  0.00000000000E+00 0. -1.
         21   -1    0    0  501  503 -0.00000000000E+00 -0.00000000000E+00 -0.64463597003E+02  0.64463597003E+02  0.00000000000E+00 0.  1.
          2    1    1    2  501    0  0.36754356218E+01 -0.21314924459E+02 -0.42797853145E+02  0.47953008931E+02  0.00000000000E+00 0.  1.
         -2    1    1    2    0  502 -0.36754356218E+01  0.21314924459E+02 -0.12960877040E+02  0.25215454891E+02  0.00000000000E+00 0. -1.
</event>
<event>
 4    1  0.1800096E+004  0.2312492E+02  0.7546771E-02  0.1490935E+00
         21   -1    0    0  503  502  0.00000000000E+00  0.00000000000E+00  0.14041537341E+03  0.14041537341E+03  0.00000000000E+00 0. -1.
         21   -1    0    0  501  503 -0.00000000000E+00 -0.00000000000E+00 -0.55516512937E+01  0.55516512937E+01  0.00000000000E+00 0.  1.
          2    1    1    2  501    0 -0.81657338396E+01 -0.21635221786E+02  0.26534996716E+02  0.35197557892E+02  0.00000000000E+00 0.  1.
         -2    1    1    2    0  502  0.81657338396E+01  0.21635221786E+02  0.10832872540E+03  0.11076946682E+03  0.00000000000E+00 0. -1.
</event>
<event>
 4    1  0.1800096E+004  0.2559918E+02  0.7546771E-02  0.1462211E+00
         21   -1    0    0  501  502  0.00000000000E+00  0.00000000000E+00  0.11863373291E+03  0.11863373291E+03  0.00000000000E+00 0. -1.
         21   -1    0    0  502  503 -0.00000000000E+00 -0.00000000000E+00 -0.92794455326E+01  0.92794455326E+01  0.00000000000E+00 0.  1.
          2    1    1    2  501    0 -0.25594042900E+02  0.51278589949E+00  0.95364756381E+02  0.98740846365E+02  0.00000000000E+00 0. -1.
         -2    1    1    2    0  503  0.25594042900E+02 -0.51278589949E+00  0.13989530997E+02  0.29172332078E+02  0.00000000000E+00 0.  1.
</event>
<event>
 4    1  0.1800096E+004  0.2535922E+02  0.7546771E-02  0.1464825E+00
         21   -1    0    0  501  502  0.00000000000E+00  0.00000000000E+00  0.19266583331E+01  0.19266583331E+01  0.00000000000E+00 0. -1.
         21   -1    0    0  502  503 -0.00000000000E+00 -0.00000000000E+00 -0.49442056235E+03  0.49442056235E+03  0.00000000000E+00 0.  1.
          2    1    1    2  501    0 -0.19344866482E+02  0.16397135365E+02 -0.10478879153E+03  0.10781363892E+03  0.00000000000E+00 0. -1.
         -2    1    1    2    0  503  0.19344866482E+02 -0.16397135365E+02 -0.38770511249E+03  0.38853358176E+03  0.00000000000E+00 0.  1.
</event>
<event>
 4    1  0.1800096E+004  0.2381449E+02  0.7546771E-02  0.1482516E+00
         21   -1    0    0  503  502  0.00000000000E+00  0.00000000000E+00  0.29338122089E+03  0.29338122089E+03  0.00000000000E+00 0.  1.
         21   -1    0    0  501  503 -0.00000000000E+00 -0.00000000000E+00 -0.42736762526E+01  0.42736762526E+01  0.00000000000E+00 0. -1.
          2    1    1    2  501    0 -0.16658098689E+01 -0.23756158883E+02  0.34413720125E+02  0.41850139071E+02  0.00000000000E+00 0. -1.
         -2    1    1    2    0  502  0.16658098689E+01  0.23756158883E+02  0.25469382451E+03  0.25580475807E+03  0.00000000000E+00 0.  1.
</event>
<event>
 4    1  0.1800096E+004  0.2243612E+02  0.7546771E-02  0.1499703E+00
         21   -1    0    0  503  502  0.00000000000E+00  0.00000000000E+00  0.11190854073E+02  0.11190854073E+02  0.00000000000E+00 0.  1.
         21   -1    0    0  501  503 -0.00000000000E+00 -0.00000000000E+00 -0.13272703571E+03  0.13272703571E+03  0.00000000000E+00 0. -1.
          2    1    1    2  501    0  0.99514189032E+01  0.20108421282E+02 -0.11927646891E+03  0.12136826348E+03  0.00000000000E+00 0. -1.
         -2    1    1    2    0  502 -0.99514189032E+01 -0.20108421282E+02 -0.22597127241E+01  0.22549626299E+02  0.00000000000E+00 0.  1.
</event>
<event>
 4    1  0.1800096E+004  0.2370196E+02  0.7546771E-02  0.1483867E+00
         21   -1    0    0  503  502  0.00000000000E+00  0.00000000000E+00  0.47474594564E+02  0.47474594564E+02  0.00000000000E+00 0.  1.
         21   -1    0    0  501  503 -0.00000000000E+00 -0.00000000000E+00 -0.12309673546E+02  0.12309673546E+02  0.00000000000E+00 0. -1.
          2    1    1    2  501    0 -0.17222541071E+02  0.16283949893E+02  0.23462631376E+02  0.33350832315E+02  0.00000000000E+00 0.  1.
         -2    1    1    2    0  502  0.17222541071E+02 -0.16283949893E+02  0.11702289642E+02  0.26433435795E+02  0.00000000000E+00 0. -1.
</event>
<event>
 4    1  0.1800096E+004  0.3251788E+02  0.7546771E-02  0.1398907E+00
         21   -1    0    0  501  502  0.00000000000E+00  0.00000000000E+00  0.27107304290E+02  0.27107304290E+02  0.00000000000E+00 0.  1.
         21   -1    0    0  502  503 -0.00000000000E+00 -0.00000000000E+00 -0.39179438624E+02  0.39179438624E+02  0.00000000000E+00 0. -1.
          2    1    1    2  501    0 -0.18323570051E+02  0.26863720278E+02 -0.82258908742E+01  0.33542181910E+02  0.00000000000E+00 0. -1.
         -2    1    1    2    0  503  0.18323570051E+02 -0.26863720278E+02 -0.38462434591E+01  0.32744561004E+02  0.00000000000E+00 0.  1.
</event>
<event>
 4    1  0.1800096E+004  0.2148267E+02  0.7546771E-02  0.1512484E+00
         21   -1    0    0  503  502  0.00000000000E+00  0.00000000000E+00  0.31524175461E+02  0.31524175461E+02  0.00000000000E+00 0.  1.
         21   -1    0    0  501  503 -0.00000000000E+00 -0.00000000000E+00 -0.17544706188E+02  0.17544706188E+02  0.00000000000E+00 0. -1.
          2    1    1    2  501    0 -0.25343662207E+01 -0.21332656040E+02 -0.29935822511E+01  0.21690245746E+02  0.00000000000E+00 0. -1.
         -2    1    1    2    0  502  0.25343662207E+01  0.21332656040E+02  0.16973051523E+02  0.27378635902E+02  0.00000000000E+00 0.  1.
</event>
<event>
 4    1  0.1800096E+004  0.4076284E+02  0.7546771E-02  0.1344073E+00
         21   -1    0    0  501  502  0.00000000000E+00  0.00000000000E+00  0.49971894882E+02  0.49971894882E+02  0.00000000000E+00 0. -1.
         21   -1    0    0  502  503 -0.00000000000E+00 -0.00000000000E+00 -0.46497260787E+02  0.46497260787E+02  0.00000000000E+00 0.  1.
          2    1    1    2  501    0 -0.35740180295E+02  0.19602261629E+02  0.27482354255E+02  0.49161864732E+02  0.00000000000E+00 0. -1.
         -2    1    1    2    0  503  0.35740180295E+02 -0.19602261629E+02 -0.24007720160E+02  0.47307290937E+02  0.00000000000E+00 0.  1.
</event>
<event>
 4    1  0.1800096E+004  0.5117127E+02  0.7546771E-02  0.1293173E+00
         21   -1    0    0  503  502  0.00000000000E+00  0.00000000000E+00  0.12707128483E+02  0.12707128483E+02  0.00000000000E+00 0.  1.
         21   -1    0    0  501  503 -0.00000000000E+00 -0.00000000000E+00 -0.31140657723E+03  0.31140657723E+03  0.00000000000E+00 0. -1.
          2    1    1    2  501    0  0.36281711343E+02  0.36085118609E+02 -0.24360437339E+03  0.24892084906E+03  0.00000000000E+00 0. -1.
         -2    1    1    2    0  502 -0.36281711343E+02 -0.36085118609E+02 -0.55095075360E+02  0.75192856655E+02  0.00000000000E+00 0.  1.
</event>
<event>
 4    1  0.1800096E+004  0.2319781E+02  0.7546771E-02  0.1490029E+00
         21   -1    0    0  501  502  0.00000000000E+00  0.00000000000E+00  0.83623370599E+00  0.83623370599E+00  0.00000000000E+00 0. -1.
         21   -1    0    0  502  503 -0.00000000000E+00 -0.00000000000E+00 -0.68054598993E+03  0.68054598993E+03  0.00000000000E+00 0.  1.
          2    1    1    2  501    0 -0.19599120520E+02 -0.12410185358E+02 -0.26039469648E+03  0.26142596692E+03  0.00000000000E+00 0. -1.
         -2    1    1    2    0  503  0.19599120520E+02  0.12410185358E+02 -0.41931505974E+03  0.41995625672E+03  0.00000000000E+00 0.  1.
</event>
<event>
 4    1  0.1800096E+004  0.2691536E+02  0.7546771E-02  0.1448460E+00
         21   -1    0    0  501  502  0.00000000000E+00  0.00000000000E+00  0.21196947341E+01  0.21196947341E+01  0.00000000000E+00 0.  1.
         21   -1    0    0  502  503 -0.00000000000E+00 -0.00000000000E+00 -0.35177181539E+03  0.35177181539E+03  0.00000000000E+00 0. -1.
          2    1    1    2  501    0 -0.24345828460E+02  0.11476822803E+02 -0.14498156889E+03  0.14745878117E+03  0.00000000000E+00 0. -1.
         -2    1    1    2    0  503  0.24345828460E+02 -0.11476822803E+02 -0.20467055176E+03  0.20643272895E+03  0.00000000000E+00 0.  1.
</event>
<event>
 4    1  0.1800096E+004  0.2138976E+02  0.7546771E-02  0.1513772E+00
         21   -1    0    0  501  502  0.00000000000E+00  0.00000000000E+00  0.15019449130E+03  0.15019449130E+03  0.00000000000E+00 0. -1.
         21   -1    0    0  502  503 -0.00000000000E+00 -0.00000000000E+00 -0.30771244344E+01  0.30771244344E+01  0.00000000000E+00 0.  1.
          2    1    1    2  501    0 -0.80245006260E+01  0.19827489074E+02  0.81241751632E+02  0.84010381153E+02  0.00000000000E+00 0.  1.
         -2    1    1    2    0  503  0.80245006260E+01 -0.19827489074E+02  0.65875615231E+02  0.69261234578E+02  0.00000000000E+00 0. -1.
</event>
<event>
 4    1  0.1800096E+004  0.2143269E+02  0.7546771E-02  0.1513176E+00
         21   -1    0    0  503  502  0.00000000000E+00  0.00000000000E+00  0.79329859842E+01  0.79329859842E+01  0.00000000000E+00 0.  1.
         21   -1    0    0  501  503 -0.00000000000E+00 -0.00000000000E+00 -0.59730561034E+02  0.59730561034E+02  0.00000000000E+00 0. -1.
          2    1    1    2  501    0 -0.52315911883E+01  0.20784386972E+02 -0.31813227506E+02  0.38359376071E+02  0.00000000000E+00 0. -1.
         -2    1    1    2    0  502  0.52315911883E+01 -0.20784386972E+02 -0.19984347544E+02  0.29304170948E+02  0.00000000000E+00 0.  1.
</event>
<event>
 4    1  0.1800096E+004  0.2008195E+02  0.7546771E-02  0.1532787E+00
         21   -1    0    0  501  502  0.00000000000E+00  0.00000000000E+00  0.10605510355E+02  0.10605510355E+02  0.00000000000E+00 0.  1.
         21   -1    0    0  502  503 -0.00000000000E+00 -0.00000000000E+00 -0.39971232744E+02  0.39971232744E+02  0.00000000000E+00 0. -1.
          2    1    1    2  501    0 -0.10164079516E+02  0.17319819392E+02 -0.91040978724E+01  0.22049246115E+02  0.00000000000E+00 0. -1.
         -2    1    1    2    0  503  0.10164079516E+02 -0.17319819392E+02 -0.20261624516E+02  0.28527496984E+02  0.00000000000E+00 0.  1.
</event>
<event>
 4    1  0.1800096E+004  0.2146215E+02  0.7546771E-02  0.1512768E+00
         21   -1    0    0  503  502  0.00000000000E+00  0.00000000000E+00  0.28446532605E+02  0.28446532605E+02  0.00000000000E+00 0. -1.
         21   -1    0    0  501  503 -0.00000000000E+00 -0.00000000000E+00 -0.34622051773E+02  0.34622051773E+02  0.00000000000E+00 0.  1.
          2    1    1    2  501    0  0.47949287905E+01 -0.20919669112E+02 -0.26094900740E+02  0.33787094319E+02  0.00000000000E+00 0.  1.
         -2    1    1    2    0  502 -0.47949287905E+01  0.20919669112E+02  0.19919381572E+02  0.29281490059E+02  0.00000000000E+00 0. -1.
</event>
<event>
 4    1  0.1800096E+004  0.2257922E+02  0.7546771E-02  0.1497851E+00
         21   -1    0    0  503  502  0.00000000000E+00  0.00000000000E+00  0.11848580387E+02  0.11848580387E+02  0.00000000000E+00 0. -1.
         21   -1    0    0  501  503 -0.00000000000E+00 -0.00000000000E+00 -0.43046281692E+02  0.43046281692E+02  0.00000000000E+00 0.  1.
          2    1    1    2  501    0 -0.15997240032E+02 -0.15934538688E+02 -0.15033854693E+02  0.27126334046E+02  0.00000000000E+00 0. -1.
         -2    1    1    2    0  502  0.15997240032E+02  0.15934538688E+02 -0.16163846612E+02  0.27768528033E+02  0.00000000000E+00 0.  1.
</event>
<event>
 4    1  0.1800096E+004  0.2043934E+02  0.7546771E-02  0.1527422E+00
         21   -1    0    0  501  502  0.00000000000E+00  0.00000000000E+00  0.28605271304E+03  0.28605271304E+03  0.00000000000E+00 0.  1.
         21   -1    0    0  502  503 -0.00000000000E+00 -0.00000000000E+00 -0.10150089324E+02  0.10150089324E+02  0.00000000000E+00 0. -1.
          2    1    1    2  501    0 -0.94153469051E+01 -0.18141600843E+02  0.27498427374E+03  0.27574284622E+03  0.00000000000E+00 0.  1.
         -2    1    1    2    0  503  0.94153469051E+01  0.18141600843E+02  0.91834997173E+00  0.20459956137E+02  0.00000000000E+00 0. -1.
</event>
<event>
 4    1  0.1800096E+004  0.2607704E+02  0.7546771E-02  0.1457106E+00
         21   -1    0    0  501  502  0.00000000000E+00  0.00000000000E+00  0.93118575968E+02  0.93118575968E+02  0.00000000000E+00 0.  1.
         21   -1    0    0  502  503 -0.00000000000E+00 -0.00000000000E+00 -0.77197305633E+01  0.77197305633E+01  0.00000000000E+00 0. -1.
          2    1    1    2  501    0  0.70744952931E+00 -0.26067438857E+02  0.54418875489E+02  0.60344228083E+02  0.00000000000E+00 0.  1.
         -2    1    1    2    0  503 -0.70744952931E+00  0.26067438857E+02  0.30979969915E+02  0.40494078448E+02  0.00000000000E+00 0. -1.
</event>
<event>
 4    1  0.1800096E+004  0.3886862E+02  0.7546771E-02  0.1355246E+00
         21   -1    0    0  503  502  0.00000000000E+00  0.00000000000E+00  0.29196922900E+02  0.29196922900E+02  0.00000000000E+00 0. -1.
         21   -1    0    0  501  503 -0.00000000000E+00 -0.00000000000E+00 -0.34292786569E+03  0.34292786569E+03  0.00000000000E+00 0.  1.
          2    1    1    2  501    0  0.18220410215E+02 -0.34333451884E+02 -0.32831676904E+03  0.33060954327E+03  0.00000000000E+00 0.  1.
         -2    1    1    2    0  502 -0.18220410215E+02  0.34333451884E+02  0.14585826251E+02  0.41515245321E+02  0.00000000000E+00 0. -1.
</event>
<event>
 4    1  0.1800096E+004  0.3408161E+02  0.7546771E-02  0.1387137E+00
         21   -1    0    0  503  502  0.00000000000E+00  0.00000000000E+00  0.95372970968E+02  0.95372970968E+02  0.00000000000E+00 0.  1.
         21   -1    0    0  501  503 -0.00000000000E+00 -0.00000000000E+00 -0.20575626527E+02  0.20575626527E+02  0.00000000000E+00 0. -1.
          2    1    1    2  501    0 -0.32526508867E+02  0.10177548502E+02  0.36395899871E+00  0.34083555254E+02  0.00000000000E+00 0. -1.
         -2    1    1    2    0  502  0.32526508867E+02 -0.10177548502E+02  0.74433385443E+02  0.81865042241E+02  0.00000000000E+00 0.  1.
</event>
<event>
 4    1  0.1800096E+004  0.2262199E+02  0.7546771E-02  0.1497300E+00
         21   -1    0    0  501  502  0.00000000000E+00  0.00000000000E+00  0.14565143316E+03  0.14565143316E+03  0.00000000000E+00 0. -1.
         21   -1    0    0  502  503 -0.00000000000E+00 -0.00000000000E+00 -0.44065462154E+01  0.44065462154E+01  0.00000000000E+00 0.  1.
          2    1    1    2  501    0 -0.17658256044E+02  0.14140027893E+02  0.10439806919E+03  0.10682093075E+03  0.00000000000E+00 0. -1.
         -2    1    1    2    0  503  0.17658256044E+02 -0.14140027893E+02  0.36846817755E+02  0.43237048627E+02  0.00000000000E+00 0.  1.
</event>
<event>
 4    1  0.1800096E+004  0.2073410E+02  0.7546771E-02  0.1523095E+00
         21   -1    0    0  501  502  0.00000000000E+00  0.00000000000E+00  0.10660737724E+01  0.10660737724E+01  0.00000000000E+00 0.  1.
         21   -1    0    0  502  503 -0.00000000000E+00 -0.00000000000E+00 -0.58331887130E+03  0.58331887130E+03  0.00000000000E+00 0. -1.
          2    1    1    2  501    0  0.20214141254E+02 -0.46142650789E+01 -0.12878641819E+03  0.13044479468E+03  0.00000000000E+00 0.  1.
         -2    1    1    2    0  503 -0.20214141254E+02  0.46142650789E+01 -0.45346637934E+03  0.45394015039E+03  0.00000000000E+00 0. -1.
</event>
<event>
 4    1  0.1800096E+004  0.2433277E+02  0.7546771E-02  0.1476408E+00
         21   -1    0    0  501  502  0.00000000000E+00  0.00000000000E+00  0.97948915486E+01  0.97948915486E+01  0.00000000000E+00 0. -1.
         21   -1    0    0  502  503 -0.00000000000E+00 -0.00000000000E+00 -0.60881286664E+02  0.60881286664E+02  0.00000000000E+00 0.  1.
          2    1    1    2  501    0  0.22036723690E+02 -0.10318250918E+02 -0.22562676765E+02  0.33183698946E+02  0.00000000000E+00 0.  1.
         -2    1    1    2    0  503 -0.22036723690E+02  0.10318250918E+02 -0.28523718351E+02  0.37492479267E+02  0.00000000000E+00 0. -1.
</event>
<event>
 4    1  0.1800096E+004  0.2856967E+02  0.7546771E-02  0.1432447E+00
         21   -1    0    0  501  502  0.00000000000E+00  0.00000000000E+00  0.27776514920E+02  0.27776514920E+02  0.00000000000E+00 0.  1.
         21   -1    0    0  502  503 -0.00000000000E+00 -0.00000000000E+00 -0.58572100478E+02  0.58572100478E+02  0.00000000000E+00 0. -1.
          2    1    1    2  501    0  0.28439194985E+02  0.27272824345E+01  0.15079190746E+02  0.32304920282E+02  0.00000000000E+00 0.  1.
         -2    1    1    2    0  503 -0.28439194985E+02 -0.27272824345E+01 -0.45874776304E+02  0.54043695116E+02  0.00000000000E+00 0. -1.
</event>
<event>
 4    1  0.1800096E+004  0.2335615E+02  0.7546771E-02  0.1488074E+00
         21   -1    0    0  501  502  0.00000000000E+00  0.00000000000E+00  0.22354141559E+02  0.22354141559E+02  0.00000000000E+00 0.  1.
         21   -1    0    0  502  503 -0.00000000000E+00 -0.00000000000E+00 -0.24933408070E+02  0.24933408070E+02  0.00000000000E+00 0. -1.
          2    1    1    2  501    0  0.12902879840E+02  0.19468578202E+02  0.21586218507E+01  0.23455692138E+02  0.00000000000E+00 0. -1.
         -2    1    1    2    0  503 -0.12902879840E+02 -0.19468578202E+02 -0.47378883616E+01  0.23831857492E+02  0.00000000000E+00 0.  1.
</event>
<event>
 4    1  0.1800096E+004  0.2403257E+02  0.7546771E-02  0.1479924E+00
         21   -1    0    0  501  502  0.00000000000E+00  0.00000000000E+00  0.42130659058E+02  0.42130659058E+02  0.00000000000E+00 0. -1.
         21   -1    0    0  502  503 -0.00000000000E+00 -0.00000000000E+00 -0.14895747123E+02  0.14895747123E+02  0.00000000000E+00 0.  1.
          2    1    1    2  501    0  0.14531866109E+02 -0.19141302811E+02  0.21665937079E+02  0.32357030695E+02  0.00000000000E+00 0.  1.
         -2    1    1    2    0  503 -0.14531866109E+02  0.19141302811E+02  0.55689748554E+01  0.24669375485E+02  0.00000000000E+00 0. -1.
</event>
<event>
 4    1  0.1800096E+004  0.2514009E+02  0.7546771E-02  0.1467242E+00
         21   -1    0    0  501  502  0.00000000000E+00  0.00000000000E+00  0.33624565603E+03  0.33624565603E+03  0.00000000000E+00 0.  1.
         21   -1    0    0  502  503 -0.00000000000E+00 -0.00000000000E+00 -0.32573919133E+01  0.32573919133E+01  0.00000000000E+00 0. -1.
          2    1    1    2  501    0  0.70879028816E+01 -0.24120230487E+02  0.27689252026E+03  0.27803145804E+03  0.00000000000E+00 0.  1.
         -2    1    1    2    0  503 -0.70879028816E+01  0.24120230487E+02  0.56095743862E+02  0.61471589905E+02  0.00000000000E+00 0. -1.
</event>
<event>
 4    1  0.1800096E+004  0.2700935E+02  0.7546771E-02  0.1447514E+00
         21   -1    0    0  501  502  0.00000000000E+00  0.00000000000E+00  0.13681616454E+03  0.13681616454E+03  0.00000000000E+00 0.  1.
         21   -1    0    0  502  503 -0.00000000000E+00 -0.00000000000E+00 -0.15644936484E+02  0.15644936484E+02  0.00000000000E+00 0. -1.
          2    1    1    2  501    0  0.70409869312E+01 -0.26075460554E+02  0.12247741461E+03  0.12542018271E+03  0.00000000000E+00 0.  1.
         -2    1    1    2    0  503 -0.70409869312E+01  0.26075460554E+02 -0.13061865578E+01  0.27040918317E+02  0.00000000000E+00 0. -1.
</event>
<event>
 4    1  0.1800096E+004  0.2452055E+02  0.7546771E-02  0.1474239E+00
         21   -1    0    0  501  502  0.00000000000E+00  0.00000000000E+00  0.10669811911E+03  0.10669811911E+03  0.00000000000E+00 0. -1.
         21   -1    0    0  502  503 -0.00000000000E+00 -0.00000000000E+00 -0.25518743449E+02  0.25518743449E+02  0.00000000000E+00 0.  1.
          2    1    1    2  501    0  0.20339412717E+02 -0.13695463461E+02  0.98944261387E+02  0.10193735474E+03  0.00000000000E+00 0. -1.
         -2    1    1    2    0  503 -0.20339412717E+02  0.13695463461E+02 -0.17764885727E+02  0.30279507823E+02  0.00000000000E+00 0.  1.
</event>
<event>
 4    1  0.1800096E+004  0.2370258E+02  0.7546771E-02  0.1483859E+00
         21   -1    0    0  503  502  0.00000000000E+00  0.00000000000E+00  0.42243610939E+02  0.42243610939E+02  0.00000000000E+00 0.  1.
         21   -1    0    0  501  503 -0.00000000000E+00 -0.00000000000E+00 -0.18437007974E+02  0.18437007974E+02  0.00000000000E+00 0. -1.
          2    1    1    2  501    0  0.24142781468E+01  0.23579303148E+02 -0.41128316482E+01  0.24056759135E+02  0.00000000000E+00 0. -1.
         -2    1    1    2    0  502 -0.24142781468E+01 -0.23579303148E+02  0.27919434613E+02  0.36623859778E+02  0.00000000000E+00 0.  1.
</event>
<event>
 4    1  0.1800096E+004  0.2120160E+02  0.7546771E-02  0.1516406E+00
         21   -1    0    0  503  502  0.00000000000E+00  0.00000000000E+00  0.10458475590E+02  0.10458475590E+02  0.00000000000E+00 0. -1.
         21   -1    0    0  501  503 -0.00000000000E+00 -0.00000000000E+00 -0.63072113512E+02  0.63072113512E+02  0.00000000000E+00 0.  1.
          2    1    1    2  501    0  0.20799300278E+02 -0.41105961866E+01 -0.47057362149E+02  0.51613014110E+02  0.00000000000E+00 0.  1.
         -2    1    1    2    0  502 -0.20799300278E+02  0.41105961866E+01 -0.55562757719E+01  0.21917574992E+02  0.00000000000E+00 0. -1.
</event>
<event>
 4    1  0.1800096E+004  0.3606228E+02  0.7546771E-02  0.1373245E+00
         21   -1    0    0  501  502  0.00000000000E+00  0.00000000000E+00  0.37722954937E+01  0.37722954937E+01  0.00000000000E+00 0. -1.
         21   -1    0    0  502  503 -0.00000000000E+00 -0.00000000000E+00 -0.57971614936E+03  0.57971614936E+03  0.00000000000E+00 0.  1.
          2    1    1    2  501    0 -0.10697852316E+02 -0.34438991720E+02 -0.10223432662E+03  0.10840823647E+03  0.00000000000E+00 0. -1.
         -2    1    1    2    0  503  0.10697852316E+02  0.34438991720E+02 -0.47370952724E+03  0.47508020838E+03  0.00000000000E+00 0.  1.
</event>
<event>
 4    1  0.1800096E+004  0.2257954E+02  0.7546771E-02  0.1497847E+00
         21   -1    0    0  501  502  0.00000000000E+00  0.00000000000E+00  0.40178742419E+01  0.40178742419E+01  0.00000000000E+00 0. -1.
         21   -1    0    0  502  503 -0.00000000000E+00 -0.00000000000E+00 -0.15483884719E+03  0.15483884719E+03  0.00000000000E+00 0.  1.
          2    1    1    2  501    0  0.16482567982E+02  0.15432445759E+02 -0.41665959977E+02  0.47390797104E+02  0.00000000000E+00 0. -1.
         -2    1    1    2    0  503 -0.16482567982E+02 -0.15432445759E+02 -0.10915501297E+03  0.11146592433E+03  0.00000000000E+00 0.  1.
</event>
<event>
 4    1  0.1800096E+004  0.2381480E+02  0.7546771E-02  0.1482512E+00
         21   -1    0    0  501  502  0.00000000000E+00  0.00000000000E+00  0.13487177950E+02  0.13487177950E+02  0.00000000000E+00 0.  1.
         21   -1    0    0  502  503 -0.00000000000E+00 -0.00000000000E+00 -0.46556411722E+02  0.46556411722E+02  0.00000000000E+00 0. -1.
          2    1    1    2  501    0  0.63061514448E+00 -0.23806449644E+02 -0.71949673009E+01  0.24877947555E+02  0.00000000000E+00 0.  1.
         -2    1    1    2    0  503 -0.63061514448E+00  0.23806449644E+02 -0.25874266471E+02  0.35165642117E+02  0.00000000000E+00 0. -1.
</event>
<event>
 4    1  0.1800096E+004  0.2800037E+02  0.7546771E-02  0.1437810E+00
         21   -1    0    0  501  502  0.00000000000E+00  0.00000000000E+00  0.11954528191E+03  0.11954528191E+03  0.00000000000E+00 0. -1.
         21   -1    0    0  502  503 -0.00000000000E+00 -0.00000000000E+00 -0.15140579587E+02  0.15140579587E+02  0.00000000000E+00 0.  1.
          2    1    1    2  501    0  0.21408137208E+02  0.18047500043E+02  0.10290383366E+03  0.10664529797E+03  0.00000000000E+00 0. -1.
         -2    1    1    2    0  503 -0.21408137208E+02 -0.18047500043E+02  0.15008686658E+01  0.28040563534E+02  0.00000000000E+00 0.  1.
</event>
<event>
 4    1  0.1800096E+004  0.2050177E+02  0.7546771E-02  0.1526499E+00
         21   -1    0    0  503  502  0.00000000000E+00  0.00000000000E+00  0.21984450962E+02  0.21984450962E+02  0.00000000000E+00 0.  1.
         21   -1    0    0  501  503 -0.00000000000E+00 -0.00000000000E+00 -0.70335374080E+02  0.70335374080E+02  0.00000000000E+00 0. -1.
          2    1    1    2  501    0  0.91348835690E+00  0.20481411962E+02 -0.63565110399E+02  0.66789564731E+02  0.00000000000E+00 0. -1.
         -2    1    1    2    0  502 -0.91348835690E+00 -0.20481411962E+02  0.15214187281E+02  0.25530260311E+02  0.00000000000E+00 0.  1.
</event>
<event>
 4    1  0.1800096E+004  0.6221583E+02  0.7546771E-02  0.1252484E+00
         21   -1    0    0  503  502  0.00000000000E+00  0.00000000000E+00  0.27170367995E+03  0.27170367995E+03  0.00000000000E+00 0. -1.
         21   -1    0    0  501  503 -0.00000000000E+00 -0.00000000000E+00 -0.58219193260E+02  0.58219193260E+02  0.00000000000E+00 0.  1.
          2    1    1    2  501    0 -0.15584910951E+02  0.60232218828E+02 -0.36622109228E+02  0.72194103074E+02  0.00000000000E+00 0.  1.
         -2    1    1    2    0  502  0.15584910951E+02 -0.60232218828E+02  0.25010659592E+03  0.25772877014E+03  0.00000000000E+00 0. -1.
</event>
<event>
 4    1  0.1800096E+004  0.2136247E+02  0.7546771E-02  0.1514152E+00
         21   -1    0    0  501  502  0.00000000000E+00  0.00000000000E+00  0.38511633192E+02  0.38511633192E+02  0.00000000000E+00 0.  1.
         21   -1    0    0  502  503 -0.00000000000E+00 -0.00000000000E+00 -0.22333264589E+02  0.22333264589E+02  0.00000000000E+00 0. -1.
          2    1    1    2  501    0 -0.34333844508E+00 -0.21359712710E+02  0.28932674866E+02  0.35964633784E+02  0.00000000000E+00 0.  1.
         -2    1    1    2    0  503  0.34333844508E+00  0.21359712710E+02 -0.12754306263E+02  0.24880263997E+02  0.00000000000E+00 0. -1.
</event>
<event>
 4    1  0.1800096E+004  0.3467259E+02  0.7546771E-02  0.1382880E+00
         21   -1    0    0  501  502  0.00000000000E+00  0.00000000000E+00  0.34991203177E+03  0.34991203177E+03  0.00000000000E+00 0.  1.
         21   -1    0    0  502  503 -0.00000000000E+00 -0.00000000000E+00 -0.34388745637E+01  0.34388745637E+01  0.00000000000E+00 0. -1.
          2    1    1    2  501    0  0.21216043013E+02  0.27423852614E+02  0.17861563780E+03  0.18194981242E+03  0.00000000000E+00 0.  1.
         -2    1    1    2    0  503 -0.21216043013E+02 -0.27423852614E+02  0.16785751941E+03  0.17140109392E+03  0.00000000000E+00 0. -1.
</event>
<event>
 4    1  0.1800096E+004  0.2672267E+02  0.7546771E-02  0.1450414E+00
         21   -1    0    0  503  502  0.00000000000E+00  0.00000000000E+00  0.95540052919E+02  0.95540052919E+02  0.00000000000E+00 0. -1.
         21   -1    0    0  501  503 -0.00000000000E+00 -0.00000000000E+00 -0.10802694459E+02  0.10802694459E+02  0.00000000000E+00 0.  1.
          2    1    1    2  501    0 -0.18299750196E+02  0.19473573518E+02  0.12854874690E+02  0.29653814697E+02  0.00000000000E+00 0.  1.
         -2    1    1    2    0  502  0.18299750196E+02 -0.19473573518E+02  0.71882483770E+02  0.76688932681E+02  0.00000000000E+00 0. -1.
</event>
<event>
 4    1  0.1800096E+004  0.2395470E+02  0.7546771E-02  0.1480846E+00
         21   -1    0    0  503  502  0.00000000000E+00  0.00000000000E+00  0.11002990305E+02  0.11002990305E+02  0.00000000000E+00 0. -1.
         21   -1    0    0  501  503 -0.00000000000E+00 -0.00000000000E+00 -0.54069936260E+02  0.54069936260E+02  0.00000000000E+00 0.  1.
          2    1    1    2  501    0 -0.18631230607E+02  0.15056717133E+02 -0.27661409962E+02  0.36592090482E+02  0.00000000000E+00 0.  1.
         -2    1    1    2    0  502  0.18631230607E+02 -0.15056717133E+02 -0.15405535993E+02  0.28480836083E+02  0.00000000000E+00 0. -1.
</event>
<event>
 4    1  0.1800096E+004  0.2319253E+02  0.7546771E-02  0.1490095E+00
         21   -1    0    0  503  502  0.00000000000E+00  0.00000000000E+00  0.31520260514E+02  0.31520260514E+02  0.00000000000E+00 0. -1.
         21   -1    0    0  501  503 -0.00000000000E+00 -0.00000000000E+00 -0.39296713807E+02  0.39296713807E+02  0.00000000000E+00 0.  1.
          2    1    1    2  501    0  0.19417627964E+02 -0.12682627456E+02 -0.30520957786E+02  0.38333042915E+02  0.00000000000E+00 0.  1.
         -2    1    1    2    0  502 -0.19417627964E+02  0.12682627456E+02  0.22744504493E+02  0.32483931406E+02  0.00000000000E+00 0. -1.
</event>
<event>
 4    1  0.1800096E+004  0.2745384E+02  0.7546771E-02  0.1443102E+00
         21   -1    0    0  503  502  0.00000000000E+00  0.00000000000E+00  0.94983054751E+01  0.94983054751E+01  0.00000000000E+00 0. -1.
         21   -1    0    0  501  503 -0.00000000000E+00 -0.00000000000E+00 -0.80392051571E+02  0.80392051571E+02  0.00000000000E+00 0.  1.
          2    1    1    2  501    0 -0.81726193868E+01 -0.26209192410E+02 -0.40558008654E+02  0.48976173191E+02  0.00000000000E+00 0. -1.
         -2    1    1    2    0  502  0.81726193868E+01  0.26209192410E+02 -0.30335737441E+02  0.40914183855E+02  0.00000000000E+00 0.  1.
</event>
<event>
 4    1  0.1800096E+004  0.2159399E+02  0.7546771E-02  0.1510951E+00
         21   -1    0    0  501  502  0.00000000000E+00  0.00000000000E+00  0.46629420804E+02  0.46629420804E+02  0.00000000000E+00 0. -1.
         21   -1    0    0  502  503 -0.00000000000E+00 -0.00000000000E+00 -0.15445210272E+02  0.15445210272E+02  0.00000000000E+00 0.  1.
          2    1    1    2  501    0 -0.31849143985E+00  0.21591636401E+02  0.34020582163E+02  0.40295163606E+02  0.00000000000E+00 0. -1.
         -2    1    1    2    0  503  0.31849143985E+00 -0.21591636401E+02 -0.28363716309E+01  0.21779467470E+02  0.00000000000E+00 0.  1.
</event>
<event>
 4    1  0.1800096E+004  0.2998640E+02  0.7546771E-02  0.1419715E+00
         21   -1    0    0  503  502  0.00000000000E+00  0.00000000000E+00  0.90228191521E+01  0.90228191521E+01  0.00000000000E+00 0. -1.
         21   -1    0    0  501  503 -0.00000000000E+00 -0.00000000000E+00 -0.22293090680E+03  0.22293090680E+03  0.00000000000E+00 0.  1.
          2    1    1    2  501    0 -0.39337759750E+01 -0.29727252166E+02 -0.19319675020E+03  0.19551002123E+03  0.00000000000E+00 0.  1.
         -2    1    1    2    0  502  0.39337759750E+01  0.29727252166E+02 -0.20711337447E+02  0.36443704718E+02  0.00000000000E+00 0. -1.
</event>
<event>
 4    1  0.1800096E+004  0.2072200E+02  0.7546771E-02  0.1523271E+00
         21   -1    0    0  501  502  0.00000000000E+00  0.00000000000E+00  0.43618696331E+02  0.43618696331E+02  0.00000000000E+00 0.  1.
         21   -1    0    0  502  503 -0.00000000000E+00 -0.00000000000E+00 -0.49725627449E+02  0.49725627449E+02  0.00000000000E+00 0. -1.
          2    1    1    2  501    0  0.16412067620E+02 -0.12650907546E+02  0.38744182932E+02  0.43937605037E+02  0.00000000000E+00 0.  1.
         -2    1    1    2    0  503 -0.16412067620E+02  0.12650907546E+02 -0.44851114050E+02  0.49406718742E+02  0.00000000000E+00 0. -1.
</event>
<event>
 4    1  0.1800096E+004  0.2631353E+02  0.7546771E-02  0.1454628E+00
         21   -1    0    0  501  502  0.00000000000E+00  0.00000000000E+00  0.70083939503E+02  0.70083939503E+02  0.00000000000E+00 0.  1.
         21   -1    0    0  502  503 -0.00000000000E+00 -0.00000000000E+00 -0.32345258145E+02  0.32345258145E+02  0.00000000000E+00 0. -1.
          2    1    1    2  501    0  0.60221492894E+00 -0.26306639601E+02  0.61551653671E+02  0.66940331785E+02  0.00000000000E+00 0.  1.
         -2    1    1    2    0  503 -0.60221492894E+00  0.26306639601E+02 -0.23812972313E+02  0.35488865864E+02  0.00000000000E+00 0. -1.
</event>
<event>
 4    1  0.1800096E+004  0.2141322E+02  0.7546771E-02  0.1513446E+00
         21   -1    0    0  501  502  0.00000000000E+00  0.00000000000E+00  0.15896531645E+03  0.15896531645E+03  0.00000000000E+00 0. -1.
         21   -1    0    0  502  503 -0.00000000000E+00 -0.00000000000E+00 -0.28966727163E+02  0.28966727163E+02  0.00000000000E+00 0.  1.
          2    1    1    2  501    0  0.14287576966E+02 -0.15949647947E+02  0.15416419971E+03  0.15564423085E+03  0.00000000000E+00 0. -1.
         -2    1    1    2    0  503 -0.14287576966E+02  0.15949647947E+02 -0.24165610428E+02  0.32287812756E+02  0.00000000000E+00 0.  1.
</event>
<event>
 4    1  0.1800096E+004  0.2051450E+02  0.7546771E-02  0.1526311E+00
         21   -1    0    0  501  502  0.00000000000E+00  0.00000000000E+00  0.59430275466E+02  0.59430275466E+02  0.00000000000E+00 0.  1.
         21   -1    0    0  502  503 -0.00000000000E+00 -0.00000000000E+00 -0.10519093815E+02  0.10519093815E+02  0.00000000000E+00 0. -1.
          2    1    1    2  501    0  0.12043178586E+02  0.16607421609E+02  0.44449766345E+02  0.48955350383E+02  0.00000000000E+00 0.  1.
         -2    1    1    2    0  503 -0.12043178586E+02 -0.16607421609E+02  0.44614153060E+01  0.20994018898E+02  0.00000000000E+00 0. -1.
</event>
<event>
 4    1  0.1800096E+004  0.2148904E+02  0.7546771E-02  0.1512396E+00
         21   -1    0    0  501  502  0.00000000000E+00  0.00000000000E+00  0.18986265241E+03  0.18986265241E+03  0.00000000000E+00 0.  1.
         21   -1    0    0  502  503 -0.00000000000E+00 -0.00000000000E+00 -0.27969065655E+01  0.27969065655E+01  0.00000000000E+00 0. -1.
          2    1    1    2  501    0 -0.15509850034E+02 -0.14873585811E+02  0.58746522337E+02  0.62553440270E+02  0.00000000000E+00 0.  1.
         -2    1    1    2    0  503  0.15509850034E+02  0.14873585811E+02  0.12831922350E+03  0.13010611870E+03  0.00000000000E+00 0. -1.
</event>
<event>
 4    1  0.1800096E+004  0.2261453E+02  0.7546771E-02  0.1497396E+00
         21   -1    0    0  503  502  0.00000000000E+00  0.00000000000E+00  0.21894540175E+03  0.21894540175E+03  0.00000000000E+00 0. -1.
         21   -1    0    0  501  503 -0.00000000000E+00 -0.00000000000E+00 -0.36509710591E+01  0.36509710591E+01  0.00000000000E+00 0.  1.
          2    1    1    2  501    0  0.53775856205E+00 -0.22608139131E+02  0.40847956582E+02  0.46690177727E+02  0.00000000000E+00 0.  1.
         -2    1    1    2    0  502 -0.53775856205E+00  0.22608139131E+02  0.17444647411E+03  0.17590619509E+03  0.00000000000E+00 0. -1.
</event>
<event>
 4    1  0.1800096E+004  0.3553808E+02  0.7546771E-02  0.1376819E+00
         21   -1    0    0  503  502  0.00000000000E+00  0.00000000000E+00  0.70362605784E+01  0.70362605784E+01  0.00000000000E+00 0. -1.
         21   -1    0    0  501  503 -0.00000000000E+00 -0.00000000000E+00 -0.18413246739E+03  0.18413246739E+03  0.00000000000E+00 0.  1.
          2    1    1    2  501    0  0.43775192652E+01  0.35267446548E+02 -0.10372149723E+03  0.10964079737E+03  0.00000000000E+00 0. -1.
         -2    1    1    2    0  502 -0.43775192652E+01 -0.35267446548E+02 -0.73374709577E+02  0.81527930591E+02  0.00000000000E+00 0.  1.
</event>
<event>
 4    1  0.1800096E+004  0.2230808E+02  0.7546771E-02  0.1501374E+00
         21   -1    0    0  503  502  0.00000000000E+00  0.00000000000E+00  0.32276616279E+01  0.32276616279E+01  0.00000000000E+00 0. -1.
         21   -1    0    0  501  503 -0.00000000000E+00 -0.00000000000E+00 -0.18372898923E+03  0.18372898923E+03  0.00000000000E+00 0.  1.
          2    1    1    2  501    0 -0.32587590890E+01 -0.22068777185E+02 -0.52764447086E+02  0.57286449650E+02  0.00000000000E+00 0. -1.
         -2    1    1    2    0  502  0.32587590890E+01  0.22068777185E+02 -0.12773688052E+03  0.12967020121E+03  0.00000000000E+00 0.  1.
</event>
<event>
 4    1  0.1800096E+004  0.2186917E+02  0.7546771E-02  0.1507208E+00
         21   -1    0    0  503  502  0.00000000000E+00  0.00000000000E+00  0.32251390568E+01  0.32251390568E+01  0.00000000000E+00 0.  1.
         21   -1    0    0  501  503 -0.00000000000E+00 -0.00000000000E+00 -0.19011412509E+03  0.19011412509E+03  0.00000000000E+00 0. -1.
          2    1    1    2  501    0 -0.15331646903E+02  0.15594914161E+02 -0.13878521794E+03  0.14049767778E+03  0.00000000000E+00 0. -1.
         -2    1    1    2    0  502  0.15331646903E+02 -0.15594914161E+02 -0.48103768097E+02  0.52841586365E+02  0.00000000000E+00 0.  1.
</event>
<event>
 4    1  0.1800096E+004  0.2207719E+02  0.7546771E-02  0.1504423E+00
         21   -1    0    0  501  502  0.00000000000E+00  0.00000000000E+00  0.12601406862E+03  0.12601406862E+03  0.00000000000E+00 0. -1.
         21   -1    0    0  502  503 -0.00000000000E+00 -0.00000000000E+00 -0.39963312197E+01  0.39963312197E+01  0.00000000000E+00 0.  1.
          2    1    1    2  501    0  0.13237733549E+02 -0.17668179974E+02  0.72665020279E+02  0.75944765095E+02  0.00000000000E+00 0.  1.
         -2    1    1    2    0  503 -0.13237733549E+02  0.17668179974E+02  0.49352717117E+02  0.54065634741E+02  0.00000000000E+00 0. -1.
</event>
<event>
 4    1  0.1800096E+004  0.3320570E+02  0.7546771E-02  0.1393636E+00
         21   -1    0    0  501  502  0.00000000000E+00  0.00000000000E+00  0.31989760548E+03  0.31989760548E+03  0.00000000000E+00 0. -1.
         21   -1    0    0  502  503 -0.00000000000E+00 -0.00000000000E+00 -0.34533526441E+02  0.34533526441E+02  0.00000000000E+00 0.  1.
          2    1    1    2  501    0 -0.25554720849E+02 -0.21203180721E+02  0.31082124623E+03  0.31258993224E+03  0.00000000000E+00 0. -1.
         -2    1    1    2    0  503  0.25554720849E+02  0.21203180721E+02 -0.25457167183E+02  0.41841199688E+02  0.00000000000E+00 0.  1.
</event>
<event>
 4    1  0.1800096E+004  0.2016844E+02  0.7546771E-02  0.1531476E+00
         21   -1    0    0  503  502  0.00000000000E+00  0.00000000000E+00  0.62266687222E+02  0.62266687222E+02  0.00000000000E+00 0.  1.
         21   -1    0    0  501  503 -0.00000000000E+00 -0.00000000000E+00 -0.24620943238E+02  0.24620943238E+02  0.00000000000E+00 0. -1.
          2    1    1    2  501    0  0.20151498587E+02 -0.82651801490E+00 -0.18414111790E+02  0.27310172837E+02  0.00000000000E+00 0. -1.
         -2    1    1    2    0  502 -0.20151498587E+02  0.82651801490E+00  0.56059855774E+02  0.59577457623E+02  0.00000000000E+00 0.  1.
</event>
<event>
 4    1  0.1800096E+004  0.2245216E+02  0.7546771E-02  0.1499494E+00
         21   -1    0    0  503  502  0.00000000000E+00  0.00000000000E+00  0.45960120096E+02  0.45960120096E+02  0.00000000000E+00 0. -1.
         21   -1    0    0  501  503 -0.00000000000E+00 -0.00000000000E+00 -0.40226893573E+02  0.40226893573E+02  0.00000000000E+00 0.  1.
          2    1    1    2  501    0  0.54687483150E+01  0.21775955550E+02 -0.33885397867E+02  0.40648734751E+02  0.00000000000E+00 0.  1.
         -2    1    1    2    0  502 -0.54687483150E+01 -0.21775955550E+02  0.39618624390E+02  0.45538278918E+02  0.00000000000E+00 0. -1.
</event>
<event>
 4    1  0.1800096E+004  0.2571321E+02  0.7546771E-02  0.1460981E+00
         21   -1    0    0  501  502  0.00000000000E+00  0.00000000000E+00  0.90532698725E+02  0.90532698725E+02  0.00000000000E+00 0.  1.
         21   -1    0    0  502  503 -0.00000000000E+00 -0.00000000000E+00 -0.79041227543E+01  0.79041227543E+01  0.00000000000E+00 0. -1.
          2    1    1    2  501    0  0.25657882417E+02 -0.16858750547E+01  0.54886392394E+02  0.60610932800E+02  0.00000000000E+00 0. -1.
         -2    1    1    2    0  503 -0.25657882417E+02  0.16858750547E+01  0.27742183576E+02  0.37825888679E+02  0.00000000000E+00 0.  1.
</event>
<event>
 4    1  0.1800096E+004  0.2372299E+02  0.7546771E-02  0.1483614E+00
         21   -1    0    0  501  502  0.00000000000E+00  0.00000000000E+00  0.11950406872E+01  0.11950406872E+01  0.00000000000E+00 0. -1.
         21   -1    0    0  502  503 -0.00000000000E+00 -0.00000000000E+00 -0.69210807310E+03  0.69210807310E+03  0.00000000000E+00 0.  1.
          2    1    1    2  501    0  0.23077829386E+02  0.54949023251E+01 -0.54142106874E+03  0.54194054456E+03  0.00000000000E+00 0.  1.
         -2    1    1    2    0  503 -0.23077829386E+02 -0.54949023251E+01 -0.14949196367E+03  0.15136256923E+03  0.00000000000E+00 0. -1.
</event>
<event>
 4    1  0.1800096E+004  0.2610536E+02  0.7546771E-02  0.1456808E+00
         21   -1    0    0  503  502  0.00000000000E+00  0.00000000000E+00  0.59408720839E+01  0.59408720839E+01  0.00000000000E+00 0. -1.
         21   -1    0    0  501  503 -0.00000000000E+00 -0.00000000000E+00 -0.16272269555E+03  0.16272269555E+03  0.00000000000E+00 0.  1.
          2    1    1    2  501    0 -0.22146857729E+02  0.13820505671E+02 -0.12419834338E+03  0.12691224599E+03  0.00000000000E+00 0.  1.
         -2    1    1    2    0  502  0.22146857729E+02 -0.13820505671E+02 -0.32583480080E+02  0.41751321636E+02  0.00000000000E+00 0. -1.
</event>
<event>
 4    1  0.1800096E+004  0.5116645E+02  0.7546771E-02  0.1293193E+00
         21   -1    0    0  503  502  0.00000000000E+00  0.00000000000E+00  0.88899817383E+02  0.88899817383E+02  0.00000000000E+00 0. -1.
         21   -1    0    0  501  503 -0.00000000000E+00 -0.00000000000E+00 -0.31302332877E+02  0.31302332877E+02  0.00000000000E+00 0.  1.
          2    1    1    2  501    0  0.33508369367E+02 -0.38667747155E+02  0.43423123553E+02  0.67108666704E+02  0.00000000000E+00 0. -1.
         -2    1    1    2    0  502 -0.33508369367E+02  0.38667747155E+02  0.14174360954E+02  0.53093483557E+02  0.00000000000E+00 0.  1.
</event>
<event>
 4    1  0.1800096E+004  0.2783867E+02  0.7546771E-02  0.1439361E+00
         21   -1    0    0  501  502  0.00000000000E+00  0.00000000000E+00  0.75081605662E+01  0.75081605662E+01  0.00000000000E+00 0.  1.
         21   -1    0    0  502  503 -0.00000000000E+00 -0.00000000000E+00 -0.10483124462E+03  0.10483124462E+03  0.00000000000E+00 0. -1.
          2    1    1    2  501    0  0.12278187883E+02 -0.24984752865E+02 -0.41697721820E+02  0.50136730830E+02  0.00000000000E+00 0. -1.
         -2    1    1    2    0  503 -0.12278187883E+02  0.24984752865E+02 -0.55625362239E+02  0.62202674360E+02  0.00000000000E+00 0.  1.
</event>
<event>
 4    1  0.1800096E+004  0.2218974E+02  0.7546771E-02  0.1502931E+00
         21   -1    0    0  503  502  0.00000000000E+00  0.00000000000E+00  0.32017848156E+01  0.32017848156E+01  0.00000000000E+00 0.  1.
         21   -1    0    0  501  503 -0.00000000000E+00 -0.00000000000E+00 -0.15382706689E+03  0.15382706689E+03  0.00000000000E+00 0. -1.
          2    1    1    2  501    0  0.39618737893E+01  0.21833187002E+02 -0.74004751547E+02  0.77259871539E+02  0.00000000000E+00 0.  1.
         -2    1    1    2    0  502 -0.39618737893E+01 -0.21833187002E+02 -0.76620530526E+02  0.79768980166E+02  0.00000000000E+00 0. -1.
</event>
<event>
 4    1  0.1800096E+004  0.2155016E+02  0.7546771E-02  0.1511553E+00
         21   -1    0    0  503  502  0.00000000000E+00  0.00000000000E+00  0.29907976384E+02  0.29907976384E+02  0.00000000000E+00 0.  1.
         21   -1    0    0  501  503 -0.00000000000E+00 -0.00000000000E+00 -0.16542197709E+02  0.16542197709E+02  0.00000000000E+00 0. -1.
          2    1    1    2  501    0  0.20132499820E+02  0.76871181881E+01  0.93200823809E+00  0.21570303067E+02  0.00000000000E+00 0.  1.
         -2    1    1    2    0  502 -0.20132499820E+02 -0.76871181881E+01  0.12433770437E+02  0.24879871027E+02  0.00000000000E+00 0. -1.
</event>
<event>
 4    1  0.1800096E+004  0.2018816E+02  0.7546771E-02  0.1531179E+00
         21   -1    0    0  503  502  0.00000000000E+00  0.00000000000E+00  0.10542011360E+03  0.10542011360E+03  0.00000000000E+00 0.  1.
         21   -1    0    0  501  503 -0.00000000000E+00 -0.00000000000E+00 -0.73885962154E+01  0.73885962154E+01  0.00000000000E+00 0. -1.
          2    1    1    2  501    0 -0.15874070330E+02 -0.12472993372E+02  0.10070130924E+02  0.22560345949E+02  0.00000000000E+00 0. -1.
         -2    1    1    2    0  502  0.15874070330E+02  0.12472993372E+02  0.87961386460E+02  0.90248363866E+02  0.00000000000E+00 0.  1.
</event>
<event>
 4    1  0.1800096E+004  0.2288341E+02  0.7546771E-02  0.1493967E+00
         21   -1    0    0  501  502  0.00000000000E+00  0.00000000000E+00  0.13440568222E+03  0.13440568222E+03  0.00000000000E+00 0.  1.
         21   -1    0    0  502  503 -0.00000000000E+00 -0.00000000000E+00 -0.46558592035E+01  0.46558592035E+01  0.00000000000E+00 0. -1.
          2    1    1    2  501    0  0.22638910019E+02 -0.33362191626E+01  0.36786266615E+02  0.43322973313E+02  0.00000000000E+00 0.  1.
         -2    1    1    2    0  503 -0.22638910019E+02  0.33362191626E+01  0.92963556399E+02  0.95738568109E+02  0.00000000000E+00 0. -1.
</event>
<event>
 4    1  0.1800096E+004  0.2198883E+02  0.7546771E-02  0.1505601E+00
         21   -1    0    0  501  502  0.00000000000E+00  0.00000000000E+00  0.97570660876E+00  0.97570660876E+00  0.00000000000E+00 0. -1.
         21   -1    0    0  502  503 -0.00000000000E+00 -0.00000000000E+00 -0.12749378292E+04  0.12749378292E+04  0.00000000000E+00 0.  1.
          2    1    1    2  501    0  0.71538672572E+01  0.20792567214E+02 -0.13818348085E+03  0.13992206062E+03  0.00000000000E+00 0. -1.
         -2    1    1    2    0  503 -0.71538672572E+01 -0.20792567214E+02 -0.11357786418E+04  0.11359914752E+04  0.00000000000E+00 0.  1.
</event>
<event>
 4    1  0.1800096E+004  0.3678569E+02  0.7546771E-02  0.1368426E+00
         21   -1    0    0  503  502  0.00000000000E+00  0.00000000000E+00  0.43819140839E+03  0.43819140839E+03  0.00000000000E+00 0. -1.
         21   -1    0    0  501  503 -0.00000000000E+00 -0.00000000000E+00 -0.42580601132E+01  0.42580601132E+01  0.00000000000E+00 0.  1.
          2    1    1    2  501    0 -0.18013365563E+02  0.32073442250E+02  0.10100623151E+03  0.10749625966E+03  0.00000000000E+00 0.  1.
         -2    1    1    2    0  502  0.18013365563E+02 -0.32073442250E+02  0.33292711677E+03  0.33495320884E+03  0.00000000000E+00 0. -1.
</event>
<event>
 4    1  0.1800096E+004  0.2512833E+02  0.7546771E-02  0.1467373E+00
         21   -1    0    0  501  502  0.00000000000E+00  0.00000000000E+00  0.25948372568E+02  0.25948372568E+02  0.00000000000E+00 0.  1.
         21   -1    0    0  502  503 -0.00000000000E+00 -0.00000000000E+00 -0.34591657587E+02  0.34591657587E+02  0.00000000000E+00 0. -1.
          2    1    1    2  501    0 -0.25123403493E+02  0.49750678419E+00  0.12161757290E+02  0.27916684196E+02  0.00000000000E+00 0.  1.
         -2    1    1    2    0  503  0.25123403493E+02 -0.49750678419E+00 -0.20805042309E+02  0.32623345959E+02  0.00000000000E+00 0. -1.
</event>
<event>
 4    1  0.1800096E+004  0.2067468E+02  0.7546771E-02  0.1523961E+00
         21   -1    0    0  503  502  0.00000000000E+00  0.00000000000E+00  0.68937706747E+01  0.68937706747E+01  0.00000000000E+00 0.  1.
         21   -1    0    0  501  503 -0.00000000000E+00 -0.00000000000E+00 -0.20328566680E+03  0.20328566680E+03  0.00000000000E+00 0. -1.
          2    1    1    2  501    0  0.15059093746E+02 -0.14165663054E+02 -0.18580511323E+03  0.18695181844E+03  0.00000000000E+00 0. -1.
         -2    1    1    2    0  502 -0.15059093746E+02  0.14165663054E+02 -0.10586782898E+02  0.23227619042E+02  0.00000000000E+00 0.  1.
</event>
<event>
 4    1  0.1800096E+004  0.2030445E+02  0.7546771E-02  0.1529431E+00
         21   -1    0    0  501  502  0.00000000000E+00  0.00000000000E+00  0.29351975460E+01  0.29351975460E+01  0.00000000000E+00 0. -1.
         21   -1    0    0  502  503 -0.00000000000E+00 -0.00000000000E+00 -0.14746629384E+03  0.14746629384E+03  0.00000000000E+00 0.  1.
          2    1    1    2  501    0  0.14070185299E+01 -0.20255638479E+02 -0.88659986437E+02  0.90955284543E+02  0.00000000000E+00 0. -1.
         -2    1    1    2    0  503 -0.14070185299E+01  0.20255638479E+02 -0.55871109854E+02  0.59446206839E+02  0.00000000000E+00 0.  1.
</event>
<event>
 4    1  0.1800096E+004  0.2454035E+02  0.7546771E-02  0.1474012E+00
         21   -1    0    0  501  502  0.00000000000E+00  0.00000000000E+00  0.90209581188E+03  0.90209581188E+03  0.00000000000E+00 0.  1.
         21   -1    0    0  502  503 -0.00000000000E+00 -0.00000000000E+00 -0.79996645082E+00  0.79996645082E+00  0.00000000000E+00 0. -1.
          2    1    1    2  501    0  0.24000148898E+02 -0.51207241233E+01  0.63429298367E+03  0.63476753075E+03  0.00000000000E+00 0. -1.
         -2    1    1    2    0  503 -0.24000148898E+02  0.51207241233E+01  0.26700286176E+03  0.26812824758E+03  0.00000000000E+00 0.  1.
</event>
<event>
 4    1  0.1800096E+004  0.3208928E+02  0.7546771E-02  0.1402269E+00
         21   -1    0    0  503  502  0.00000000000E+00  0.00000000000E+00  0.65660384556E+02  0.65660384556E+02  0.00000000000E+00 0.  1.
         21   -1    0    0  501  503 -0.00000000000E+00 -0.00000000000E+00 -0.25079484448E+03  0.25079484448E+03  0.00000000000E+00 0. -1.
          2    1    1    2  501    0  0.19665118617E+02 -0.25357544502E+02 -0.24576789572E+03  0.24785394998E+03  0.00000000000E+00 0. -1.
         -2    1    1    2    0  502 -0.19665118617E+02  0.25357544502E+02  0.60633435790E+02  0.68601279063E+02  0.00000000000E+00 0.  1.
</event>
<event>
 4    1  0.1800096E+004  0.2307789E+02  0.7546771E-02  0.1491522E+00
         21   -1    0    0  503  502  0.00000000000E+00  0.00000000000E+00  0.20144248205E+01  0.20144248205E+01  0.00000000000E+00 0.  1.
         21   -1    0    0  501  503 -0.00000000000E+00 -0.00000000000E+00 -0.27628282162E+03  0.27628282162E+03  0.00000000000E+00 0. -1.
          2    1    1    2  501    0  0.21068947379E+02 -0.94174576240E+01 -0.16600688932E+03  0.16760333037E+03  0.00000000000E+00 0. -1.
         -2    1    1    2    0  502 -0.21068947379E+02  0.94174576240E+01 -0.10826150748E+03  0.11069391607E+03  0.00000000000E+00 0.  1.
</event>
<event>
 4    1  0.1800096E+004  0.2032382E+02  0.7546771E-02  0.1529142E+00
         21   -1    0    0  503  502  0.00000000000E+00  0.00000000000E+00  0.15380216770E+02  0.15380216770E+02  0.00000000000E+00 0. -1.
         21   -1    0    0  501  503 -0.00000000000E+00 -0.00000000000E+00 -0.14765149112E+03  0.14765149112E+03  0.00000000000E+00 0.  1.
          2    1    1    2  501    0 -0.19978171871E+02  0.37323409746E+01 -0.13986623448E+03  0.14133513812E+03  0.00000000000E+00 0.  1.
         -2    1    1    2    0  502  0.19978171871E+02 -0.37323409746E+01  0.75949601280E+01  0.21696569771E+02  0.00000000000E+00 0. -1.
</event>
<event>
 4    1  0.1800096E+004  0.2279797E+02  0.7546771E-02  0.1495051E+00
         21   -1    0    0  503  502  0.00000000000E+00  0.00000000000E+00  0.37865127414E+02  0.37865127414E+02  0.00000000000E+00 0. -1.
         21   -1    0    0  501  503 -0.00000000000E+00 -0.00000000000E+00 -0.27555783636E+02  0.27555783636E+02  0.00000000000E+00 0.  1.
          2    1    1    2  501    0  0.15520254840E+02  0.16699375306E+02 -0.18018392164E+02  0.29058731942E+02  0.00000000000E+00 0.  1.
         -2    1    1    2    0  502 -0.15520254840E+02 -0.16699375306E+02  0.28327735942E+02  0.36362179109E+02  0.00000000000E+00 0. -1.
</event>
<event>
 4    1  0.1800096E+004  0.2258613E+02  0.7546771E-02  0.1497762E+00
         21   -1    0    0  501  502  0.00000000000E+00  0.00000000000E+00  0.93997533320E+01  0.93997533320E+01  0.00000000000E+00 0. -1.
         21   -1    0    0  502  503 -0.00000000000E+00 -0.00000000000E+00 -0.55773389198E+02  0.55773389198E+02  0.00000000000E+00 0.  1.
          2    1    1    2  501    0 -0.84629857790E+01 -0.20940652782E+02 -0.17838331256E+02  0.28780881315E+02  0.00000000000E+00 0. -1.
         -2    1    1    2    0  503  0.84629857790E+01  0.20940652782E+02 -0.28535304610E+02  0.36392261216E+02  0.00000000000E+00 0.  1.
</event>
<event>
 4    1  0.1800096E+004  0.2349088E+02  0.7546771E-02  0.1486424E+00
         21   -1    0    0  501  502  0.00000000000E+00  0.00000000000E+00  0.33531909616E+02  0.33531909616E+02  0.00000000000E+00 0. -1.
         21   -1    0    0  502  503 -0.00000000000E+00 -0.00000000000E+00 -0.20490545268E+02  0.20490545268E+02  0.00000000000E+00 0.  1.
          2    1    1    2  501    0  0.20855010555E+02 -0.10811569829E+02  0.18505518505E+02  0.29904443191E+02  0.00000000000E+00 0.  1.
         -2    1    1    2    0  503 -0.20855010555E+02  0.10811569829E+02 -0.54641541572E+01  0.24118011694E+02  0.00000000000E+00 0. -1.
</event>
<event>
 4    1  0.1800096E+004  0.2100442E+02  0.7546771E-02  0.1519202E+00
         21   -1    0    0  501  502  0.00000000000E+00  0.00000000000E+00  0.41737327955E+02  0.41737327955E+02  0.00000000000E+00 0. -1.
         21   -1    0    0  502  503 -0.00000000000E+00 -0.00000000000E+00 -0.12828677392E+03  0.12828677392E+03  0.00000000000E+00 0.  1.
          2    1    1    2  501    0 -0.20896914208E+02 -0.21224591662E+01  0.38159647228E+02  0.43558518488E+02  0.00000000000E+00 0. -1.
         -2    1    1    2    0  503  0.20896914208E+02  0.21224591662E+01 -0.12470909319E+03  0.12646558338E+03  0.00000000000E+00 0.  1.
</event>
<event>
 4    1  0.1800096E+004  0.2060573E+02  0.7546771E-02  0.1524969E+00
         21   -1    0    0  503  502  0.00000000000E+00  0.00000000000E+00  0.18399510101E+02  0.18399510101E+02  0.00000000000E+00 0.  1.
         21   -1    0    0  501  503 -0.00000000000E+00 -0.00000000000E+00 -0.57265686049E+02  0.57265686049E+02  0.00000000000E+00 0. -1.
          2    1    1    2  501    0 -0.20366416206E+02  0.31313375693E+01 -0.48665412515E+02  0.52848070535E+02  0.00000000000E+00 0. -1.
         -2    1    1    2    0  502  0.20366416206E+02 -0.31313375693E+01  0.97992365669E+01  0.22817125615E+02  0.00000000000E+00 0.  1.
</event>
<event>
 4    1  0.1800096E+004  0.4726584E+02  0.7546771E-02  0.1310483E+00
         21   -1    0    0  503  502  0.00000000000E+00  0.00000000000E+00  0.12836215444E+03  0.12836215444E+03  0.00000000000E+00 0.  1.
         21   -1    0    0  501  503 -0.00000000000E+00 -0.00000000000E+00 -0.20711147748E+02  0.20711147748E+02  0.00000000000E+00 0. -1.
          2    1    1    2  501    0 -0.47137360714E+02  0.34826142149E+01  0.24042269060E+02  0.53029143671E+02  0.00000000000E+00 0. -1.
         -2    1    1    2    0  502  0.47137360714E+02 -0.34826142149E+01  0.83608737630E+02  0.96044158516E+02  0.00000000000E+00 0.  1.
</event>
<event>
 4    1  0.1800096E+004  0.2800576E+02  0.7546771E-02  0.1437759E+00
         21   -1    0    0  501  502  0.00000000000E+00  0.00000000000E+00  0.19121204886E+02  0.19121204886E+02  0.00000000000E+00 0. -1.
         21   -1    0    0  502  503 -0.00000000000E+00 -0.00000000000E+00 -0.58815775475E+02  0.58815775475E+02  0.00000000000E+00 0.  1.
          2    1    1    2  501    0  0.22796224512E+02  0.16268205861E+02  0.15887230603E+01  0.28050782786E+02  0.00000000000E+00 0. -1.
         -2    1    1    2    0  503 -0.22796224512E+02 -0.16268205861E+02 -0.41283293649E+02  0.49886197575E+02  0.00000000000E+00 0.  1.
</event>
<event>
 4    1  0.1800096E+004  0.2203516E+02  0.7546771E-02  0.1504982E+00
         21   -1    0    0  501  502  0.00000000000E+00  0.00000000000E+00  0.75929604712E+02  0.75929604712E+02  0.00000000000E+00 0. -1.
         21   -1    0    0  502  503 -0.00000000000E+00 -0.00000000000E+00 -0.35520441027E+02  0.35520441027E+02  0.00000000000E+00 0.  1.
          2    1    1    2  501    0  0.16149864081E+02  0.14991009703E+02  0.70664835724E+02  0.74020723379E+02  0.00000000000E+00 0. -1.
         -2    1    1    2    0  503 -0.16149864081E+02 -0.14991009703E+02 -0.30255672040E+02  0.37429322360E+02  0.00000000000E+00 0.  1.
</event>
<event>
 4    1  0.1800096E+004  0.2556221E+02  0.7546771E-02  0.1462611E+00
         21   -1    0    0  501  502  0.00000000000E+00  0.00000000000E+00  0.11519572134E+02  0.11519572134E+02  0.00000000000E+00 0. -1.
         21   -1    0    0  502  503 -0.00000000000E+00 -0.00000000000E+00 -0.15646661730E+03  0.15646661730E+03  0.00000000000E+00 0.  1.
          2    1    1    2  501    0  0.29479636993E+01  0.25391653247E+02 -0.54117632102E+01  0.26128791124E+02  0.00000000000E+00 0. -1.
         -2    1    1    2    0  503 -0.29479636993E+01 -0.25391653247E+02 -0.13953528196E+03  0.14185739831E+03  0.00000000000E+00 0.  1.
</event>
<event>
 4    1  0.1800096E+004  0.3432742E+02  0.7546771E-02  0.1385354E+00
         21   -1    0    0  501  502  0.00000000000E+00  0.00000000000E+00  0.25483376506E+03  0.25483376506E+03  0.00000000000E+00 0. -1.
         21   -1    0    0  502  503 -0.00000000000E+00 -0.00000000000E+00 -0.15176169474E+02  0.15176169474E+02  0.00000000000E+00 0.  1.
          2    1    1    2  501    0 -0.55979771805E+01  0.33867901328E+02  0.23240273783E+03  0.23492425298E+03  0.00000000000E+00 0. -1.
         -2    1    1    2    0  503  0.55979771805E+01 -0.33867901328E+02  0.72548577583E+01  0.35085681552E+02  0.00000000000E+00 0.  1.
</event>
<event>
 4    1  0.1800096E+004  0.2211109E+02  0.7546771E-02  0.1503972E+00
         21   -1    0    0  503  502  0.00000000000E+00  0.00000000000E+00  0.23252030988E+02  0.23252030988E+02  0.00000000000E+00 0.  1.
         21   -1    0    0  501  503 -0.00000000000E+00 -0.00000000000E+00 -0.39500313392E+02  0.39500313392E+02  0.00000000000E+00 0. -1.
          2    1    1    2  501    0 -0.13950374842E+02  0.17154807492E+02 -0.29581795171E+02  0.36932140256E+02  0.00000000000E+00 0. -1.
         -2    1    1    2    0  502  0.13950374842E+02 -0.17154807492E+02  0.13333512767E+02  0.25820204125E+02  0.00000000000E+00 0.  1.
</event>
<event>
 4    1  0.1800096E+004  0.3541843E+02  0.7546771E-02  0.1377645E+00
         21   -1    0    0  503  502  0.00000000000E+00  0.00000000000E+00  0.24664317961E+03  0.24664317961E+03  0.00000000000E+00 0. -1.
         21   -1    0    0  501  503 -0.00000000000E+00 -0.00000000000E+00 -0.11790956584E+02  0.11790956584E+02  0.00000000000E+00 0.  1.
          2    1    1    2  501    0 -0.99248590459E+01 -0.33999444527E+02  0.19985863998E+02  0.40668167096E+02  0.00000000000E+00 0.  1.
         -2    1    1    2    0  502  0.99248590459E+01  0.33999444527E+02  0.21486635903E+03  0.21776596910E+03  0.00000000000E+00 0. -1.
</event>
<event>
 4    1  0.1800096E+004  0.2117599E+02  0.7546771E-02  0.1516767E+00
         21   -1    0    0  503  502  0.00000000000E+00  0.00000000000E+00  0.37778773072E+03  0.37778773072E+03  0.00000000000E+00 0.  1.
         21   -1    0    0  501  503 -0.00000000000E+00 -0.00000000000E+00 -0.12046720999E+01  0.12046720999E+01  0.00000000000E+00 0. -1.
          2    1    1    2  501    0  0.57284661014E+01  0.20386451817E+02  0.16532067146E+03  0.16667137472E+03  0.00000000000E+00 0. -1.
         -2    1    1    2    0  502 -0.57284661014E+01 -0.20386451817E+02  0.21126238717E+03  0.21232102810E+03  0.00000000000E+00 0.  1.
</event>
<event>
 4    1  0.1800096E+004  0.4114967E+02  0.7546771E-02  0.1341877E+00
         21   -1    0    0  501  502  0.00000000000E+00  0.00000000000E+00  0.14318954102E+03  0.14318954102E+03  0.00000000000E+00 0. -1.
         21   -1    0    0  502  503 -0.00000000000E+00 -0.00000000000E+00 -0.61035610431E+02  0.61035610431E+02  0.00000000000E+00 0.  1.
          2    1    1    2  501    0 -0.13865227534E+02 -0.38743392046E+02  0.13276539559E+03  0.13899620580E+03  0.00000000000E+00 0. -1.
         -2    1    1    2    0  503  0.13865227534E+02  0.38743392046E+02 -0.50611464996E+02  0.65228945652E+02  0.00000000000E+00 0.  1.
</event>
<event>
 4    1  0.1800096E+004  0.2043757E+02  0.7546771E-02  0.1527448E+00
         21   -1    0    0  503  502  0.00000000000E+00  0.00000000000E+00  0.20654692034E+02  0.20654692034E+02  0.00000000000E+00 0.  1.
         21   -1    0    0  501  503 -0.00000000000E+00 -0.00000000000E+00 -0.20806742570E+02  0.20806742570E+02  0.00000000000E+00 0. -1.
          2    1    1    2  501    0 -0.46070908256E+01 -0.19911532072E+02 -0.35491545354E+01  0.20743454226E+02  0.00000000000E+00 0.  1.
         -2    1    1    2    0  502  0.46070908256E+01  0.19911532072E+02  0.33971039994E+01  0.20717980377E+02  0.00000000000E+00 0. -1.
</event>
<event>
 4    1  0.1800096E+004  0.3022800E+02  0.7546771E-02  0.1417625E+00
         21   -1    0    0  503  502  0.00000000000E+00  0.00000000000E+00  0.18017730301E+02  0.18017730301E+02  0.00000000000E+00 0.  1.
         21   -1    0    0  501  503 -0.00000000000E+00 -0.00000000000E+00 -0.51826681635E+02  0.51826681635E+02  0.00000000000E+00 0. -1.
          2    1    1    2  501    0 -0.92251641173E+01  0.28785906219E+02 -0.22023856938E+02  0.37400298452E+02  0.00000000000E+00 0.  1.
         -2    1    1    2    0  502  0.92251641173E+01 -0.28785906219E+02 -0.11785094397E+02  0.32444113485E+02  0.00000000000E+00 0. -1.
</event>
<event>
 4    1  0.1800096E+004  0.2109139E+02  0.7546771E-02  0.1517964E+00
         21   -1    0    0  501  502  0.00000000000E+00  0.00000000000E+00  0.10910040181E+01  0.10910040181E+01  0.00000000000E+00 0.  1.
         21   -1    0    0  502  503 -0.00000000000E+00 -0.00000000000E+00 -0.44248508407E+03  0.44248508407E+03  0.00000000000E+00 0. -1.
          2    1    1    2  501    0  0.35064770191E+00 -0.21088476562E+02 -0.28284556188E+03  0.28363084929E+03  0.00000000000E+00 0. -1.
         -2    1    1    2    0  503 -0.35064770191E+00  0.21088476562E+02 -0.15854851817E+03  0.15994523879E+03  0.00000000000E+00 0.  1.
</event>
<event>
 4    1  0.1800096E+004  0.2887738E+02  0.7546771E-02  0.1429609E+00
         21   -1    0    0  503  502  0.00000000000E+00  0.00000000000E+00  0.28112510857E+01  0.28112510857E+01  0.00000000000E+00 0.  1.
         21   -1    0    0  501  503 -0.00000000000E+00 -0.00000000000E+00 -0.51345343616E+03  0.51345343616E+03  0.00000000000E+00 0. -1.
          2    1    1    2  501    0 -0.21382908329E+02 -0.19408095990E+02 -0.42306411021E+03  0.42404851645E+03  0.00000000000E+00 0. -1.
         -2    1    1    2    0  502  0.21382908329E+02  0.19408095990E+02 -0.87578074858E+02  0.92216170786E+02  0.00000000000E+00 0.  1.
</event>
<event>
 4    1  0.1800096E+004  0.2016444E+02  0.7546771E-02  0.1531537E+00
         21   -1    0    0  501  502  0.00000000000E+00  0.00000000000E+00  0.12075892700E+03  0.12075892700E+03  0.00000000000E+00 0.  1.
         21   -1    0    0  502  503 -0.00000000000E+00 -0.00000000000E+00 -0.83160763925E+01  0.83160763925E+01  0.00000000000E+00 0. -1.
          2    1    1    2  501    0 -0.62862955073E-01  0.20164338517E+02  0.10600793182E+03  0.10790869339E+03  0.00000000000E+00 0.  1.
         -2    1    1    2    0  503  0.62862955073E-01 -0.20164338517E+02  0.64349187904E+01  0.21166310009E+02  0.00000000000E+00 0. -1.
</event>
<event>
 4    1  0.1800096E+004  0.2106447E+02  0.7546771E-02  0.1518346E+00
         21   -1    0    0  503  502  0.00000000000E+00  0.00000000000E+00  0.28812413172E+01  0.28812413172E+01  0.00000000000E+00 0.  1.
         21   -1    0    0  501  503 -0.00000000000E+00 -0.00000000000E+00 -0.19342936613E+03  0.19342936613E+03  0.00000000000E+00 0. -1.
          2    1    1    2  501    0  0.18685370606E+02 -0.97246605663E+01 -0.13959007504E+03  0.14117046839E+03  0.00000000000E+00 0. -1.
         -2    1    1    2    0  502 -0.18685370606E+02  0.97246605663E+01 -0.50958049776E+02  0.55140139054E+02  0.00000000000E+00 0.  1.
</event>
<event>
 4    1  0.1800096E+004  0.2207481E+02  0.7546771E-02  0.1504454E+00
         21   -1    0    0  503  502  0.00000000000E+00  0.00000000000E+00  0.19311734421E+01  0.19311734421E+01  0.00000000000E+00 0. -1.
         21   -1    0    0  501  503 -0.00000000000E+00 -0.00000000000E+00 -0.25872230826E+03  0.25872230826E+03  0.00000000000E+00 0.  1.
          2    1    1    2  501    0  0.48082233565E+01 -0.21544791500E+02 -0.14887764741E+03  0.15050531868E+03  0.00000000000E+00 0. -1.
         -2    1    1    2    0  502 -0.48082233565E+01  0.21544791500E+02 -0.10791348741E+03  0.11014816303E+03  0.00000000000E+00 0.  1.
</event>
<event>
 4    1  0.1800096E+004  0.2446270E+02  0.7546771E-02  0.1474905E+00
         21   -1    0    0  501  502  0.00000000000E+00  0.00000000000E+00  0.89297226746E+00  0.89297226746E+00  0.00000000000E+00 0.  1.
         21   -1    0    0  502  503 -0.00000000000E+00 -0.00000000000E+00 -0.83364556476E+03  0.83364556476E+03  0.00000000000E+00 0. -1.
          2    1    1    2  501    0 -0.33458481259E+01 -0.24232811630E+02 -0.23158525773E+03  0.23287368992E+03  0.00000000000E+00 0.  1.
         -2    1    1    2    0  503  0.33458481259E+01  0.24232811630E+02 -0.60116733477E+03  0.60166484711E+03  0.00000000000E+00 0. -1.
</event>
<event>
 4    1  0.1800096E+004  0.3425498E+02  0.7546771E-02  0.1385878E+00
         21   -1    0    0  501  502  0.00000000000E+00  0.00000000000E+00  0.65277764698E+02  0.65277764698E+02  0.00000000000E+00 0.  1.
         21   -1    0    0  502  503 -0.00000000000E+00 -0.00000000000E+00 -0.19996453240E+02  0.19996453240E+02  0.00000000000E+00 0. -1.
          2    1    1    2  501    0 -0.76621619622E+01 -0.33387049491E+02  0.36195168082E+02  0.49834666570E+02  0.00000000000E+00 0.  1.
         -2    1    1    2    0  503  0.76621619622E+01  0.33387049491E+02  0.90861433764E+01  0.35439551368E+02  0.00000000000E+00 0. -1.
</event>
<event>
 4    1  0.1800096E+004  0.2735976E+02  0.7546771E-02  0.1444027E+00
         21   -1    0    0  501  502  0.00000000000E+00  0.00000000000E+00  0.10416649221E+03  0.10416649221E+03  0.00000000000E+00 0.  1.
         21   -1    0    0  502  503 -0.00000000000E+00 -0.00000000000E+00 -0.18582302060E+02  0.18582302060E+02  0.00000000000E+00 0. -1.
          2    1    1    2  501    0 -0.18037582959E+02  0.20571871483E+02  0.90855723355E+02  0.94885819603E+02  0.00000000000E+00 0.  1.
         -2    1    1    2    0  503  0.18037582959E+02 -0.20571871483E+02 -0.52715332003E+01  0.27862974672E+02  0.00000000000E+00 0. -1.
</event>
<event>
 4    1  0.1800096E+004  0.2249621E+02  0.7546771E-02  0.1498923E+00
         21   -1    0    0  503  502  0.00000000000E+00  0.00000000000E+00  0.79526826374E+02  0.79526826374E+02  0.00000000000E+00 0.  1.
         21   -1    0    0  501  503 -0.00000000000E+00 -0.00000000000E+00 -0.13624569029E+02  0.13624569029E+02  0.00000000000E+00 0. -1.
          2    1    1    2  501    0  0.18291270999E+02 -0.13096133175E+02 -0.10500816922E+01  0.22520700932E+02  0.00000000000E+00 0. -1.
         -2    1    1    2    0  502 -0.18291270999E+02  0.13096133175E+02  0.66952339037E+02  0.70630694471E+02  0.00000000000E+00 0.  1.
</event>
<event>
 4    1  0.1800096E+004  0.2271086E+02  0.7546771E-02  0.1496161E+00
         21   -1    0    0  503  502  0.00000000000E+00  0.00000000000E+00  0.32296848639E+03  0.32296848639E+03  0.00000000000E+00 0.  1.
         21   -1    0    0  501  503 -0.00000000000E+00 -0.00000000000E+00 -0.54367966401E+01  0.54367966401E+01  0.00000000000E+00 0. -1.
          2    1    1    2  501    0  0.26070524428E+01  0.22560725386E+02  0.20771181826E+02  0.30777021409E+02  0.00000000000E+00 0. -1.
         -2    1    1    2    0  502 -0.26070524428E+01 -0.22560725386E+02  0.29676050793E+03  0.29762826163E+03  0.00000000000E+00 0.  1.
</event>
<event>
 4    1  0.1800096E+004  0.3387143E+02  0.7546771E-02  0.1388676E+00
         21   -1    0    0  503  502  0.00000000000E+00  0.00000000000E+00  0.86490999278E+01  0.86490999278E+01  0.00000000000E+00 0. -1.
         21   -1    0    0  501  503 -0.00000000000E+00 -0.00000000000E+00 -0.29561492329E+03  0.29561492329E+03  0.00000000000E+00 0.  1.
          2    1    1    2  501    0 -0.45753323147E+01 -0.33560995482E+02 -0.25643882462E+03  0.25866608757E+03  0.00000000000E+00 0.  1.
         -2    1    1    2    0  502  0.45753323147E+01  0.33560995482E+02 -0.30526998738E+02  0.45597935649E+02  0.00000000000E+00 0. -1.
</event>
<event>
 4    1  0.1800096E+004  0.2051336E+02  0.7546771E-02  0.1526328E+00
         21   -1    0    0  501  502  0.00000000000E+00  0.00000000000E+00  0.12291133940E+02  0.12291133940E+02  0.00000000000E+00 0. -1.
         21   -1    0    0  502  503 -0.00000000000E+00 -0.00000000000E+00 -0.35177751755E+02  0.35177751755E+02  0.00000000000E+00 0.  1.
          2    1    1    2  501    0  0.38358758335E+01 -0.20151520852E+02 -0.75596432338E+01  0.21861974794E+02  0.00000000000E+00 0. -1.
         -2    1    1    2    0  503 -0.38358758335E+01  0.20151520852E+02 -0.15326974581E+02  0.25606910901E+02  0.00000000000E+00 0.  1.
</event>
<event>
 4    1  0.1800096E+004  0.2012557E+02  0.7546771E-02  0.1532125E+00
         21   -1    0    0  501  502  0.00000000000E+00  0.00000000000E+00  0.13110596983E+01  0.13110596983E+01  0.00000000000E+00 0. -1.
         21   -1    0    0  502  503 -0.00000000000E+00 -0.00000000000E+00 -0.31581904619E+03  0.31581904619E+03  0.00000000000E+00 0.  1.
          2    1    1    2  501    0 -0.52937350589E+01  0.19416871371E+02 -0.13385168723E+03  0.13535624367E+03  0.00000000000E+00 0. -1.
         -2    1    1    2    0  503  0.52937350589E+01 -0.19416871371E+02 -0.18065629925E+03  0.18177386222E+03  0.00000000000E+00 0.  1.
</event>
<event>
 4    1  0.1800096E+004  0.2265994E+02  0.7546771E-02  0.1496813E+00
         21   -1    0    0  503  502  0.00000000000E+00  0.00000000000E+00  0.31395420105E+03  0.31395420105E+03  0.00000000000E+00 0. -1.
         21   -1    0    0  501  503 -0.00000000000E+00 -0.00000000000E+00 -0.18581123068E+01  0.18581123068E+01  0.00000000000E+00 0.  1.
          2    1    1    2  501    0 -0.69740032048E+01  0.21560059535E+02  0.10139237626E+03  0.10389363239E+03  0.00000000000E+00 0.  1.
         -2    1    1    2    0  502  0.69740032048E+01 -0.21560059535E+02  0.21070371248E+03  0.21191868097E+03  0.00000000000E+00 0. -1.
</event>
<event>
 4    1  0.1800096E+004  0.2555283E+02  0.7546771E-02  0.1462713E+00
         21   -1    0    0  503  502  0.00000000000E+00  0.00000000000E+00  0.21611835646E+03  0.21611835646E+03  0.00000000000E+00 0.  1.
         21   -1    0    0  501  503 -0.00000000000E+00 -0.00000000000E+00 -0.38128733050E+01  0.38128733050E+01  0.00000000000E+00 0. -1.
          2    1    1    2  501    0 -0.95807172884E+01 -0.23688747681E+02  0.56046611602E+02  0.61596830945E+02  0.00000000000E+00 0.  1.
         -2    1    1    2    0  502  0.95807172884E+01  0.23688747681E+02  0.15625887155E+03  0.15833439882E+03  0.00000000000E+00 0. -1.
</event>
<event>
 4    1  0.1800096E+004  0.2267007E+02  0.7546771E-02  0.1496683E+00
         21   -1    0    0  501  502  0.00000000000E+00  0.00000000000E+00  0.66957552810E+03  0.66957552810E+03  0.00000000000E+00 0. -1.
         21   -1    0    0  502  503 -0.00000000000E+00 -0.00000000000E+00 -0.12862200007E+01  0.12862200007E+01  0.00000000000E+00 0.  1.
          2    1    1    2  501    0  0.15605681567E+02  0.16443690738E+02  0.54715036174E+03  0.54761980481E+03  0.00000000000E+00 0. -1.
         -2    1    1    2    0  503 -0.15605681567E+02 -0.16443690738E+02  0.12113894635E+03  0.12324194329E+03  0.00000000000E+00 0.  1.
</event>
<event>
 4    1  0.1800096E+004  0.2434281E+02  0.7546771E-02  0.1476291E+00
         21   -1    0    0  501  502  0.00000000000E+00  0.00000000000E+00  0.38795410993E+01  0.38795410993E+01  0.00000000000E+00 0. -1.
         21   -1    0    0  502  503 -0.00000000000E+00 -0.00000000000E+00 -0.42840968550E+03  0.42840968550E+03  0.00000000000E+00 0.  1.
          2    1    1    2  501    0 -0.23846013004E+02  0.48928733577E+01 -0.38881894154E+02  0.45873458981E+02  0.00000000000E+00 0. -1.
         -2    1    1    2    0  503  0.23846013004E+02 -0.48928733577E+01 -0.38564825025E+03  0.38641576762E+03  0.00000000000E+00 0.  1.
</event>
<event>
 4    1  0.1800096E+004  0.2191030E+02  0.7546771E-02  0.1506654E+00
         21   -1    0    0  501  502  0.00000000000E+00  0.00000000000E+00  0.40755654504E+01  0.40755654504E+01  0.00000000000E+00 0.  1.
         21   -1    0    0  502  503 -0.00000000000E+00 -0.00000000000E+00 -0.23969955932E+03  0.23969955932E+03  0.00000000000E+00 0. -1.
          2    1    1    2  501    0 -0.14582249911E+02 -0.16352964205E+02 -0.30887058054E+02  0.37869140550E+02  0.00000000000E+00 0.  1.
         -2    1    1    2    0  503  0.14582249911E+02  0.16352964205E+02 -0.20473693582E+03  0.20590598422E+03  0.00000000000E+00 0. -1.
</event>
<event>
 4    1  0.1800096E+004  0.2464491E+02  0.7546771E-02  0.1472815E+00
         21   -1    0    0  503  502  0.00000000000E+00  0.00000000000E+00  0.35435521066E+03  0.35435521066E+03  0.00000000000E+00 0.  1.
         21   -1    0    0  501  503 -0.00000000000E+00 -0.00000000000E+00 -0.41266976117E+01  0.41266976117E+01  0.00000000000E+00 0. -1.
          2    1    1    2  501    0 -0.24629641606E+02 -0.86728406553E+00  0.38062156180E+02  0.45344229626E+02  0.00000000000E+00 0. -1.
         -2    1    1    2    0  502  0.24629641606E+02  0.86728406553E+00  0.31216635687E+03  0.31313767864E+03  0.00000000000E+00 0.  1.
</event>
<event>
 4    1  0.1800096E+004  0.3082889E+02  0.7546771E-02  0.1412527E+00
         21   -1    0    0  501  502  0.00000000000E+00  0.00000000000E+00  0.59312772134E+03  0.59312772134E+03  0.00000000000E+00 0.  1.
         21   -1    0    0  502  503 -0.00000000000E+00 -0.00000000000E+00 -0.17676584146E+02  0.17676584146E+02  0.00000000000E+00 0. -1.
          2    1    1    2  501    0  0.15350439903E+02 -0.26735458198E+02  0.57895653651E+03  0.57977676039E+03  0.00000000000E+00 0.  1.
         -2    1    1    2    0  503 -0.15350439903E+02  0.26735458198E+02 -0.35053993098E+01  0.31027545094E+02  0.00000000000E+00 0. -1.
</event>
<event>
 4    1  0.1800096E+004  0.2635858E+02  0.7546771E-02  0.1454160E+00
         21   -1    0    0  503  502  0.00000000000E+00  0.00000000000E+00  0.15309805812E+03  0.15309805812E+03  0.00000000000E+00 0.  1.
         21   -1    0    0  501  503 -0.00000000000E+00 -0.00000000000E+00 -0.45390256751E+01  0.45390256751E+01  0.00000000000E+00 0. -1.
          2    1    1    2  501    0  0.24096315410E+02  0.10683730809E+02  0.75404211149E+02  0.79878467558E+02  0.00000000000E+00 0.  1.
         -2    1    1    2    0  502 -0.24096315410E+02 -0.10683730809E+02  0.73154821294E+02  0.77758616235E+02  0.00000000000E+00 0. -1.
</event>
<event>
 4    1  0.1800096E+004  0.2420882E+02  0.7546771E-02  0.1477852E+00
         21   -1    0    0  501  502  0.00000000000E+00  0.00000000000E+00  0.14692994606E+03  0.14692994606E+03  0.00000000000E+00 0.  1.
         21   -1    0    0  502  503 -0.00000000000E+00 -0.00000000000E+00 -0.90285652185E+01  0.90285652185E+01  0.00000000000E+00 0. -1.
          2    1    1    2  501    0 -0.12870995242E+02 -0.20503767170E+02  0.12721156157E+03  0.12949458824E+03  0.00000000000E+00 0.  1.
         -2    1    1    2    0  503  0.12870995242E+02  0.20503767170E+02  0.10689819278E+02  0.26463923044E+02  0.00000000000E+00 0. -1.
</event>
<event>
 4    1  0.1800096E+004  0.3669307E+02  0.7546771E-02  0.1369036E+00
         21   -1    0    0  503  502  0.00000000000E+00  0.00000000000E+00  0.53816224690E+02  0.53816224690E+02  0.00000000000E+00 0.  1.
         21   -1    0    0  501  503 -0.00000000000E+00 -0.00000000000E+00 -0.35185880794E+02  0.35185880794E+02  0.00000000000E+00 0. -1.
          2    1    1    2  501    0 -0.24924601765E+02 -0.26928527334E+02 -0.14606883764E+02  0.39493574298E+02  0.00000000000E+00 0. -1.
         -2    1    1    2    0  502  0.24924601765E+02  0.26928527334E+02  0.33237227660E+02  0.49508531185E+02  0.00000000000E+00 0.  1.
</event>
<event>
 4    1  0.1800096E+004  0.2580788E+02  0.7546771E-02  0.1459965E+00
         21   -1    0    0  503  502  0.00000000000E+00  0.00000000000E+00  0.16780094565E+02  0.16780094565E+02  0.00000000000E+00 0. -1.
         21   -1    0    0  501  503 -0.00000000000E+00 -0.00000000000E+00 -0.41084804368E+02  0.41084804368E+02  0.00000000000E+00 0.  1.
          2    1    1    2  501    0  0.14749072636E+02  0.21178085398E+02 -0.17478194268E+02  0.31169435664E+02  0.00000000000E+00 0. -1.
         -2    1    1    2    0  502 -0.14749072636E+02 -0.21178085398E+02 -0.68265155353E+01  0.26695463268E+02  0.00000000000E+00 0.  1.
</event>
<event>
 4    1  0.1800096E+004  0.2375753E+02  0.7546771E-02  0.1483199E+00
         21   -1    0    0  501  502  0.00000000000E+00  0.00000000000E+00  0.26880525499E+02  0.26880525499E+02  0.00000000000E+00 0. -1.
         21   -1    0    0  502  503 -0.00000000000E+00 -0.00000000000E+00 -0.10525623596E+03  0.10525623596E+03  0.00000000000E+00 0.  1.
          2    1    1    2  501    0  0.20496699556E+02  0.12012719300E+02  0.19924405796E+02  0.31006484224E+02  0.00000000000E+00 0. -1.
         -2    1    1    2    0  503 -0.20496699556E+02 -0.12012719300E+02 -0.98300116256E+02  0.10113027724E+03  0.00000000000E+00 0.  1.
</event>
<event>
 4    1  0.1800096E+004  0.2181642E+02  0.7546771E-02  0.1507920E+00
         21   -1    0    0  503  502  0.00000000000E+00  0.00000000000E+00  0.30321828593E+03  0.30321828593E+03  0.00000000000E+00 0.  1.
         21   -1    0    0  501  503 -0.00000000000E+00 -0.00000000000E+00 -0.11287425560E+02  0.11287425560E+02  0.00000000000E+00 0. -1.
          2    1    1    2  501    0 -0.74031851807E+01 -0.20521911816E+02  0.55843059187E-01  0.21816487661E+02  0.00000000000E+00 0. -1.
         -2    1    1    2    0  502  0.74031851807E+01  0.20521911816E+02  0.29187501731E+03  0.29268922383E+03  0.00000000000E+00 0.  1.
</event>
<event>
 4    1  0.1800096E+004  0.4980315E+02  0.7546771E-02  0.1299028E+00
         21   -1    0    0  501  502  0.00000000000E+00  0.00000000000E+00  0.37770128895E+01  0.37770128895E+01  0.00000000000E+00 0.  1.
         21   -1    0    0  502  503 -0.00000000000E+00 -0.00000000000E+00 -0.66634925838E+03  0.66634925838E+03  0.00000000000E+00 0. -1.
          2    1    1    2  501    0 -0.10781365112E+02 -0.48622174133E+02 -0.37161224666E+03  0.37493468167E+03  0.00000000000E+00 0. -1.
         -2    1    1    2    0  503  0.10781365112E+02  0.48622174133E+02 -0.29095999883E+03  0.29519158960E+03  0.00000000000E+00 0.  1.
</event>
<event>
 4    1  0.1800096E+004  0.2451191E+02  0.7546771E-02  0.1474338E+00
         21   -1    0    0  501  502  0.00000000000E+00  0.00000000000E+00  0.23333177192E+01  0.23333177192E+01  0.00000000000E+00 0. -1.
         21   -1    0    0  502  503 -0.00000000000E+00 -0.00000000000E+00 -0.26946809995E+03  0.26946809995E+03  0.00000000000E+00 0.  1.
          2    1    1    2  501    0 -0.94474749125E+01  0.22618112518E+02 -0.10492918701E+03  0.10775420215E+03  0.00000000000E+00 0. -1.
         -2    1    1    2    0  503  0.94474749125E+01 -0.22618112518E+02 -0.16220559523E+03  0.16404721552E+03  0.00000000000E+00 0.  1.
</event>
<event>
 4    1  0.1800096E+004  0.2095661E+02  0.7546771E-02  0.1519885E+00
         21   -1    0    0  503  502  0.00000000000E+00  0.00000000000E+00  0.66331028375E+00  0.66331028375E+00  0.00000000000E+00 0.  1.
         21   -1    0    0  501  503 -0.00000000000E+00 -0.00000000000E+00 -0.90316545779E+03  0.90316545779E+03  0.00000000000E+00 0. -1.
          2    1    1    2  501    0  0.20736747096E+02  0.30277018096E+01 -0.21777768292E+03  0.21878368046E+03  0.00000000000E+00 0.  1.
         -2    1    1    2    0  502 -0.20736747096E+02 -0.30277018096E+01 -0.68472446459E+03  0.68504508762E+03  0.00000000000E+00 0. -1.
</event>
<event>
 4    1  0.1800096E+004  0.3592862E+02  0.7546771E-02  0.1374150E+00
         21   -1    0    0  501  502  0.00000000000E+00  0.00000000000E+00  0.10504333790E+02  0.10504333790E+02  0.00000000000E+00 0. -1.
         21   -1    0    0  502  503 -0.00000000000E+00 -0.00000000000E+00 -0.51774875545E+03  0.51774875545E+03  0.00000000000E+00 0.  1.
          2    1    1    2  501    0 -0.35167532285E+02  0.73559989434E+01 -0.22961297185E+02  0.42639033947E+02  0.00000000000E+00 0. -1.
         -2    1    1    2    0  503  0.35167532285E+02 -0.73559989434E+01 -0.48428312447E+03  0.48561405529E+03  0.00000000000E+00 0.  1.
</event>
<event>
 4    1  0.1800096E+004  0.2246262E+02  0.7546771E-02  0.1499359E+00
         21   -1    0    0  501  502  0.00000000000E+00  0.00000000000E+00  0.38814669921E+03  0.38814669921E+03  0.00000000000E+00 0. -1.
         21   -1    0    0  502  503 -0.00000000000E+00 -0.00000000000E+00 -0.14993887242E+01  0.14993887242E+01  0.00000000000E+00 0.  1.
          2    1    1    2  501    0 -0.15146603056E+01  0.22411499372E+02  0.26437838662E+03  0.26533092698E+03  0.00000000000E+00 0. -1.
         -2    1    1    2    0  503  0.15146603056E+01 -0.22411499372E+02  0.12226892386E+03  0.12431516095E+03  0.00000000000E+00 0.  1.
</event>
<event>
 4    1  0.1800096E+004  0.2008473E+02  0.7546771E-02  0.1532744E+00
         21   -1    0    0  501  502  0.00000000000E+00  0.00000000000E+00  0.18991765112E+02  0.18991765112E+02  0.00000000000E+00 0. -1.
         21   -1    0    0  502  503 -0.00000000000E+00 -0.00000000000E+00 -0.21404629703E+02  0.21404629703E+02  0.00000000000E+00 0.  1.
          2    1    1    2  501    0 -0.47886161738E+01  0.19505529095E+02 -0.29745791140E+01  0.20303808289E+02  0.00000000000E+00 0. -1.
         -2    1    1    2    0  503  0.47886161738E+01 -0.19505529095E+02  0.56171452336E+00  0.20092586527E+02  0.00000000000E+00 0.  1.
</event>
<event>
 4    1  0.1800096E+004  0.2291291E+02  0.7546771E-02  0.1493595E+00
         21   -1    0    0  501  502  0.00000000000E+00  0.00000000000E+00  0.17079774826E+02  0.17079774826E+02  0.00000000000E+00 0.  1.
         21   -1    0    0  502  503 -0.00000000000E+00 -0.00000000000E+00 -0.78968213573E+02  0.78968213573E+02  0.00000000000E+00 0. -1.
          2    1    1    2  501    0 -0.19978229941E+02 -0.11219253718E+02  0.65868438957E+01  0.23840885849E+02  0.00000000000E+00 0.  1.
         -2    1    1    2    0  503  0.19978229941E+02  0.11219253718E+02 -0.68475282643E+02  0.72207102550E+02  0.00000000000E+00 0. -1.
</event>
<event>
 4    1  0.1800096E+004  0.2331296E+02  0.7546771E-02  0.1488605E+00
         21   -1    0    0  503  502  0.00000000000E+00  0.00000000000E+00  0.72358920914E+01  0.72358920914E+01  0.00000000000E+00 0.  1.
         21   -1    0    0  501  503 -0.00000000000E+00 -0.00000000000E+00 -0.81933303635E+02  0.81933303635E+02  0.00000000000E+00 0. -1.
          2    1    1    2  501    0  0.12536789515E+02  0.19655104207E+02 -0.50214126865E+02  0.55362015404E+02  0.00000000000E+00 0. -1.
         -2    1    1    2    0  502 -0.12536789515E+02 -0.19655104207E+02 -0.24483284678E+02  0.33807180323E+02  0.00000000000E+00 0.  1.
</event>
<event>
 4    1  0.1800096E+004  0.2023330E+02  0.7546771E-02  0.1530499E+00
         21   -1    0    0  503  502  0.00000000000E+00  0.00000000000E+00  0.88757307681E+00  0.88757307681E+00  0.00000000000E+00 0.  1.
         21   -1    0    0  501  503 -0.00000000000E+00 -0.00000000000E+00 -0.74323728881E+03  0.74323728881E+03  0.00000000000E+00 0. -1.
          2    1    1    2  501    0  0.13645824475E+02  0.14939146663E+02 -0.60035260120E+03  0.60069345959E+03  0.00000000000E+00 0. -1.
         -2    1    1    2    0  502 -0.13645824475E+02 -0.14939146663E+02 -0.14199711454E+03  0.14343140230E+03  0.00000000000E+00 0.  1.
</event>
<event>
 4    1  0.1800096E+004  0.2125728E+02  0.7546771E-02  0.1515623E+00
         21   -1    0    0  501  502  0.00000000000E+00  0.00000000000E+00  0.25605836684E+03  0.25605836684E+03  0.00000000000E+00 0.  1.
         21   -1    0    0  502  503 -0.00000000000E+00 -0.00000000000E+00 -0.50145621506E+01  0.50145621506E+01  0.00000000000E+00 0. -1.
          2    1    1    2  501    0 -0.18887276528E+02  0.97541067003E+01  0.23060826067E+03  0.23158592725E+03  0.00000000000E+00 0.  1.
         -2    1    1    2    0  503  0.18887276528E+02 -0.97541067003E+01  0.20435544022E+02  0.29487001740E+02  0.00000000000E+00 0. -1.
</event>
<event>
 4    1  0.1800096E+004  0.3973330E+02  0.7546771E-02  0.1350056E+00
         21   -1    0    0  501  502  0.00000000000E+00  0.00000000000E+00  0.57104219933E+02  0.57104219933E+02  0.00000000000E+00 0.  1.
         21   -1    0    0  502  503 -0.00000000000E+00 -0.00000000000E+00 -0.33486295771E+02  0.33486295771E+02  0.00000000000E+00 0. -1.
          2    1    1    2  501    0 -0.32788184282E+02  0.22442594764E+02  0.30724377383E+02  0.50226710561E+02  0.00000000000E+00 0.  1.
         -2    1    1    2    0  503  0.32788184282E+02 -0.22442594764E+02 -0.71064532203E+01  0.40363805143E+02  0.00000000000E+00 0. -1.
</event>
<event>
 4    1  0.1800096E+004  0.2002817E+02  0.7546771E-02  0.1533605E+00
         21   -1    0    0  501  502  0.00000000000E+00  0.00000000000E+00  0.30146027364E+03  0.30146027364E+03  0.00000000000E+00 0.  1.
         21   -1    0    0  502  503 -0.00000000000E+00 -0.00000000000E+00 -0.13656809692E+01  0.13656809692E+01  0.00000000000E+00 0. -1.
          2    1    1    2  501    0  0.10162429128E+02 -0.17258406338E+02  0.17430957216E+03  0.17545641767E+03  0.00000000000E+00 0.  1.
         -2    1    1    2    0  503 -0.10162429128E+02  0.17258406338E+02  0.12578502051E+03  0.12736953694E+03  0.00000000000E+00 0. -1.
</event>
<event>
 4    1  0.1800096E+004  0.2114048E+02  0.7546771E-02  0.1517269E+00
         21   -1    0    0  503  502  0.00000000000E+00  0.00000000000E+00  0.10438954564E+03  0.10438954564E+03  0.00000000000E+00 0.  1.
         21   -1    0    0  501  503 -0.00000000000E+00 -0.00000000000E+00 -0.98949000438E+01  0.98949000438E+01  0.00000000000E+00 0. -1.
          2    1    1    2  501    0 -0.16217478622E+02 -0.13561459393E+02  0.42072168040E+01  0.21555056645E+02  0.00000000000E+00 0. -1.
         -2    1    1    2    0  502  0.16217478622E+02  0.13561459393E+02  0.90287428795E+02  0.92729389043E+02  0.00000000000E+00 0.  1.
</event>
<event>
 4    1  0.1800096E+004  0.2432960E+02  0.7546771E-02  0.1476445E+00
         21   -1    0    0  501  502  0.00000000000E+00  0.00000000000E+00  0.10181857362E+02  0.10181857362E+02  0.00000000000E+00 0.  1.
         21   -1    0    0  502  503 -0.00000000000E+00 -0.00000000000E+00 -0.11370605498E+03  0.11370605498E+03  0.00000000000E+00 0. -1.
          2    1    1    2  501    0  0.13476621746E+02 -0.20256118136E+02 -0.84580371625E+01  0.25757873519E+02  0.00000000000E+00 0.  1.
         -2    1    1    2    0  503 -0.13476621746E+02  0.20256118136E+02 -0.95066160453E+02  0.98130038821E+02  0.00000000000E+00 0. -1.
</event>
<event>
 4    1  0.1800096E+004  0.3175080E+02  0.7546771E-02  0.1404968E+00
         21   -1    0    0  501  502  0.00000000000E+00  0.00000000000E+00  0.49055813090E+02  0.49055813090E+02  0.00000000000E+00 0. -1.
         21   -1    0    0  502  503 -0.00000000000E+00 -0.00000000000E+00 -0.20566832306E+02  0.20566832306E+02  0.00000000000E+00 0.  1.
          2    1    1    2  501    0 -0.72493921573E+01  0.30912127594E+02  0.15230459011E+02  0.35214772479E+02  0.00000000000E+00 0.  1.
         -2    1    1    2    0  503  0.72493921573E+01 -0.30912127594E+02  0.13258521772E+02  0.34407872916E+02  0.00000000000E+00 0. -1.
</event>
<event>
 4    1  0.1800096E+004  0.2974607E+02  0.7546771E-02  0.1421816E+00
         21   -1    0    0  501  502  0.00000000000E+00  0.00000000000E+00  0.26515351282E+03  0.26515351282E+03  0.00000000000E+00 0.  1.
         21   -1    0    0  502  503 -0.00000000000E+00 -0.00000000000E+00 -0.60606149523E+01  0.60606149523E+01  0.00000000000E+00 0. -1.
          2    1    1    2  501    0  0.24444131506E+02  0.16950316197E+02  0.22045261874E+03  0.22245041221E+03  0.00000000000E+00 0.  1.
         -2    1    1    2    0  503 -0.24444131506E+02 -0.16950316197E+02  0.38640279135E+02  0.48763715567E+02  0.00000000000E+00 0. -1.
</event>
<event>
 4    1  0.1800096E+004  0.2941052E+02  0.7546771E-02  0.1424789E+00
         21   -1    0    0  501  502  0.00000000000E+00  0.00000000000E+00  0.20288789764E+03  0.20288789764E+03  0.00000000000E+00 0. -1.
         21   -1    0    0  502  503 -0.00000000000E+00 -0.00000000000E+00 -0.43323565025E+01  0.43323565025E+01  0.00000000000E+00 0.  1.
          2    1    1    2  501    0  0.29410510774E+02 -0.18498864921E-01  0.86199767098E+02  0.91078967572E+02  0.00000000000E+00 0.  1.
         -2    1    1    2    0  503 -0.29410510774E+02  0.18498864921E-01  0.11235577404E+03  0.11614128657E+03  0.00000000000E+00 0. -1.
</event>
<event>
 4    1  0.1800096E+004  0.2402252E+02  0.7546771E-02  0.1480042E+00
         21   -1    0    0  501  502  0.00000000000E+00  0.00000000000E+00  0.16041099432E+02  0.16041099432E+02  0.00000000000E+00 0.  1.
         21   -1    0    0  502  503 -0.00000000000E+00 -0.00000000000E+00 -0.12836190440E+03  0.12836190440E+03  0.00000000000E+00 0. -1.
          2    1    1    2  501    0  0.22376180048E+02  0.87400289307E+01  0.50933819629E+01  0.24556548599E+02  0.00000000000E+00 0.  1.
         -2    1    1    2    0  503 -0.22376180048E+02 -0.87400289307E+01 -0.11741418694E+03  0.11984645524E+03  0.00000000000E+00 0. -1.
</event>
<event>
 4    1  0.1800096E+004  0.2696567E+02  0.7546771E-02  0.1447953E+00
         21   -1    0    0  503  502  0.00000000000E+00  0.00000000000E+00  0.12640587815E+01  0.12640587815E+01  0.00000000000E+00 0. -1.
         21   -1    0    0  501  503 -0.00000000000E+00 -0.00000000000E+00 -0.11197782911E+04  0.11197782911E+04  0.00000000000E+00 0.  1.
          2    1    1    2  501    0 -0.26880707000E+02  0.21389182893E+01 -0.95013130588E+03  0.95051388511E+03  0.00000000000E+00 0.  1.
         -2    1    1    2    0  502  0.26880707000E+02 -0.21389182893E+01 -0.16838292646E+03  0.17052846479E+03  0.00000000000E+00 0. -1.
</event>
<event>
 4    1  0.1800096E+004  0.2219605E+02  0.7546771E-02  0.1502848E+00
         21   -1    0    0  501  502  0.00000000000E+00  0.00000000000E+00  0.19562292167E+03  0.19562292167E+03  0.00000000000E+00 0. -1.
         21   -1    0    0  502  503 -0.00000000000E+00 -0.00000000000E+00 -0.59313229045E+01  0.59313229045E+01  0.00000000000E+00 0.  1.
          2    1    1    2  501    0 -0.20810548472E+02  0.77191805342E+01  0.17129040337E+03  0.17272251435E+03  0.00000000000E+00 0. -1.
         -2    1    1    2    0  503  0.20810548472E+02 -0.77191805342E+01  0.18401195393E+02  0.28831730224E+02  0.00000000000E+00 0.  1.
</event>
<event>
 4    1  0.1800096E+004  0.2216977E+02  0.7546771E-02  0.1503195E+00
         21   -1    0    0  501  502  0.00000000000E+00  0.00000000000E+00  0.14911525389E+03  0.14911525389E+03  0.00000000000E+00 0. -1.
         21   -1    0    0  502  503 -0.00000000000E+00 -0.00000000000E+00 -0.36010506736E+01  0.36010506736E+01  0.00000000000E+00 0.  1.
          2    1    1    2  501    0  0.11260583469E+02 -0.19097062814E+02  0.94977750631E+02  0.97530875435E+02  0.00000000000E+00 0. -1.
         -2    1    1    2    0  503 -0.11260583469E+02  0.19097062814E+02  0.50536452585E+02  0.55185429128E+02  0.00000000000E+00 0.  1.
</event>
<event>
 4    1  0.1800096E+004  0.2007478E+02  0.7546771E-02  0.1532896E+00
         21   -1    0    0  501  502  0.00000000000E+00  0.00000000000E+00  0.67047788662E+01  0.67047788662E+01  0.00000000000E+00 0.  1.
         21   -1    0    0  502  503 -0.00000000000E+00 -0.00000000000E+00 -0.62478619505E+02  0.62478619505E+02  0.00000000000E+00 0. -1.
          2    1    1    2  501    0 -0.15389257672E+00  0.20074189603E+02 -0.34627998148E+02  0.40026179269E+02  0.00000000000E+00 0. -1.
         -2    1    1    2    0  503  0.15389257672E+00 -0.20074189603E+02 -0.21145842491E+02  0.29157219103E+02  0.00000000000E+00 0.  1.
</event>
<event>
 4    1  0.1800096E+004  0.2412182E+02  0.7546771E-02  0.1478872E+00
         21   -1    0    0  503  502  0.00000000000E+00  0.00000000000E+00  0.19891428126E+03  0.19891428126E+03  0.00000000000E+00 0.  1.
         21   -1    0    0  501  503 -0.00000000000E+00 -0.00000000000E+00 -0.36463768429E+01  0.36463768429E+01  0.00000000000E+00 0. -1.
          2    1    1    2  501    0 -0.16757074852E+02  0.17351160527E+02  0.52591935385E+02  0.57859951580E+02  0.00000000000E+00 0. -1.
         -2    1    1    2    0  502  0.16757074852E+02 -0.17351160527E+02  0.14267596903E+03  0.14470070653E+03  0.00000000000E+00 0.  1.
</event>
<event>
 4    1  0.1800096E+004  0.2059081E+02  0.7546771E-02  0.1525188E+00
         21   -1    0    0  503  502  0.00000000000E+00  0.00000000000E+00  0.15723593718E+02  0.15723593718E+02  0.00000000000E+00 0.  1.
         21   -1    0    0  501  503 -0.00000000000E+00 -0.00000000000E+00 -0.73976792194E+02  0.73976792194E+02  0.00000000000E+00 0. -1.
          2    1    1    2  501    0 -0.10535759858E+02 -0.17691213297E+02 -0.64880346870E+02  0.68069381323E+02  0.00000000000E+00 0. -1.
         -2    1    1    2    0  502  0.10535759858E+02  0.17691213297E+02  0.66271483928E+01  0.21631004589E+02  0.00000000000E+00 0.  1.
</event>
<event>
 4    1  0.1800096E+004  0.2005937E+02  0.7546771E-02  0.1533130E+00
         21   -1    0    0  503  502  0.00000000000E+00  0.00000000000E+00  0.95190906474E+02  0.95190906474E+02  0.00000000000E+00 0.  1.
         21   -1    0    0  501  503 -0.00000000000E+00 -0.00000000000E+00 -0.87302412679E+01  0.87302412679E+01  0.00000000000E+00 0. -1.
          2    1    1    2  501    0 -0.38619830559E+01 -0.19684090425E+02  0.59121746777E+01  0.20912487619E+02  0.00000000000E+00 0. -1.
         -2    1    1    2    0  502  0.38619830559E+01  0.19684090425E+02  0.80548490528E+02  0.83008660123E+02  0.00000000000E+00 0.  1.
</event>
<event>
 4    1  0.1800096E+004  0.2017174E+02  0.7546771E-02  0.1531426E+00
         21   -1    0    0  503  502  0.00000000000E+00  0.00000000000E+00  0.17421268486E+03  0.17421268486E+03  0.00000000000E+00 0. -1.
         21   -1    0    0  501  503 -0.00000000000E+00 -0.00000000000E+00 -0.17645297767E+02  0.17645297767E+02  0.00000000000E+00 0.  1.
          2    1    1    2  501    0  0.19457976231E+02  0.53184772135E+01 -0.11071139609E+02  0.23010197111E+02  0.00000000000E+00 0.  1.
         -2    1    1    2    0  502 -0.19457976231E+02 -0.53184772135E+01  0.16763852670E+03  0.16884778551E+03  0.00000000000E+00 0. -1.
</event>
<event>
 4    1  0.1800096E+004  0.2256172E+02  0.7546771E-02  0.1498076E+00
         21   -1    0    0  503  502  0.00000000000E+00  0.00000000000E+00  0.23603969710E+03  0.23603969710E+03  0.00000000000E+00 0.  1.
         21   -1    0    0  501  503 -0.00000000000E+00 -0.00000000000E+00 -0.34265635338E+01  0.34265635338E+01  0.00000000000E+00 0. -1.
          2    1    1    2  501    0  0.79723245519E+01  0.21106239044E+02  0.43412999146E+02  0.48925655644E+02  0.00000000000E+00 0. -1.
         -2    1    1    2    0  502 -0.79723245519E+01 -0.21106239044E+02  0.18920013442E+03  0.19054060499E+03  0.00000000000E+00 0.  1.
</event>
<event>
 4    1  0.1800096E+004  0.2889643E+02  0.7546771E-02  0.1429435E+00
         21   -1    0    0  501  502  0.00000000000E+00  0.00000000000E+00  0.28212684927E+01  0.28212684927E+01  0.00000000000E+00 0.  1.
         21   -1    0    0  502  503 -0.00000000000E+00 -0.00000000000E+00 -0.42898291818E+03  0.42898291818E+03  0.00000000000E+00 0. -1.
          2    1    1    2  501    0  0.28143980305E+02  0.65513598782E+01 -0.92857771842E+02  0.97250037198E+02  0.00000000000E+00 0.  1.
         -2    1    1    2    0  503 -0.28143980305E+02 -0.65513598782E+01 -0.33330387785E+03  0.33455414948E+03  0.00000000000E+00 0. -1.
</event>
<event>
 4    1  0.1800096E+004  0.2313163E+02  0.7546771E-02  0.1490852E+00
         21   -1    0    0  503  502  0.00000000000E+00  0.00000000000E+00  0.19055729667E+03  0.19055729667E+03  0.00000000000E+00 0.  1.
         21   -1    0    0  501  503 -0.00000000000E+00 -0.00000000000E+00 -0.42247423151E+01  0.42247423151E+01  0.00000000000E+00 0. -1.
          2    1    1    2  501    0  0.21853278288E+02 -0.75833155368E+01  0.36766908797E+02  0.43438209320E+02  0.00000000000E+00 0. -1.
         -2    1    1    2    0  502 -0.21853278288E+02  0.75833155368E+01  0.14956564555E+03  0.15134382966E+03  0.00000000000E+00 0.  1.
</event>
<event>
 4    1  0.1800096E+004  0.2435262E+02  0.7546771E-02  0.1476178E+00
         21   -1    0    0  501  502  0.00000000000E+00  0.00000000000E+00  0.97874817162E+00  0.97874817162E+00  0.00000000000E+00 0. -1.
         21   -1    0    0  502  503 -0.00000000000E+00 -0.00000000000E+00 -0.83940446092E+03  0.83940446092E+03  0.00000000000E+00 0.  1.
          2    1    1    2  501    0 -0.20987714994E+02  0.12351754296E+02 -0.19760551302E+03  0.19910044900E+03  0.00000000000E+00 0. -1.
         -2    1    1    2    0  503  0.20987714994E+02 -0.12351754296E+02 -0.64082019972E+03  0.64128276009E+03  0.00000000000E+00 0.  1.
</event>
<event>
 4    1  0.1800096E+004  0.4135858E+02  0.7546771E-02  0.1340703E+00
         21   -1    0    0  503  502  0.00000000000E+00  0.00000000000E+00  0.26396279664E+02  0.26396279664E+02  0.00000000000E+00 0.  1.
         21   -1    0    0  501  503 -0.00000000000E+00 -0.00000000000E+00 -0.65010311378E+02  0.65010311378E+02  0.00000000000E+00 0. -1.
          2    1    1    2  501    0 -0.17500838325E+02  0.37473363462E+02 -0.16720058116E+02  0.44610454544E+02  0.00000000000E+00 0.  1.
         -2    1    1    2    0  502  0.17500838325E+02 -0.37473363462E+02 -0.21893973597E+02  0.46796136498E+02  0.00000000000E+00 0. -1.
</event>
<event>
 4    1  0.1800096E+004  0.7626303E+02  0.7546771E-02  0.1212799E+00
         21   -1    0    0  501  502  0.00000000000E+00  0.00000000000E+00  0.11747736304E+02  0.11747736304E+02  0.00000000000E+00 0. -1.
         21   -1    0    0  502  503 -0.00000000000E+00 -0.00000000000E+00 -0.58735640513E+03  0.58735640513E+03  0.00000000000E+00 0.  1.
          2    1    1    2  501    0 -0.69921565447E+02 -0.30447064587E+02 -0.16907149385E+03  0.18547565632E+03  0.00000000000E+00 0. -1.
         -2    1    1    2    0  503  0.69921565447E+02  0.30447064587E+02 -0.40653717498E+03  0.41362848511E+03  0.00000000000E+00 0.  1.
</event>
<event>
 4    1  0.1800096E+004  0.2157773E+02  0.7546771E-02  0.1511174E+00
         21   -1    0    0  503  502  0.00000000000E+00  0.00000000000E+00  0.68852505761E+02  0.68852505761E+02  0.00000000000E+00 0.  1.
         21   -1    0    0  501  503 -0.00000000000E+00 -0.00000000000E+00 -0.67819341316E+01  0.67819341316E+01  0.00000000000E+00 0. -1.
          2    1    1    2  501    0 -0.21198336192E+02 -0.40285452538E+01  0.28998495115E+02  0.36145696191E+02  0.00000000000E+00 0. -1.
         -2    1    1    2    0  502  0.21198336192E+02  0.40285452538E+01  0.33072076514E+02  0.39488743701E+02  0.00000000000E+00 0.  1.
</event>
<event>
 4    1  0.1800096E+004  0.2060721E+02  0.7546771E-02  0.1524947E+00
         21   -1    0    0  503  502  0.00000000000E+00  0.00000000000E+00  0.32087587284E+00  0.32087587284E+00  0.00000000000E+00 0.  1.
         21   -1    0    0  501  503 -0.00000000000E+00 -0.00000000000E+00 -0.13302379012E+04  0.13302379012E+04  0.00000000000E+00 0. -1.
          2    1    1    2  501    0  0.71143397432E+01 -0.19340193501E+02 -0.71255011207E+03  0.71284803369E+03  0.00000000000E+00 0.  1.
         -2    1    1    2    0  502 -0.71143397432E+01  0.19340193501E+02 -0.61736691321E+03  0.61771074334E+03  0.00000000000E+00 0. -1.
</event>
<event>
 4    1  0.1800096E+004  0.3674706E+02  0.7546771E-02  0.1368680E+00
         21   -1    0    0  503  502  0.00000000000E+00  0.00000000000E+00  0.99925277765E+02  0.99925277765E+02  0.00000000000E+00 0. -1.
         21   -1    0    0  501  503 -0.00000000000E+00 -0.00000000000E+00 -0.13863112707E+02  0.13863112707E+02  0.00000000000E+00 0.  1.
          2    1    1    2  501    0 -0.36674216026E+02  0.23125703338E+01  0.52065387547E+02  0.63727158128E+02  0.00000000000E+00 0. -1.
         -2    1    1    2    0  502  0.36674216026E+02 -0.23125703338E+01  0.33996777511E+02  0.50061232345E+02  0.00000000000E+00 0.  1.
</event>
<event>
 4    1  0.1800096E+004  0.2775689E+02  0.7546771E-02  0.1440150E+00
         21   -1    0    0  503  502  0.00000000000E+00  0.00000000000E+00  0.97472182256E+01  0.97472182256E+01  0.00000000000E+00 0. -1.
         21   -1    0    0  501  503 -0.00000000000E+00 -0.00000000000E+00 -0.13813607258E+03  0.13813607258E+03  0.00000000000E+00 0.  1.
          2    1    1    2  501    0 -0.97910273087E+01 -0.25972691264E+02 -0.11255656907E+03  0.11592853898E+03  0.00000000000E+00 0.  1.
         -2    1    1    2    0  502  0.97910273087E+01  0.25972691264E+02 -0.15832285278E+02  0.31954751828E+02  0.00000000000E+00 0. -1.
</event>
<event>
 4    1  0.1800096E+004  0.2676086E+02  0.7546771E-02  0.1450025E+00
         21   -1    0    0  503  502  0.00000000000E+00  0.00000000000E+00  0.13128423480E+02  0.13128423480E+02  0.00000000000E+00 0.  1.
         21   -1    0    0  501  503 -0.00000000000E+00 -0.00000000000E+00 -0.60657609598E+02  0.60657609598E+02  0.00000000000E+00 0. -1.
          2    1    1    2  501    0  0.15110456810E+02  0.22086594437E+02 -0.35472236660E+02  0.44434481346E+02  0.00000000000E+00 0. -1.
         -2    1    1    2    0  502 -0.15110456810E+02 -0.22086594437E+02 -0.12056949459E+02  0.29351551732E+02  0.00000000000E+00 0.  1.
</event>
