<event>
 4    1  0.7181337E+003  0.2410675E+02  0.7546771E-02  0.1479049E+00
          2   -1    0    0  502    0  0.00000000000E+00  0.00000000000E+00  0.53350200245E+03  0.53350200245E+03  0.00000000000E+00 0.  1.
          1   -1    0    0  501    0 -0.00000000000E+00 -0.00000000000E+00 -0.11019055982E+01  0.11019055982E+01  0.00000000000E+00 0.  1.
          2    1    1    2  501    0 -0.29945303239E+01  0.23920042009E+02  0.29480711750E+03  0.29579109545E+03  0.00000000000E+00 0.  1.
          1    1    1    2  502    0  0.29945303239E+01 -0.23920042009E+02  0.23759297936E+03  0.23881281260E+03  0.00000000000E+00 0.  1.
</event>
<event>
 4    1  0.7181337E+003  0.4611674E+02  0.7546771E-02  0.1315948E+00
          2   -1    0    0  502    0  0.00000000000E+00  0.00000000000E+00  0.13772126247E+04  0.13772126247E+04  0.00000000000E+00 0.  1.
          1   -1    0    0  501    0 -0.00000000000E+00 -0.00000000000E+00 -0.35486489333E+01  0.35486489333E+01  0.00000000000E+00 0. -1.
          2    1    1    2  501    0  0.19213107239E+01  0.46076697756E+02  0.12056914278E+04  0.12065730697E+04  0.00000000000E+00 0.  1.
          1    1    1    2  502    0 -0.19213107239E+01 -0.46076697756E+02  0.16797254797E+03  0.17418820391E+03  0.00000000000E+00 0. -1.
</event>
<event>
 4    1  0.7181337E+003  0.2403630E+02  0.7546771E-02  0.1479880E+00
          2   -1    0    0  502    0  0.00000000000E+00  0.00000000000E+00  0.31354240981E+01  0.31354240981E+01  0.00000000000E+00 0. -1.
          1   -1    0    0  501    0 -0.00000000000E+00 -0.00000000000E+00 -0.18439962570E+03  0.18439962570E+03  0.00000000000E+00 0.  1.
          2    1    1    2  501    0  0.23034590438E+02 -0.68666715016E+01 -0.88082393815E+02  0.91303075712E+02  0.00000000000E+00 0. -1.
          1    1    1    2  502    0 -0.23034590438E+02  0.68666715016E+01 -0.93181807782E+02  0.96231974082E+02  0.00000000000E+00 0.  1.
</event>
<event>
 4    1  0.7181337E+003  0.2707010E+02  0.7546771E-02  0.1446905E+00
          2   -1    0    0  502    0  0.00000000000E+00  0.00000000000E+00  0.56640429711E+03  0.56640429711E+03  0.00000000000E+00 0. -1.
          1   -1    0    0  501    0 -0.00000000000E+00 -0.00000000000E+00 -0.30855023433E+01  0.30855023433E+01  0.00000000000E+00 0.  1.
          2    1    1    2  501    0 -0.15102657467E+02  0.22465526173E+02  0.49864505387E+03  0.49937929461E+03  0.00000000000E+00 0. -1.
          1    1    1    2  502    0  0.15102657467E+02 -0.22465526173E+02  0.64673740893E+02  0.70110504847E+02  0.00000000000E+00 0.  1.
</event>
<event>
 4    1  0.7181337E+003  0.2594680E+02  0.7546771E-02  0.1458485E+00
          2   -1    0    0  502    0  0.00000000000E+00  0.00000000000E+00  0.31363862291E+04  0.31363862291E+04  0.00000000000E+00 0. -1.
          1   -1    0    0  501    0 -0.00000000000E+00 -0.00000000000E+00 -0.21641556645E+00  0.21641556645E+00  0.00000000000E+00 0. -1.
          2    1    1    2  501    0  0.11732770500E+01 -0.25920255137E+02  0.17095989010E+04  0.17097957885E+04  0.00000000000E+00 0. -1.
          1    1    1    2  502    0 -0.11732770500E+01  0.25920255137E+02  0.14265709125E+04  0.14268068561E+04  0.00000000000E+00 0. -1.
</event>
<event>
 4    1  0.7181337E+003  0.3008590E+02  0.7546771E-02  0.1418851E+00
          2   -1    0    0  502    0  0.00000000000E+00  0.00000000000E+00  0.24877192579E+04  0.24877192579E+04  0.00000000000E+00 0.  1.
          1   -1    0    0  501    0 -0.00000000000E+00 -0.00000000000E+00 -0.41271583773E+00  0.41271583773E+00  0.00000000000E+00 0.  1.
          2    1    1    2  501    0 -0.26772652876E+02  0.13725398707E+02  0.16717203630E+04  0.16719910686E+04  0.00000000000E+00 0.  1.
          1    1    1    2  502    0  0.26772652876E+02 -0.13725398707E+02  0.81558617909E+03  0.81614090514E+03  0.00000000000E+00 0.  1.
</event>
<event>
 4    1  0.7181337E+003  0.9163299E+02  0.7546771E-02  0.1179154E+00
          2   -1    0    0  502    0  0.00000000000E+00  0.00000000000E+00  0.14397041678E+03  0.14397041678E+03  0.00000000000E+00 0.  1.
          1   -1    0    0  501    0 -0.00000000000E+00 -0.00000000000E+00 -0.88357605219E+02  0.88357605219E+02  0.00000000000E+00 0. -1.
          2    1    1    2  501    0 -0.39355424288E+02  0.82751170355E+02  0.95534629280E+02  0.13237624790E+03  0.00000000000E+00 0.  1.
          1    1    1    2  502    0  0.39355424288E+02 -0.82751170355E+02 -0.39921817719E+02  0.99951774101E+02  0.00000000000E+00 0. -1.
</event>
<event>
 4    1  0.7181337E+003  0.3764403E+02  0.7546771E-02  0.1362874E+00
          2   -1    0    0  502    0  0.00000000000E+00  0.00000000000E+00  0.27962744806E+04  0.27962744806E+04  0.00000000000E+00 0.  1.
          1   -1    0    0  501    0 -0.00000000000E+00 -0.00000000000E+00 -0.69794730619E+00  0.69794730619E+00  0.00000000000E+00 0.  1.
          2    1    1    2  501    0  0.10113007119E+02 -0.36260168163E+02  0.21297074598E+04  0.21300401257E+04  0.00000000000E+00 0.  1.
          1    1    1    2  502    0 -0.10113007119E+02  0.36260168163E+02  0.66586907354E+03  0.66693230227E+03  0.00000000000E+00 0.  1.
</event>
<event>
 4    1  0.7181337E+003  0.4113947E+02  0.7546771E-02  0.1341935E+00
          2   -1    0    0  502    0  0.00000000000E+00  0.00000000000E+00  0.26161826369E+04  0.26161826369E+04  0.00000000000E+00 0.  1.
          1   -1    0    0  501    0 -0.00000000000E+00 -0.00000000000E+00 -0.39046729676E+02  0.39046729676E+02  0.00000000000E+00 0. -1.
          2    1    1    2  501    0  0.40915093823E+02 -0.42907988763E+01  0.26051388814E+04  0.26054636914E+04  0.00000000000E+00 0.  1.
          1    1    1    2  502    0 -0.40915093823E+02  0.42907988763E+01 -0.28002974206E+02  0.49765675138E+02  0.00000000000E+00 0. -1.
</event>
<event>
 4    1  0.7181337E+003  0.2038281E+02  0.7546771E-02  0.1528262E+00
          2   -1    0    0  502    0  0.00000000000E+00  0.00000000000E+00  0.41269894790E+02  0.41269894790E+02  0.00000000000E+00 0.  1.
          1   -1    0    0  501    0 -0.00000000000E+00 -0.00000000000E+00 -0.62889544193E+03  0.62889544193E+03  0.00000000000E+00 0. -1.
          2    1    1    2  501    0 -0.18308119191E+02  0.89594415881E+01  0.38577203068E+02  0.43630945652E+02  0.00000000000E+00 0.  1.
          1    1    1    2  502    0  0.18308119191E+02 -0.89594415881E+01 -0.62620275021E+03  0.62653439107E+03  0.00000000000E+00 0. -1.
</event>
<event>
 4    1  0.7181337E+003  0.2281786E+02  0.7546771E-02  0.1494798E+00
          2   -1    0    0  502    0  0.00000000000E+00  0.00000000000E+00  0.11079424803E+03  0.11079424803E+03  0.00000000000E+00 0.  1.
          1   -1    0    0  501    0 -0.00000000000E+00 -0.00000000000E+00 -0.47564020806E+01  0.47564020806E+01  0.00000000000E+00 0.  1.
          2    1    1    2  501    0 -0.74663379252E+00  0.22805634522E+02  0.46688061950E+02  0.51965657473E+02  0.00000000000E+00 0.  1.
          1    1    1    2  502    0  0.74663379252E+00 -0.22805634522E+02  0.59349784002E+02  0.63584992640E+02  0.00000000000E+00 0.  1.
</event>
<event>
 4    1  0.7181337E+003  0.3011300E+02  0.7546771E-02  0.1418617E+00
          2   -1    0    0  502    0  0.00000000000E+00  0.00000000000E+00  0.24619614582E+03  0.24619614582E+03  0.00000000000E+00 0. -1.
          1   -1    0    0  501    0 -0.00000000000E+00 -0.00000000000E+00 -0.37341565099E+01  0.37341565099E+01  0.00000000000E+00 0. -1.
          2    1    1    2  501    0  0.24858949134E+02 -0.16994833078E+02  0.10663422165E+03  0.11080455284E+03  0.00000000000E+00 0. -1.
          1    1    1    2  502    0 -0.24858949134E+02  0.16994833078E+02  0.13582776767E+03  0.13912574950E+03  0.00000000000E+00 0. -1.
</event>
<event>
 4    1  0.7181337E+003  0.2674853E+02  0.7546771E-02  0.1450151E+00
          2   -1    0    0  502    0  0.00000000000E+00  0.00000000000E+00  0.14772381040E+02  0.14772381040E+02  0.00000000000E+00 0.  1.
          1   -1    0    0  501    0 -0.00000000000E+00 -0.00000000000E+00 -0.42554153310E+03  0.42554153310E+03  0.00000000000E+00 0. -1.
          2    1    1    2  501    0  0.26746890177E+02  0.29641528547E+00  0.18652142352E+01  0.26813485792E+02  0.00000000000E+00 0.  1.
          1    1    1    2  502    0 -0.26746890177E+02 -0.29641528547E+00 -0.41263436629E+03  0.41350042834E+03  0.00000000000E+00 0. -1.
</event>
<event>
 4    1  0.7181337E+003  0.2744975E+02  0.7546771E-02  0.1443142E+00
          2   -1    0    0  502    0  0.00000000000E+00  0.00000000000E+00  0.43264736825E+03  0.43264736825E+03  0.00000000000E+00 0.  1.
          1   -1    0    0  501    0 -0.00000000000E+00 -0.00000000000E+00 -0.19771295527E+02  0.19771295527E+02  0.00000000000E+00 0. -1.
          2    1    1    2  501    0 -0.27138351376E+02 -0.41229522127E+01  0.42245478377E+03  0.42334564268E+03  0.00000000000E+00 0.  1.
          1    1    1    2  502    0  0.27138351376E+02  0.41229522127E+01 -0.95787110436E+01  0.29073021096E+02  0.00000000000E+00 0. -1.
</event>
<event>
 4    1  0.7181337E+003  0.2054995E+02  0.7546771E-02  0.1525788E+00
          2   -1    0    0  502    0  0.00000000000E+00  0.00000000000E+00  0.25911277424E+03  0.25911277424E+03  0.00000000000E+00 0.  1.
          1   -1    0    0  501    0 -0.00000000000E+00 -0.00000000000E+00 -0.94003449810E+03  0.94003449810E+03  0.00000000000E+00 0. -1.
          2    1    1    2  501    0  0.19527203419E+02 -0.64022374943E+01  0.25859279059E+03  0.25940804086E+03  0.00000000000E+00 0.  1.
          1    1    1    2  502    0 -0.19527203419E+02  0.64022374943E+01 -0.93951451445E+03  0.93973923148E+03  0.00000000000E+00 0. -1.
</event>
<event>
 4    1  0.7181337E+003  0.6148995E+02  0.7546771E-02  0.1254853E+00
          2   -1    0    0  502    0  0.00000000000E+00  0.00000000000E+00  0.20067175221E+02  0.20067175221E+02  0.00000000000E+00 0.  1.
          1   -1    0    0  501    0 -0.00000000000E+00 -0.00000000000E+00 -0.18903084483E+03  0.18903084483E+03  0.00000000000E+00 0.  1.
          2    1    1    2  501    0  0.61390491591E+02  0.34959285891E+01 -0.78528193965E+02  0.99738113186E+02  0.00000000000E+00 0.  1.
          1    1    1    2  502    0 -0.61390491591E+02 -0.34959285891E+01 -0.90435475645E+02  0.10935990687E+03  0.00000000000E+00 0.  1.
</event>
<event>
 4    1  0.7181337E+003  0.4638334E+02  0.7546771E-02  0.1314664E+00
          2   -1    0    0  502    0  0.00000000000E+00  0.00000000000E+00  0.57862745823E+02  0.57862745823E+02  0.00000000000E+00 0. -1.
          1   -1    0    0  501    0 -0.00000000000E+00 -0.00000000000E+00 -0.37507648001E+02  0.37507648001E+02  0.00000000000E+00 0. -1.
          2    1    1    2  501    0 -0.43759515937E+02  0.15379171313E+02  0.14625302838E+02  0.48634490111E+02  0.00000000000E+00 0. -1.
          1    1    1    2  502    0  0.43759515937E+02 -0.15379171313E+02  0.57297949846E+01  0.46735903713E+02  0.00000000000E+00 0. -1.
</event>
<event>
 4    1  0.7181337E+003  0.6276270E+02  0.7546771E-02  0.1250724E+00
          2   -1    0    0  502    0  0.00000000000E+00  0.00000000000E+00  0.53439901008E+03  0.53439901008E+03  0.00000000000E+00 0. -1.
          1   -1    0    0  501    0 -0.00000000000E+00 -0.00000000000E+00 -0.14906044229E+02  0.14906044229E+02  0.00000000000E+00 0. -1.
          2    1    1    2  501    0 -0.49426539605E+02 -0.38680404553E+02  0.45501841838E+03  0.45932659141E+03  0.00000000000E+00 0. -1.
          1    1    1    2  502    0  0.49426539605E+02  0.38680404553E+02  0.64474547471E+02  0.89978462897E+02  0.00000000000E+00 0. -1.
</event>
<event>
 4    1  0.7181337E+003  0.2432470E+02  0.7546771E-02  0.1476502E+00
          2   -1    0    0  502    0  0.00000000000E+00  0.00000000000E+00  0.30827198677E+03  0.30827198677E+03  0.00000000000E+00 0. -1.
          1   -1    0    0  501    0 -0.00000000000E+00 -0.00000000000E+00 -0.67726625922E+02  0.67726625922E+02  0.00000000000E+00 0.  1.
          2    1    1    2  501    0 -0.23743219826E+02 -0.52868367927E+01  0.30558887957E+03  0.30655546717E+03  0.00000000000E+00 0. -1.
          1    1    1    2  502    0  0.23743219826E+02  0.52868367927E+01 -0.65043518731E+02  0.69443145521E+02  0.00000000000E+00 0.  1.
</event>
<event>
 4    1  0.7181337E+003  0.2090603E+02  0.7546771E-02  0.1520611E+00
          2   -1    0    0  502    0  0.00000000000E+00  0.00000000000E+00  0.53871315233E+02  0.53871315233E+02  0.00000000000E+00 0.  1.
          1   -1    0    0  501    0 -0.00000000000E+00 -0.00000000000E+00 -0.11989160918E+02  0.11989160918E+02  0.00000000000E+00 0.  1.
          2    1    1    2  501    0 -0.17917756108E+02  0.10771069573E+02  0.39665018610E+02  0.44837212503E+02  0.00000000000E+00 0.  1.
          1    1    1    2  502    0  0.17917756108E+02 -0.10771069573E+02  0.22171357049E+01  0.21023263648E+02  0.00000000000E+00 0.  1.
</event>
<event>
 4    1  0.7181337E+003  0.2693543E+02  0.7546771E-02  0.1448258E+00
          2   -1    0    0  502    0  0.00000000000E+00  0.00000000000E+00  0.60456666887E+03  0.60456666887E+03  0.00000000000E+00 0.  1.
          1   -1    0    0  501    0 -0.00000000000E+00 -0.00000000000E+00 -0.20915024339E+02  0.20915024339E+02  0.00000000000E+00 0. -1.
          2    1    1    2  501    0  0.23248311414E+02  0.13602701073E+02  0.59546191676E+03  0.59607081104E+03  0.00000000000E+00 0.  1.
          1    1    1    2  502    0 -0.23248311414E+02 -0.13602701073E+02 -0.11810272227E+02  0.29410882172E+02  0.00000000000E+00 0. -1.
</event>
<event>
 4    1  0.7181337E+003  0.3090638E+02  0.7546771E-02  0.1411880E+00
          2   -1    0    0  502    0  0.00000000000E+00  0.00000000000E+00  0.10505495243E+02  0.10505495243E+02  0.00000000000E+00 0. -1.
          1   -1    0    0  501    0 -0.00000000000E+00 -0.00000000000E+00 -0.11529166705E+03  0.11529166705E+03  0.00000000000E+00 0. -1.
          2    1    1    2  501    0  0.14077414954E+02  0.27514196226E+02 -0.23476543816E+02  0.38811760013E+02  0.00000000000E+00 0. -1.
          1    1    1    2  502    0 -0.14077414954E+02 -0.27514196226E+02 -0.81309627989E+02  0.86985402278E+02  0.00000000000E+00 0. -1.
</event>
<event>
 4    1  0.7181337E+003  0.4576183E+02  0.7546771E-02  0.1317673E+00
          2   -1    0    0  502    0  0.00000000000E+00  0.00000000000E+00  0.19918325412E+04  0.19918325412E+04  0.00000000000E+00 0.  1.
          1   -1    0    0  501    0 -0.00000000000E+00 -0.00000000000E+00 -0.12709168393E+01  0.12709168393E+01  0.00000000000E+00 0.  1.
          2    1    1    2  501    0  0.31061680000E+02 -0.33605310117E+02  0.14094796918E+04  0.14102223748E+04  0.00000000000E+00 0.  1.
          1    1    1    2  502    0 -0.31061680000E+02  0.33605310117E+02  0.58108193266E+03  0.58288108332E+03  0.00000000000E+00 0.  1.
</event>
<event>
 4    1  0.7181337E+003  0.2464551E+02  0.7546771E-02  0.1472808E+00
          2   -1    0    0  502    0  0.00000000000E+00  0.00000000000E+00  0.59763698343E+01  0.59763698343E+01  0.00000000000E+00 0.  1.
          1   -1    0    0  501    0 -0.00000000000E+00 -0.00000000000E+00 -0.23284939566E+03  0.23284939566E+03  0.00000000000E+00 0. -1.
          2    1    1    2  501    0  0.24176102211E+02 -0.47872203419E+01 -0.23795595543E+02  0.34258309415E+02  0.00000000000E+00 0.  1.
          1    1    1    2  502    0 -0.24176102211E+02  0.47872203419E+01 -0.20307743028E+03  0.20456745608E+03  0.00000000000E+00 0. -1.
</event>
<event>
 4    1  0.7181337E+003  0.2629611E+02  0.7546771E-02  0.1454810E+00
          2   -1    0    0  502    0  0.00000000000E+00  0.00000000000E+00  0.73410802134E+03  0.73410802134E+03  0.00000000000E+00 0. -1.
          1   -1    0    0  501    0 -0.00000000000E+00 -0.00000000000E+00 -0.11459368843E+03  0.11459368843E+03  0.00000000000E+00 0. -1.
          2    1    1    2  501    0  0.23829004978E+02  0.11120437704E+02  0.73236037809E+03  0.73283231984E+03  0.00000000000E+00 0. -1.
          1    1    1    2  502    0 -0.23829004978E+02 -0.11120437704E+02 -0.11284604517E+03  0.11586938993E+03  0.00000000000E+00 0. -1.
</event>
<event>
 4    1  0.7181337E+003  0.3545502E+02  0.7546771E-02  0.1377392E+00
          2   -1    0    0  502    0  0.00000000000E+00  0.00000000000E+00  0.21646863919E+03  0.21646863919E+03  0.00000000000E+00 0.  1.
          1   -1    0    0  501    0 -0.00000000000E+00 -0.00000000000E+00 -0.66125218499E+01  0.66125218499E+01  0.00000000000E+00 0.  1.
          2    1    1    2  501    0 -0.32910239061E+02  0.13189896544E+02  0.66000394965E+02  0.74920687006E+02  0.00000000000E+00 0.  1.
          1    1    1    2  502    0  0.32910239061E+02 -0.13189896544E+02  0.14385572238E+03  0.14816047404E+03  0.00000000000E+00 0.  1.
</event>
<event>
 4    1  0.7181337E+003  0.2299006E+02  0.7546771E-02  0.1492623E+00
          2   -1    0    0  502    0  0.00000000000E+00  0.00000000000E+00  0.33344865124E+03  0.33344865124E+03  0.00000000000E+00 0.  1.
          1   -1    0    0  501    0 -0.00000000000E+00 -0.00000000000E+00 -0.46852583718E+02  0.46852583718E+02  0.00000000000E+00 0. -1.
          2    1    1    2  501    0  0.63650319845E+01  0.22091385669E+02  0.33020446187E+03  0.33100382112E+03  0.00000000000E+00 0.  1.
          1    1    1    2  502    0 -0.63650319845E+01 -0.22091385669E+02 -0.43608394354E+02  0.49297413838E+02  0.00000000000E+00 0. -1.
</event>
<event>
 4    1  0.7181337E+003  0.4152193E+02  0.7546771E-02  0.1339791E+00
          2   -1    0    0  502    0  0.00000000000E+00  0.00000000000E+00  0.24858043421E+04  0.24858043421E+04  0.00000000000E+00 0.  1.
          1   -1    0    0  501    0 -0.00000000000E+00 -0.00000000000E+00 -0.20303637692E+01  0.20303637692E+01  0.00000000000E+00 0.  1.
          2    1    1    2  501    0  0.37935333709E+02 -0.16881379092E+02  0.22512267486E+04  0.22516096341E+04  0.00000000000E+00 0.  1.
          1    1    1    2  502    0 -0.37935333709E+02  0.16881379092E+02  0.23254722971E+03  0.23622507181E+03  0.00000000000E+00 0.  1.
</event>
<event>
 4    1  0.7181337E+003  0.2463623E+02  0.7546771E-02  0.1472914E+00
          2   -1    0    0  502    0  0.00000000000E+00  0.00000000000E+00  0.73186159306E+02  0.73186159306E+02  0.00000000000E+00 0.  1.
          1   -1    0    0  501    0 -0.00000000000E+00 -0.00000000000E+00 -0.38615719049E+02  0.38615719049E+02  0.00000000000E+00 0. -1.
          2    1    1    2  501    0 -0.21546105807E+02  0.11946084287E+02  0.66821120019E+02  0.71218015178E+02  0.00000000000E+00 0.  1.
          1    1    1    2  502    0  0.21546105807E+02 -0.11946084287E+02 -0.32250679763E+02  0.40583863177E+02  0.00000000000E+00 0. -1.
</event>
<event>
 4    1  0.7181337E+003  0.2332761E+02  0.7546771E-02  0.1488425E+00
          2   -1    0    0  502    0  0.00000000000E+00  0.00000000000E+00  0.21548369769E+02  0.21548369769E+02  0.00000000000E+00 0. -1.
          1   -1    0    0  501    0 -0.00000000000E+00 -0.00000000000E+00 -0.37772297818E+03  0.37772297818E+03  0.00000000000E+00 0.  1.
          2    1    1    2  501    0 -0.21390978156E+02 -0.93061003909E+01  0.14759320768E+02  0.27604619188E+02  0.00000000000E+00 0. -1.
          1    1    1    2  502    0  0.21390978156E+02  0.93061003909E+01 -0.37093392918E+03  0.37166672876E+03  0.00000000000E+00 0.  1.
</event>
<event>
 4    1  0.7181337E+003  0.3114598E+02  0.7546771E-02  0.1409892E+00
          2   -1    0    0  502    0  0.00000000000E+00  0.00000000000E+00  0.89469158206E+03  0.89469158206E+03  0.00000000000E+00 0.  1.
          1   -1    0    0  501    0 -0.00000000000E+00 -0.00000000000E+00 -0.16799946391E+03  0.16799946391E+03  0.00000000000E+00 0.  1.
          2    1    1    2  501    0  0.15734005747E+02 -0.26879601326E+02  0.89297417939E+03  0.89351718336E+03  0.00000000000E+00 0.  1.
          1    1    1    2  502    0 -0.15734005747E+02  0.26879601326E+02 -0.16628206124E+03  0.16917386262E+03  0.00000000000E+00 0.  1.
</event>
<event>
 4    1  0.7181337E+003  0.2946957E+02  0.7546771E-02  0.1424263E+00
          2   -1    0    0  502    0  0.00000000000E+00  0.00000000000E+00  0.46469919032E+02  0.46469919032E+02  0.00000000000E+00 0. -1.
          1   -1    0    0  501    0 -0.00000000000E+00 -0.00000000000E+00 -0.15481136123E+03  0.15481136123E+03  0.00000000000E+00 0. -1.
          2    1    1    2  501    0  0.10671533807E+01 -0.29450242268E+02  0.40200032780E+02  0.49844741161E+02  0.00000000000E+00 0. -1.
          1    1    1    2  502    0 -0.10671533807E+01  0.29450242268E+02 -0.14854147498E+03  0.15143653910E+03  0.00000000000E+00 0. -1.
</event>
<event>
 4    1  0.7181337E+003  0.2630747E+02  0.7546771E-02  0.1454691E+00
          2   -1    0    0  502    0  0.00000000000E+00  0.00000000000E+00  0.65695614073E+03  0.65695614073E+03  0.00000000000E+00 0. -1.
          1   -1    0    0  501    0 -0.00000000000E+00 -0.00000000000E+00 -0.30107710165E+01  0.30107710165E+01  0.00000000000E+00 0.  1.
          2    1    1    2  501    0 -0.32176088922E+01  0.26109961785E+02  0.59303428222E+03  0.59361750564E+03  0.00000000000E+00 0. -1.
          1    1    1    2  502    0  0.32176088922E+01 -0.26109961785E+02  0.60911087497E+02  0.66349406112E+02  0.00000000000E+00 0.  1.
</event>
<event>
 4    1  0.7181337E+003  0.2077168E+02  0.7546771E-02  0.1522550E+00
          2   -1    0    0  502    0  0.00000000000E+00  0.00000000000E+00  0.15914442810E+03  0.15914442810E+03  0.00000000000E+00 0.  1.
          1   -1    0    0  501    0 -0.00000000000E+00 -0.00000000000E+00 -0.53275042051E+01  0.53275042051E+01  0.00000000000E+00 0. -1.
          2    1    1    2  501    0 -0.15925866498E+02  0.13335274230E+02  0.13453851647E+03  0.13613256471E+03  0.00000000000E+00 0.  1.
          1    1    1    2  502    0  0.15925866498E+02 -0.13335274230E+02  0.19278407428E+02  0.28339367591E+02  0.00000000000E+00 0. -1.
</event>
<event>
 4    1  0.7181337E+003  0.2454418E+02  0.7546771E-02  0.1473968E+00
          2   -1    0    0  502    0  0.00000000000E+00  0.00000000000E+00  0.49086489311E+03  0.49086489311E+03  0.00000000000E+00 0. -1.
          1   -1    0    0  501    0 -0.00000000000E+00 -0.00000000000E+00 -0.30333508928E+01  0.30333508928E+01  0.00000000000E+00 0.  1.
          2    1    1    2  501    0  0.36284290942E+01  0.24274502643E+02  0.43446904754E+03  0.43516177480E+03  0.00000000000E+00 0. -1.
          1    1    1    2  502    0 -0.36284290942E+01 -0.24274502643E+02  0.53362494672E+02  0.58736469198E+02  0.00000000000E+00 0.  1.
</event>
<event>
 4    1  0.7181337E+003  0.2042979E+02  0.7546771E-02  0.1527564E+00
          2   -1    0    0  502    0  0.00000000000E+00  0.00000000000E+00  0.83855380573E+02  0.83855380573E+02  0.00000000000E+00 0.  1.
          1   -1    0    0  501    0 -0.00000000000E+00 -0.00000000000E+00 -0.27005337040E+02  0.27005337040E+02  0.00000000000E+00 0. -1.
          2    1    1    2  501    0 -0.90301031465E+01 -0.18325759127E+02  0.78487282282E+02  0.81102587446E+02  0.00000000000E+00 0.  1.
          1    1    1    2  502    0  0.90301031465E+01  0.18325759127E+02 -0.21637238748E+02  0.29758130167E+02  0.00000000000E+00 0. -1.
</event>
<event>
 4    1  0.7181337E+003  0.3259714E+02  0.7546771E-02  0.1398292E+00
          2   -1    0    0  502    0  0.00000000000E+00  0.00000000000E+00  0.10044488197E+03  0.10044488197E+03  0.00000000000E+00 0.  1.
          1   -1    0    0  501    0 -0.00000000000E+00 -0.00000000000E+00 -0.87898366771E+03  0.87898366771E+03  0.00000000000E+00 0.  1.
          2    1    1    2  501    0  0.23144674987E+02 -0.22954248876E+02  0.97489077016E+02  0.10279442426E+03  0.00000000000E+00 0.  1.
          1    1    1    2  502    0 -0.23144674987E+02  0.22954248876E+02 -0.87602786275E+03  0.87663412542E+03  0.00000000000E+00 0.  1.
</event>
<event>
 4    1  0.7181337E+003  0.7432757E+02  0.7546771E-02  0.1217666E+00
          2   -1    0    0  502    0  0.00000000000E+00  0.00000000000E+00  0.11086151115E+02  0.11086151115E+02  0.00000000000E+00 0. -1.
          1   -1    0    0  501    0 -0.00000000000E+00 -0.00000000000E+00 -0.50007391165E+03  0.50007391165E+03  0.00000000000E+00 0.  1.
          2    1    1    2  501    0  0.60507863573E+02 -0.43166950681E+02 -0.22941095923E+03  0.24115135372E+03  0.00000000000E+00 0. -1.
          1    1    1    2  502    0 -0.60507863573E+02  0.43166950681E+02 -0.25957680130E+03  0.27000870904E+03  0.00000000000E+00 0.  1.
</event>
<event>
 4    1  0.7181337E+003  0.2625682E+02  0.7546771E-02  0.1455220E+00
          2   -1    0    0  502    0  0.00000000000E+00  0.00000000000E+00  0.45741754602E+03  0.45741754602E+03  0.00000000000E+00 0. -1.
          1   -1    0    0  501    0 -0.00000000000E+00 -0.00000000000E+00 -0.65519923603E+01  0.65519923603E+01  0.00000000000E+00 0. -1.
          2    1    1    2  501    0 -0.39745964068E+01 -0.25954248862E+02  0.42899367618E+03  0.42979645723E+03  0.00000000000E+00 0. -1.
          1    1    1    2  502    0  0.39745964068E+01  0.25954248862E+02  0.21871877488E+02  0.34173081152E+02  0.00000000000E+00 0. -1.
</event>
<event>
 4    1  0.7181337E+003  0.3795917E+02  0.7546771E-02  0.1360879E+00
          2   -1    0    0  502    0  0.00000000000E+00  0.00000000000E+00  0.70925441908E+02  0.70925441908E+02  0.00000000000E+00 0. -1.
          1   -1    0    0  501    0 -0.00000000000E+00 -0.00000000000E+00 -0.30461955042E+02  0.30461955042E+02  0.00000000000E+00 0. -1.
          2    1    1    2  501    0 -0.14835582598E+02 -0.34940011260E+02  0.49488643678E+02  0.62370062939E+02  0.00000000000E+00 0. -1.
          1    1    1    2  502    0  0.14835582598E+02  0.34940011260E+02 -0.90251568123E+01  0.39017334012E+02  0.00000000000E+00 0. -1.
</event>
<event>
 4    1  0.7181337E+003  0.2154098E+02  0.7546771E-02  0.1511679E+00
          2   -1    0    0  502    0  0.00000000000E+00  0.00000000000E+00  0.51582436688E+03  0.51582436688E+03  0.00000000000E+00 0. -1.
          1   -1    0    0  501    0 -0.00000000000E+00 -0.00000000000E+00 -0.61382141756E+02  0.61382141756E+02  0.00000000000E+00 0.  1.
          2    1    1    2  501    0 -0.18792290072E+01  0.21458855706E+02  0.51370181468E+03  0.51415325381E+03  0.00000000000E+00 0. -1.
          1    1    1    2  502    0  0.18792290072E+01 -0.21458855706E+02 -0.59259589559E+02  0.63053254830E+02  0.00000000000E+00 0.  1.
</event>
<event>
 4    1  0.7181337E+003  0.3798625E+02  0.7546771E-02  0.1360708E+00
          2   -1    0    0  502    0  0.00000000000E+00  0.00000000000E+00  0.12849767855E+04  0.12849767855E+04  0.00000000000E+00 0.  1.
          1   -1    0    0  501    0 -0.00000000000E+00 -0.00000000000E+00 -0.15046527165E+03  0.15046527165E+03  0.00000000000E+00 0.  1.
          2    1    1    2  501    0 -0.46801839747E+01  0.37696831695E+02  0.12822935453E+04  0.12828560681E+04  0.00000000000E+00 0.  1.
          1    1    1    2  502    0  0.46801839747E+01 -0.37696831695E+02 -0.14778203142E+03  0.15258598904E+03  0.00000000000E+00 0.  1.
</event>
<event>
 4    1  0.7181337E+003  0.2313737E+02  0.7546771E-02  0.1490780E+00
          2   -1    0    0  502    0  0.00000000000E+00  0.00000000000E+00  0.12959528790E+03  0.12959528790E+03  0.00000000000E+00 0.  1.
          1   -1    0    0  501    0 -0.00000000000E+00 -0.00000000000E+00 -0.11790373772E+02  0.11790373772E+02  0.00000000000E+00 0.  1.
          2    1    1    2  501    0  0.18388474383E+02  0.14042860889E+02  0.11588117034E+03  0.11816845421E+03  0.00000000000E+00 0.  1.
          1    1    1    2  502    0 -0.18388474383E+02 -0.14042860889E+02  0.19237437908E+01  0.23217207461E+02  0.00000000000E+00 0.  1.
</event>
<event>
 4    1  0.7181337E+003  0.2211117E+02  0.7546771E-02  0.1503971E+00
          2   -1    0    0  502    0  0.00000000000E+00  0.00000000000E+00  0.11089973336E+02  0.11089973336E+02  0.00000000000E+00 0. -1.
          1   -1    0    0  501    0 -0.00000000000E+00 -0.00000000000E+00 -0.14359142586E+04  0.14359142586E+04  0.00000000000E+00 0.  1.
          2    1    1    2  501    0 -0.21496505220E+02 -0.51772777135E+01 -0.10303417852E+00  0.22111412376E+02  0.00000000000E+00 0. -1.
          1    1    1    2  502    0  0.21496505220E+02  0.51772777135E+01 -0.14247212510E+04  0.14248928195E+04  0.00000000000E+00 0.  1.
</event>
<event>
 4    1  0.7181337E+003  0.2208187E+02  0.7546771E-02  0.1504361E+00
          2   -1    0    0  502    0  0.00000000000E+00  0.00000000000E+00  0.36858018356E+01  0.36858018356E+01  0.00000000000E+00 0.  1.
          1   -1    0    0  501    0 -0.00000000000E+00 -0.00000000000E+00 -0.16041021935E+04  0.16041021935E+04  0.00000000000E+00 0. -1.
          2    1    1    2  501    0 -0.25295478706E+01 -0.21936505842E+02 -0.30176857030E+02  0.37393202607E+02  0.00000000000E+00 0.  1.
          1    1    1    2  502    0  0.25295478706E+01  0.21936505842E+02 -0.15702395346E+04  0.15703947927E+04  0.00000000000E+00 0. -1.
</event>
<event>
 4    1  0.7181337E+003  0.2546206E+02  0.7546771E-02  0.1463700E+00
          2   -1    0    0  502    0  0.00000000000E+00  0.00000000000E+00  0.16915538964E+01  0.16915538964E+01  0.00000000000E+00 0. -1.
          1   -1    0    0  501    0 -0.00000000000E+00 -0.00000000000E+00 -0.79105985982E+03  0.79105985982E+03  0.00000000000E+00 0.  1.
          2    1    1    2  501    0  0.15089673773E+02  0.20508974235E+02 -0.11009239115E+03  0.11299845516E+03  0.00000000000E+00 0. -1.
          1    1    1    2  502    0 -0.15089673773E+02 -0.20508974235E+02 -0.67927591477E+03  0.67975295856E+03  0.00000000000E+00 0.  1.
</event>
<event>
 4    1  0.7181337E+003  0.2019609E+02  0.7546771E-02  0.1531059E+00
          2   -1    0    0  502    0  0.00000000000E+00  0.00000000000E+00  0.36776462214E+03  0.36776462214E+03  0.00000000000E+00 0.  1.
          1   -1    0    0  501    0 -0.00000000000E+00 -0.00000000000E+00 -0.64351154377E+03  0.64351154377E+03  0.00000000000E+00 0. -1.
          2    1    1    2  501    0  0.57855732497E+01 -0.19349653869E+02  0.36732870370E+03  0.36788348499E+03  0.00000000000E+00 0.  1.
          1    1    1    2  502    0 -0.57855732497E+01  0.19349653869E+02 -0.64307562534E+03  0.64339268092E+03  0.00000000000E+00 0. -1.
</event>
<event>
 4    1  0.7181337E+003  0.3183019E+02  0.7546771E-02  0.1404332E+00
          2   -1    0    0  502    0  0.00000000000E+00  0.00000000000E+00  0.28185309252E+04  0.28185309252E+04  0.00000000000E+00 0.  1.
          1   -1    0    0  501    0 -0.00000000000E+00 -0.00000000000E+00 -0.54124046892E+00  0.54124046892E+00  0.00000000000E+00 0.  1.
          2    1    1    2  501    0  0.26794529860E+02  0.17181804363E+02  0.22258584465E+04  0.22260860237E+04  0.00000000000E+00 0.  1.
          1    1    1    2  502    0 -0.26794529860E+02 -0.17181804363E+02  0.59213123824E+03  0.59298614193E+03  0.00000000000E+00 0.  1.
</event>
<event>
 4    1  0.7181337E+003  0.2386130E+02  0.7546771E-02  0.1481957E+00
          2   -1    0    0  502    0  0.00000000000E+00  0.00000000000E+00  0.46737990724E+03  0.46737990724E+03  0.00000000000E+00 0. -1.
          1   -1    0    0  501    0 -0.00000000000E+00 -0.00000000000E+00 -0.31911552326E+01  0.31911552326E+01  0.00000000000E+00 0. -1.
          2    1    1    2  501    0 -0.18884565289E+02 -0.14585425397E+02  0.41709792128E+03  0.41777989107E+03  0.00000000000E+00 0. -1.
          1    1    1    2  502    0  0.18884565289E+02  0.14585425397E+02  0.47090830720E+02  0.52791171403E+02  0.00000000000E+00 0. -1.
</event>
<event>
 4    1  0.7181337E+003  0.2525499E+02  0.7546771E-02  0.1465971E+00
          2   -1    0    0  502    0  0.00000000000E+00  0.00000000000E+00  0.87648763770E+01  0.87648763770E+01  0.00000000000E+00 0. -1.
          1   -1    0    0  501    0 -0.00000000000E+00 -0.00000000000E+00 -0.12811081172E+04  0.12811081172E+04  0.00000000000E+00 0. -1.
          2    1    1    2  501    0  0.90834100192E+01 -0.23564940431E+02 -0.98197059160E+01  0.27096888739E+02  0.00000000000E+00 0. -1.
          1    1    1    2  502    0 -0.90834100192E+01  0.23564940431E+02 -0.12625235349E+04  0.12627761049E+04  0.00000000000E+00 0. -1.
</event>
<event>
 4    1  0.7181337E+003  0.2203998E+02  0.7546771E-02  0.1504918E+00
          2   -1    0    0  502    0  0.00000000000E+00  0.00000000000E+00  0.54534893549E+03  0.54534893549E+03  0.00000000000E+00 0.  1.
          1   -1    0    0  501    0 -0.00000000000E+00 -0.00000000000E+00 -0.16582744888E+02  0.16582744888E+02  0.00000000000E+00 0. -1.
          2    1    1    2  501    0 -0.45006669268E+01  0.21575555073E+02  0.53769882008E+03  0.53815033373E+03  0.00000000000E+00 0.  1.
          1    1    1    2  502    0  0.45006669268E+01 -0.21575555073E+02 -0.89326294702E+01  0.23781346655E+02  0.00000000000E+00 0. -1.
</event>
<event>
 4    1  0.7181337E+003  0.3345243E+02  0.7546771E-02  0.1391782E+00
          2   -1    0    0  502    0  0.00000000000E+00  0.00000000000E+00  0.53429585471E+03  0.53429585471E+03  0.00000000000E+00 0.  1.
          1   -1    0    0  501    0 -0.00000000000E+00 -0.00000000000E+00 -0.11009663691E+03  0.11009663691E+03  0.00000000000E+00 0. -1.
          2    1    1    2  501    0  0.23183389797E+02  0.24116293761E+02  0.53121642430E+03  0.53226868650E+03  0.00000000000E+00 0.  1.
          1    1    1    2  502    0 -0.23183389797E+02 -0.24116293761E+02 -0.10701720649E+03  0.11212380511E+03  0.00000000000E+00 0. -1.
</event>
<event>
 4    1  0.7181337E+003  0.2070387E+02  0.7546771E-02  0.1523535E+00
          2   -1    0    0  502    0  0.00000000000E+00  0.00000000000E+00  0.22758561153E+03  0.22758561153E+03  0.00000000000E+00 0.  1.
          1   -1    0    0  501    0 -0.00000000000E+00 -0.00000000000E+00 -0.20907904404E+01  0.20907904404E+01  0.00000000000E+00 0.  1.
          2    1    1    2  501    0 -0.85675340555E+01  0.18848013584E+02  0.14890954884E+03  0.15034195686E+03  0.00000000000E+00 0.  1.
          1    1    1    2  502    0  0.85675340555E+01 -0.18848013584E+02  0.76585272246E+02  0.79334445109E+02  0.00000000000E+00 0.  1.
</event>
<event>
 4    1  0.7181337E+003  0.2243975E+02  0.7546771E-02  0.1499656E+00
          2   -1    0    0  502    0  0.00000000000E+00  0.00000000000E+00  0.13679611569E+04  0.13679611569E+04  0.00000000000E+00 0. -1.
          1   -1    0    0  501    0 -0.00000000000E+00 -0.00000000000E+00 -0.37940759600E+00  0.37940759600E+00  0.00000000000E+00 0. -1.
          2    1    1    2  501    0  0.16834695543E+02 -0.14836955238E+02  0.80191987047E+03  0.80223376946E+03  0.00000000000E+00 0. -1.
          1    1    1    2  502    0 -0.16834695543E+02  0.14836955238E+02  0.56566187886E+03  0.56610679506E+03  0.00000000000E+00 0. -1.
</event>
<event>
 4    1  0.7181337E+003  0.2244890E+02  0.7546771E-02  0.1499537E+00
          2   -1    0    0  502    0  0.00000000000E+00  0.00000000000E+00  0.23108248768E+03  0.23108248768E+03  0.00000000000E+00 0. -1.
          1   -1    0    0  501    0 -0.00000000000E+00 -0.00000000000E+00 -0.41974396010E+03  0.41974396010E+03  0.00000000000E+00 0. -1.
          2    1    1    2  501    0 -0.15781692069E+02 -0.15965320941E+02  0.23023602230E+03  0.23132786093E+03  0.00000000000E+00 0. -1.
          1    1    1    2  502    0  0.15781692069E+02  0.15965320941E+02 -0.41889749473E+03  0.41949858684E+03  0.00000000000E+00 0. -1.
</event>
<event>
 4    1  0.7181337E+003  0.4792069E+02  0.7546771E-02  0.1307448E+00
          2   -1    0    0  502    0  0.00000000000E+00  0.00000000000E+00  0.56717011440E+01  0.56717011440E+01  0.00000000000E+00 0. -1.
          1   -1    0    0  501    0 -0.00000000000E+00 -0.00000000000E+00 -0.41137620106E+03  0.41137620106E+03  0.00000000000E+00 0. -1.
          2    1    1    2  501    0 -0.28673169788E+02 -0.38395827295E+02 -0.22904482759E+03  0.23400410951E+03  0.00000000000E+00 0. -1.
          1    1    1    2  502    0  0.28673169788E+02  0.38395827295E+02 -0.17665967232E+03  0.18304379270E+03  0.00000000000E+00 0. -1.
</event>
<event>
 4    1  0.7181337E+003  0.3444065E+02  0.7546771E-02  0.1384539E+00
          2   -1    0    0  502    0  0.00000000000E+00  0.00000000000E+00  0.94396296626E+03  0.94396296626E+03  0.00000000000E+00 0.  1.
          1   -1    0    0  501    0 -0.00000000000E+00 -0.00000000000E+00 -0.19167641352E+02  0.19167641352E+02  0.00000000000E+00 0.  1.
          2    1    1    2  501    0  0.31048354825E+02 -0.14904959918E+02  0.92791043338E+03  0.92854936893E+03  0.00000000000E+00 0.  1.
          1    1    1    2  502    0 -0.31048354825E+02  0.14904959918E+02 -0.31151084762E+01  0.34581238676E+02  0.00000000000E+00 0.  1.
</event>
<event>
 4    1  0.7181337E+003  0.2236077E+02  0.7546771E-02  0.1500685E+00
          2   -1    0    0  502    0  0.00000000000E+00  0.00000000000E+00  0.61480843318E+01  0.61480843318E+01  0.00000000000E+00 0.  1.
          1   -1    0    0  501    0 -0.00000000000E+00 -0.00000000000E+00 -0.38398046839E+03  0.38398046839E+03  0.00000000000E+00 0.  1.
          2    1    1    2  501    0 -0.91244177990E+01 -0.20414435023E+02 -0.15736832332E+02  0.27343226754E+02  0.00000000000E+00 0.  1.
          1    1    1    2  502    0  0.91244177990E+01  0.20414435023E+02 -0.36209555173E+03  0.36278532597E+03  0.00000000000E+00 0.  1.
</event>
<event>
 4    1  0.7181337E+003  0.2113360E+02  0.7546771E-02  0.1517366E+00
          2   -1    0    0  502    0  0.00000000000E+00  0.00000000000E+00  0.28320888677E+03  0.28320888677E+03  0.00000000000E+00 0.  1.
          1   -1    0    0  501    0 -0.00000000000E+00 -0.00000000000E+00 -0.19225149392E+02  0.19225149392E+02  0.00000000000E+00 0. -1.
          2    1    1    2  501    0 -0.18846703430E+02 -0.95619489974E+01  0.27687406353E+03  0.27767944857E+03  0.00000000000E+00 0.  1.
          1    1    1    2  502    0  0.18846703430E+02  0.95619489974E+01 -0.12890326153E+02  0.24754587598E+02  0.00000000000E+00 0. -1.
</event>
<event>
 4    1  0.7181337E+003  0.2335674E+02  0.7546771E-02  0.1488066E+00
          2   -1    0    0  502    0  0.00000000000E+00  0.00000000000E+00  0.24747866042E+04  0.24747866042E+04  0.00000000000E+00 0.  1.
          1   -1    0    0  501    0 -0.00000000000E+00 -0.00000000000E+00 -0.23159025544E+00  0.23159025544E+00  0.00000000000E+00 0.  1.
          2    1    1    2  501    0 -0.13023486722E+02 -0.19388811276E+02  0.15088389093E+04  0.15090196789E+04  0.00000000000E+00 0.  1.
          1    1    1    2  502    0  0.13023486722E+02  0.19388811276E+02  0.96571610464E+03  0.96599851551E+03  0.00000000000E+00 0.  1.
</event>
<event>
 4    1  0.7181337E+003  0.2132071E+02  0.7546771E-02  0.1514735E+00
          2   -1    0    0  502    0  0.00000000000E+00  0.00000000000E+00  0.22911553932E+01  0.22911553932E+01  0.00000000000E+00 0. -1.
          1   -1    0    0  501    0 -0.00000000000E+00 -0.00000000000E+00 -0.94065686568E+03  0.94065686568E+03  0.00000000000E+00 0.  1.
          2    1    1    2  501    0  0.13287780328E+02  0.16673562228E+02 -0.50371652329E+02  0.54698045136E+02  0.00000000000E+00 0. -1.
          1    1    1    2  502    0 -0.13287780328E+02 -0.16673562228E+02 -0.88799405796E+03  0.88824997594E+03  0.00000000000E+00 0.  1.
</event>
<event>
 4    1  0.7181337E+003  0.2363593E+02  0.7546771E-02  0.1484663E+00
          2   -1    0    0  502    0  0.00000000000E+00  0.00000000000E+00  0.15815213787E+04  0.15815213787E+04  0.00000000000E+00 0. -1.
          1   -1    0    0  501    0 -0.00000000000E+00 -0.00000000000E+00 -0.12242036540E+02  0.12242036540E+02  0.00000000000E+00 0.  1.
          2    1    1    2  501    0  0.15815690657E+02 -0.17564768614E+02  0.15699403320E+04  0.15701182450E+04  0.00000000000E+00 0. -1.
          1    1    1    2  502    0 -0.15815690657E+02  0.17564768614E+02 -0.66098987691E+00  0.23645170226E+02  0.00000000000E+00 0.  1.
</event>
<event>
 4    1  0.7181337E+003  0.2077628E+02  0.7546771E-02  0.1522483E+00
          2   -1    0    0  502    0  0.00000000000E+00  0.00000000000E+00  0.57197120037E+01  0.57197120037E+01  0.00000000000E+00 0. -1.
          1   -1    0    0  501    0 -0.00000000000E+00 -0.00000000000E+00 -0.63334255154E+03  0.63334255154E+03  0.00000000000E+00 0. -1.
          2    1    1    2  501    0 -0.12297842228E+00 -0.20775912823E+02 -0.13921253699E+02  0.25009097982E+02  0.00000000000E+00 0. -1.
          1    1    1    2  502    0  0.12297842228E+00  0.20775912823E+02 -0.61370158584E+03  0.61405316556E+03  0.00000000000E+00 0. -1.
</event>
<event>
 4    1  0.7181337E+003  0.2392016E+02  0.7546771E-02  0.1481256E+00
          2   -1    0    0  502    0  0.00000000000E+00  0.00000000000E+00  0.45491278989E+01  0.45491278989E+01  0.00000000000E+00 0.  1.
          1   -1    0    0  501    0 -0.00000000000E+00 -0.00000000000E+00 -0.14970416491E+04  0.14970416491E+04  0.00000000000E+00 0. -1.
          2    1    1    2  501    0 -0.23821591979E+02 -0.21692347482E+01 -0.27682420028E+02  0.36585382360E+02  0.00000000000E+00 0.  1.
          1    1    1    2  502    0  0.23821591979E+02  0.21692347482E+01 -0.14648101012E+04  0.14650053946E+04  0.00000000000E+00 0. -1.
</event>
<event>
 4    1  0.7181337E+003  0.2521865E+02  0.7546771E-02  0.1466372E+00
          2   -1    0    0  502    0  0.00000000000E+00  0.00000000000E+00  0.30049089862E+02  0.30049089862E+02  0.00000000000E+00 0.  1.
          1   -1    0    0  501    0 -0.00000000000E+00 -0.00000000000E+00 -0.53394494542E+02  0.53394494542E+02  0.00000000000E+00 0. -1.
          2    1    1    2  501    0 -0.18294723164E+02  0.17357512900E+02  0.20742104994E+02  0.32652948861E+02  0.00000000000E+00 0.  1.
          1    1    1    2  502    0  0.18294723164E+02 -0.17357512900E+02 -0.44087509673E+02  0.50790635544E+02  0.00000000000E+00 0. -1.
</event>
<event>
 4    1  0.7181337E+003  0.2059058E+02  0.7546771E-02  0.1525191E+00
          2   -1    0    0  502    0  0.00000000000E+00  0.00000000000E+00  0.48465499560E+02  0.48465499560E+02  0.00000000000E+00 0. -1.
          1   -1    0    0  501    0 -0.00000000000E+00 -0.00000000000E+00 -0.18229303124E+03  0.18229303124E+03  0.00000000000E+00 0. -1.
          2    1    1    2  501    0 -0.20430148849E+02  0.25653307304E+01  0.45663044323E+02  0.50090772809E+02  0.00000000000E+00 0. -1.
          1    1    1    2  502    0  0.20430148849E+02 -0.25653307304E+01 -0.17949057600E+03  0.18066775799E+03  0.00000000000E+00 0. -1.
</event>
<event>
 4    1  0.7181337E+003  0.2034184E+02  0.7546771E-02  0.1528873E+00
          2   -1    0    0  502    0  0.00000000000E+00  0.00000000000E+00  0.66482515570E+03  0.66482515570E+03  0.00000000000E+00 0.  1.
          1   -1    0    0  501    0 -0.00000000000E+00 -0.00000000000E+00 -0.11805298304E+02  0.11805298304E+02  0.00000000000E+00 0.  1.
          2    1    1    2  501    0 -0.56968000980E+01 -0.19527846625E+02  0.65578598990E+03  0.65610140594E+03  0.00000000000E+00 0.  1.
          1    1    1    2  502    0  0.56968000980E+01  0.19527846625E+02 -0.27661325107E+01  0.20529048059E+02  0.00000000000E+00 0.  1.
</event>
<event>
 4    1  0.7181337E+003  0.3502374E+02  0.7546771E-02  0.1380396E+00
          2   -1    0    0  502    0  0.00000000000E+00  0.00000000000E+00  0.35426530050E+03  0.35426530050E+03  0.00000000000E+00 0. -1.
          1   -1    0    0  501    0 -0.00000000000E+00 -0.00000000000E+00 -0.18919338878E+03  0.18919338878E+03  0.00000000000E+00 0. -1.
          2    1    1    2  501    0 -0.17141152733E+02 -0.30542484811E+02  0.35176726897E+03  0.35350654027E+03  0.00000000000E+00 0. -1.
          1    1    1    2  502    0  0.17141152733E+02  0.30542484811E+02 -0.18669535725E+03  0.18995214901E+03  0.00000000000E+00 0. -1.
</event>
<event>
 4    1  0.7181337E+003  0.4383427E+02  0.7546771E-02  0.1327372E+00
          2   -1    0    0  502    0  0.00000000000E+00  0.00000000000E+00  0.21131795832E+03  0.21131795832E+03  0.00000000000E+00 0. -1.
          1   -1    0    0  501    0 -0.00000000000E+00 -0.00000000000E+00 -0.19153059342E+02  0.19153059342E+02  0.00000000000E+00 0. -1.
          2    1    1    2  501    0  0.30499087298E+02 -0.31484107810E+02  0.17959942381E+03  0.18487129687E+03  0.00000000000E+00 0. -1.
          1    1    1    2  502    0 -0.30499087298E+02  0.31484107810E+02  0.12565475164E+02  0.45599720796E+02  0.00000000000E+00 0. -1.
</event>
<event>
 4    1  0.7181337E+003  0.2014094E+02  0.7546771E-02  0.1531892E+00
          2   -1    0    0  502    0  0.00000000000E+00  0.00000000000E+00  0.67710560797E+02  0.67710560797E+02  0.00000000000E+00 0. -1.
          1   -1    0    0  501    0 -0.00000000000E+00 -0.00000000000E+00 -0.72007486316E+01  0.72007486316E+01  0.00000000000E+00 0. -1.
          2    1    1    2  501    0  0.13145563570E+02  0.15259467387E+02  0.14902812481E+02  0.25054959715E+02  0.00000000000E+00 0. -1.
          1    1    1    2  502    0 -0.13145563570E+02 -0.15259467387E+02  0.45606999685E+02  0.49856349713E+02  0.00000000000E+00 0. -1.
</event>
<event>
 4    1  0.7181337E+003  0.2754147E+02  0.7546771E-02  0.1442244E+00
          2   -1    0    0  502    0  0.00000000000E+00  0.00000000000E+00  0.28828720426E+03  0.28828720426E+03  0.00000000000E+00 0. -1.
          1   -1    0    0  501    0 -0.00000000000E+00 -0.00000000000E+00 -0.23751200939E+02  0.23751200939E+02  0.00000000000E+00 0. -1.
          2    1    1    2  501    0  0.13587715452E+02  0.23956343482E+02  0.27939167190E+03  0.28074586147E+03  0.00000000000E+00 0. -1.
          1    1    1    2  502    0 -0.13587715452E+02 -0.23956343482E+02 -0.14855668580E+02  0.31292543731E+02  0.00000000000E+00 0. -1.
</event>
<event>
 4    1  0.7181337E+003  0.2170900E+02  0.7546771E-02  0.1509378E+00
          2   -1    0    0  502    0  0.00000000000E+00  0.00000000000E+00  0.61566645394E+02  0.61566645394E+02  0.00000000000E+00 0.  1.
          1   -1    0    0  501    0 -0.00000000000E+00 -0.00000000000E+00 -0.13555680651E+02  0.13555680651E+02  0.00000000000E+00 0.  1.
          2    1    1    2  501    0  0.21683015258E+02  0.10619024850E+01  0.48787492189E+02  0.53399439900E+02  0.00000000000E+00 0.  1.
          1    1    1    2  502    0 -0.21683015258E+02 -0.10619024850E+01 -0.77652744607E+00  0.21722886145E+02  0.00000000000E+00 0.  1.
</event>
<event>
 4    1  0.7181337E+003  0.4987968E+02  0.7546771E-02  0.1298695E+00
          2   -1    0    0  502    0  0.00000000000E+00  0.00000000000E+00  0.15471442430E+04  0.15471442430E+04  0.00000000000E+00 0.  1.
          1   -1    0    0  501    0 -0.00000000000E+00 -0.00000000000E+00 -0.24098915434E+02  0.24098915434E+02  0.00000000000E+00 0.  1.
          2    1    1    2  501    0 -0.21368533362E+02  0.45070705043E+02  0.15204795942E+04  0.15212975314E+04  0.00000000000E+00 0.  1.
          1    1    1    2  502    0  0.21368533362E+02 -0.45070705043E+02  0.25657333582E+01  0.49945627023E+02  0.00000000000E+00 0.  1.
</event>
<event>
 4    1  0.7181337E+003  0.2223247E+02  0.7546771E-02  0.1502368E+00
          2   -1    0    0  502    0  0.00000000000E+00  0.00000000000E+00  0.14808069995E+03  0.14808069995E+03  0.00000000000E+00 0.  1.
          1   -1    0    0  501    0 -0.00000000000E+00 -0.00000000000E+00 -0.45565072029E+03  0.45565072029E+03  0.00000000000E+00 0.  1.
          2    1    1    2  501    0 -0.25256598355E+01 -0.22088540839E+02  0.14697298976E+03  0.14864502115E+03  0.00000000000E+00 0.  1.
          1    1    1    2  502    0  0.25256598355E+01  0.22088540839E+02 -0.45454301011E+03  0.45508639909E+03  0.00000000000E+00 0.  1.
</event>
<event>
 4    1  0.7181337E+003  0.2063780E+02  0.7546771E-02  0.1524499E+00
          2   -1    0    0  502    0  0.00000000000E+00  0.00000000000E+00  0.91981809343E+01  0.91981809343E+01  0.00000000000E+00 0. -1.
          1   -1    0    0  501    0 -0.00000000000E+00 -0.00000000000E+00 -0.48086235779E+02  0.48086235779E+02  0.00000000000E+00 0. -1.
          2    1    1    2  501    0 -0.10128579470E+02 -0.17981389626E+02 -0.24957182272E+02  0.32384864396E+02  0.00000000000E+00 0. -1.
          1    1    1    2  502    0  0.10128579470E+02  0.17981389626E+02 -0.13930872573E+02  0.24899552317E+02  0.00000000000E+00 0. -1.
</event>
<event>
 4    1  0.7181337E+003  0.2333963E+02  0.7546771E-02  0.1488277E+00
          2   -1    0    0  502    0  0.00000000000E+00  0.00000000000E+00  0.72419336694E+03  0.72419336694E+03  0.00000000000E+00 0.  1.
          1   -1    0    0  501    0 -0.00000000000E+00 -0.00000000000E+00 -0.39189730193E+02  0.39189730193E+02  0.00000000000E+00 0. -1.
          2    1    1    2  501    0  0.70528396446E+01  0.22248499884E+02  0.72051256253E+03  0.72089048478E+03  0.00000000000E+00 0.  1.
          1    1    1    2  502    0 -0.70528396446E+01 -0.22248499884E+02 -0.35508925780E+02  0.42492612349E+02  0.00000000000E+00 0. -1.
</event>
<event>
 4    1  0.7181337E+003  0.2121354E+02  0.7546771E-02  0.1516238E+00
          2   -1    0    0  502    0  0.00000000000E+00  0.00000000000E+00  0.20502880125E+01  0.20502880125E+01  0.00000000000E+00 0.  1.
          1   -1    0    0  501    0 -0.00000000000E+00 -0.00000000000E+00 -0.40475241724E+03  0.40475241724E+03  0.00000000000E+00 0. -1.
          2    1    1    2  501    0  0.21023703666E+02 -0.28316164550E+01 -0.63739541187E+02  0.67176954965E+02  0.00000000000E+00 0.  1.
          1    1    1    2  502    0 -0.21023703666E+02  0.28316164550E+01 -0.33896258804E+03  0.33962575029E+03  0.00000000000E+00 0. -1.
</event>
<event>
 4    1  0.7181337E+003  0.2047002E+02  0.7546771E-02  0.1526968E+00
          2   -1    0    0  502    0  0.00000000000E+00  0.00000000000E+00  0.15092255645E+04  0.15092255645E+04  0.00000000000E+00 0. -1.
          1   -1    0    0  501    0 -0.00000000000E+00 -0.00000000000E+00 -0.13814111204E+01  0.13814111204E+01  0.00000000000E+00 0.  1.
          2    1    1    2  501    0 -0.18117818051E+02 -0.95271448423E+01  0.14290708347E+04  0.14292174336E+04  0.00000000000E+00 0. -1.
          1    1    1    2  502    0  0.18117818051E+02  0.95271448423E+01  0.78773318639E+02  0.81389542014E+02  0.00000000000E+00 0.  1.
</event>
<event>
 4    1  0.7181337E+003  0.2225972E+02  0.7546771E-02  0.1502009E+00
          2   -1    0    0  502    0  0.00000000000E+00  0.00000000000E+00  0.34940459051E+03  0.34940459051E+03  0.00000000000E+00 0. -1.
          1   -1    0    0  501    0 -0.00000000000E+00 -0.00000000000E+00 -0.11833576628E+03  0.11833576628E+03  0.00000000000E+00 0. -1.
          2    1    1    2  501    0 -0.26037371491E+01 -0.22106911679E+02  0.34799903987E+03  0.34871023321E+03  0.00000000000E+00 0. -1.
          1    1    1    2  502    0  0.26037371491E+01  0.22106911679E+02 -0.11693021564E+03  0.11903012358E+03  0.00000000000E+00 0. -1.
</event>
<event>
 4    1  0.7181337E+003  0.2483737E+02  0.7546771E-02  0.1470631E+00
          2   -1    0    0  502    0  0.00000000000E+00  0.00000000000E+00  0.95994896532E+03  0.95994896532E+03  0.00000000000E+00 0. -1.
          1   -1    0    0  501    0 -0.00000000000E+00 -0.00000000000E+00 -0.16200228474E+01  0.16200228474E+01  0.00000000000E+00 0.  1.
          2    1    1    2  501    0  0.12689771435E+02  0.21350987986E+02  0.85260699612E+03  0.85296868924E+03  0.00000000000E+00 0. -1.
          1    1    1    2  502    0 -0.12689771435E+02 -0.21350987986E+02  0.10572194635E+03  0.10860029893E+03  0.00000000000E+00 0.  1.
</event>
<event>
 4    1  0.7181337E+003  0.2880145E+02  0.7546771E-02  0.1430306E+00
          2   -1    0    0  502    0  0.00000000000E+00  0.00000000000E+00  0.16454246556E+01  0.16454246556E+01  0.00000000000E+00 0. -1.
          1   -1    0    0  501    0 -0.00000000000E+00 -0.00000000000E+00 -0.21420374652E+04  0.21420374652E+04  0.00000000000E+00 0.  1.
          2    1    1    2  501    0 -0.21742106966E+02  0.18889271058E+02 -0.13293529438E+03  0.13601954370E+03  0.00000000000E+00 0. -1.
          1    1    1    2  502    0  0.21742106966E+02 -0.18889271058E+02 -0.20074567462E+04  0.20076633462E+04  0.00000000000E+00 0.  1.
</event>
<event>
 4    1  0.7181337E+003  0.2231617E+02  0.7546771E-02  0.1501268E+00
          2   -1    0    0  502    0  0.00000000000E+00  0.00000000000E+00  0.23002037497E+03  0.23002037497E+03  0.00000000000E+00 0. -1.
          1   -1    0    0  501    0 -0.00000000000E+00 -0.00000000000E+00 -0.55494106099E+01  0.55494106099E+01  0.00000000000E+00 0. -1.
          2    1    1    2  501    0  0.18344190772E+02 -0.12708339627E+02  0.20421749514E+03  0.20543319243E+03  0.00000000000E+00 0. -1.
          1    1    1    2  502    0 -0.18344190772E+02  0.12708339627E+02  0.20253469220E+02  0.30136593149E+02  0.00000000000E+00 0. -1.
</event>
<event>
 4    1  0.7181337E+003  0.3671887E+02  0.7546771E-02  0.1368866E+00
          2   -1    0    0  502    0  0.00000000000E+00  0.00000000000E+00  0.24215304612E+03  0.24215304612E+03  0.00000000000E+00 0. -1.
          1   -1    0    0  501    0 -0.00000000000E+00 -0.00000000000E+00 -0.12185595035E+02  0.12185595035E+02  0.00000000000E+00 0.  1.
          2    1    1    2  501    0  0.20914063060E+02  0.30180745673E+02  0.20869967454E+03  0.21190523731E+03  0.00000000000E+00 0. -1.
          1    1    1    2  502    0 -0.20914063060E+02 -0.30180745673E+02  0.21267776538E+02  0.42433403846E+02  0.00000000000E+00 0.  1.
</event>
<event>
 4    1  0.7181337E+003  0.3229781E+02  0.7546771E-02  0.1400625E+00
          2   -1    0    0  502    0  0.00000000000E+00  0.00000000000E+00  0.27222435363E+02  0.27222435363E+02  0.00000000000E+00 0.  1.
          1   -1    0    0  501    0 -0.00000000000E+00 -0.00000000000E+00 -0.33296819822E+03  0.33296819822E+03  0.00000000000E+00 0.  1.
          2    1    1    2  501    0 -0.32239792779E+02 -0.19350923851E+01  0.16542695793E+02  0.36287871322E+02  0.00000000000E+00 0.  1.
          1    1    1    2  502    0  0.32239792779E+02  0.19350923851E+01 -0.32228845865E+03  0.32390276226E+03  0.00000000000E+00 0.  1.
</event>
<event>
 4    1  0.7181337E+003  0.2259515E+02  0.7546771E-02  0.1497645E+00
          2   -1    0    0  502    0  0.00000000000E+00  0.00000000000E+00  0.10162118236E+04  0.10162118236E+04  0.00000000000E+00 0. -1.
          1   -1    0    0  501    0 -0.00000000000E+00 -0.00000000000E+00 -0.11907987064E+01  0.11907987064E+01  0.00000000000E+00 0.  1.
          2    1    1    2  501    0  0.78916191537E+01 -0.21172227955E+02  0.89429132626E+03  0.89457672511E+03  0.00000000000E+00 0. -1.
          1    1    1    2  502    0 -0.78916191537E+01  0.21172227955E+02  0.12072969867E+03  0.12282589723E+03  0.00000000000E+00 0.  1.
</event>
<event>
 4    1  0.7181337E+003  0.2227296E+02  0.7546771E-02  0.1501835E+00
          2   -1    0    0  502    0  0.00000000000E+00  0.00000000000E+00  0.30165329624E+01  0.30165329624E+01  0.00000000000E+00 0. -1.
          1   -1    0    0  501    0 -0.00000000000E+00 -0.00000000000E+00 -0.61515067625E+03  0.61515067625E+03  0.00000000000E+00 0.  1.
          2    1    1    2  501    0  0.42736787870E+01  0.21859105134E+02 -0.41505494461E+02  0.47104043119E+02  0.00000000000E+00 0. -1.
          1    1    1    2  502    0 -0.42736787870E+01 -0.21859105134E+02 -0.57062864883E+03  0.57106316610E+03  0.00000000000E+00 0.  1.
</event>
<event>
 4    1  0.7181337E+003  0.2341519E+02  0.7546771E-02  0.1487349E+00
          2   -1    0    0  502    0  0.00000000000E+00  0.00000000000E+00  0.10940855633E+04  0.10940855633E+04  0.00000000000E+00 0. -1.
          1   -1    0    0  501    0 -0.00000000000E+00 -0.00000000000E+00 -0.93908101716E+01  0.93908101716E+01  0.00000000000E+00 0. -1.
          2    1    1    2  501    0 -0.23249208771E+02 -0.27830250891E+01  0.10791625251E+04  0.10794165214E+04  0.00000000000E+00 0. -1.
          1    1    1    2  502    0  0.23249208771E+02  0.27830250891E+01  0.55322279994E+01  0.24059852114E+02  0.00000000000E+00 0. -1.
</event>
<event>
 4    1  0.7181337E+003  0.3210294E+02  0.7546771E-02  0.1402161E+00
          2   -1    0    0  502    0  0.00000000000E+00  0.00000000000E+00  0.83766379763E+03  0.83766379763E+03  0.00000000000E+00 0. -1.
          1   -1    0    0  501    0 -0.00000000000E+00 -0.00000000000E+00 -0.64444269430E+02  0.64444269430E+02  0.00000000000E+00 0. -1.
          2    1    1    2  501    0  0.20859836125E+02  0.24402168550E+02  0.83333744535E+03  0.83395557221E+03  0.00000000000E+00 0. -1.
          1    1    1    2  502    0 -0.20859836125E+02 -0.24402168550E+02 -0.60117917146E+02  0.68152494856E+02  0.00000000000E+00 0. -1.
</event>
<event>
 4    1  0.7181337E+003  0.2652603E+02  0.7546771E-02  0.1452428E+00
          2   -1    0    0  502    0  0.00000000000E+00  0.00000000000E+00  0.14638417262E+01  0.14638417262E+01  0.00000000000E+00 0. -1.
          1   -1    0    0  501    0 -0.00000000000E+00 -0.00000000000E+00 -0.51050029880E+03  0.51050029880E+03  0.00000000000E+00 0. -1.
          2    1    1    2  501    0  0.10105566107E+02 -0.24525642739E+02 -0.31639339787E+03  0.31750340445E+03  0.00000000000E+00 0. -1.
          1    1    1    2  502    0 -0.10105566107E+02  0.24525642739E+02 -0.19264305920E+03  0.19446073608E+03  0.00000000000E+00 0. -1.
</event>
<event>
 4    1  0.7181337E+003  0.2229824E+02  0.7546771E-02  0.1501503E+00
          2   -1    0    0  502    0  0.00000000000E+00  0.00000000000E+00  0.12807212534E+03  0.12807212534E+03  0.00000000000E+00 0. -1.
          1   -1    0    0  501    0 -0.00000000000E+00 -0.00000000000E+00 -0.87610647001E+01  0.87610647001E+01  0.00000000000E+00 0. -1.
          2    1    1    2  501    0  0.19995033466E+02  0.98696573284E+01  0.11071061035E+03  0.11293383347E+03  0.00000000000E+00 0. -1.
          1    1    1    2  502    0 -0.19995033466E+02 -0.98696573284E+01  0.86004502900E+01  0.23899356566E+02  0.00000000000E+00 0. -1.
</event>
<event>
 4    1  0.1694908E+004  0.2777535E+02  0.7546771E-02  0.1439971E+00
          2   -1    0    0  502    0  0.00000000000E+00  0.00000000000E+00  0.14948167569E+04  0.14948167569E+04  0.00000000000E+00 0.  1.
          1   -1    0    0  501    0 -0.00000000000E+00 -0.00000000000E+00 -0.13974888512E+04  0.13974888512E+04  0.00000000000E+00 0. -1.
          2    1    1    2  501    0  0.26996917395E+02 -0.65296614091E+01  0.14945496980E+04  0.14948077702E+04  0.00000000000E+00 0.  1.
          1    1    1    2  502    0 -0.26996917395E+02  0.65296614091E+01 -0.13972217923E+04  0.13974978379E+04  0.00000000000E+00 0. -1.
</event>
<event>
 4    1  0.7181337E+003  0.2358306E+02  0.7546771E-02  0.1485304E+00
          2   -1    0    0  502    0  0.00000000000E+00  0.00000000000E+00  0.11869022250E+04  0.11869022250E+04  0.00000000000E+00 0. -1.
          1   -1    0    0  501    0 -0.00000000000E+00 -0.00000000000E+00 -0.12274765761E+02  0.12274765761E+02  0.00000000000E+00 0.  1.
          2    1    1    2  501    0 -0.36466411233E+01  0.23299411694E+02  0.11753464069E+04  0.11755829775E+04  0.00000000000E+00 0. -1.
          1    1    1    2  502    0  0.36466411233E+01 -0.23299411694E+02 -0.71894772612E+00  0.23594013279E+02  0.00000000000E+00 0.  1.
</event>
<event>
 4    1  0.7181337E+003  0.2814314E+02  0.7546771E-02  0.1436451E+00
          2   -1    0    0  502    0  0.00000000000E+00  0.00000000000E+00  0.76800902164E+01  0.76800902164E+01  0.00000000000E+00 0. -1.
          1   -1    0    0  501    0 -0.00000000000E+00 -0.00000000000E+00 -0.38745106190E+03  0.38745106190E+03  0.00000000000E+00 0.  1.
          2    1    1    2  501    0  0.27145462573E+01  0.28011922534E+02 -0.20643360223E+02  0.34902505450E+02  0.00000000000E+00 0. -1.
          1    1    1    2  502    0 -0.27145462573E+01 -0.28011922534E+02 -0.35912761146E+03  0.36022864667E+03  0.00000000000E+00 0.  1.
</event>
<event>
 4    1  0.7181337E+003  0.3407206E+02  0.7546771E-02  0.1387207E+00
          2   -1    0    0  502    0  0.00000000000E+00  0.00000000000E+00  0.28361187544E+03  0.28361187544E+03  0.00000000000E+00 0.  1.
          1   -1    0    0  501    0 -0.00000000000E+00 -0.00000000000E+00 -0.12816970631E+02  0.12816970631E+02  0.00000000000E+00 0. -1.
          2    1    1    2  501    0 -0.14831492372E+02 -0.30674615233E+02  0.25767527403E+03  0.25991816410E+03  0.00000000000E+00 0.  1.
          1    1    1    2  502    0  0.14831492372E+02  0.30674615233E+02  0.13119630777E+02  0.36510681963E+02  0.00000000000E+00 0. -1.
</event>
<event>
 4    1  0.7181337E+003  0.2169554E+02  0.7546771E-02  0.1509562E+00
          2   -1    0    0  502    0  0.00000000000E+00  0.00000000000E+00  0.21448180607E+04  0.21448180607E+04  0.00000000000E+00 0.  1.
          1   -1    0    0  501    0 -0.00000000000E+00 -0.00000000000E+00 -0.27807579930E+00  0.27807579930E+00  0.00000000000E+00 0. -1.
          2    1    1    2  501    0  0.14600464514E+02  0.16047525485E+02  0.15647077897E+04  0.15648581929E+04  0.00000000000E+00 0.  1.
          1    1    1    2  502    0 -0.14600464514E+02 -0.16047525485E+02  0.57983219521E+03  0.58023794364E+03  0.00000000000E+00 0. -1.
</event>
<event>
 4    1  0.7181337E+003  0.2232046E+02  0.7546771E-02  0.1501212E+00
          2   -1    0    0  502    0  0.00000000000E+00  0.00000000000E+00  0.45171667360E+02  0.45171667360E+02  0.00000000000E+00 0.  1.
          1   -1    0    0  501    0 -0.00000000000E+00 -0.00000000000E+00 -0.13120871776E+03  0.13120871776E+03  0.00000000000E+00 0. -1.
          2    1    1    2  501    0  0.88882775700E+01 -0.20474405644E+02  0.41383789521E+02  0.47019366220E+02  0.00000000000E+00 0.  1.
          1    1    1    2  502    0 -0.88882775700E+01  0.20474405644E+02 -0.12742083992E+03  0.12936101890E+03  0.00000000000E+00 0. -1.
</event>
<event>
 4    1  0.7181337E+003  0.2301607E+02  0.7546771E-02  0.1492296E+00
          2   -1    0    0  502    0  0.00000000000E+00  0.00000000000E+00  0.12211763794E+02  0.12211763794E+02  0.00000000000E+00 0.  1.
          1   -1    0    0  501    0 -0.00000000000E+00 -0.00000000000E+00 -0.33548135039E+03  0.33548135039E+03  0.00000000000E+00 0.  1.
          2    1    1    2  501    0  0.22987640853E+02 -0.11436540325E+01  0.58322642360E+00  0.23023460418E+02  0.00000000000E+00 0.  1.
          1    1    1    2  502    0 -0.22987640853E+02  0.11436540325E+01 -0.32385281302E+03  0.32466965376E+03  0.00000000000E+00 0.  1.
</event>
<event>
 4    1  0.7181337E+003  0.3861844E+02  0.7546771E-02  0.1356778E+00
          2   -1    0    0  502    0  0.00000000000E+00  0.00000000000E+00  0.96011760165E+01  0.96011760165E+01  0.00000000000E+00 0.  1.
          1   -1    0    0  501    0 -0.00000000000E+00 -0.00000000000E+00 -0.16115212281E+03  0.16115212281E+03  0.00000000000E+00 0. -1.
          2    1    1    2  501    0  0.38379406397E+02  0.42900855386E+01 -0.59552384520E+02  0.70977955531E+02  0.00000000000E+00 0.  1.
          1    1    1    2  502    0 -0.38379406397E+02 -0.42900855386E+01 -0.91998562269E+02  0.99775343291E+02  0.00000000000E+00 0. -1.
</event>
<event>
 4    1  0.7181337E+003  0.2360575E+02  0.7546771E-02  0.1485029E+00
          2   -1    0    0  502    0  0.00000000000E+00  0.00000000000E+00  0.18157695312E+04  0.18157695312E+04  0.00000000000E+00 0.  1.
          1   -1    0    0  501    0 -0.00000000000E+00 -0.00000000000E+00 -0.20329562068E+01  0.20329562068E+01  0.00000000000E+00 0. -1.
          2    1    1    2  501    0 -0.17288167714E+02 -0.16073295684E+02  0.17443630492E+04  0.17445227654E+04  0.00000000000E+00 0.  1.
          1    1    1    2  502    0  0.17288167714E+02  0.16073295684E+02  0.69373525837E+02  0.73279722053E+02  0.00000000000E+00 0. -1.
</event>
<event>
 4    1  0.7181337E+003  0.2379224E+02  0.7546771E-02  0.1482783E+00
          2   -1    0    0  502    0  0.00000000000E+00  0.00000000000E+00  0.60532058086E+03  0.60532058086E+03  0.00000000000E+00 0. -1.
          1   -1    0    0  501    0 -0.00000000000E+00 -0.00000000000E+00 -0.22344767389E+02  0.22344767389E+02  0.00000000000E+00 0. -1.
          2    1    1    2  501    0  0.23511923411E+02  0.36414396115E+01  0.59868323463E+03  0.59915581117E+03  0.00000000000E+00 0. -1.
          1    1    1    2  502    0 -0.23511923411E+02 -0.36414396115E+01 -0.15707421163E+02  0.28509537080E+02  0.00000000000E+00 0. -1.
</event>
<event>
 4    1  0.7181337E+003  0.2284628E+02  0.7546771E-02  0.1494437E+00
          2   -1    0    0  502    0  0.00000000000E+00  0.00000000000E+00  0.11125000055E+01  0.11125000055E+01  0.00000000000E+00 0.  1.
          1   -1    0    0  501    0 -0.00000000000E+00 -0.00000000000E+00 -0.92631146873E+03  0.92631146873E+03  0.00000000000E+00 0. -1.
          2    1    1    2  501    0 -0.16089344882E+02  0.16219911491E+02 -0.13684176455E+03  0.13873579594E+03  0.00000000000E+00 0.  1.
          1    1    1    2  502    0  0.16089344882E+02 -0.16219911491E+02 -0.78835720417E+03  0.78868817280E+03  0.00000000000E+00 0. -1.
</event>
<event>
 4    1  0.7181337E+003  0.2015115E+02  0.7546771E-02  0.1531738E+00
          2   -1    0    0  502    0  0.00000000000E+00  0.00000000000E+00  0.20850957802E+03  0.20850957802E+03  0.00000000000E+00 0.  1.
          1   -1    0    0  501    0 -0.00000000000E+00 -0.00000000000E+00 -0.32245674217E+03  0.32245674217E+03  0.00000000000E+00 0.  1.
          2    1    1    2  501    0  0.11931813655E+02  0.16238866848E+02  0.20770666863E+03  0.20868188509E+03  0.00000000000E+00 0.  1.
          1    1    1    2  502    0 -0.11931813655E+02 -0.16238866848E+02 -0.32165383277E+03  0.32228443510E+03  0.00000000000E+00 0.  1.
</event>
<event>
 4    1  0.7181337E+003  0.4248190E+02  0.7546771E-02  0.1334525E+00
          2   -1    0    0  502    0  0.00000000000E+00  0.00000000000E+00  0.64135059576E+03  0.64135059576E+03  0.00000000000E+00 0.  1.
          1   -1    0    0  501    0 -0.00000000000E+00 -0.00000000000E+00 -0.62417615255E+01  0.62417615255E+01  0.00000000000E+00 0.  1.
          2    1    1    2  501    0  0.46994396934E+01 -0.42221165282E+02  0.55750857371E+03  0.55912478151E+03  0.00000000000E+00 0.  1.
          1    1    1    2  502    0 -0.46994396934E+01  0.42221165282E+02  0.77600260524E+02  0.88467575781E+02  0.00000000000E+00 0.  1.
</event>
<event>
 4    1  0.7181337E+003  0.2531286E+02  0.7546771E-02  0.1465334E+00
          2   -1    0    0  502    0  0.00000000000E+00  0.00000000000E+00  0.11128416253E+04  0.11128416253E+04  0.00000000000E+00 0.  1.
          1   -1    0    0  501    0 -0.00000000000E+00 -0.00000000000E+00 -0.19955053487E+02  0.19955053487E+02  0.00000000000E+00 0. -1.
          2    1    1    2  501    0  0.13906176646E+02 -0.21150863719E+02  0.11046105752E+04  0.11049005673E+04  0.00000000000E+00 0.  1.
          1    1    1    2  502    0 -0.13906176646E+02  0.21150863719E+02 -0.11724003330E+02  0.27896111540E+02  0.00000000000E+00 0. -1.
</event>
<event>
 4    1  0.7181337E+003  0.2378566E+02  0.7546771E-02  0.1482861E+00
          2   -1    0    0  502    0  0.00000000000E+00  0.00000000000E+00  0.13303188968E+03  0.13303188968E+03  0.00000000000E+00 0. -1.
          1   -1    0    0  501    0 -0.00000000000E+00 -0.00000000000E+00 -0.12557731861E+02  0.12557731861E+02  0.00000000000E+00 0. -1.
          2    1    1    2  501    0  0.21951800313E+02  0.91583928067E+01  0.11943588107E+03  0.12178130966E+03  0.00000000000E+00 0. -1.
          1    1    1    2  502    0 -0.21951800313E+02 -0.91583928067E+01  0.10382767443E+01  0.23808311876E+02  0.00000000000E+00 0. -1.
</event>
<event>
 4    1  0.7181337E+003  0.2846097E+02  0.7546771E-02  0.1433460E+00
          2   -1    0    0  502    0  0.00000000000E+00  0.00000000000E+00  0.12633371620E+04  0.12633371620E+04  0.00000000000E+00 0.  1.
          1   -1    0    0  501    0 -0.00000000000E+00 -0.00000000000E+00 -0.16179251341E+01  0.16179251341E+01  0.00000000000E+00 0.  1.
          2    1    1    2  501    0 -0.20912190261E+02 -0.19305617298E+02  0.11222837974E+04  0.11226446225E+04  0.00000000000E+00 0.  1.
          1    1    1    2  502    0  0.20912190261E+02  0.19305617298E+02  0.13943543953E+03  0.14231046468E+03  0.00000000000E+00 0.  1.
</event>
<event>
 4    1  0.7181337E+003  0.3748634E+02  0.7546771E-02  0.1363880E+00
          2   -1    0    0  502    0  0.00000000000E+00  0.00000000000E+00  0.40587390820E+02  0.40587390820E+02  0.00000000000E+00 0. -1.
          1   -1    0    0  501    0 -0.00000000000E+00 -0.00000000000E+00 -0.35042118171E+02  0.35042118171E+02  0.00000000000E+00 0.  1.
          2    1    1    2  501    0 -0.92832439492E+01  0.36318688625E+02  0.69120202922E+01  0.38118260534E+02  0.00000000000E+00 0. -1.
          1    1    1    2  502    0  0.92832439492E+01 -0.36318688625E+02 -0.13667476436E+01  0.37511248456E+02  0.00000000000E+00 0.  1.
</event>
<event>
 4    1  0.7181337E+003  0.2327220E+02  0.7546771E-02  0.1489108E+00
          2   -1    0    0  502    0  0.00000000000E+00  0.00000000000E+00  0.31715528045E+02  0.31715528045E+02  0.00000000000E+00 0. -1.
          1   -1    0    0  501    0 -0.00000000000E+00 -0.00000000000E+00 -0.15235282893E+04  0.15235282893E+04  0.00000000000E+00 0.  1.
          2    1    1    2  501    0  0.90994217435E+01  0.21419524084E+02  0.27345208731E+02  0.35907602657E+02  0.00000000000E+00 0. -1.
          1    1    1    2  502    0 -0.90994217435E+01 -0.21419524084E+02 -0.15191579700E+04  0.15193362147E+04  0.00000000000E+00 0.  1.
</event>
<event>
 4    1  0.7181337E+003  0.4061756E+02  0.7546771E-02  0.1344904E+00
          2   -1    0    0  502    0  0.00000000000E+00  0.00000000000E+00  0.34496911946E+03  0.34496911946E+03  0.00000000000E+00 0.  1.
          1   -1    0    0  501    0 -0.00000000000E+00 -0.00000000000E+00 -0.34204392613E+03  0.34204392613E+03  0.00000000000E+00 0. -1.
          2    1    1    2  501    0  0.33536566906E+02 -0.22914735434E+02  0.34255923234E+03  0.34495885854E+03  0.00000000000E+00 0.  1.
          1    1    1    2  502    0 -0.33536566906E+02  0.22914735434E+02 -0.33963403902E+03  0.34205418705E+03  0.00000000000E+00 0. -1.
</event>
<event>
 4    1  0.7181337E+003  0.2232520E+02  0.7546771E-02  0.1501150E+00
          2   -1    0    0  502    0  0.00000000000E+00  0.00000000000E+00  0.96312135796E+01  0.96312135796E+01  0.00000000000E+00 0. -1.
          1   -1    0    0  501    0 -0.00000000000E+00 -0.00000000000E+00 -0.63487729402E+03  0.63487729402E+03  0.00000000000E+00 0. -1.
          2    1    1    2  501    0  0.24116776060E+00  0.22323899140E+02 -0.37816690760E+01  0.22643225382E+02  0.00000000000E+00 0. -1.
          1    1    1    2  502    0 -0.24116776060E+00 -0.22323899140E+02 -0.62146441137E+03  0.62186528222E+03  0.00000000000E+00 0. -1.
</event>
<event>
 4    1  0.7181337E+003  0.2846791E+02  0.7546771E-02  0.1433395E+00
          2   -1    0    0  502    0  0.00000000000E+00  0.00000000000E+00  0.13939452388E+04  0.13939452388E+04  0.00000000000E+00 0.  1.
          1   -1    0    0  501    0 -0.00000000000E+00 -0.00000000000E+00 -0.73960524449E+01  0.73960524449E+01  0.00000000000E+00 0.  1.
          2    1    1    2  501    0  0.19678354823E+02 -0.20571439847E+02  0.13658425908E+04  0.13661392333E+04  0.00000000000E+00 0.  1.
          1    1    1    2  502    0 -0.19678354823E+02  0.20571439847E+02  0.20706595502E+02  0.35202057940E+02  0.00000000000E+00 0.  1.
</event>
<event>
 4    1  0.7181337E+003  0.4213711E+02  0.7546771E-02  0.1336398E+00
          2   -1    0    0  502    0  0.00000000000E+00  0.00000000000E+00  0.41892429951E+03  0.41892429951E+03  0.00000000000E+00 0.  1.
          1   -1    0    0  501    0 -0.00000000000E+00 -0.00000000000E+00 -0.10759887223E+04  0.10759887223E+04  0.00000000000E+00 0. -1.
          2    1    1    2  501    0  0.22493109173E+02 -0.35631391103E+02  0.41745073061E+03  0.41957198248E+03  0.00000000000E+00 0.  1.
          1    1    1    2  502    0 -0.22493109173E+02  0.35631391103E+02 -0.10745151534E+04  0.10753410393E+04  0.00000000000E+00 0. -1.
</event>
<event>
 4    1  0.7181337E+003  0.2012264E+02  0.7546771E-02  0.1532169E+00
          2   -1    0    0  502    0  0.00000000000E+00  0.00000000000E+00  0.46703275385E+03  0.46703275385E+03  0.00000000000E+00 0.  1.
          1   -1    0    0  501    0 -0.00000000000E+00 -0.00000000000E+00 -0.25484694748E+02  0.25484694748E+02  0.00000000000E+00 0.  1.
          2    1    1    2  501    0 -0.13979184931E+02 -0.14474212596E+02  0.46280756292E+03  0.46324481728E+03  0.00000000000E+00 0.  1.
          1    1    1    2  502    0  0.13979184931E+02  0.14474212596E+02 -0.21259503818E+02  0.29272631316E+02  0.00000000000E+00 0.  1.
</event>
<event>
 4    1  0.7181337E+003  0.2678802E+02  0.7546771E-02  0.1449749E+00
          2   -1    0    0  502    0  0.00000000000E+00  0.00000000000E+00  0.68625275730E+02  0.68625275730E+02  0.00000000000E+00 0.  1.
          1   -1    0    0  501    0 -0.00000000000E+00 -0.00000000000E+00 -0.94924859187E+03  0.94924859187E+03  0.00000000000E+00 0. -1.
          2    1    1    2  501    0  0.26299637917E+02  0.50918829696E+01  0.65814331261E+02  0.71057191234E+02  0.00000000000E+00 0.  1.
          1    1    1    2  502    0 -0.26299637917E+02 -0.50918829696E+01 -0.94643764740E+03  0.94681667637E+03  0.00000000000E+00 0. -1.
</event>
<event>
 4    1  0.7181337E+003  0.3016718E+02  0.7546771E-02  0.1418149E+00
          2   -1    0    0  502    0  0.00000000000E+00  0.00000000000E+00  0.15774434192E+04  0.15774434192E+04  0.00000000000E+00 0.  1.
          1   -1    0    0  501    0 -0.00000000000E+00 -0.00000000000E+00 -0.16979467836E+01  0.16979467836E+01  0.00000000000E+00 0. -1.
          2    1    1    2  501    0  0.81985876698E+01 -0.29031742349E+02  0.14294322379E+04  0.14297505313E+04  0.00000000000E+00 0.  1.
          1    1    1    2  502    0 -0.81985876698E+01  0.29031742349E+02  0.14631323454E+03  0.14939083475E+03  0.00000000000E+00 0. -1.
</event>
<event>
 4    1  0.7181337E+003  0.2458572E+02  0.7546771E-02  0.1473492E+00
          2   -1    0    0  502    0  0.00000000000E+00  0.00000000000E+00  0.21663545970E+04  0.21663545970E+04  0.00000000000E+00 0.  1.
          1   -1    0    0  501    0 -0.00000000000E+00 -0.00000000000E+00 -0.33948662320E+00  0.33948662320E+00  0.00000000000E+00 0. -1.
          2    1    1    2  501    0  0.23104443347E+02 -0.84048996290E+01  0.15402134677E+04  0.15404096805E+04  0.00000000000E+00 0.  1.
          1    1    1    2  502    0 -0.23104443347E+02  0.84048996290E+01  0.62580164267E+03  0.62628440313E+03  0.00000000000E+00 0. -1.
</event>
<event>
 4    1  0.7181337E+003  0.2665605E+02  0.7546771E-02  0.1451094E+00
          2   -1    0    0  502    0  0.00000000000E+00  0.00000000000E+00  0.28410943192E+03  0.28410943192E+03  0.00000000000E+00 0.  1.
          1   -1    0    0  501    0 -0.00000000000E+00 -0.00000000000E+00 -0.15707755666E+02  0.15707755666E+02  0.00000000000E+00 0.  1.
          2    1    1    2  501    0 -0.21235137450E+02 -0.16112543789E+02  0.27165828090E+03  0.27296294018E+03  0.00000000000E+00 0.  1.
          1    1    1    2  502    0  0.21235137450E+02  0.16112543789E+02 -0.32566046472E+01  0.26854247405E+02  0.00000000000E+00 0.  1.
</event>
<event>
 4    1  0.7181337E+003  0.2357556E+02  0.7546771E-02  0.1485395E+00
          2   -1    0    0  502    0  0.00000000000E+00  0.00000000000E+00  0.10648865804E+02  0.10648865804E+02  0.00000000000E+00 0. -1.
          1   -1    0    0  501    0 -0.00000000000E+00 -0.00000000000E+00 -0.84198962533E+02  0.84198962533E+02  0.00000000000E+00 0. -1.
          2    1    1    2  501    0 -0.21867669237E+02 -0.88097692481E+01 -0.75367138998E+01  0.24750940355E+02  0.00000000000E+00 0. -1.
          1    1    1    2  502    0  0.21867669237E+02  0.88097692481E+01 -0.66013382829E+02  0.70096887981E+02  0.00000000000E+00 0. -1.
</event>
<event>
 4    1  0.7181337E+003  0.2945992E+02  0.7546771E-02  0.1424349E+00
          2   -1    0    0  502    0  0.00000000000E+00  0.00000000000E+00  0.22727834541E+02  0.22727834541E+02  0.00000000000E+00 0. -1.
          1   -1    0    0  501    0 -0.00000000000E+00 -0.00000000000E+00 -0.89517402557E+03  0.89517402557E+03  0.00000000000E+00 0.  1.
          2    1    1    2  501    0 -0.28867324689E+02 -0.58791670802E+01  0.12832252832E+02  0.32133374441E+02  0.00000000000E+00 0. -1.
          1    1    1    2  502    0  0.28867324689E+02  0.58791670802E+01 -0.88527844386E+03  0.88576848567E+03  0.00000000000E+00 0.  1.
</event>
<event>
 4    1  0.7181337E+003  0.2445214E+02  0.7546771E-02  0.1475027E+00
          2   -1    0    0  502    0  0.00000000000E+00  0.00000000000E+00  0.36162556853E+01  0.36162556853E+01  0.00000000000E+00 0. -1.
          1   -1    0    0  501    0 -0.00000000000E+00 -0.00000000000E+00 -0.22806131050E+03  0.22806131050E+03  0.00000000000E+00 0. -1.
          2    1    1    2  501    0 -0.23949632987E+02 -0.49317392089E+01 -0.51473366784E+02  0.56986090056E+02  0.00000000000E+00 0. -1.
          1    1    1    2  502    0  0.23949632987E+02  0.49317392089E+01 -0.17297168803E+03  0.17469147613E+03  0.00000000000E+00 0. -1.
</event>
<event>
 4    1  0.7181337E+003  0.2279089E+02  0.7546771E-02  0.1495141E+00
          2   -1    0    0  502    0  0.00000000000E+00  0.00000000000E+00  0.56283961546E+03  0.56283961546E+03  0.00000000000E+00 0.  1.
          1   -1    0    0  501    0 -0.00000000000E+00 -0.00000000000E+00 -0.54373580178E+02  0.54373580178E+02  0.00000000000E+00 0. -1.
          2    1    1    2  501    0  0.21963255251E+02 -0.60860484368E+01  0.56020947021E+03  0.56067287707E+03  0.00000000000E+00 0.  1.
          1    1    1    2  502    0 -0.21963255251E+02  0.60860484368E+01 -0.51743434924E+02  0.56540318575E+02  0.00000000000E+00 0. -1.
</event>
<event>
 4    1  0.7181337E+003  0.2904358E+02  0.7546771E-02  0.1428094E+00
          2   -1    0    0  502    0  0.00000000000E+00  0.00000000000E+00  0.21447780381E+02  0.21447780381E+02  0.00000000000E+00 0.  1.
          1   -1    0    0  501    0 -0.00000000000E+00 -0.00000000000E+00 -0.82130090796E+02  0.82130090796E+02  0.00000000000E+00 0.  1.
          2    1    1    2  501    0 -0.98442728429E+01 -0.27324327305E+02 -0.67727341602E+02  0.73692071289E+02  0.00000000000E+00 0.  1.
          1    1    1    2  502    0  0.98442728429E+01  0.27324327305E+02  0.70450311874E+01  0.29885799887E+02  0.00000000000E+00 0.  1.
</event>
<event>
 4    1  0.7181337E+003  0.2635757E+02  0.7546771E-02  0.1454170E+00
          2   -1    0    0  502    0  0.00000000000E+00  0.00000000000E+00  0.71104778250E+02  0.71104778250E+02  0.00000000000E+00 0.  1.
          1   -1    0    0  501    0 -0.00000000000E+00 -0.00000000000E+00 -0.30454283947E+03  0.30454283947E+03  0.00000000000E+00 0.  1.
          2    1    1    2  501    0 -0.26348940815E+02 -0.67444434826E+00  0.68067320891E+02  0.72992340219E+02  0.00000000000E+00 0.  1.
          1    1    1    2  502    0  0.26348940815E+02  0.67444434826E+00 -0.30150538211E+03  0.30265527750E+03  0.00000000000E+00 0.  1.
</event>
<event>
 4    1  0.7181337E+003  0.3442350E+02  0.7546771E-02  0.1384662E+00
          2   -1    0    0  502    0  0.00000000000E+00  0.00000000000E+00  0.72544185142E+02  0.72544185142E+02  0.00000000000E+00 0. -1.
          1   -1    0    0  501    0 -0.00000000000E+00 -0.00000000000E+00 -0.17034984700E+02  0.17034984700E+02  0.00000000000E+00 0. -1.
          2    1    1    2  501    0 -0.28633664889E+02 -0.19107335701E+02  0.36836740009E+02  0.50417481661E+02  0.00000000000E+00 0. -1.
          1    1    1    2  502    0  0.28633664889E+02  0.19107335701E+02  0.18672460433E+02  0.39161688181E+02  0.00000000000E+00 0. -1.
</event>
<event>
 4    1  0.7181337E+003  0.2576874E+02  0.7546771E-02  0.1460384E+00
          2   -1    0    0  502    0  0.00000000000E+00  0.00000000000E+00  0.17950879768E+04  0.17950879768E+04  0.00000000000E+00 0. -1.
          1   -1    0    0  501    0 -0.00000000000E+00 -0.00000000000E+00 -0.93890206952E+00  0.93890206952E+00  0.00000000000E+00 0. -1.
          2    1    1    2  501    0  0.10717892664E+02  0.23434047211E+02  0.15961504679E+04  0.15963584635E+04  0.00000000000E+00 0. -1.
          1    1    1    2  502    0 -0.10717892664E+02 -0.23434047211E+02  0.19799860687E+03  0.19966841541E+03  0.00000000000E+00 0. -1.
</event>
<event>
 4    1  0.7181337E+003  0.3358019E+02  0.7546771E-02  0.1390829E+00
          2   -1    0    0  502    0  0.00000000000E+00  0.00000000000E+00  0.41848104211E+03  0.41848104211E+03  0.00000000000E+00 0. -1.
          1   -1    0    0  501    0 -0.00000000000E+00 -0.00000000000E+00 -0.15362267049E+02  0.15362267049E+02  0.00000000000E+00 0.  1.
          2    1    1    2  501    0  0.22622793616E+02  0.24816087852E+02  0.39854022666E+03  0.39995242376E+03  0.00000000000E+00 0. -1.
          1    1    1    2  502    0 -0.22622793616E+02 -0.24816087852E+02  0.45785483977E+01  0.33890885392E+02  0.00000000000E+00 0.  1.
</event>
<event>
 4    1  0.7181337E+003  0.2454234E+02  0.7546771E-02  0.1473989E+00
          2   -1    0    0  502    0  0.00000000000E+00  0.00000000000E+00  0.18491919896E+04  0.18491919896E+04  0.00000000000E+00 0. -1.
          1   -1    0    0  501    0 -0.00000000000E+00 -0.00000000000E+00 -0.10040331365E+01  0.10040331365E+01  0.00000000000E+00 0.  1.
          2    1    1    2  501    0 -0.24395237092E+02  0.26830249940E+01  0.16844685011E+04  0.16846472798E+04  0.00000000000E+00 0. -1.
          1    1    1    2  502    0  0.24395237092E+02 -0.26830249940E+01  0.16371945539E+03  0.16554874294E+03  0.00000000000E+00 0.  1.
</event>
<event>
 4    1  0.7181337E+003  0.3761943E+02  0.7546771E-02  0.1363030E+00
          2   -1    0    0  502    0  0.00000000000E+00  0.00000000000E+00  0.26321196824E+03  0.26321196824E+03  0.00000000000E+00 0.  1.
          1   -1    0    0  501    0 -0.00000000000E+00 -0.00000000000E+00 -0.52703590225E+02  0.52703590225E+02  0.00000000000E+00 0. -1.
          2    1    1    2  501    0 -0.71407029597E+00  0.37612657011E+02  0.25493796403E+03  0.25769863672E+03  0.00000000000E+00 0.  1.
          1    1    1    2  502    0  0.71407029597E+00 -0.37612657011E+02 -0.44429586015E+02  0.58216921744E+02  0.00000000000E+00 0. -1.
</event>
<event>
 4    1  0.7181337E+003  0.2162446E+02  0.7546771E-02  0.1510533E+00
          2   -1    0    0  502    0  0.00000000000E+00  0.00000000000E+00  0.14207044940E+04  0.14207044940E+04  0.00000000000E+00 0.  1.
          1   -1    0    0  501    0 -0.00000000000E+00 -0.00000000000E+00 -0.57482923983E+02  0.57482923983E+02  0.00000000000E+00 0. -1.
          2    1    1    2  501    0 -0.82227228537E+01  0.20000106797E+02  0.14185854468E+04  0.14187502554E+04  0.00000000000E+00 0.  1.
          1    1    1    2  502    0  0.82227228537E+01 -0.20000106797E+02 -0.55363876764E+02  0.59437162561E+02  0.00000000000E+00 0. -1.
</event>
<event>
 4    1  0.1263000E+004  0.2316968E+02  0.7546771E-02  0.1490378E+00
          2   -1    0    0  502    0  0.00000000000E+00  0.00000000000E+00  0.76745711615E+03  0.76745711615E+03  0.00000000000E+00 0.  1.
          1   -1    0    0  501    0 -0.00000000000E+00 -0.00000000000E+00 -0.82329706607E+03  0.82329706607E+03  0.00000000000E+00 0.  1.
          2    1    1    2  501    0 -0.23043150744E+02  0.24181581305E+01  0.76711915645E+03  0.76746897949E+03  0.00000000000E+00 0.  1.
          1    1    1    2  502    0  0.23043150744E+02 -0.24181581305E+01 -0.82295910637E+03  0.82328520274E+03  0.00000000000E+00 0.  1.
</event>
<event>
 4    1  0.7181337E+003  0.2943743E+02  0.7546771E-02  0.1424549E+00
          2   -1    0    0  502    0  0.00000000000E+00  0.00000000000E+00  0.35809018013E+03  0.35809018013E+03  0.00000000000E+00 0. -1.
          1   -1    0    0  501    0 -0.00000000000E+00 -0.00000000000E+00 -0.32495310590E+01  0.32495310590E+01  0.00000000000E+00 0. -1.
          2    1    1    2  501    0  0.22800888370E+02 -0.18619394348E+02  0.26870613694E+03  0.27031379984E+03  0.00000000000E+00 0. -1.
          1    1    1    2  502    0 -0.22800888370E+02  0.18619394348E+02  0.86134512137E+02  0.91025911352E+02  0.00000000000E+00 0. -1.
</event>
<event>
 4    1  0.7181337E+003  0.2180980E+02  0.7546771E-02  0.1508010E+00
          2   -1    0    0  502    0  0.00000000000E+00  0.00000000000E+00  0.11189242262E+04  0.11189242262E+04  0.00000000000E+00 0. -1.
          1   -1    0    0  501    0 -0.00000000000E+00 -0.00000000000E+00 -0.91310523642E+01  0.91310523642E+01  0.00000000000E+00 0.  1.
          2    1    1    2  501    0 -0.21192987651E+02 -0.51502195356E+01  0.11056381182E+04  0.11058532072E+04  0.00000000000E+00 0. -1.
          1    1    1    2  502    0  0.21192987651E+02  0.51502195356E+01  0.41550556887E+01  0.22202071404E+02  0.00000000000E+00 0.  1.
</event>
<event>
 4    1  0.7181337E+003  0.2137276E+02  0.7546771E-02  0.1514009E+00
          2   -1    0    0  502    0  0.00000000000E+00  0.00000000000E+00  0.11696331524E+02  0.11696331524E+02  0.00000000000E+00 0.  1.
          1   -1    0    0  501    0 -0.00000000000E+00 -0.00000000000E+00 -0.13569057760E+03  0.13569057760E+03  0.00000000000E+00 0. -1.
          2    1    1    2  501    0  0.19668538393E+02 -0.83632167928E+01  0.19331799053E+00  0.21373632576E+02  0.00000000000E+00 0.  1.
          1    1    1    2  502    0 -0.19668538393E+02  0.83632167928E+01 -0.12418756407E+03  0.12601327655E+03  0.00000000000E+00 0. -1.
</event>
<event>
 4    1  0.7181337E+003  0.3106133E+02  0.7546771E-02  0.1410592E+00
          2   -1    0    0  502    0  0.00000000000E+00  0.00000000000E+00  0.29622278050E+03  0.29622278050E+03  0.00000000000E+00 0. -1.
          1   -1    0    0  501    0 -0.00000000000E+00 -0.00000000000E+00 -0.83540371735E+03  0.83540371735E+03  0.00000000000E+00 0. -1.
          2    1    1    2  501    0 -0.20453630686E+02 -0.23376387757E+02  0.29511872118E+03  0.29674882662E+03  0.00000000000E+00 0. -1.
          1    1    1    2  502    0  0.20453630686E+02  0.23376387757E+02 -0.83429965803E+03  0.83487767122E+03  0.00000000000E+00 0. -1.
</event>
<event>
 4    1  0.7181337E+003  0.2788010E+02  0.7546771E-02  0.1438962E+00
          2   -1    0    0  502    0  0.00000000000E+00  0.00000000000E+00  0.89837322726E+02  0.89837322726E+02  0.00000000000E+00 0. -1.
          1   -1    0    0  501    0 -0.00000000000E+00 -0.00000000000E+00 -0.65163520655E+03  0.65163520655E+03  0.00000000000E+00 0. -1.
          2    1    1    2  501    0 -0.27087286640E+02 -0.66014445184E+01  0.87367809544E+02  0.91708420070E+02  0.00000000000E+00 0. -1.
          1    1    1    2  502    0  0.27087286640E+02  0.66014445184E+01 -0.64916569336E+03  0.64976410920E+03  0.00000000000E+00 0. -1.
</event>
<event>
 4    1  0.7181337E+003  0.3836135E+02  0.7546771E-02  0.1358365E+00
          2   -1    0    0  502    0  0.00000000000E+00  0.00000000000E+00  0.17708499425E+04  0.17708499425E+04  0.00000000000E+00 0.  1.
          1   -1    0    0  501    0 -0.00000000000E+00 -0.00000000000E+00 -0.13007537017E+02  0.13007537017E+02  0.00000000000E+00 0. -1.
          2    1    1    2  501    0  0.37918595433E+02 -0.58115100707E+01  0.17418885155E+04  0.17423108775E+04  0.00000000000E+00 0.  1.
          1    1    1    2  502    0 -0.37918595433E+02  0.58115100707E+01  0.15953889940E+02  0.41546601945E+02  0.00000000000E+00 0. -1.
</event>
<event>
 4    1  0.7181337E+003  0.2962212E+02  0.7546771E-02  0.1422909E+00
          2   -1    0    0  502    0  0.00000000000E+00  0.00000000000E+00  0.73167541695E+01  0.73167541695E+01  0.00000000000E+00 0.  1.
          1   -1    0    0  501    0 -0.00000000000E+00 -0.00000000000E+00 -0.19522425173E+04  0.19522425173E+04  0.00000000000E+00 0.  1.
          2    1    1    2  501    0 -0.27223046855E+02  0.11678012499E+02 -0.23254085497E+02  0.37659298298E+02  0.00000000000E+00 0.  1.
          1    1    1    2  502    0  0.27223046855E+02 -0.11678012499E+02 -0.19216716776E+04  0.19218999732E+04  0.00000000000E+00 0.  1.
</event>
<event>
 4    1  0.7181337E+003  0.2641780E+02  0.7546771E-02  0.1453546E+00
          2   -1    0    0  502    0  0.00000000000E+00  0.00000000000E+00  0.77122714132E+00  0.77122714132E+00  0.00000000000E+00 0. -1.
          1   -1    0    0  501    0 -0.00000000000E+00 -0.00000000000E+00 -0.21793708764E+04  0.21793708764E+04  0.00000000000E+00 0.  1.
          2    1    1    2  501    0 -0.16463318123E+02 -0.20660568730E+02 -0.25571356607E+03  0.25707455693E+03  0.00000000000E+00 0. -1.
          1    1    1    2  502    0  0.16463318123E+02  0.20660568730E+02 -0.19228860832E+04  0.19230675466E+04  0.00000000000E+00 0.  1.
</event>
<event>
 4    1  0.7181337E+003  0.6859475E+02  0.7546771E-02  0.1233130E+00
          2   -1    0    0  502    0  0.00000000000E+00  0.00000000000E+00  0.57676972186E+03  0.57676972186E+03  0.00000000000E+00 0. -1.
          1   -1    0    0  501    0 -0.00000000000E+00 -0.00000000000E+00 -0.84143849259E+01  0.84143849259E+01  0.00000000000E+00 0. -1.
          2    1    1    2  501    0 -0.57574260035E+02  0.37288663532E+02  0.33525960912E+03  0.34220497564E+03  0.00000000000E+00 0. -1.
          1    1    1    2  502    0  0.57574260035E+02 -0.37288663532E+02  0.23309572782E+03  0.24297913115E+03  0.00000000000E+00 0. -1.
</event>
<event>
 4    1  0.7181337E+003  0.2360547E+02  0.7546771E-02  0.1485032E+00
          2   -1    0    0  502    0  0.00000000000E+00  0.00000000000E+00  0.11917043148E+03  0.11917043148E+03  0.00000000000E+00 0.  1.
          1   -1    0    0  501    0 -0.00000000000E+00 -0.00000000000E+00 -0.42019813909E+02  0.42019813909E+02  0.00000000000E+00 0.  1.
          2    1    1    2  501    0 -0.23486157131E+02 -0.23703870480E+01  0.11455405760E+03  0.11696089271E+03  0.00000000000E+00 0.  1.
          1    1    1    2  502    0  0.23486157131E+02  0.23703870480E+01 -0.37403440032E+02  0.44229352672E+02  0.00000000000E+00 0.  1.
</event>
<event>
 4    1  0.7181337E+003  0.2027716E+02  0.7546771E-02  0.1529840E+00
          2   -1    0    0  502    0  0.00000000000E+00  0.00000000000E+00  0.68073573263E+02  0.68073573263E+02  0.00000000000E+00 0.  1.
          1   -1    0    0  501    0 -0.00000000000E+00 -0.00000000000E+00 -0.66922065680E+03  0.66922065680E+03  0.00000000000E+00 0. -1.
          2    1    1    2  501    0 -0.57932922137E+01  0.19431952948E+02  0.66406209844E+02  0.69433044985E+02  0.00000000000E+00 0.  1.
          1    1    1    2  502    0  0.57932922137E+01 -0.19431952948E+02 -0.66755329338E+03  0.66786118507E+03  0.00000000000E+00 0. -1.
</event>
<event>
 4    1  0.7181337E+003  0.2621488E+02  0.7546771E-02  0.1455658E+00
          2   -1    0    0  502    0  0.00000000000E+00  0.00000000000E+00  0.18495969261E+02  0.18495969261E+02  0.00000000000E+00 0.  1.
          1   -1    0    0  501    0 -0.00000000000E+00 -0.00000000000E+00 -0.50838040910E+02  0.50838040910E+02  0.00000000000E+00 0.  1.
          2    1    1    2  501    0 -0.22455326108E+02  0.13526947456E+02  0.18140001799E+01  0.26277567901E+02  0.00000000000E+00 0.  1.
          1    1    1    2  502    0  0.22455326108E+02 -0.13526947456E+02 -0.34156071830E+02  0.43056442270E+02  0.00000000000E+00 0.  1.
</event>
<event>
 4    1  0.7181337E+003  0.2915313E+02  0.7546771E-02  0.1427101E+00
          2   -1    0    0  502    0  0.00000000000E+00  0.00000000000E+00  0.27986075409E+03  0.27986075409E+03  0.00000000000E+00 0. -1.
          1   -1    0    0  501    0 -0.00000000000E+00 -0.00000000000E+00 -0.63788532942E+01  0.63788532942E+01  0.00000000000E+00 0. -1.
          2    1    1    2  501    0  0.22687646584E+02 -0.18307798912E+02  0.24033376069E+03  0.24209547979E+03  0.00000000000E+00 0. -1.
          1    1    1    2  502    0 -0.22687646584E+02  0.18307798912E+02  0.33148140113E+02  0.44144127599E+02  0.00000000000E+00 0. -1.
</event>
<event>
 4    1  0.7181337E+003  0.2913305E+02  0.7546771E-02  0.1427283E+00
          2   -1    0    0  502    0  0.00000000000E+00  0.00000000000E+00  0.86014994360E+00  0.86014994360E+00  0.00000000000E+00 0. -1.
          1   -1    0    0  501    0 -0.00000000000E+00 -0.00000000000E+00 -0.99813728226E+03  0.99813728226E+03  0.00000000000E+00 0. -1.
          2    1    1    2  501    0 -0.27553464925E+02 -0.94626141821E+01 -0.44523648844E+03  0.44618859817E+03  0.00000000000E+00 0. -1.
          1    1    1    2  502    0  0.27553464925E+02  0.94626141821E+01 -0.55204064387E+03  0.55280883403E+03  0.00000000000E+00 0. -1.
</event>
<event>
 4    1  0.7181337E+003  0.2843576E+02  0.7546771E-02  0.1433695E+00
          2   -1    0    0  502    0  0.00000000000E+00  0.00000000000E+00  0.95477892166E+03  0.95477892166E+03  0.00000000000E+00 0.  1.
          1   -1    0    0  501    0 -0.00000000000E+00 -0.00000000000E+00 -0.57826162253E+01  0.57826162253E+01  0.00000000000E+00 0. -1.
          2    1    1    2  501    0  0.20532104624E+02  0.19672955744E+02  0.91821769160E+03  0.91865789154E+03  0.00000000000E+00 0.  1.
          1    1    1    2  502    0 -0.20532104624E+02 -0.19672955744E+02  0.30778613832E+02  0.41903646350E+02  0.00000000000E+00 0. -1.
</event>
<event>
 4    1  0.7181337E+003  0.2946396E+02  0.7546771E-02  0.1424313E+00
          2   -1    0    0  502    0  0.00000000000E+00  0.00000000000E+00  0.81311383352E+02  0.81311383352E+02  0.00000000000E+00 0.  1.
          1   -1    0    0  501    0 -0.00000000000E+00 -0.00000000000E+00 -0.72944878000E+02  0.72944878000E+02  0.00000000000E+00 0.  1.
          2    1    1    2  501    0 -0.21807903884E+02 -0.19812626294E+02  0.75443777420E+02  0.80993137882E+02  0.00000000000E+00 0.  1.
          1    1    1    2  502    0  0.21807903884E+02  0.19812626294E+02 -0.67077272069E+02  0.73263123470E+02  0.00000000000E+00 0.  1.
</event>
<event>
 4    1  0.7181337E+003  0.7940265E+02  0.7546771E-02  0.1205241E+00
          2   -1    0    0  502    0  0.00000000000E+00  0.00000000000E+00  0.65856980324E+02  0.65856980324E+02  0.00000000000E+00 0. -1.
          1   -1    0    0  501    0 -0.00000000000E+00 -0.00000000000E+00 -0.23712149002E+03  0.23712149002E+03  0.00000000000E+00 0. -1.
          2    1    1    2  501    0  0.37350614468E+02  0.70069338762E+02  0.31344924064E+02  0.85365595530E+02  0.00000000000E+00 0. -1.
          1    1    1    2  502    0 -0.37350614468E+02 -0.70069338762E+02 -0.20260943376E+03  0.21761287481E+03  0.00000000000E+00 0. -1.
</event>
<event>
 4    1  0.7181337E+003  0.3693475E+02  0.7546771E-02  0.1367449E+00
          2   -1    0    0  502    0  0.00000000000E+00  0.00000000000E+00  0.23136107946E+04  0.23136107946E+04  0.00000000000E+00 0.  1.
          1   -1    0    0  501    0 -0.00000000000E+00 -0.00000000000E+00 -0.40189163645E+02  0.40189163645E+02  0.00000000000E+00 0.  1.
          2    1    1    2  501    0 -0.36884030089E+02  0.19348982938E+01  0.23049455206E+04  0.23052414252E+04  0.00000000000E+00 0.  1.
          1    1    1    2  502    0  0.36884030089E+02 -0.19348982938E+01 -0.31523889686E+02  0.48558533009E+02  0.00000000000E+00 0.  1.
</event>
<event>
 4    1  0.7181337E+003  0.2112359E+02  0.7546771E-02  0.1517508E+00
          2   -1    0    0  502    0  0.00000000000E+00  0.00000000000E+00  0.97724100190E+01  0.97724100190E+01  0.00000000000E+00 0.  1.
          1   -1    0    0  501    0 -0.00000000000E+00 -0.00000000000E+00 -0.46270010250E+02  0.46270010250E+02  0.00000000000E+00 0.  1.
          2    1    1    2  501    0 -0.46695054858E+01  0.20601013938E+02 -0.15030806174E+02  0.25925493071E+02  0.00000000000E+00 0.  1.
          1    1    1    2  502    0  0.46695054858E+01 -0.20601013938E+02 -0.21466794057E+02  0.30116927198E+02  0.00000000000E+00 0.  1.
</event>
<event>
 4    1  0.7181337E+003  0.3461497E+02  0.7546771E-02  0.1383290E+00
          2   -1    0    0  502    0  0.00000000000E+00  0.00000000000E+00  0.18424002939E+03  0.18424002939E+03  0.00000000000E+00 0.  1.
          1   -1    0    0  501    0 -0.00000000000E+00 -0.00000000000E+00 -0.60498039510E+02  0.60498039510E+02  0.00000000000E+00 0. -1.
          2    1    1    2  501    0  0.21125946117E+02  0.27420628599E+02  0.17747582785E+03  0.18081998214E+03  0.00000000000E+00 0.  1.
          1    1    1    2  502    0 -0.21125946117E+02 -0.27420628599E+02 -0.53733837967E+02  0.63918086758E+02  0.00000000000E+00 0. -1.
</event>
<event>
 4    1  0.7181337E+003  0.2697314E+02  0.7546771E-02  0.1447878E+00
          2   -1    0    0  502    0  0.00000000000E+00  0.00000000000E+00  0.95627005506E+03  0.95627005506E+03  0.00000000000E+00 0. -1.
          1   -1    0    0  501    0 -0.00000000000E+00 -0.00000000000E+00 -0.87721015968E+00  0.87721015968E+00  0.00000000000E+00 0. -1.
          2    1    1    2  501    0  0.21929810608E+02  0.15704580686E+02  0.65201874189E+03  0.65257642481E+03  0.00000000000E+00 0. -1.
          1    1    1    2  502    0 -0.21929810608E+02 -0.15704580686E+02  0.30337410301E+03  0.30457084040E+03  0.00000000000E+00 0. -1.
</event>
<event>
 4    1  0.7181337E+003  0.2705367E+02  0.7546771E-02  0.1447070E+00
          2   -1    0    0  502    0  0.00000000000E+00  0.00000000000E+00  0.78267631096E+01  0.78267631096E+01  0.00000000000E+00 0.  1.
          1   -1    0    0  501    0 -0.00000000000E+00 -0.00000000000E+00 -0.89275436101E+03  0.89275436101E+03  0.00000000000E+00 0. -1.
          2    1    1    2  501    0 -0.10396832865E+02  0.24976126856E+02 -0.16408534911E+02  0.31640813269E+02  0.00000000000E+00 0.  1.
          1    1    1    2  502    0  0.10396832865E+02 -0.24976126856E+02 -0.86851906299E+03  0.86894031085E+03  0.00000000000E+00 0. -1.
</event>
<event>
 4    1  0.7181337E+003  0.2765485E+02  0.7546771E-02  0.1441139E+00
          2   -1    0    0  502    0  0.00000000000E+00  0.00000000000E+00  0.10151596309E+04  0.10151596309E+04  0.00000000000E+00 0.  1.
          1   -1    0    0  501    0 -0.00000000000E+00 -0.00000000000E+00 -0.32427394667E+01  0.32427394667E+01  0.00000000000E+00 0.  1.
          2    1    1    2  501    0 -0.21102887881E+02 -0.17873416708E+02  0.95210551921E+03  0.95250706591E+03  0.00000000000E+00 0.  1.
          1    1    1    2  502    0  0.21102887881E+02  0.17873416708E+02  0.59811372203E+02  0.65895304435E+02  0.00000000000E+00 0.  1.
</event>
<event>
 4    1  0.7181337E+003  0.3576525E+02  0.7546771E-02  0.1375262E+00
          2   -1    0    0  502    0  0.00000000000E+00  0.00000000000E+00  0.16571579647E+03  0.16571579647E+03  0.00000000000E+00 0.  1.
          1   -1    0    0  501    0 -0.00000000000E+00 -0.00000000000E+00 -0.27865428414E+02  0.27865428414E+02  0.00000000000E+00 0.  1.
          2    1    1    2  501    0  0.35195844359E+02  0.63565669424E+01  0.15122518727E+03  0.15539694550E+03  0.00000000000E+00 0.  1.
          1    1    1    2  502    0 -0.35195844359E+02 -0.63565669424E+01 -0.13374819217E+02  0.38184279390E+02  0.00000000000E+00 0.  1.
</event>
<event>
 4    1  0.7181337E+003  0.2894814E+02  0.7546771E-02  0.1428963E+00
          2   -1    0    0  502    0  0.00000000000E+00  0.00000000000E+00  0.15578270573E+02  0.15578270573E+02  0.00000000000E+00 0.  1.
          1   -1    0    0  501    0 -0.00000000000E+00 -0.00000000000E+00 -0.14666637831E+03  0.14666637831E+03  0.00000000000E+00 0. -1.
          2    1    1    2  501    0 -0.18624769328E+02  0.22161064503E+02 -0.99025732406E+00  0.28965072449E+02  0.00000000000E+00 0.  1.
          1    1    1    2  502    0  0.18624769328E+02 -0.22161064503E+02 -0.13009785042E+03  0.13327957644E+03  0.00000000000E+00 0. -1.
</event>
<event>
 4    1  0.7181337E+003  0.2342863E+02  0.7546771E-02  0.1487185E+00
          2   -1    0    0  502    0  0.00000000000E+00  0.00000000000E+00  0.38956676147E+03  0.38956676147E+03  0.00000000000E+00 0.  1.
          1   -1    0    0  501    0 -0.00000000000E+00 -0.00000000000E+00 -0.25395563076E+01  0.25395563076E+01  0.00000000000E+00 0. -1.
          2    1    1    2  501    0  0.20471184920E+02  0.11394356822E+02  0.32432344480E+03  0.32516856801E+03  0.00000000000E+00 0.  1.
          1    1    1    2  502    0 -0.20471184920E+02 -0.11394356822E+02  0.62703760363E+02  0.66937749761E+02  0.00000000000E+00 0. -1.
</event>
<event>
 4    1  0.7181337E+003  0.6679215E+02  0.7546771E-02  0.1238352E+00
          2   -1    0    0  502    0  0.00000000000E+00  0.00000000000E+00  0.40601268124E+02  0.40601268124E+02  0.00000000000E+00 0.  1.
          1   -1    0    0  501    0 -0.00000000000E+00 -0.00000000000E+00 -0.12211639887E+03  0.12211639887E+03  0.00000000000E+00 0.  1.
          2    1    1    2  501    0 -0.62213715457E+02 -0.24303180165E+02 -0.15001595111E+02  0.68456108661E+02  0.00000000000E+00 0.  1.
          1    1    1    2  502    0  0.62213715457E+02  0.24303180165E+02 -0.66513535638E+02  0.94261558337E+02  0.00000000000E+00 0.  1.
</event>
<event>
 4    1  0.7181337E+003  0.2104873E+02  0.7546771E-02  0.1518570E+00
          2   -1    0    0  502    0  0.00000000000E+00  0.00000000000E+00  0.82068068001E+03  0.82068068001E+03  0.00000000000E+00 0. -1.
          1   -1    0    0  501    0 -0.00000000000E+00 -0.00000000000E+00 -0.16651628309E+02  0.16651628309E+02  0.00000000000E+00 0.  1.
          2    1    1    2  501    0  0.18471457497E+02 -0.10092299130E+02  0.81383805809E+03  0.81411021001E+03  0.00000000000E+00 0. -1.
          1    1    1    2  502    0 -0.18471457497E+02  0.10092299130E+02 -0.98090063858E+01  0.23222098313E+02  0.00000000000E+00 0.  1.
</event>
<event>
 4    1  0.7181337E+003  0.3222978E+02  0.7546771E-02  0.1401160E+00
          2   -1    0    0  502    0  0.00000000000E+00  0.00000000000E+00  0.34233074637E+01  0.34233074637E+01  0.00000000000E+00 0. -1.
          1   -1    0    0  501    0 -0.00000000000E+00 -0.00000000000E+00 -0.47484485742E+03  0.47484485742E+03  0.00000000000E+00 0. -1.
          2    1    1    2  501    0  0.31350615411E+02  0.74764798564E+01 -0.92035936977E+02  0.97516011675E+02  0.00000000000E+00 0. -1.
          1    1    1    2  502    0 -0.31350615411E+02 -0.74764798564E+01 -0.37938561298E+03  0.38075215320E+03  0.00000000000E+00 0. -1.
</event>
<event>
 4    1  0.7181337E+003  0.3476648E+02  0.7546771E-02  0.1382212E+00
          2   -1    0    0  502    0  0.00000000000E+00  0.00000000000E+00  0.37045717755E+03  0.37045717755E+03  0.00000000000E+00 0.  1.
          1   -1    0    0  501    0 -0.00000000000E+00 -0.00000000000E+00 -0.24923147692E+02  0.24923147692E+02  0.00000000000E+00 0. -1.
          2    1    1    2  501    0 -0.68207673724E+01 -0.34090837461E+02  0.35706341654E+03  0.35875199163E+03  0.00000000000E+00 0.  1.
          1    1    1    2  502    0  0.68207673724E+01  0.34090837461E+02 -0.11529386678E+02  0.36628333617E+02  0.00000000000E+00 0. -1.
</event>
<event>
 4    1  0.8081482E+003  0.3551684E+02  0.7546771E-02  0.1376966E+00
          2   -1    0    0  502    0  0.00000000000E+00  0.00000000000E+00  0.62645198748E+03  0.62645198748E+03  0.00000000000E+00 0.  1.
          1   -1    0    0  501    0 -0.00000000000E+00 -0.00000000000E+00 -0.38763804556E+03  0.38763804556E+03  0.00000000000E+00 0.  1.
          2    1    1    2  501    0 -0.60427493892E+01  0.34999016733E+02  0.62513331756E+03  0.62614144625E+03  0.00000000000E+00 0.  1.
          1    1    1    2  502    0  0.60427493892E+01 -0.34999016733E+02 -0.38631937565E+03  0.38794858679E+03  0.00000000000E+00 0.  1.
</event>
<event>
 4    1  0.7181337E+003  0.2357620E+02  0.7546771E-02  0.1485387E+00
          2   -1    0    0  502    0  0.00000000000E+00  0.00000000000E+00  0.22907172775E+03  0.22907172775E+03  0.00000000000E+00 0. -1.
          1   -1    0    0  501    0 -0.00000000000E+00 -0.00000000000E+00 -0.31323221140E+01  0.31323221140E+01  0.00000000000E+00 0. -1.
          2    1    1    2  501    0  0.10818377308E+02 -0.20947556360E+02  0.16808360014E+03  0.16972900177E+03  0.00000000000E+00 0. -1.
          1    1    1    2  502    0 -0.10818377308E+02  0.20947556360E+02  0.57855805494E+02  0.62475048094E+02  0.00000000000E+00 0. -1.
</event>
<event>
 4    1  0.7181337E+003  0.2274469E+02  0.7546771E-02  0.1495729E+00
          2   -1    0    0  502    0  0.00000000000E+00  0.00000000000E+00  0.48426018414E+01  0.48426018414E+01  0.00000000000E+00 0.  1.
          1   -1    0    0  501    0 -0.00000000000E+00 -0.00000000000E+00 -0.73710509528E+03  0.73710509528E+03  0.00000000000E+00 0.  1.
          2    1    1    2  501    0 -0.22248910518E+02 -0.47230265974E+01 -0.23091321249E+02  0.32411882335E+02  0.00000000000E+00 0.  1.
          1    1    1    2  502    0  0.22248910518E+02  0.47230265974E+01 -0.70917117219E+03  0.70953581479E+03  0.00000000000E+00 0.  1.
</event>
<event>
 4    1  0.7181337E+003  0.5663823E+02  0.7546771E-02  0.1271703E+00
          2   -1    0    0  502    0  0.00000000000E+00  0.00000000000E+00  0.12066565542E+03  0.12066565542E+03  0.00000000000E+00 0. -1.
          1   -1    0    0  501    0 -0.00000000000E+00 -0.00000000000E+00 -0.37892514875E+02  0.37892514875E+02  0.00000000000E+00 0. -1.
          2    1    1    2  501    0  0.44779106935E+00  0.56636459002E+02  0.84694426227E+02  0.10188736349E+03  0.00000000000E+00 0. -1.
          1    1    1    2  502    0 -0.44779106935E+00 -0.56636459002E+02 -0.19212856817E+01  0.56670806804E+02  0.00000000000E+00 0. -1.
</event>
<event>
 4    1  0.7181337E+003  0.3945684E+02  0.7546771E-02  0.1351698E+00
          2   -1    0    0  502    0  0.00000000000E+00  0.00000000000E+00  0.42952816892E+01  0.42952816892E+01  0.00000000000E+00 0. -1.
          1   -1    0    0  501    0 -0.00000000000E+00 -0.00000000000E+00 -0.15468514192E+04  0.15468514192E+04  0.00000000000E+00 0.  1.
          2    1    1    2  501    0  0.37980582918E+02  0.10691922713E+02 -0.92625792780E+02  0.10067958769E+03  0.00000000000E+00 0. -1.
          1    1    1    2  502    0 -0.37980582918E+02 -0.10691922713E+02 -0.14499303447E+04  0.14504671132E+04  0.00000000000E+00 0.  1.
</event>
<event>
 4    1  0.7181337E+003  0.2073350E+02  0.7546771E-02  0.1523104E+00
          2   -1    0    0  502    0  0.00000000000E+00  0.00000000000E+00  0.69754924899E+03  0.69754924899E+03  0.00000000000E+00 0. -1.
          1   -1    0    0  501    0 -0.00000000000E+00 -0.00000000000E+00 -0.49680090538E+01  0.49680090538E+01  0.00000000000E+00 0. -1.
          2    1    1    2  501    0 -0.59613720436E+01  0.19857992789E+02  0.67504178124E+03  0.67536011450E+03  0.00000000000E+00 0. -1.
          1    1    1    2  502    0  0.59613720436E+01 -0.19857992789E+02  0.17539458696E+02  0.27157143546E+02  0.00000000000E+00 0. -1.
</event>
<event>
 4    1  0.7181337E+003  0.2012061E+02  0.7546771E-02  0.1532200E+00
          2   -1    0    0  502    0  0.00000000000E+00  0.00000000000E+00  0.27538413796E+03  0.27538413796E+03  0.00000000000E+00 0.  1.
          1   -1    0    0  501    0 -0.00000000000E+00 -0.00000000000E+00 -0.19724786309E+02  0.19724786309E+02  0.00000000000E+00 0. -1.
          2    1    1    2  501    0 -0.10525537065E+02  0.17147943518E+02  0.26977906390E+03  0.27052833902E+03  0.00000000000E+00 0.  1.
          1    1    1    2  502    0  0.10525537065E+02 -0.17147943518E+02 -0.14119712243E+02  0.24580585250E+02  0.00000000000E+00 0. -1.
</event>
<event>
 4    1  0.7181337E+003  0.2569041E+02  0.7546771E-02  0.1461226E+00
          2   -1    0    0  502    0  0.00000000000E+00  0.00000000000E+00  0.42423487050E+02  0.42423487050E+02  0.00000000000E+00 0.  1.
          1   -1    0    0  501    0 -0.00000000000E+00 -0.00000000000E+00 -0.45392772043E+02  0.45392772043E+02  0.00000000000E+00 0.  1.
          2    1    1    2  501    0  0.20621804866E+01  0.25607509017E+02  0.34112707214E+02  0.42704495078E+02  0.00000000000E+00 0.  1.
          1    1    1    2  502    0 -0.20621804866E+01 -0.25607509017E+02 -0.37081992208E+02  0.45111764015E+02  0.00000000000E+00 0.  1.
</event>
<event>
 4    1  0.7181337E+003  0.2192272E+02  0.7546771E-02  0.1506487E+00
          2   -1    0    0  502    0  0.00000000000E+00  0.00000000000E+00  0.69029193149E+03  0.69029193149E+03  0.00000000000E+00 0. -1.
          1   -1    0    0  501    0 -0.00000000000E+00 -0.00000000000E+00 -0.10824146964E+01  0.10824146964E+01  0.00000000000E+00 0.  1.
          2    1    1    2  501    0  0.16082145988E+02  0.14898671789E+02  0.55108608740E+03  0.55152196834E+03  0.00000000000E+00 0. -1.
          1    1    1    2  502    0 -0.16082145988E+02 -0.14898671789E+02  0.13812342940E+03  0.13985237785E+03  0.00000000000E+00 0.  1.
</event>
<event>
 4    1  0.7181337E+003  0.3161239E+02  0.7546771E-02  0.1406084E+00
          2   -1    0    0  502    0  0.00000000000E+00  0.00000000000E+00  0.63442857259E+03  0.63442857259E+03  0.00000000000E+00 0.  1.
          1   -1    0    0  501    0 -0.00000000000E+00 -0.00000000000E+00 -0.71960337565E+02  0.71960337565E+02  0.00000000000E+00 0. -1.
          2    1    1    2  501    0  0.17409434811E+02 -0.26386637164E+02  0.63054153325E+03  0.63133348414E+03  0.00000000000E+00 0.  1.
          1    1    1    2  502    0 -0.17409434811E+02  0.26386637164E+02 -0.68073298231E+02  0.75055426009E+02  0.00000000000E+00 0. -1.
</event>
<event>
 4    1  0.7181337E+003  0.2133837E+02  0.7546771E-02  0.1514488E+00
          2   -1    0    0  502    0  0.00000000000E+00  0.00000000000E+00  0.35823718798E+03  0.35823718798E+03  0.00000000000E+00 0.  1.
          1   -1    0    0  501    0 -0.00000000000E+00 -0.00000000000E+00 -0.16599174422E+03  0.16599174422E+03  0.00000000000E+00 0. -1.
          2    1    1    2  501    0  0.16182731566E+02  0.13908466193E+02  0.35723173846E+03  0.35786846913E+03  0.00000000000E+00 0.  1.
          1    1    1    2  502    0 -0.16182731566E+02 -0.13908466193E+02 -0.16498629470E+03  0.16636046307E+03  0.00000000000E+00 0. -1.
</event>
<event>
 4    1  0.7181337E+003  0.4189374E+02  0.7546771E-02  0.1337732E+00
          2   -1    0    0  502    0  0.00000000000E+00  0.00000000000E+00  0.31170662603E+03  0.31170662603E+03  0.00000000000E+00 0.  1.
          1   -1    0    0  501    0 -0.00000000000E+00 -0.00000000000E+00 -0.67069983612E+02  0.67069983612E+02  0.00000000000E+00 0.  1.
          2    1    1    2  501    0 -0.37091764914E+02 -0.19475284180E+02  0.30358275160E+03  0.30645974089E+03  0.00000000000E+00 0.  1.
          1    1    1    2  502    0  0.37091764914E+02  0.19475284180E+02 -0.58946109181E+02  0.72316868751E+02  0.00000000000E+00 0.  1.
</event>
<event>
 4    1  0.7181337E+003  0.2016632E+02  0.7546771E-02  0.1531508E+00
          2   -1    0    0  502    0  0.00000000000E+00  0.00000000000E+00  0.42626082332E+02  0.42626082332E+02  0.00000000000E+00 0. -1.
          1   -1    0    0  501    0 -0.00000000000E+00 -0.00000000000E+00 -0.55336428906E+02  0.55336428906E+02  0.00000000000E+00 0.  1.
          2    1    1    2  501    0 -0.19392974745E+02  0.55310864098E+01  0.38203996517E+02  0.43199834909E+02  0.00000000000E+00 0. -1.
          1    1    1    2  502    0  0.19392974745E+02 -0.55310864098E+01 -0.50914343091E+02  0.54762676329E+02  0.00000000000E+00 0.  1.
</event>
<event>
 4    1  0.7181337E+003  0.4049078E+02  0.7546771E-02  0.1345634E+00
          2   -1    0    0  502    0  0.00000000000E+00  0.00000000000E+00  0.64403393477E+02  0.64403393477E+02  0.00000000000E+00 0. -1.
          1   -1    0    0  501    0 -0.00000000000E+00 -0.00000000000E+00 -0.26437203075E+02  0.26437203075E+02  0.00000000000E+00 0. -1.
          2    1    1    2  501    0  0.26947438650E+02  0.30221501055E+02  0.27729852490E+02  0.49075944157E+02  0.00000000000E+00 0. -1.
          1    1    1    2  502    0 -0.26947438650E+02 -0.30221501055E+02  0.10236337912E+02  0.41764652395E+02  0.00000000000E+00 0. -1.
</event>
<event>
 4    1  0.7181337E+003  0.3243080E+02  0.7546771E-02  0.1399585E+00
          2   -1    0    0  502    0  0.00000000000E+00  0.00000000000E+00  0.69418469430E+03  0.69418469430E+03  0.00000000000E+00 0. -1.
          1   -1    0    0  501    0 -0.00000000000E+00 -0.00000000000E+00 -0.41249060218E+01  0.41249060218E+01  0.00000000000E+00 0. -1.
          2    1    1    2  501    0  0.26658916583E+02  0.18467773099E+02  0.62275518634E+03  0.62359905275E+03  0.00000000000E+00 0. -1.
          1    1    1    2  502    0 -0.26658916583E+02 -0.18467773099E+02  0.67304601945E+02  0.74710547579E+02  0.00000000000E+00 0. -1.
</event>
<event>
 4    1  0.7181337E+003  0.3966870E+02  0.7546771E-02  0.1350438E+00
          2   -1    0    0  502    0  0.00000000000E+00  0.00000000000E+00  0.10639291388E+04  0.10639291388E+04  0.00000000000E+00 0. -1.
          1   -1    0    0  501    0 -0.00000000000E+00 -0.00000000000E+00 -0.47154473464E+01  0.47154473464E+01  0.00000000000E+00 0.  1.
          2    1    1    2  501    0 -0.39403049239E+02 -0.45831583544E+01  0.97226929697E+03  0.97307820419E+03  0.00000000000E+00 0. -1.
          1    1    1    2  502    0  0.39403049239E+02  0.45831583544E+01  0.86944394531E+02  0.95566382008E+02  0.00000000000E+00 0.  1.
</event>
<event>
 4    1  0.7181337E+003  0.3526203E+02  0.7546771E-02  0.1378730E+00
          2   -1    0    0  502    0  0.00000000000E+00  0.00000000000E+00  0.19530936865E+04  0.19530936865E+04  0.00000000000E+00 0. -1.
          1   -1    0    0  501    0 -0.00000000000E+00 -0.00000000000E+00 -0.70926175472E+02  0.70926175472E+02  0.00000000000E+00 0.  1.
          2    1    1    2  501    0 -0.25775365247E+02  0.24063275384E+02  0.19485415255E+04  0.19488605613E+04  0.00000000000E+00 0. -1.
          1    1    1    2  502    0  0.25775365247E+02 -0.24063275384E+02 -0.66374014504E+02  0.75159300669E+02  0.00000000000E+00 0.  1.
</event>
<event>
 4    1  0.7181337E+003  0.2371004E+02  0.7546771E-02  0.1483769E+00
          2   -1    0    0  502    0  0.00000000000E+00  0.00000000000E+00  0.21224229231E+04  0.21224229231E+04  0.00000000000E+00 0.  1.
          1   -1    0    0  501    0 -0.00000000000E+00 -0.00000000000E+00 -0.34226027828E+00  0.34226027828E+00  0.00000000000E+00 0.  1.
          2    1    1    2  501    0  0.15955037110E+02  0.17538614843E+02  0.15657444343E+04  0.15659239445E+04  0.00000000000E+00 0.  1.
          1    1    1    2  502    0 -0.15955037110E+02 -0.17538614843E+02  0.55633622847E+03  0.55684123889E+03  0.00000000000E+00 0.  1.
</event>
<event>
 4    1  0.7181337E+003  0.2124606E+02  0.7546771E-02  0.1515781E+00
          2   -1    0    0  502    0  0.00000000000E+00  0.00000000000E+00  0.88704458822E+02  0.88704458822E+02  0.00000000000E+00 0.  1.
          1   -1    0    0  501    0 -0.00000000000E+00 -0.00000000000E+00 -0.15712044635E+03  0.15712044635E+03  0.00000000000E+00 0. -1.
          2    1    1    2  501    0 -0.21235960319E+02  0.65498492364E+00  0.86697657286E+02  0.89262975498E+02  0.00000000000E+00 0.  1.
          1    1    1    2  502    0  0.21235960319E+02 -0.65498492364E+00 -0.15511364481E+03  0.15656192967E+03  0.00000000000E+00 0. -1.
</event>
<event>
 4    1  0.7181337E+003  0.2782590E+02  0.7546771E-02  0.1439484E+00
          2   -1    0    0  502    0  0.00000000000E+00  0.00000000000E+00  0.16173422195E+04  0.16173422195E+04  0.00000000000E+00 0.  1.
          1   -1    0    0  501    0 -0.00000000000E+00 -0.00000000000E+00 -0.76072433842E+01  0.76072433842E+01  0.00000000000E+00 0. -1.
          2    1    1    2  501    0 -0.41007970858E+01  0.27522070195E+02  0.15913616289E+04  0.15916048865E+04  0.00000000000E+00 0.  1.
          1    1    1    2  502    0  0.41007970858E+01 -0.27522070195E+02  0.18373347220E+02  0.33344576360E+02  0.00000000000E+00 0. -1.
</event>
<event>
 4    1  0.7181337E+003  0.2144912E+02  0.7546771E-02  0.1512948E+00
          2   -1    0    0  502    0  0.00000000000E+00  0.00000000000E+00  0.12072599831E+03  0.12072599831E+03  0.00000000000E+00 0.  1.
          1   -1    0    0  501    0 -0.00000000000E+00 -0.00000000000E+00 -0.12999876897E+03  0.12999876897E+03  0.00000000000E+00 0.  1.
          2    1    1    2  501    0 -0.15077310965E+02  0.15255800838E+02  0.11887487863E+03  0.12079445987E+03  0.00000000000E+00 0.  1.
          1    1    1    2  502    0  0.15077310965E+02 -0.15255800838E+02 -0.12814764929E+03  0.12993030741E+03  0.00000000000E+00 0.  1.
</event>
<event>
 4    1  0.7181337E+003  0.2248029E+02  0.7546771E-02  0.1499129E+00
          2   -1    0    0  502    0  0.00000000000E+00  0.00000000000E+00  0.57453802612E+02  0.57453802612E+02  0.00000000000E+00 0.  1.
          1   -1    0    0  501    0 -0.00000000000E+00 -0.00000000000E+00 -0.83116727326E+02  0.83116727326E+02  0.00000000000E+00 0.  1.
          2    1    1    2  501    0  0.22082252323E+02  0.42116090212E+01  0.53630789400E+02  0.58151741933E+02  0.00000000000E+00 0.  1.
          1    1    1    2  502    0 -0.22082252323E+02 -0.42116090212E+01 -0.79293714114E+02  0.82418788005E+02  0.00000000000E+00 0.  1.
</event>
<event>
 4    1  0.7181337E+003  0.5974882E+02  0.7546771E-02  0.1260688E+00
          2   -1    0    0  502    0  0.00000000000E+00  0.00000000000E+00  0.76179362786E+03  0.76179362786E+03  0.00000000000E+00 0.  1.
          1   -1    0    0  501    0 -0.00000000000E+00 -0.00000000000E+00 -0.53434888654E+01  0.53434888654E+01  0.00000000000E+00 0.  1.
          2    1    1    2  501    0 -0.54805385754E+02  0.23796808284E+02  0.24369845608E+03  0.25091603354E+03  0.00000000000E+00 0.  1.
          1    1    1    2  502    0  0.54805385754E+02 -0.23796808284E+02  0.51275168292E+03  0.51622108319E+03  0.00000000000E+00 0.  1.
</event>
<event>
 4    1  0.7181337E+003  0.2802999E+02  0.7546771E-02  0.1437527E+00
          2   -1    0    0  502    0  0.00000000000E+00  0.00000000000E+00  0.32810346223E+03  0.32810346223E+03  0.00000000000E+00 0. -1.
          1   -1    0    0  501    0 -0.00000000000E+00 -0.00000000000E+00 -0.42910764916E+01  0.42910764916E+01  0.00000000000E+00 0. -1.
          2    1    1    2  501    0 -0.96326580479E+01  0.26322848835E+02  0.27239368585E+03  0.27383206635E+03  0.00000000000E+00 0. -1.
          1    1    1    2  502    0  0.96326580479E+01 -0.26322848835E+02  0.51418699892E+02  0.58562472373E+02  0.00000000000E+00 0. -1.
</event>
<event>
 4    1  0.7181337E+003  0.2038870E+02  0.7546771E-02  0.1528174E+00
          2   -1    0    0  502    0  0.00000000000E+00  0.00000000000E+00  0.44712561462E+03  0.44712561462E+03  0.00000000000E+00 0.  1.
          1   -1    0    0  501    0 -0.00000000000E+00 -0.00000000000E+00 -0.19021022450E+03  0.19021022450E+03  0.00000000000E+00 0. -1.
          2    1    1    2  501    0 -0.20383837288E+02  0.44512880375E+00  0.44634586433E+03  0.44681129078E+03  0.00000000000E+00 0.  1.
          1    1    1    2  502    0  0.20383837288E+02 -0.44512880375E+00 -0.18943047421E+03  0.19052454834E+03  0.00000000000E+00 0. -1.
</event>
<event>
 4    1  0.7181337E+003  0.2166396E+02  0.7546771E-02  0.1509993E+00
          2   -1    0    0  502    0  0.00000000000E+00  0.00000000000E+00  0.98209540255E+03  0.98209540255E+03  0.00000000000E+00 0.  1.
          1   -1    0    0  501    0 -0.00000000000E+00 -0.00000000000E+00 -0.15155354838E+01  0.15155354838E+01  0.00000000000E+00 0.  1.
          2    1    1    2  501    0  0.11077164961E+02  0.18617833607E+02  0.89723532386E+03  0.89749682657E+03  0.00000000000E+00 0.  1.
          1    1    1    2  502    0 -0.11077164961E+02 -0.18617833607E+02  0.83344543199E+02  0.86114111461E+02  0.00000000000E+00 0.  1.
</event>
<event>
 4    1  0.7181337E+003  0.2364327E+02  0.7546771E-02  0.1484575E+00
          2   -1    0    0  502    0  0.00000000000E+00  0.00000000000E+00  0.10879479154E+03  0.10879479154E+03  0.00000000000E+00 0.  1.
          1   -1    0    0  501    0 -0.00000000000E+00 -0.00000000000E+00 -0.69517649909E+01  0.69517649909E+01  0.00000000000E+00 0.  1.
          2    1    1    2  501    0  0.16948200407E+02 -0.16485223580E+02  0.80481412034E+02  0.83882428294E+02  0.00000000000E+00 0.  1.
          1    1    1    2  502    0 -0.16948200407E+02  0.16485223580E+02  0.21361614512E+02  0.31864128234E+02  0.00000000000E+00 0.  1.
</event>
<event>
 4    1  0.7181337E+003  0.3539198E+02  0.7546771E-02  0.1377828E+00
          2   -1    0    0  502    0  0.00000000000E+00  0.00000000000E+00  0.38952728874E+02  0.38952728874E+02  0.00000000000E+00 0.  1.
          1   -1    0    0  501    0 -0.00000000000E+00 -0.00000000000E+00 -0.32950167429E+03  0.32950167429E+03  0.00000000000E+00 0. -1.
          2    1    1    2  501    0  0.35053455136E+02  0.48833795472E+01  0.29732449384E+02  0.46223486013E+02  0.00000000000E+00 0.  1.
          1    1    1    2  502    0 -0.35053455136E+02 -0.48833795472E+01 -0.32028139480E+03  0.32223091715E+03  0.00000000000E+00 0. -1.
</event>
<event>
 4    1  0.7181337E+003  0.2180134E+02  0.7546771E-02  0.1508124E+00
          2   -1    0    0  502    0  0.00000000000E+00  0.00000000000E+00  0.50735738350E+02  0.50735738350E+02  0.00000000000E+00 0.  1.
          1   -1    0    0  501    0 -0.00000000000E+00 -0.00000000000E+00 -0.26292653126E+02  0.26292653126E+02  0.00000000000E+00 0.  1.
          2    1    1    2  501    0 -0.21542939347E+02 -0.33466500084E+01  0.43121794685E+02  0.48319638646E+02  0.00000000000E+00 0.  1.
          1    1    1    2  502    0  0.21542939347E+02  0.33466500084E+01 -0.18678709461E+02  0.28708752831E+02  0.00000000000E+00 0.  1.
</event>
<event>
 4    1  0.7181337E+003  0.3058570E+02  0.7546771E-02  0.1414574E+00
          2   -1    0    0  502    0  0.00000000000E+00  0.00000000000E+00  0.42636872874E+02  0.42636872874E+02  0.00000000000E+00 0.  1.
          1   -1    0    0  501    0 -0.00000000000E+00 -0.00000000000E+00 -0.55458292497E+03  0.55458292497E+03  0.00000000000E+00 0. -1.
          2    1    1    2  501    0  0.33180832523E+01  0.30405183341E+02  0.36670371484E+02  0.47751450191E+02  0.00000000000E+00 0.  1.
          1    1    1    2  502    0 -0.33180832523E+01 -0.30405183341E+02 -0.54861642359E+03  0.54946834766E+03  0.00000000000E+00 0. -1.
</event>
<event>
 4    1  0.7181337E+003  0.2120573E+02  0.7546771E-02  0.1516348E+00
          2   -1    0    0  502    0  0.00000000000E+00  0.00000000000E+00  0.10715782737E+04  0.10715782737E+04  0.00000000000E+00 0. -1.
          1   -1    0    0  501    0 -0.00000000000E+00 -0.00000000000E+00 -0.17793170375E+03  0.17793170375E+03  0.00000000000E+00 0.  1.
          2    1    1    2  501    0  0.19003926508E+02 -0.94092411536E+01  0.10708411077E+04  0.10710510543E+04  0.00000000000E+00 0. -1.
          1    1    1    2  502    0 -0.19003926508E+02  0.94092411536E+01 -0.17719453774E+03  0.17845892313E+03  0.00000000000E+00 0.  1.
</event>
<event>
 4    1  0.7181337E+003  0.3021331E+02  0.7546771E-02  0.1417752E+00
          2   -1    0    0  502    0  0.00000000000E+00  0.00000000000E+00  0.68639852513E+03  0.68639852513E+03  0.00000000000E+00 0.  1.
          1   -1    0    0  501    0 -0.00000000000E+00 -0.00000000000E+00 -0.14311754380E+01  0.14311754380E+01  0.00000000000E+00 0.  1.
          2    1    1    2  501    0 -0.30870276010E+01 -0.30055187372E+02  0.43396834893E+03  0.43501881787E+03  0.00000000000E+00 0.  1.
          1    1    1    2  502    0  0.30870276010E+01  0.30055187372E+02  0.25099900077E+03  0.25281088270E+03  0.00000000000E+00 0.  1.
</event>
<event>
 4    1  0.7181337E+003  0.2092413E+02  0.7546771E-02  0.1520351E+00
          2   -1    0    0  502    0  0.00000000000E+00  0.00000000000E+00  0.76430931464E+02  0.76430931464E+02  0.00000000000E+00 0.  1.
          1   -1    0    0  501    0 -0.00000000000E+00 -0.00000000000E+00 -0.11569221225E+02  0.11569221225E+02  0.00000000000E+00 0.  1.
          2    1    1    2  501    0 -0.14515095682E+00 -0.20923622002E+02  0.63694684870E+02  0.67043507569E+02  0.00000000000E+00 0.  1.
          1    1    1    2  502    0  0.14515095682E+00  0.20923622002E+02  0.11670253681E+01  0.20956645120E+02  0.00000000000E+00 0.  1.
</event>
<event>
 4    1  0.7181337E+003  0.3720768E+02  0.7546771E-02  0.1365674E+00
          2   -1    0    0  502    0  0.00000000000E+00  0.00000000000E+00  0.18930897693E+02  0.18930897693E+02  0.00000000000E+00 0.  1.
          1   -1    0    0  501    0 -0.00000000000E+00 -0.00000000000E+00 -0.48786048056E+03  0.48786048056E+03  0.00000000000E+00 0.  1.
          2    1    1    2  501    0 -0.20804747568E+02  0.30847588803E+02 -0.83160810290E+00  0.37216969629E+02  0.00000000000E+00 0.  1.
          1    1    1    2  502    0  0.20804747568E+02 -0.30847588803E+02 -0.46809797477E+03  0.46957440863E+03  0.00000000000E+00 0.  1.
</event>
<event>
 4    1  0.7181337E+003  0.2030010E+02  0.7546771E-02  0.1529497E+00
          2   -1    0    0  502    0  0.00000000000E+00  0.00000000000E+00  0.13219017287E+04  0.13219017287E+04  0.00000000000E+00 0. -1.
          1   -1    0    0  501    0 -0.00000000000E+00 -0.00000000000E+00 -0.57754366533E+01  0.57754366533E+01  0.00000000000E+00 0. -1.
          2    1    1    2  501    0 -0.12513902809E+02 -0.15984251926E+02  0.13037370505E+04  0.13038950843E+04  0.00000000000E+00 0. -1.
          1    1    1    2  502    0  0.12513902809E+02  0.15984251926E+02  0.12389241594E+02  0.23782081079E+02  0.00000000000E+00 0. -1.
</event>
<event>
 4    1  0.7181337E+003  0.5364471E+02  0.7546771E-02  0.1283099E+00
          2   -1    0    0  502    0  0.00000000000E+00  0.00000000000E+00  0.17238582694E+02  0.17238582694E+02  0.00000000000E+00 0.  1.
          1   -1    0    0  501    0 -0.00000000000E+00 -0.00000000000E+00 -0.43042789723E+03  0.43042789723E+03  0.00000000000E+00 0.  1.
          2    1    1    2  501    0  0.44148722648E+02  0.30473683668E+02 -0.31465971979E+02  0.62192141789E+02  0.00000000000E+00 0.  1.
          1    1    1    2  502    0 -0.44148722648E+02 -0.30473683668E+02 -0.38172334255E+03  0.38547433813E+03  0.00000000000E+00 0.  1.
</event>
<event>
 4    1  0.7181337E+003  0.4402610E+02  0.7546771E-02  0.1326382E+00
          2   -1    0    0  502    0  0.00000000000E+00  0.00000000000E+00  0.50666149989E+03  0.50666149989E+03  0.00000000000E+00 0. -1.
          1   -1    0    0  501    0 -0.00000000000E+00 -0.00000000000E+00 -0.76943318138E+03  0.76943318138E+03  0.00000000000E+00 0.  1.
          2    1    1    2  501    0  0.40576271879E+02  0.17084012601E+02  0.50507333596E+03  0.50698853244E+03  0.00000000000E+00 0. -1.
          1    1    1    2  502    0 -0.40576271879E+02 -0.17084012601E+02 -0.76784501746E+03  0.76910614883E+03  0.00000000000E+00 0.  1.
</event>
<event>
 4    1  0.7181337E+003  0.2243482E+03  0.7546771E-02  0.1039099E+00
          2   -1    0    0  502    0  0.00000000000E+00  0.00000000000E+00  0.51753086948E+03  0.51753086948E+03  0.00000000000E+00 0. -1.
          1   -1    0    0  501    0 -0.00000000000E+00 -0.00000000000E+00 -0.18063844181E+03  0.18063844181E+03  0.00000000000E+00 0. -1.
          2    1    1    2  501    0  0.10513422988E+03 -0.19818902227E+03  0.40562041152E+03  0.46352994842E+03  0.00000000000E+00 0. -1.
          1    1    1    2  502    0 -0.10513422988E+03  0.19818902227E+03 -0.68727983859E+02  0.23463936287E+03  0.00000000000E+00 0. -1.
</event>
<event>
 4    1  0.7181337E+003  0.2283635E+02  0.7546771E-02  0.1494563E+00
          2   -1    0    0  502    0  0.00000000000E+00  0.00000000000E+00  0.16456486939E+01  0.16456486939E+01  0.00000000000E+00 0. -1.
          1   -1    0    0  501    0 -0.00000000000E+00 -0.00000000000E+00 -0.44200522667E+03  0.44200522667E+03  0.00000000000E+00 0.  1.
          2    1    1    2  501    0 -0.13755728023E+02  0.18228516378E+02 -0.10216322276E+03  0.10468439686E+03  0.00000000000E+00 0. -1.
          1    1    1    2  502    0  0.13755728023E+02 -0.18228516378E+02 -0.33819635522E+03  0.33896647850E+03  0.00000000000E+00 0.  1.
</event>
<event>
 4    1  0.7181337E+003  0.2290627E+02  0.7546771E-02  0.1493678E+00
          2   -1    0    0  502    0  0.00000000000E+00  0.00000000000E+00  0.60821073681E+01  0.60821073681E+01  0.00000000000E+00 0.  1.
          1   -1    0    0  501    0 -0.00000000000E+00 -0.00000000000E+00 -0.74209340516E+03  0.74209340516E+03  0.00000000000E+00 0.  1.
          2    1    1    2  501    0  0.74962387165E+01 -0.21644944660E+02 -0.16333479636E+02  0.28133250456E+02  0.00000000000E+00 0.  1.
          1    1    1    2  502    0 -0.74962387165E+01  0.21644944660E+02 -0.71967781815E+03  0.72004226207E+03  0.00000000000E+00 0.  1.
</event>
<event>
 4    1  0.7181337E+003  0.2143792E+02  0.7546771E-02  0.1513103E+00
          2   -1    0    0  502    0  0.00000000000E+00  0.00000000000E+00  0.15742943033E+01  0.15742943033E+01  0.00000000000E+00 0.  1.
          1   -1    0    0  501    0 -0.00000000000E+00 -0.00000000000E+00 -0.58638389425E+03  0.58638389425E+03  0.00000000000E+00 0.  1.
          2    1    1    2  501    0 -0.13515005335E+02 -0.16641183163E+02 -0.84083442837E+02  0.86773323698E+02  0.00000000000E+00 0.  1.
          1    1    1    2  502    0  0.13515005335E+02  0.16641183163E+02 -0.50072615711E+03  0.50118486486E+03  0.00000000000E+00 0.  1.
</event>
<event>
 4    1  0.7181337E+003  0.3806819E+02  0.7546771E-02  0.1360194E+00
          2   -1    0    0  502    0  0.00000000000E+00  0.00000000000E+00  0.95188488094E+03  0.95188488094E+03  0.00000000000E+00 0. -1.
          1   -1    0    0  501    0 -0.00000000000E+00 -0.00000000000E+00 -0.12912957308E+02  0.12912957308E+02  0.00000000000E+00 0.  1.
          2    1    1    2  501    0  0.33520045145E+02  0.18044218670E+02  0.92255585076E+03  0.92334093650E+03  0.00000000000E+00 0. -1.
          1    1    1    2  502    0 -0.33520045145E+02 -0.18044218670E+02  0.16416072879E+02  0.41456901750E+02  0.00000000000E+00 0.  1.
</event>
<event>
 4    1  0.7181337E+003  0.6210557E+02  0.7546771E-02  0.1252842E+00
          2   -1    0    0  502    0  0.00000000000E+00  0.00000000000E+00  0.15711346941E+04  0.15711346941E+04  0.00000000000E+00 0.  1.
          1   -1    0    0  501    0 -0.00000000000E+00 -0.00000000000E+00 -0.73606616197E+01  0.73606616197E+01  0.00000000000E+00 0. -1.
          2    1    1    2  501    0  0.56914882619E+02  0.24855538835E+02  0.14262115057E+04  0.14275630847E+04  0.00000000000E+00 0.  1.
          1    1    1    2  502    0 -0.56914882619E+02 -0.24855538835E+02  0.13756252675E+03  0.15093227104E+03  0.00000000000E+00 0. -1.
</event>
<event>
 4    1  0.7181337E+003  0.2275529E+02  0.7546771E-02  0.1495594E+00
          2   -1    0    0  502    0  0.00000000000E+00  0.00000000000E+00  0.15673198244E+02  0.15673198244E+02  0.00000000000E+00 0. -1.
          1   -1    0    0  501    0 -0.00000000000E+00 -0.00000000000E+00 -0.33053685384E+02  0.33053685384E+02  0.00000000000E+00 0. -1.
          2    1    1    2  501    0 -0.20015631204E+02  0.10824843221E+02 -0.92299681849E+01  0.24555957240E+02  0.00000000000E+00 0. -1.
          1    1    1    2  502    0  0.20015631204E+02 -0.10824843221E+02 -0.81505189544E+01  0.24170926389E+02  0.00000000000E+00 0. -1.
</event>
<event>
 4    1  0.7181337E+003  0.2304418E+02  0.7546771E-02  0.1491944E+00
          2   -1    0    0  502    0  0.00000000000E+00  0.00000000000E+00  0.18482815826E+03  0.18482815826E+03  0.00000000000E+00 0. -1.
          1   -1    0    0  501    0 -0.00000000000E+00 -0.00000000000E+00 -0.40816405343E+02  0.40816405343E+02  0.00000000000E+00 0.  1.
          2    1    1    2  501    0 -0.13443637093E+02 -0.18716378856E+02  0.18078484713E+03  0.18224762047E+03  0.00000000000E+00 0. -1.
          1    1    1    2  502    0  0.13443637093E+02  0.18716378856E+02 -0.36773094209E+02  0.43396943135E+02  0.00000000000E+00 0.  1.
</event>
<event>
 4    1  0.7181337E+003  0.2278942E+02  0.7546771E-02  0.1495160E+00
          2   -1    0    0  502    0  0.00000000000E+00  0.00000000000E+00  0.38335712182E+02  0.38335712182E+02  0.00000000000E+00 0.  1.
          1   -1    0    0  501    0 -0.00000000000E+00 -0.00000000000E+00 -0.34285091290E+02  0.34285091290E+02  0.00000000000E+00 0.  1.
          2    1    1    2  501    0  0.17209224815E+02  0.14939880183E+02  0.30264768541E+02  0.37885533565E+02  0.00000000000E+00 0.  1.
          1    1    1    2  502    0 -0.17209224815E+02 -0.14939880183E+02 -0.26214147649E+02  0.34735269908E+02  0.00000000000E+00 0.  1.
</event>
<event>
 4    1  0.7181337E+003  0.2310539E+02  0.7546771E-02  0.1491179E+00
          2   -1    0    0  502    0  0.00000000000E+00  0.00000000000E+00  0.30087167183E+01  0.30087167183E+01  0.00000000000E+00 0.  1.
          1   -1    0    0  501    0 -0.00000000000E+00 -0.00000000000E+00 -0.29424443399E+03  0.29424443399E+03  0.00000000000E+00 0.  1.
          2    1    1    2  501    0  0.57023127023E+01  0.22390687382E+02 -0.51974580980E+02  0.56878962012E+02  0.00000000000E+00 0.  1.
          1    1    1    2  502    0 -0.57023127023E+01 -0.22390687382E+02 -0.23926113629E+03  0.24037418870E+03  0.00000000000E+00 0.  1.
</event>
<event>
 4    1  0.7181337E+003  0.2369475E+02  0.7546771E-02  0.1483954E+00
          2   -1    0    0  502    0  0.00000000000E+00  0.00000000000E+00  0.68873890337E+01  0.68873890337E+01  0.00000000000E+00 0.  1.
          1   -1    0    0  501    0 -0.00000000000E+00 -0.00000000000E+00 -0.37473712985E+03  0.37473712985E+03  0.00000000000E+00 0.  1.
          2    1    1    2  501    0  0.78326502578E+01  0.22362711512E+02 -0.15137639399E+02  0.28117421695E+02  0.00000000000E+00 0.  1.
          1    1    1    2  502    0 -0.78326502578E+01 -0.22362711512E+02 -0.35271210142E+03  0.35350709719E+03  0.00000000000E+00 0.  1.
</event>
<event>
 4    1  0.7181337E+003  0.4384793E+02  0.7546771E-02  0.1327301E+00
          2   -1    0    0  502    0  0.00000000000E+00  0.00000000000E+00  0.46021317337E+02  0.46021317337E+02  0.00000000000E+00 0.  1.
          1   -1    0    0  501    0 -0.00000000000E+00 -0.00000000000E+00 -0.49898770968E+03  0.49898770968E+03  0.00000000000E+00 0. -1.
          2    1    1    2  501    0 -0.11861886973E+02  0.42212991121E+02  0.34364428368E+02  0.55709558597E+02  0.00000000000E+00 0.  1.
          1    1    1    2  502    0  0.11861886973E+02 -0.42212991121E+02 -0.48733082071E+03  0.48929946842E+03  0.00000000000E+00 0. -1.
</event>
<event>
 4    1  0.7181337E+003  0.2517999E+02  0.7546771E-02  0.1466800E+00
          2   -1    0    0  502    0  0.00000000000E+00  0.00000000000E+00  0.74154531171E+03  0.74154531171E+03  0.00000000000E+00 0.  1.
          1   -1    0    0  501    0 -0.00000000000E+00 -0.00000000000E+00 -0.48627870545E+02  0.48627870545E+02  0.00000000000E+00 0.  1.
          2    1    1    2  501    0 -0.25135639676E+02 -0.14938129339E+01  0.73805654307E+03  0.73848594612E+03  0.00000000000E+00 0.  1.
          1    1    1    2  502    0  0.25135639676E+02  0.14938129339E+01 -0.45139101899E+02  0.51687236135E+02  0.00000000000E+00 0.  1.
</event>
<event>
 4    1  0.7181337E+003  0.2790722E+02  0.7546771E-02  0.1438702E+00
          2   -1    0    0  502    0  0.00000000000E+00  0.00000000000E+00  0.16627131904E+03  0.16627131904E+03  0.00000000000E+00 0. -1.
          1   -1    0    0  501    0 -0.00000000000E+00 -0.00000000000E+00 -0.14704244948E+02  0.14704244948E+02  0.00000000000E+00 0.  1.
          2    1    1    2  501    0  0.22729909039E+02 -0.16191478429E+02  0.15048137366E+03  0.15304723636E+03  0.00000000000E+00 0. -1.
          1    1    1    2  502    0 -0.22729909039E+02  0.16191478429E+02  0.10857004316E+01  0.27928327628E+02  0.00000000000E+00 0.  1.
</event>
<event>
 4    1  0.7181337E+003  0.2260614E+02  0.7546771E-02  0.1497504E+00
          2   -1    0    0  502    0  0.00000000000E+00  0.00000000000E+00  0.15965322511E+02  0.15965322511E+02  0.00000000000E+00 0. -1.
          1   -1    0    0  501    0 -0.00000000000E+00 -0.00000000000E+00 -0.12654238840E+04  0.12654238840E+04  0.00000000000E+00 0. -1.
          2    1    1    2  501    0  0.16011954063E+02  0.15957909979E+02  0.78101530009E+01  0.23917275215E+02  0.00000000000E+00 0. -1.
          1    1    1    2  502    0 -0.16011954063E+02 -0.15957909979E+02 -0.12572687145E+04  0.12574719313E+04  0.00000000000E+00 0. -1.
</event>
<event>
 4    1  0.7181337E+003  0.3050397E+02  0.7546771E-02  0.1415267E+00
          2   -1    0    0  502    0  0.00000000000E+00  0.00000000000E+00  0.53245139372E+01  0.53245139372E+01  0.00000000000E+00 0.  1.
          1   -1    0    0  501    0 -0.00000000000E+00 -0.00000000000E+00 -0.21519255102E+03  0.21519255102E+03  0.00000000000E+00 0. -1.
          2    1    1    2  501    0  0.29507269632E+02  0.77339096417E+01 -0.57138842170E+02  0.64771441269E+02  0.00000000000E+00 0.  1.
          1    1    1    2  502    0 -0.29507269632E+02 -0.77339096417E+01 -0.15272919491E+03  0.15574562369E+03  0.00000000000E+00 0. -1.
</event>
<event>
 4    1  0.7181337E+003  0.2506880E+02  0.7546771E-02  0.1468035E+00
          2   -1    0    0  502    0  0.00000000000E+00  0.00000000000E+00  0.43286499018E+03  0.43286499018E+03  0.00000000000E+00 0.  1.
          1   -1    0    0  501    0 -0.00000000000E+00 -0.00000000000E+00 -0.42169017710E+01  0.42169017710E+01  0.00000000000E+00 0.  1.
          2    1    1    2  501    0 -0.11391097263E+02  0.22331312694E+02  0.39128994821E+03  0.39209216799E+03  0.00000000000E+00 0.  1.
          1    1    1    2  502    0  0.11391097263E+02 -0.22331312694E+02  0.37358140191E+02  0.44989723960E+02  0.00000000000E+00 0.  1.
</event>
<event>
 4    1  0.7181337E+003  0.3635781E+02  0.7546771E-02  0.1371261E+00
          2   -1    0    0  502    0  0.00000000000E+00  0.00000000000E+00  0.15112578164E+04  0.15112578164E+04  0.00000000000E+00 0.  1.
          1   -1    0    0  501    0 -0.00000000000E+00 -0.00000000000E+00 -0.96162586354E+00  0.96162586354E+00  0.00000000000E+00 0. -1.
          2    1    1    2  501    0 -0.32243278540E+02 -0.16800630199E+02  0.98248391730E+03  0.98315641580E+03  0.00000000000E+00 0.  1.
          1    1    1    2  502    0  0.32243278540E+02  0.16800630199E+02  0.52781227323E+03  0.52906302646E+03  0.00000000000E+00 0. -1.
</event>
<event>
 4    1  0.7181337E+003  0.2064900E+02  0.7546771E-02  0.1524336E+00
          2   -1    0    0  502    0  0.00000000000E+00  0.00000000000E+00  0.60279981743E+03  0.60279981743E+03  0.00000000000E+00 0.  1.
          1   -1    0    0  501    0 -0.00000000000E+00 -0.00000000000E+00 -0.11492403652E+03  0.11492403652E+03  0.00000000000E+00 0.  1.
          2    1    1    2  501    0 -0.18793156587E+02 -0.85556002204E+01  0.60169375134E+03  0.60204796440E+03  0.00000000000E+00 0.  1.
          1    1    1    2  502    0  0.18793156587E+02  0.85556002204E+01 -0.11381797043E+03  0.11567588955E+03  0.00000000000E+00 0.  1.
</event>
<event>
 4    1  0.7181337E+003  0.2708313E+02  0.7546771E-02  0.1446775E+00
          2   -1    0    0  502    0  0.00000000000E+00  0.00000000000E+00  0.10122278951E+03  0.10122278951E+03  0.00000000000E+00 0.  1.
          1   -1    0    0  501    0 -0.00000000000E+00 -0.00000000000E+00 -0.69220424886E+03  0.69220424886E+03  0.00000000000E+00 0.  1.
          2    1    1    2  501    0  0.21935855663E+02 -0.15884393346E+02  0.99140825985E+02  0.10277353304E+03  0.00000000000E+00 0.  1.
          1    1    1    2  502    0 -0.21935855663E+02  0.15884393346E+02 -0.69012228534E+03  0.69065350534E+03  0.00000000000E+00 0.  1.
</event>
<event>
 4    1  0.7181337E+003  0.2296480E+02  0.7546771E-02  0.1492941E+00
          2   -1    0    0  502    0  0.00000000000E+00  0.00000000000E+00  0.99295551637E+02  0.99295551637E+02  0.00000000000E+00 0.  1.
          1   -1    0    0  501    0 -0.00000000000E+00 -0.00000000000E+00 -0.32836229335E+02  0.32836229335E+02  0.00000000000E+00 0.  1.
          2    1    1    2  501    0 -0.22364659621E+02  0.52157487959E+01  0.93716971028E+02  0.96489650710E+02  0.00000000000E+00 0.  1.
          1    1    1    2  502    0  0.22364659621E+02 -0.52157487959E+01 -0.27257648727E+02  0.35642130262E+02  0.00000000000E+00 0.  1.
</event>
<event>
 4    1  0.7181337E+003  0.5402618E+02  0.7546771E-02  0.1281600E+00
          2   -1    0    0  502    0  0.00000000000E+00  0.00000000000E+00  0.52557614997E+02  0.52557614997E+02  0.00000000000E+00 0. -1.
          1   -1    0    0  501    0 -0.00000000000E+00 -0.00000000000E+00 -0.10948107222E+04  0.10948107222E+04  0.00000000000E+00 0.  1.
          2    1    1    2  501    0 -0.31404170780E+01 -0.53934830911E+02  0.37817798390E+02  0.65947055127E+02  0.00000000000E+00 0. -1.
          1    1    1    2  502    0  0.31404170780E+01  0.53934830911E+02 -0.10800709056E+04  0.10814212821E+04  0.00000000000E+00 0.  1.
</event>
<event>
 4    1  0.7181337E+003  0.2088864E+02  0.7546771E-02  0.1520861E+00
          2   -1    0    0  502    0  0.00000000000E+00  0.00000000000E+00  0.57240083408E+02  0.57240083408E+02  0.00000000000E+00 0. -1.
          1   -1    0    0  501    0 -0.00000000000E+00 -0.00000000000E+00 -0.40072844187E+03  0.40072844187E+03  0.00000000000E+00 0.  1.
          2    1    1    2  501    0 -0.20832791324E+02  0.15264560068E+01  0.55051688127E+02  0.58881437040E+02  0.00000000000E+00 0. -1.
          1    1    1    2  502    0  0.20832791324E+02 -0.15264560068E+01 -0.39854004659E+03  0.39908708824E+03  0.00000000000E+00 0.  1.
</event>
<event>
 4    1  0.7181337E+003  0.2235087E+02  0.7546771E-02  0.1500814E+00
          2   -1    0    0  502    0  0.00000000000E+00  0.00000000000E+00  0.23264043422E+01  0.23264043422E+01  0.00000000000E+00 0. -1.
          1   -1    0    0  501    0 -0.00000000000E+00 -0.00000000000E+00 -0.13205024958E+04  0.13205024958E+04  0.00000000000E+00 0.  1.
          2    1    1    2  501    0 -0.34108583937E+01  0.22089075996E+02 -0.53836498706E+02  0.58291764652E+02  0.00000000000E+00 0. -1.
          1    1    1    2  502    0  0.34108583937E+01 -0.22089075996E+02 -0.12643395927E+04  0.12645371354E+04  0.00000000000E+00 0.  1.
</event>
<event>
 4    1  0.7181337E+003  0.6365296E+02  0.7546771E-02  0.1247902E+00
          2   -1    0    0  502    0  0.00000000000E+00  0.00000000000E+00  0.37683873474E+03  0.37683873474E+03  0.00000000000E+00 0.  1.
          1   -1    0    0  501    0 -0.00000000000E+00 -0.00000000000E+00 -0.81088019706E+02  0.81088019706E+02  0.00000000000E+00 0.  1.
          2    1    1    2  501    0  0.53414488698E+02 -0.34620687240E+02  0.36111951773E+03  0.36668652235E+03  0.00000000000E+00 0.  1.
          1    1    1    2  502    0 -0.53414488698E+02  0.34620687240E+02 -0.65368802693E+02  0.91240232099E+02  0.00000000000E+00 0.  1.
</event>
<event>
 4    1  0.7181337E+003  0.2917376E+02  0.7546771E-02  0.1426915E+00
          2   -1    0    0  502    0  0.00000000000E+00  0.00000000000E+00  0.28019579465E+01  0.28019579465E+01  0.00000000000E+00 0. -1.
          1   -1    0    0  501    0 -0.00000000000E+00 -0.00000000000E+00 -0.31519877050E+03  0.31519877050E+03  0.00000000000E+00 0. -1.
          2    1    1    2  501    0  0.10562259798E+02  0.27194596068E+02 -0.18649540196E+03  0.18876345605E+03  0.00000000000E+00 0. -1.
          1    1    1    2  502    0 -0.10562259798E+02 -0.27194596068E+02 -0.12590141059E+03  0.12923727240E+03  0.00000000000E+00 0. -1.
</event>
<event>
 4    1  0.7181337E+003  0.3497178E+02  0.7546771E-02  0.1380762E+00
          2   -1    0    0  502    0  0.00000000000E+00  0.00000000000E+00  0.28799749637E+01  0.28799749637E+01  0.00000000000E+00 0. -1.
          1   -1    0    0  501    0 -0.00000000000E+00 -0.00000000000E+00 -0.14485506067E+04  0.14485506067E+04  0.00000000000E+00 0. -1.
          2    1    1    2  501    0 -0.34969563979E+02  0.39339840921E+00 -0.11270147673E+03  0.11800274583E+03  0.00000000000E+00 0. -1.
          1    1    1    2  502    0  0.34969563979E+02 -0.39339840921E+00 -0.13329691550E+04  0.13334278358E+04  0.00000000000E+00 0. -1.
</event>
<event>
 4    1  0.7181337E+003  0.2193286E+02  0.7546771E-02  0.1506351E+00
          2   -1    0    0  502    0  0.00000000000E+00  0.00000000000E+00  0.49507933458E+03  0.49507933458E+03  0.00000000000E+00 0. -1.
          1   -1    0    0  501    0 -0.00000000000E+00 -0.00000000000E+00 -0.13335668311E+02  0.13335668311E+02  0.00000000000E+00 0. -1.
          2    1    1    2  501    0  0.21880856319E+02  0.15094580462E+01  0.48564316936E+03  0.48613818846E+03  0.00000000000E+00 0. -1.
          1    1    1    2  502    0 -0.21880856319E+02 -0.15094580462E+01 -0.38995030879E+01  0.22276814431E+02  0.00000000000E+00 0. -1.
</event>
<event>
 4    1  0.7181337E+003  0.6160382E+02  0.7546771E-02  0.1254479E+00
          2   -1    0    0  502    0  0.00000000000E+00  0.00000000000E+00  0.16821642931E+04  0.16821642931E+04  0.00000000000E+00 0. -1.
          1   -1    0    0  501    0 -0.00000000000E+00 -0.00000000000E+00 -0.26738622104E+01  0.26738622104E+01  0.00000000000E+00 0. -1.
          2    1    1    2  501    0 -0.47420227792E+02 -0.39323695512E+02  0.11727527829E+04  0.11743696696E+04  0.00000000000E+00 0. -1.
          1    1    1    2  502    0  0.47420227792E+02  0.39323695512E+02  0.50673764800E+03  0.51046848574E+03  0.00000000000E+00 0. -1.
</event>
<event>
 4    1  0.7181337E+003  0.3022363E+02  0.7546771E-02  0.1417663E+00
          2   -1    0    0  502    0  0.00000000000E+00  0.00000000000E+00  0.11582213667E+04  0.11582213667E+04  0.00000000000E+00 0. -1.
          1   -1    0    0  501    0 -0.00000000000E+00 -0.00000000000E+00 -0.27979237757E+01  0.27979237757E+01  0.00000000000E+00 0.  1.
          2    1    1    2  501    0 -0.27814269937E+02 -0.11825154421E+02  0.10696466309E+04  0.10700735409E+04  0.00000000000E+00 0. -1.
          1    1    1    2  502    0  0.27814269937E+02  0.11825154421E+02  0.85776812040E+02  0.90945749615E+02  0.00000000000E+00 0.  1.
</event>
<event>
 4    1  0.7181337E+003  0.6230952E+02  0.7546771E-02  0.1252181E+00
          2   -1    0    0  502    0  0.00000000000E+00  0.00000000000E+00  0.16051511660E+04  0.16051511660E+04  0.00000000000E+00 0. -1.
          1   -1    0    0  501    0 -0.00000000000E+00 -0.00000000000E+00 -0.12442255620E+02  0.12442255620E+02  0.00000000000E+00 0. -1.
          2    1    1    2  501    0 -0.25481531078E+02 -0.56860955627E+02  0.15222922403E+04  0.15235669141E+04  0.00000000000E+00 0. -1.
          1    1    1    2  502    0  0.25481531078E+02  0.56860955627E+02  0.70416670074E+02  0.94026507567E+02  0.00000000000E+00 0. -1.
</event>
<event>
 4    1  0.7181337E+003  0.2505597E+02  0.7546771E-02  0.1468178E+00
          2   -1    0    0  502    0  0.00000000000E+00  0.00000000000E+00  0.93392836876E+03  0.93392836876E+03  0.00000000000E+00 0.  1.
          1   -1    0    0  501    0 -0.00000000000E+00 -0.00000000000E+00 -0.11618577294E+03  0.11618577294E+03  0.00000000000E+00 0. -1.
          2    1    1    2  501    0 -0.18809813262E+02  0.16552719903E+02  0.93240725406E+03  0.93274384963E+03  0.00000000000E+00 0.  1.
          1    1    1    2  502    0  0.18809813262E+02 -0.16552719903E+02 -0.11466465824E+03  0.11737029207E+03  0.00000000000E+00 0. -1.
</event>
<event>
 4    1  0.7181337E+003  0.1330193E+03  0.7546771E-02  0.1116416E+00
          2   -1    0    0  502    0  0.00000000000E+00  0.00000000000E+00  0.16713059311E+02  0.16713059311E+02  0.00000000000E+00 0.  1.
          1   -1    0    0  501    0 -0.00000000000E+00 -0.00000000000E+00 -0.12454987938E+04  0.12454987938E+04  0.00000000000E+00 0. -1.
          2    1    1    2  501    0 -0.10354976780E+03  0.83496063039E+02 -0.36998483403E+03  0.39317035031E+03  0.00000000000E+00 0.  1.
          1    1    1    2  502    0  0.10354976780E+03 -0.83496063039E+02 -0.85880090046E+03  0.86904150280E+03  0.00000000000E+00 0. -1.
</event>
<event>
 4    1  0.7181337E+003  0.2902521E+02  0.7546771E-02  0.1428261E+00
          2   -1    0    0  502    0  0.00000000000E+00  0.00000000000E+00  0.18979214004E+04  0.18979214004E+04  0.00000000000E+00 0. -1.
          1   -1    0    0  501    0 -0.00000000000E+00 -0.00000000000E+00 -0.20738414166E+01  0.20738414166E+01  0.00000000000E+00 0.  1.
          2    1    1    2  501    0  0.20308057772E+02  0.20737537472E+02  0.17901378118E+04  0.17903731030E+04  0.00000000000E+00 0. -1.
          1    1    1    2  502    0 -0.20308057772E+02 -0.20737537472E+02  0.10570974710E+03  0.10962213875E+03  0.00000000000E+00 0.  1.
</event>
<event>
 4    1  0.7181337E+003  0.2641732E+02  0.7546771E-02  0.1453551E+00
          2   -1    0    0  502    0  0.00000000000E+00  0.00000000000E+00  0.11664236330E+04  0.11664236330E+04  0.00000000000E+00 0.  1.
          1   -1    0    0  501    0 -0.00000000000E+00 -0.00000000000E+00 -0.12882294786E+02  0.12882294786E+02  0.00000000000E+00 0.  1.
          2    1    1    2  501    0  0.62685301804E+01 -0.25662823863E+02  0.11525679696E+04  0.11528706777E+04  0.00000000000E+00 0.  1.
          1    1    1    2  502    0 -0.62685301804E+01  0.25662823863E+02  0.97336860755E+00  0.26435250059E+02  0.00000000000E+00 0.  1.
</event>
<event>
 4    1  0.7181337E+003  0.2364408E+02  0.7546771E-02  0.1484565E+00
          2   -1    0    0  502    0  0.00000000000E+00  0.00000000000E+00  0.13493160725E+03  0.13493160725E+03  0.00000000000E+00 0.  1.
          1   -1    0    0  501    0 -0.00000000000E+00 -0.00000000000E+00 -0.17583838941E+03  0.17583838941E+03  0.00000000000E+00 0. -1.
          2    1    1    2  501    0 -0.19643716482E+02 -0.13159292104E+02  0.13309008180E+03  0.13517400800E+03  0.00000000000E+00 0.  1.
          1    1    1    2  502    0  0.19643716482E+02  0.13159292104E+02 -0.17399686396E+03  0.17559598866E+03  0.00000000000E+00 0. -1.
</event>
<event>
 4    1  0.7181337E+003  0.4095983E+02  0.7546771E-02  0.1342951E+00
          2   -1    0    0  502    0  0.00000000000E+00  0.00000000000E+00  0.48678361448E+02  0.48678361448E+02  0.00000000000E+00 0. -1.
          1   -1    0    0  501    0 -0.00000000000E+00 -0.00000000000E+00 -0.83441773525E+03  0.83441773525E+03  0.00000000000E+00 0. -1.
          2    1    1    2  501    0 -0.36259425098E+02 -0.19051564719E+02  0.39463250807E+02  0.56877554368E+02  0.00000000000E+00 0. -1.
          1    1    1    2  502    0  0.36259425098E+02  0.19051564719E+02 -0.82520262461E+03  0.82621854233E+03  0.00000000000E+00 0. -1.
</event>
<event>
 4    1  0.7181337E+003  0.2425715E+02  0.7546771E-02  0.1477288E+00
          2   -1    0    0  502    0  0.00000000000E+00  0.00000000000E+00  0.32437101892E+03  0.32437101892E+03  0.00000000000E+00 0.  1.
          1   -1    0    0  501    0 -0.00000000000E+00 -0.00000000000E+00 -0.18662297193E+01  0.18662297193E+01  0.00000000000E+00 0.  1.
          2    1    1    2  501    0 -0.23698288673E+02 -0.51768978046E+01  0.18854080243E+03  0.19009482722E+03  0.00000000000E+00 0.  1.
          1    1    1    2  502    0  0.23698288673E+02  0.51768978046E+01  0.13396398677E+03  0.13614242142E+03  0.00000000000E+00 0.  1.
</event>
<event>
 4    1  0.7181337E+003  0.3305846E+02  0.7546771E-02  0.1394752E+00
          2   -1    0    0  502    0  0.00000000000E+00  0.00000000000E+00  0.13241205007E+04  0.13241205007E+04  0.00000000000E+00 0. -1.
          1   -1    0    0  501    0 -0.00000000000E+00 -0.00000000000E+00 -0.14654240504E+01  0.14654240504E+01  0.00000000000E+00 0. -1.
          2    1    1    2  501    0 -0.69596888178E+01  0.32317558742E+02  0.10993653426E+04  0.10998622725E+04  0.00000000000E+00 0. -1.
          1    1    1    2  502    0  0.69596888178E+01 -0.32317558742E+02  0.22328973409E+03  0.22572365233E+03  0.00000000000E+00 0. -1.
</event>
<event>
 4    1  0.7181337E+003  0.2220448E+02  0.7546771E-02  0.1502737E+00
          2   -1    0    0  502    0  0.00000000000E+00  0.00000000000E+00  0.51886441766E+03  0.51886441766E+03  0.00000000000E+00 0. -1.
          1   -1    0    0  501    0 -0.00000000000E+00 -0.00000000000E+00 -0.17003803634E+03  0.17003803634E+03  0.00000000000E+00 0. -1.
          2    1    1    2  501    0  0.22202368719E+02  0.30618360205E+00  0.51790061749E+03  0.51837639657E+03  0.00000000000E+00 0. -1.
          1    1    1    2  502    0 -0.22202368719E+02 -0.30618360205E+00 -0.16907423617E+03  0.17052605743E+03  0.00000000000E+00 0. -1.
</event>
<event>
 4    1  0.7181337E+003  0.2256063E+02  0.7546771E-02  0.1498090E+00
          2   -1    0    0  502    0  0.00000000000E+00  0.00000000000E+00  0.54185578870E+02  0.54185578870E+02  0.00000000000E+00 0. -1.
          1   -1    0    0  501    0 -0.00000000000E+00 -0.00000000000E+00 -0.38255880820E+02  0.38255880820E+02  0.00000000000E+00 0. -1.
          2    1    1    2  501    0 -0.20274064368E+02  0.98966722477E+01  0.48112045199E+02  0.53138975346E+02  0.00000000000E+00 0. -1.
          1    1    1    2  502    0  0.20274064368E+02 -0.98966722477E+01 -0.32182347149E+02  0.39302484344E+02  0.00000000000E+00 0. -1.
</event>
<event>
 4    1  0.7181337E+003  0.2457292E+02  0.7546771E-02  0.1473638E+00
          2   -1    0    0  502    0  0.00000000000E+00  0.00000000000E+00  0.16858546913E+03  0.16858546913E+03  0.00000000000E+00 0.  1.
          1   -1    0    0  501    0 -0.00000000000E+00 -0.00000000000E+00 -0.10221888535E+02  0.10221888535E+02  0.00000000000E+00 0.  1.
          2    1    1    2  501    0 -0.15760217560E+02 -0.18853221936E+02  0.15123924009E+03  0.15322250546E+03  0.00000000000E+00 0.  1.
          1    1    1    2  502    0  0.15760217560E+02  0.18853221936E+02  0.71243405034E+01  0.25584852208E+02  0.00000000000E+00 0.  1.
</event>
<event>
 4    1  0.7181337E+003  0.2464661E+02  0.7546771E-02  0.1472796E+00
          2   -1    0    0  502    0  0.00000000000E+00  0.00000000000E+00  0.50448433832E+02  0.50448433832E+02  0.00000000000E+00 0.  1.
          1   -1    0    0  501    0 -0.00000000000E+00 -0.00000000000E+00 -0.16233204233E+02  0.16233204233E+02  0.00000000000E+00 0. -1.
          2    1    1    2  501    0  0.73189424324E+01 -0.23534833349E+02  0.34050582932E+02  0.42034479860E+02  0.00000000000E+00 0.  1.
          1    1    1    2  502    0 -0.73189424324E+01  0.23534833349E+02  0.16464666638E+00  0.24647158205E+02  0.00000000000E+00 0. -1.
</event>
<event>
 4    1  0.7181337E+003  0.2476020E+02  0.7546771E-02  0.1471504E+00
          2   -1    0    0  502    0  0.00000000000E+00  0.00000000000E+00  0.89019552510E+01  0.89019552510E+01  0.00000000000E+00 0. -1.
          1   -1    0    0  501    0 -0.00000000000E+00 -0.00000000000E+00 -0.10189487479E+04  0.10189487479E+04  0.00000000000E+00 0. -1.
          2    1    1    2  501    0 -0.17000479961E+02 -0.18001427229E+02 -0.87695006229E+01  0.26267315096E+02  0.00000000000E+00 0. -1.
          1    1    1    2  502    0  0.17000479961E+02  0.18001427229E+02 -0.10012772921E+04  0.10015833881E+04  0.00000000000E+00 0. -1.
</event>
<event>
 4    1  0.7181337E+003  0.2457018E+02  0.7546771E-02  0.1473670E+00
          2   -1    0    0  502    0  0.00000000000E+00  0.00000000000E+00  0.34585511475E+03  0.34585511475E+03  0.00000000000E+00 0.  1.
          1   -1    0    0  501    0 -0.00000000000E+00 -0.00000000000E+00 -0.20068213024E+03  0.20068213024E+03  0.00000000000E+00 0.  1.
          2    1    1    2  501    0  0.17802690128E+02 -0.16933934118E+02  0.34466408911E+03  0.34553875068E+03  0.00000000000E+00 0.  1.
          1    1    1    2  502    0 -0.17802690128E+02  0.16933934118E+02 -0.19949110460E+03  0.20099849431E+03  0.00000000000E+00 0.  1.
</event>
<event>
 4    1  0.7181337E+003  0.3424957E+02  0.7546771E-02  0.1385917E+00
          2   -1    0    0  502    0  0.00000000000E+00  0.00000000000E+00  0.66544045719E+02  0.66544045719E+02  0.00000000000E+00 0. -1.
          1   -1    0    0  501    0 -0.00000000000E+00 -0.00000000000E+00 -0.38330028930E+02  0.38330028930E+02  0.00000000000E+00 0. -1.
          2    1    1    2  501    0  0.28683355231E+02 -0.18716259282E+02  0.52643826166E+02  0.62804503519E+02  0.00000000000E+00 0. -1.
          1    1    1    2  502    0 -0.28683355231E+02  0.18716259282E+02 -0.24429809378E+02  0.42069571130E+02  0.00000000000E+00 0. -1.
</event>
<event>
 4    1  0.7181337E+003  0.2005745E+02  0.7546771E-02  0.1533159E+00
          2   -1    0    0  502    0  0.00000000000E+00  0.00000000000E+00  0.30464210072E+01  0.30464210072E+01  0.00000000000E+00 0. -1.
          1   -1    0    0  501    0 -0.00000000000E+00 -0.00000000000E+00 -0.13230738011E+03  0.13230738011E+03  0.00000000000E+00 0.  1.
          2    1    1    2  501    0  0.19902804212E+02  0.24857885485E+01 -0.67575436111E+02  0.70489292278E+02  0.00000000000E+00 0. -1.
          1    1    1    2  502    0 -0.19902804212E+02 -0.24857885485E+01 -0.61685522996E+02  0.64864508844E+02  0.00000000000E+00 0.  1.
</event>
<event>
 4    1  0.7181337E+003  0.2341837E+02  0.7546771E-02  0.1487310E+00
          2   -1    0    0  502    0  0.00000000000E+00  0.00000000000E+00  0.26701156630E+01  0.26701156630E+01  0.00000000000E+00 0.  1.
          1   -1    0    0  501    0 -0.00000000000E+00 -0.00000000000E+00 -0.33783015804E+03  0.33783015804E+03  0.00000000000E+00 0.  1.
          2    1    1    2  501    0  0.19873927527E+02  0.12387374573E+02 -0.60983006134E+02  0.65324934606E+02  0.00000000000E+00 0.  1.
          1    1    1    2  502    0 -0.19873927527E+02 -0.12387374573E+02 -0.27417703625E+03  0.27517533910E+03  0.00000000000E+00 0.  1.
</event>
<event>
 4    1  0.7181337E+003  0.2094952E+02  0.7546771E-02  0.1519987E+00
          2   -1    0    0  502    0  0.00000000000E+00  0.00000000000E+00  0.26595199222E+02  0.26595199222E+02  0.00000000000E+00 0. -1.
          1   -1    0    0  501    0 -0.00000000000E+00 -0.00000000000E+00 -0.13238149192E+03  0.13238149192E+03  0.00000000000E+00 0. -1.
          2    1    1    2  501    0 -0.11044484972E+02  0.17801737529E+02  0.21475951369E+02  0.30001649864E+02  0.00000000000E+00 0. -1.
          1    1    1    2  502    0  0.11044484972E+02 -0.17801737529E+02 -0.12726224406E+03  0.12897504127E+03  0.00000000000E+00 0. -1.
</event>
<event>
 4    1  0.7181337E+003  0.2201032E+02  0.7546771E-02  0.1505314E+00
          2   -1    0    0  502    0  0.00000000000E+00  0.00000000000E+00  0.15102849563E+04  0.15102849563E+04  0.00000000000E+00 0.  1.
          1   -1    0    0  501    0 -0.00000000000E+00 -0.00000000000E+00 -0.21391388173E+02  0.21391388173E+02  0.00000000000E+00 0. -1.
          2    1    1    2  501    0  0.76658233387E+01 -0.20632237748E+02  0.15045212865E+04  0.15046822773E+04  0.00000000000E+00 0.  1.
          1    1    1    2  502    0 -0.76658233387E+01  0.20632237748E+02 -0.15627718363E+02  0.26994067185E+02  0.00000000000E+00 0. -1.
</event>
<event>
 4    1  0.7181337E+003  0.2655693E+02  0.7546771E-02  0.1452110E+00
          2   -1    0    0  502    0  0.00000000000E+00  0.00000000000E+00  0.66664978299E+03  0.66664978299E+03  0.00000000000E+00 0. -1.
          1   -1    0    0  501    0 -0.00000000000E+00 -0.00000000000E+00 -0.66144919244E+01  0.66144919244E+01  0.00000000000E+00 0.  1.
          2    1    1    2  501    0  0.18538430965E+02 -0.19015712092E+02  0.63855680773E+03  0.63910880719E+03  0.00000000000E+00 0. -1.
          1    1    1    2  502    0 -0.18538430965E+02  0.19015712092E+02  0.21478483332E+02  0.34155467721E+02  0.00000000000E+00 0.  1.
</event>
<event>
 4    1  0.7181337E+003  0.2246932E+02  0.7546771E-02  0.1499272E+00
          2   -1    0    0  502    0  0.00000000000E+00  0.00000000000E+00  0.13917159140E+04  0.13917159140E+04  0.00000000000E+00 0. -1.
          1   -1    0    0  501    0 -0.00000000000E+00 -0.00000000000E+00 -0.66524162398E+00  0.66524162398E+00  0.00000000000E+00 0.  1.
          2    1    1    2  501    0  0.20260835656E+02 -0.97143671118E+01  0.11649673841E+04  0.11651840526E+04  0.00000000000E+00 0. -1.
          1    1    1    2  502    0 -0.20260835656E+02  0.97143671118E+01  0.22608328820E+03  0.22719710296E+03  0.00000000000E+00 0.  1.
</event>
<event>
 4    1  0.7181337E+003  0.2239394E+02  0.7546771E-02  0.1500252E+00
          2   -1    0    0  502    0  0.00000000000E+00  0.00000000000E+00  0.36891929453E+02  0.36891929453E+02  0.00000000000E+00 0.  1.
          1   -1    0    0  501    0 -0.00000000000E+00 -0.00000000000E+00 -0.98305040920E+02  0.98305040920E+02  0.00000000000E+00 0.  1.
          2    1    1    2  501    0 -0.10497921491E+02 -0.19780849210E+02  0.32044423299E+02  0.39093905096E+02  0.00000000000E+00 0.  1.
          1    1    1    2  502    0  0.10497921491E+02  0.19780849210E+02 -0.93457534766E+02  0.96103065277E+02  0.00000000000E+00 0.  1.
</event>
<event>
 4    1  0.7181337E+003  0.2549149E+02  0.7546771E-02  0.1463380E+00
          2   -1    0    0  502    0  0.00000000000E+00  0.00000000000E+00  0.20671559074E+03  0.20671559074E+03  0.00000000000E+00 0. -1.
          1   -1    0    0  501    0 -0.00000000000E+00 -0.00000000000E+00 -0.79800248142E+02  0.79800248142E+02  0.00000000000E+00 0.  1.
          2    1    1    2  501    0  0.15486997284E+01 -0.25444401330E+02  0.20386560183E+03  0.20545315680E+03  0.00000000000E+00 0. -1.
          1    1    1    2  502    0 -0.15486997284E+01  0.25444401330E+02 -0.76950259233E+02  0.81062682080E+02  0.00000000000E+00 0.  1.
</event>
<event>
 4    1  0.7181337E+003  0.3514607E+02  0.7546771E-02  0.1379539E+00
          2   -1    0    0  502    0  0.00000000000E+00  0.00000000000E+00  0.30766981423E+03  0.30766981423E+03  0.00000000000E+00 0. -1.
          1   -1    0    0  501    0 -0.00000000000E+00 -0.00000000000E+00 -0.76674909610E+02  0.76674909610E+02  0.00000000000E+00 0. -1.
          2    1    1    2  501    0 -0.25228453734E+02  0.24469804291E+02  0.30257091519E+03  0.30460532648E+03  0.00000000000E+00 0. -1.
          1    1    1    2  502    0  0.25228453734E+02 -0.24469804291E+02 -0.71576010579E+02  0.79739397353E+02  0.00000000000E+00 0. -1.
</event>
<event>
 4    1  0.7181337E+003  0.2402724E+02  0.7546771E-02  0.1479987E+00
          2   -1    0    0  502    0  0.00000000000E+00  0.00000000000E+00  0.21957647056E+01  0.21957647056E+01  0.00000000000E+00 0. -1.
          1   -1    0    0  501    0 -0.00000000000E+00 -0.00000000000E+00 -0.26892160158E+03  0.26892160158E+03  0.00000000000E+00 0.  1.
          2    1    1    2  501    0  0.16332571883E+02  0.17622579479E+02 -0.11311011907E+03  0.11563393640E+03  0.00000000000E+00 0. -1.
          1    1    1    2  502    0 -0.16332571883E+02 -0.17622579479E+02 -0.15361571781E+03  0.15548342989E+03  0.00000000000E+00 0.  1.
</event>
<event>
 4    1  0.7181337E+003  0.4464682E+02  0.7546771E-02  0.1323215E+00
          2   -1    0    0  502    0  0.00000000000E+00  0.00000000000E+00  0.13124615407E+03  0.13124615407E+03  0.00000000000E+00 0. -1.
          1   -1    0    0  501    0 -0.00000000000E+00 -0.00000000000E+00 -0.20152136144E+02  0.20152136144E+02  0.00000000000E+00 0. -1.
          2    1    1    2  501    0 -0.26315018592E+02 -0.36067419085E+02  0.93118764930E+02  0.10326879153E+03  0.00000000000E+00 0. -1.
          1    1    1    2  502    0  0.26315018592E+02  0.36067419085E+02  0.17975252997E+02  0.48129498680E+02  0.00000000000E+00 0. -1.
</event>
<event>
 4    1  0.7181337E+003  0.3464130E+02  0.7546771E-02  0.1383103E+00
          2   -1    0    0  502    0  0.00000000000E+00  0.00000000000E+00  0.22419567674E+03  0.22419567674E+03  0.00000000000E+00 0.  1.
          1   -1    0    0  501    0 -0.00000000000E+00 -0.00000000000E+00 -0.23312416220E+03  0.23312416220E+03  0.00000000000E+00 0.  1.
          2    1    1    2  501    0  0.32725147150E+02  0.11361542262E+02  0.22155540529E+03  0.22424722409E+03  0.00000000000E+00 0.  1.
          1    1    1    2  502    0 -0.32725147150E+02 -0.11361542262E+02 -0.23048389075E+03  0.23307261485E+03  0.00000000000E+00 0.  1.
</event>
<event>
 4    1  0.7181337E+003  0.2222618E+02  0.7546771E-02  0.1502451E+00
          2   -1    0    0  502    0  0.00000000000E+00  0.00000000000E+00  0.84363890539E+03  0.84363890539E+03  0.00000000000E+00 0.  1.
          1   -1    0    0  501    0 -0.00000000000E+00 -0.00000000000E+00 -0.78141326598E+02  0.78141326598E+02  0.00000000000E+00 0. -1.
          2    1    1    2  501    0  0.14335932240E+01 -0.22179898284E+02  0.84190878796E+03  0.84220211964E+03  0.00000000000E+00 0.  1.
          1    1    1    2  502    0 -0.14335932240E+01  0.22179898284E+02 -0.76411209172E+02  0.79578112346E+02  0.00000000000E+00 0. -1.
</event>
<event>
 4    1  0.7181337E+003  0.4199708E+02  0.7546771E-02  0.1337164E+00
          2   -1    0    0  502    0  0.00000000000E+00  0.00000000000E+00  0.92867479578E+02  0.92867479578E+02  0.00000000000E+00 0. -1.
          1   -1    0    0  501    0 -0.00000000000E+00 -0.00000000000E+00 -0.32906694076E+02  0.32906694076E+02  0.00000000000E+00 0.  1.
          2    1    1    2  501    0  0.22723263418E+02 -0.35318658656E+02  0.70873831388E+02  0.82382366592E+02  0.00000000000E+00 0. -1.
          1    1    1    2  502    0 -0.22723263418E+02  0.35318658656E+02 -0.10913045886E+02  0.43391807063E+02  0.00000000000E+00 0.  1.
</event>
<event>
 4    1  0.7181337E+003  0.2231966E+02  0.7546771E-02  0.1501223E+00
          2   -1    0    0  502    0  0.00000000000E+00  0.00000000000E+00  0.41228313975E+02  0.41228313975E+02  0.00000000000E+00 0.  1.
          1   -1    0    0  501    0 -0.00000000000E+00 -0.00000000000E+00 -0.10987990214E+03  0.10987990214E+03  0.00000000000E+00 0. -1.
          2    1    1    2  501    0  0.15550757970E+02 -0.16010663974E+02  0.36953139274E+02  0.43170614271E+02  0.00000000000E+00 0.  1.
          1    1    1    2  502    0 -0.15550757970E+02  0.16010663974E+02 -0.10560472744E+03  0.10793760185E+03  0.00000000000E+00 0. -1.
</event>
<event>
 4    1  0.7181337E+003  0.2365955E+02  0.7546771E-02  0.1484378E+00
          2   -1    0    0  502    0  0.00000000000E+00  0.00000000000E+00  0.11304690980E+04  0.11304690980E+04  0.00000000000E+00 0. -1.
          1   -1    0    0  501    0 -0.00000000000E+00 -0.00000000000E+00 -0.16125898023E+02  0.16125898023E+02  0.00000000000E+00 0. -1.
          2    1    1    2  501    0  0.18675659680E+02 -0.14525637845E+02  0.11215984883E+04  0.11218480037E+04  0.00000000000E+00 0. -1.
          1    1    1    2  502    0 -0.18675659680E+02  0.14525637845E+02 -0.72552883509E+01  0.24746992309E+02  0.00000000000E+00 0. -1.
</event>
<event>
 4    1  0.7181337E+003  0.2072322E+02  0.7546771E-02  0.1523254E+00
          2   -1    0    0  502    0  0.00000000000E+00  0.00000000000E+00  0.13590735973E+04  0.13590735973E+04  0.00000000000E+00 0. -1.
          1   -1    0    0  501    0 -0.00000000000E+00 -0.00000000000E+00 -0.68668581150E+01  0.68668581150E+01  0.00000000000E+00 0.  1.
          2    1    1    2  501    0 -0.93075873532E+01  0.18515415880E+02  0.13431745967E+04  0.13433344516E+04  0.00000000000E+00 0. -1.
          1    1    1    2  502    0  0.93075873532E+01 -0.18515415880E+02  0.90321424792E+01  0.22606003745E+02  0.00000000000E+00 0.  1.
</event>
<event>
 4    1  0.7181337E+003  0.2056188E+02  0.7546771E-02  0.1525613E+00
          2   -1    0    0  502    0  0.00000000000E+00  0.00000000000E+00  0.50783632320E+01  0.50783632320E+01  0.00000000000E+00 0. -1.
          1   -1    0    0  501    0 -0.00000000000E+00 -0.00000000000E+00 -0.38800580937E+03  0.38800580937E+03  0.00000000000E+00 0. -1.
          2    1    1    2  501    0  0.51553355392E+01  0.19905110167E+02 -0.17279010130E+02  0.26858054404E+02  0.00000000000E+00 0. -1.
          1    1    1    2  502    0 -0.51553355392E+01 -0.19905110167E+02 -0.36564843601E+03  0.36622611820E+03  0.00000000000E+00 0. -1.
</event>
<event>
 4    1  0.7181337E+003  0.3497319E+02  0.7546771E-02  0.1380752E+00
          2   -1    0    0  502    0  0.00000000000E+00  0.00000000000E+00  0.25706415010E+04  0.25706415010E+04  0.00000000000E+00 0. -1.
          1   -1    0    0  501    0 -0.00000000000E+00 -0.00000000000E+00 -0.21116189917E+01  0.21116189917E+01  0.00000000000E+00 0.  1.
          2    1    1    2  501    0 -0.27245515549E+01  0.34866905081E+02  0.24164757290E+04  0.24167287959E+04  0.00000000000E+00 0. -1.
          1    1    1    2  502    0  0.27245515549E+01 -0.34866905081E+02  0.15205415307E+03  0.15602432412E+03  0.00000000000E+00 0.  1.
</event>
<event>
 4    1  0.7181337E+003  0.3376336E+02  0.7546771E-02  0.1389472E+00
          2   -1    0    0  502    0  0.00000000000E+00  0.00000000000E+00  0.50451186048E+01  0.50451186048E+01  0.00000000000E+00 0. -1.
          1   -1    0    0  501    0 -0.00000000000E+00 -0.00000000000E+00 -0.55492077480E+03  0.55492077480E+03  0.00000000000E+00 0. -1.
          2    1    1    2  501    0 -0.30677196268E+02 -0.14102261220E+02 -0.59365911333E+02  0.68295501834E+02  0.00000000000E+00 0. -1.
          1    1    1    2  502    0  0.30677196268E+02  0.14102261220E+02 -0.49050974486E+03  0.49167039157E+03  0.00000000000E+00 0. -1.
</event>
<event>
 4    1  0.7181337E+003  0.2445328E+02  0.7546771E-02  0.1475013E+00
          2   -1    0    0  502    0  0.00000000000E+00  0.00000000000E+00  0.67574622189E+02  0.67574622189E+02  0.00000000000E+00 0. -1.
          1   -1    0    0  501    0 -0.00000000000E+00 -0.00000000000E+00 -0.17796602093E+02  0.17796602093E+02  0.00000000000E+00 0.  1.
          2    1    1    2  501    0 -0.13363369793E+02 -0.20478854699E+02  0.55155912998E+02  0.60333555180E+02  0.00000000000E+00 0. -1.
          1    1    1    2  502    0  0.13363369793E+02  0.20478854699E+02 -0.53778929027E+01  0.25037669102E+02  0.00000000000E+00 0.  1.
</event>
<event>
 4    1  0.7181337E+003  0.2043391E+02  0.7546771E-02  0.1527503E+00
          2   -1    0    0  502    0  0.00000000000E+00  0.00000000000E+00  0.14372426972E+01  0.14372426972E+01  0.00000000000E+00 0.  1.
          1   -1    0    0  501    0 -0.00000000000E+00 -0.00000000000E+00 -0.13568910608E+04  0.13568910608E+04  0.00000000000E+00 0. -1.
          2    1    1    2  501    0  0.77803363702E+00  0.20419090418E+02 -0.75643185722E+02  0.78354554022E+02  0.00000000000E+00 0.  1.
          1    1    1    2  502    0 -0.77803363702E+00 -0.20419090418E+02 -0.12798106324E+04  0.12799737495E+04  0.00000000000E+00 0. -1.
</event>
<event>
 4    1  0.7181337E+003  0.3468170E+02  0.7546771E-02  0.1382815E+00
          2   -1    0    0  502    0  0.00000000000E+00  0.00000000000E+00  0.24470080631E+03  0.24470080631E+03  0.00000000000E+00 0.  1.
          1   -1    0    0  501    0 -0.00000000000E+00 -0.00000000000E+00 -0.20896418961E+03  0.20896418961E+03  0.00000000000E+00 0.  1.
          2    1    1    2  501    0 -0.32546894197E+02  0.11979975912E+02  0.24201703494E+03  0.24448939721E+03  0.00000000000E+00 0.  1.
          1    1    1    2  502    0  0.32546894197E+02 -0.11979975912E+02 -0.20628041825E+03  0.20917559871E+03  0.00000000000E+00 0.  1.
</event>
<event>
 4    1  0.7181337E+003  0.2139013E+02  0.7546771E-02  0.1513767E+00
          2   -1    0    0  502    0  0.00000000000E+00  0.00000000000E+00  0.16554199945E+03  0.16554199945E+03  0.00000000000E+00 0. -1.
          1   -1    0    0  501    0 -0.00000000000E+00 -0.00000000000E+00 -0.49895853485E+03  0.49895853485E+03  0.00000000000E+00 0.  1.
          2    1    1    2  501    0  0.21259007434E+02  0.23648255916E+01  0.16462050581E+03  0.16600436359E+03  0.00000000000E+00 0. -1.
          1    1    1    2  502    0 -0.21259007434E+02 -0.23648255916E+01 -0.49803704121E+03  0.49849617071E+03  0.00000000000E+00 0.  1.
</event>
<event>
 4    1  0.7181337E+003  0.2387140E+02  0.7546771E-02  0.1481836E+00
          2   -1    0    0  502    0  0.00000000000E+00  0.00000000000E+00  0.92705430669E+00  0.92705430669E+00  0.00000000000E+00 0.  1.
          1   -1    0    0  501    0 -0.00000000000E+00 -0.00000000000E+00 -0.67451634769E+03  0.67451634769E+03  0.00000000000E+00 0.  1.
          2    1    1    2  501    0  0.42675888592E+01  0.23486824935E+02 -0.43738105956E+03  0.43803200171E+03  0.00000000000E+00 0.  1.
          1    1    1    2  502    0 -0.42675888592E+01 -0.23486824935E+02 -0.23620823383E+03  0.23741140029E+03  0.00000000000E+00 0.  1.
</event>
<event>
 4    1  0.7181337E+003  0.2009620E+02  0.7546771E-02  0.1532570E+00
          2   -1    0    0  502    0  0.00000000000E+00  0.00000000000E+00  0.11475651013E+04  0.11475651013E+04  0.00000000000E+00 0.  1.
          1   -1    0    0  501    0 -0.00000000000E+00 -0.00000000000E+00 -0.29987342998E+01  0.29987342998E+01  0.00000000000E+00 0.  1.
          2    1    1    2  501    0  0.35397669150E+01  0.19781995781E+02  0.11127549639E+04  0.11129364164E+04  0.00000000000E+00 0.  1.
          1    1    1    2  502    0 -0.35397669150E+01 -0.19781995781E+02  0.31811403088E+02  0.37627419169E+02  0.00000000000E+00 0.  1.
</event>
<event>
 4    1  0.7181337E+003  0.2712729E+02  0.7546771E-02  0.1446334E+00
          2   -1    0    0  502    0  0.00000000000E+00  0.00000000000E+00  0.10044490205E+04  0.10044490205E+04  0.00000000000E+00 0.  1.
          1   -1    0    0  501    0 -0.00000000000E+00 -0.00000000000E+00 -0.10500636482E+02  0.10500636482E+02  0.00000000000E+00 0.  1.
          2    1    1    2  501    0 -0.25713673523E+02 -0.86427258564E+01  0.98642568535E+03  0.98679862304E+03  0.00000000000E+00 0.  1.
          1    1    1    2  502    0  0.25713673523E+02  0.86427258564E+01  0.75226986578E+01  0.28151033930E+02  0.00000000000E+00 0.  1.
</event>
<event>
 4    1  0.7181337E+003  0.2017321E+02  0.7546771E-02  0.1531404E+00
          2   -1    0    0  502    0  0.00000000000E+00  0.00000000000E+00  0.31410351055E+02  0.31410351055E+02  0.00000000000E+00 0. -1.
          1   -1    0    0  501    0 -0.00000000000E+00 -0.00000000000E+00 -0.23257622735E+02  0.23257622735E+02  0.00000000000E+00 0. -1.
          2    1    1    2  501    0 -0.19338815729E+02 -0.57418149634E+01  0.22267897217E+02  0.30046921296E+02  0.00000000000E+00 0. -1.
          1    1    1    2  502    0  0.19338815729E+02  0.57418149634E+01 -0.14115168898E+02  0.24621052494E+02  0.00000000000E+00 0. -1.
</event>
<event>
 4    1  0.7181337E+003  0.2584289E+02  0.7546771E-02  0.1459591E+00
          2   -1    0    0  502    0  0.00000000000E+00  0.00000000000E+00  0.14303889592E+04  0.14303889592E+04  0.00000000000E+00 0. -1.
          1   -1    0    0  501    0 -0.00000000000E+00 -0.00000000000E+00 -0.73019590522E+00  0.73019590522E+00  0.00000000000E+00 0. -1.
          2    1    1    2  501    0 -0.15448267429E+02  0.20717290619E+02  0.11445086617E+04  0.11448003895E+04  0.00000000000E+00 0. -1.
          1    1    1    2  502    0  0.15448267429E+02 -0.20717290619E+02  0.28515010161E+03  0.28631876561E+03  0.00000000000E+00 0. -1.
</event>
<event>
 4    1  0.7181337E+003  0.2797769E+02  0.7546771E-02  0.1438027E+00
          2   -1    0    0  502    0  0.00000000000E+00  0.00000000000E+00  0.38417440447E+03  0.38417440447E+03  0.00000000000E+00 0.  1.
          1   -1    0    0  501    0 -0.00000000000E+00 -0.00000000000E+00 -0.22497486254E+01  0.22497486254E+01  0.00000000000E+00 0.  1.
          2    1    1    2  501    0 -0.10386580407E+02 -0.25978258771E+02  0.25030967977E+03  0.25186839176E+03  0.00000000000E+00 0.  1.
          1    1    1    2  502    0  0.10386580407E+02  0.25978258771E+02  0.13161497607E+03  0.13455576133E+03  0.00000000000E+00 0.  1.
</event>
<event>
 4    1  0.7181337E+003  0.2821400E+02  0.7546771E-02  0.1435780E+00
          2   -1    0    0  502    0  0.00000000000E+00  0.00000000000E+00  0.60650215081E+02  0.60650215081E+02  0.00000000000E+00 0.  1.
          1   -1    0    0  501    0 -0.00000000000E+00 -0.00000000000E+00 -0.31105824230E+02  0.31105824230E+02  0.00000000000E+00 0. -1.
          2    1    1    2  501    0 -0.39844332245E+01 -0.27931238656E+02  0.49653237800E+02  0.57109314696E+02  0.00000000000E+00 0.  1.
          1    1    1    2  502    0  0.39844332245E+01  0.27931238656E+02 -0.20108846949E+02  0.34646724616E+02  0.00000000000E+00 0. -1.
</event>
<event>
 4    1  0.7181337E+003  0.2400696E+02  0.7546771E-02  0.1480226E+00
          2   -1    0    0  502    0  0.00000000000E+00  0.00000000000E+00  0.39897210063E+03  0.39897210063E+03  0.00000000000E+00 0.  1.
          1   -1    0    0  501    0 -0.00000000000E+00 -0.00000000000E+00 -0.26820654321E+03  0.26820654321E+03  0.00000000000E+00 0.  1.
          2    1    1    2  501    0 -0.19114749967E+02 -0.14524486057E+02  0.39807253942E+03  0.39879578860E+03  0.00000000000E+00 0.  1.
          1    1    1    2  502    0  0.19114749967E+02  0.14524486057E+02 -0.26730698200E+03  0.26838285524E+03  0.00000000000E+00 0.  1.
</event>
<event>
 4    1  0.7181337E+003  0.5562745E+02  0.7546771E-02  0.1275459E+00
          2   -1    0    0  502    0  0.00000000000E+00  0.00000000000E+00  0.19722067272E+04  0.19722067272E+04  0.00000000000E+00 0. -1.
          1   -1    0    0  501    0 -0.00000000000E+00 -0.00000000000E+00 -0.48099740583E+03  0.48099740583E+03  0.00000000000E+00 0. -1.
          2    1    1    2  501    0 -0.25875842551E+02  0.49242806951E+02  0.19702045088E+04  0.19709896549E+04  0.00000000000E+00 0. -1.
          1    1    1    2  502    0  0.25875842551E+02 -0.49242806951E+02 -0.47899518746E+03  0.48221447808E+03  0.00000000000E+00 0. -1.
</event>
<event>
 4    1  0.7181337E+003  0.5155576E+02  0.7546771E-02  0.1291565E+00
          2   -1    0    0  502    0  0.00000000000E+00  0.00000000000E+00  0.15936035533E+03  0.15936035533E+03  0.00000000000E+00 0. -1.
          1   -1    0    0  501    0 -0.00000000000E+00 -0.00000000000E+00 -0.27133837101E+02  0.27133837101E+02  0.00000000000E+00 0. -1.
          2    1    1    2  501    0  0.47336938479E+02 -0.20425735930E+02  0.12399413279E+03  0.13428529852E+03  0.00000000000E+00 0. -1.
          1    1    1    2  502    0 -0.47336938479E+02  0.20425735930E+02  0.82323854356E+01  0.52208893906E+02  0.00000000000E+00 0. -1.
</event>
<event>
 4    1  0.7181337E+003  0.2826238E+02  0.7546771E-02  0.1435323E+00
          2   -1    0    0  502    0  0.00000000000E+00  0.00000000000E+00  0.15128103471E+03  0.15128103471E+03  0.00000000000E+00 0.  1.
          1   -1    0    0  501    0 -0.00000000000E+00 -0.00000000000E+00 -0.13757923177E+04  0.13757923177E+04  0.00000000000E+00 0. -1.
          2    1    1    2  501    0 -0.41904956188E+01  0.27949990037E+02  0.14981448318E+03  0.15245701548E+03  0.00000000000E+00 0.  1.
          1    1    1    2  502    0  0.41904956188E+01 -0.27949990037E+02 -0.13743257661E+04  0.13746163369E+04  0.00000000000E+00 0. -1.
</event>
<event>
 4    1  0.7181337E+003  0.3063975E+02  0.7546771E-02  0.1414117E+00
          2   -1    0    0  502    0  0.00000000000E+00  0.00000000000E+00  0.45077441729E+01  0.45077441729E+01  0.00000000000E+00 0. -1.
          1   -1    0    0  501    0 -0.00000000000E+00 -0.00000000000E+00 -0.12928312210E+04  0.12928312210E+04  0.00000000000E+00 0.  1.
          2    1    1    2  501    0  0.16888416054E+02 -0.25565121408E+02 -0.50032274641E+02  0.58668752630E+02  0.00000000000E+00 0. -1.
          1    1    1    2  502    0 -0.16888416054E+02  0.25565121408E+02 -0.12382912022E+04  0.12386702125E+04  0.00000000000E+00 0.  1.
</event>
<event>
 4    1  0.7181337E+003  0.2016507E+02  0.7546771E-02  0.1531527E+00
          2   -1    0    0  502    0  0.00000000000E+00  0.00000000000E+00  0.15173865634E+02  0.15173865634E+02  0.00000000000E+00 0.  1.
          1   -1    0    0  501    0 -0.00000000000E+00 -0.00000000000E+00 -0.42522297507E+02  0.42522297507E+02  0.00000000000E+00 0. -1.
          2    1    1    2  501    0 -0.15424956469E+02  0.12988493137E+02  0.38683576273E+01  0.20532764713E+02  0.00000000000E+00 0.  1.
          1    1    1    2  502    0  0.15424956469E+02 -0.12988493137E+02 -0.31216789500E+02  0.37163398428E+02  0.00000000000E+00 0. -1.
</event>
<event>
 4    1  0.7181337E+003  0.4388694E+02  0.7546771E-02  0.1327100E+00
          2   -1    0    0  502    0  0.00000000000E+00  0.00000000000E+00  0.51506759703E+03  0.51506759703E+03  0.00000000000E+00 0. -1.
          1   -1    0    0  501    0 -0.00000000000E+00 -0.00000000000E+00 -0.42459123100E+01  0.42459123100E+01  0.00000000000E+00 0. -1.
          2    1    1    2  501    0  0.43736090558E+02  0.36356926671E+01  0.34509017775E+03  0.34786965182E+03  0.00000000000E+00 0. -1.
          1    1    1    2  502    0 -0.43736090558E+02 -0.36356926671E+01  0.16573150696E+03  0.17144385751E+03  0.00000000000E+00 0. -1.
</event>
<event>
 4    1  0.7181337E+003  0.2481019E+02  0.7546771E-02  0.1470938E+00
          2   -1    0    0  502    0  0.00000000000E+00  0.00000000000E+00  0.61042734579E+03  0.61042734579E+03  0.00000000000E+00 0. -1.
          1   -1    0    0  501    0 -0.00000000000E+00 -0.00000000000E+00 -0.44851971440E+01  0.44851971440E+01  0.00000000000E+00 0.  1.
          2    1    1    2  501    0 -0.11545592431E+02 -0.21960069016E+02  0.57366795171E+03  0.57420420074E+03  0.00000000000E+00 0. -1.
          1    1    1    2  502    0  0.11545592431E+02  0.21960069016E+02  0.32274196934E+02  0.40708342185E+02  0.00000000000E+00 0.  1.
</event>
<event>
 4    1  0.7181337E+003  0.3723862E+02  0.7546771E-02  0.1365474E+00
          2   -1    0    0  502    0  0.00000000000E+00  0.00000000000E+00  0.95679499814E+01  0.95679499814E+01  0.00000000000E+00 0.  1.
          1   -1    0    0  501    0 -0.00000000000E+00 -0.00000000000E+00 -0.10812734370E+04  0.10812734370E+04  0.00000000000E+00 0. -1.
          2    1    1    2  501    0 -0.34280859072E+02 -0.14544333378E+02 -0.28300612679E+02  0.46772209806E+02  0.00000000000E+00 0.  1.
          1    1    1    2  502    0  0.34280859072E+02  0.14544333378E+02 -0.10434048743E+04  0.10440691771E+04  0.00000000000E+00 0. -1.
</event>
<event>
 4    1  0.7181337E+003  0.2828211E+02  0.7546771E-02  0.1435137E+00
          2   -1    0    0  502    0  0.00000000000E+00  0.00000000000E+00  0.18162152993E+02  0.18162152993E+02  0.00000000000E+00 0.  1.
          1   -1    0    0  501    0 -0.00000000000E+00 -0.00000000000E+00 -0.15773058988E+03  0.15773058988E+03  0.00000000000E+00 0. -1.
          2    1    1    2  501    0  0.28148198491E+02 -0.27489333227E+01  0.48813691481E+01  0.28700269641E+02  0.00000000000E+00 0.  1.
          1    1    1    2  502    0 -0.28148198491E+02  0.27489333227E+01 -0.14444980603E+03  0.14719247323E+03  0.00000000000E+00 0. -1.
</event>
<event>
 4    1  0.7181337E+003  0.3010730E+02  0.7546771E-02  0.1418666E+00
          2   -1    0    0  502    0  0.00000000000E+00  0.00000000000E+00  0.11266971936E+03  0.11266971936E+03  0.00000000000E+00 0. -1.
          1   -1    0    0  501    0 -0.00000000000E+00 -0.00000000000E+00 -0.14557195677E+02  0.14557195677E+02  0.00000000000E+00 0. -1.
          2    1    1    2  501    0 -0.35139379742E+01 -0.29901534695E+02  0.91603116134E+02  0.96423961870E+02  0.00000000000E+00 0. -1.
          1    1    1    2  502    0  0.35139379742E+01  0.29901534695E+02  0.65094075498E+01  0.30802953168E+02  0.00000000000E+00 0. -1.
</event>
<event>
 4    1  0.7181337E+003  0.2022334E+02  0.7546771E-02  0.1530648E+00
          2   -1    0    0  502    0  0.00000000000E+00  0.00000000000E+00  0.13272097591E+03  0.13272097591E+03  0.00000000000E+00 0.  1.
          1   -1    0    0  501    0 -0.00000000000E+00 -0.00000000000E+00 -0.23365332294E+03  0.23365332294E+03  0.00000000000E+00 0. -1.
          2    1    1    2  501    0 -0.88015801977E+01  0.18207575676E+02  0.13150898754E+03  0.13305486623E+03  0.00000000000E+00 0.  1.
          1    1    1    2  502    0  0.88015801977E+01 -0.18207575676E+02 -0.23244133456E+03  0.23331943262E+03  0.00000000000E+00 0. -1.
</event>
<event>
 4    1  0.7181337E+003  0.2818602E+02  0.7546771E-02  0.1436045E+00
          2   -1    0    0  502    0  0.00000000000E+00  0.00000000000E+00  0.24441322867E+01  0.24441322867E+01  0.00000000000E+00 0.  1.
          1   -1    0    0  501    0 -0.00000000000E+00 -0.00000000000E+00 -0.41128502178E+03  0.41128502178E+03  0.00000000000E+00 0.  1.
          2    1    1    2  501    0 -0.17232255905E+02  0.22304726546E+02 -0.10969412463E+03  0.11325746090E+03  0.00000000000E+00 0.  1.
          1    1    1    2  502    0  0.17232255905E+02 -0.22304726546E+02 -0.29914676486E+03  0.30047169317E+03  0.00000000000E+00 0.  1.
</event>
<event>
 4    1  0.7181337E+003  0.2330768E+02  0.7546771E-02  0.1488670E+00
          2   -1    0    0  502    0  0.00000000000E+00  0.00000000000E+00  0.12161247759E+03  0.12161247759E+03  0.00000000000E+00 0. -1.
          1   -1    0    0  501    0 -0.00000000000E+00 -0.00000000000E+00 -0.34888608329E+02  0.34888608329E+02  0.00000000000E+00 0.  1.
          2    1    1    2  501    0  0.14641187318E+02 -0.18135146476E+02  0.11643146740E+03  0.11874146077E+03  0.00000000000E+00 0. -1.
          1    1    1    2  502    0 -0.14641187318E+02  0.18135146476E+02 -0.29707598145E+02  0.37759625148E+02  0.00000000000E+00 0.  1.
</event>
<event>
 4    1  0.7181337E+003  0.2870670E+02  0.7546771E-02  0.1431178E+00
          2   -1    0    0  502    0  0.00000000000E+00  0.00000000000E+00  0.11236485529E+04  0.11236485529E+04  0.00000000000E+00 0. -1.
          1   -1    0    0  501    0 -0.00000000000E+00 -0.00000000000E+00 -0.16360519271E+01  0.16360519271E+01  0.00000000000E+00 0.  1.
          2    1    1    2  501    0 -0.44151846671E+01 -0.28365132278E+02  0.97892896869E+03  0.97934978446E+03  0.00000000000E+00 0. -1.
          1    1    1    2  502    0  0.44151846671E+01  0.28365132278E+02  0.14308353233E+03  0.14593482041E+03  0.00000000000E+00 0.  1.
</event>
<event>
 4    1  0.7181337E+003  0.3380016E+02  0.7546771E-02  0.1389200E+00
          2   -1    0    0  502    0  0.00000000000E+00  0.00000000000E+00  0.33534180950E+03  0.33534180950E+03  0.00000000000E+00 0.  1.
          1   -1    0    0  501    0 -0.00000000000E+00 -0.00000000000E+00 -0.16471138411E+02  0.16471138411E+02  0.00000000000E+00 0. -1.
          2    1    1    2  501    0 -0.30112976627E+02 -0.15351207046E+02  0.31609720592E+03  0.31789918922E+03  0.00000000000E+00 0.  1.
          1    1    1    2  502    0  0.30112976627E+02  0.15351207046E+02  0.27734651678E+01  0.33913758685E+02  0.00000000000E+00 0. -1.
</event>
<event>
 4    1  0.7181337E+003  0.2100286E+02  0.7546771E-02  0.1519224E+00
          2   -1    0    0  502    0  0.00000000000E+00  0.00000000000E+00  0.14635364751E+04  0.14635364751E+04  0.00000000000E+00 0.  1.
          1   -1    0    0  501    0 -0.00000000000E+00 -0.00000000000E+00 -0.86525547118E+01  0.86525547118E+01  0.00000000000E+00 0.  1.
          2    1    1    2  501    0 -0.17488489612E+02 -0.11630690957E+02  0.14506021089E+04  0.14507541482E+04  0.00000000000E+00 0.  1.
          1    1    1    2  502    0  0.17488489612E+02  0.11630690957E+02  0.42818115447E+01  0.21434881645E+02  0.00000000000E+00 0.  1.
</event>
<event>
 4    1  0.7181337E+003  0.4055611E+02  0.7546771E-02  0.1345258E+00
          2   -1    0    0  502    0  0.00000000000E+00  0.00000000000E+00  0.22437132944E+03  0.22437132944E+03  0.00000000000E+00 0. -1.
          1   -1    0    0  501    0 -0.00000000000E+00 -0.00000000000E+00 -0.12451661966E+02  0.12451661966E+02  0.00000000000E+00 0. -1.
          2    1    1    2  501    0  0.79566600183E+01 -0.39767944102E+02  0.18189731474E+03  0.18636370603E+03  0.00000000000E+00 0. -1.
          1    1    1    2  502    0 -0.79566600183E+01  0.39767944102E+02  0.30022352735E+02  0.50459285374E+02  0.00000000000E+00 0. -1.
</event>
<event>
 4    1  0.7181337E+003  0.2479486E+02  0.7546771E-02  0.1471111E+00
          2   -1    0    0  502    0  0.00000000000E+00  0.00000000000E+00  0.26228939884E+02  0.26228939884E+02  0.00000000000E+00 0.  1.
          1   -1    0    0  501    0 -0.00000000000E+00 -0.00000000000E+00 -0.28494493936E+02  0.28494493936E+02  0.00000000000E+00 0.  1.
          2    1    1    2  501    0  0.18992862511E+02 -0.15939137640E+02  0.10392112893E+02  0.26884585648E+02  0.00000000000E+00 0.  1.
          1    1    1    2  502    0 -0.18992862511E+02  0.15939137640E+02 -0.12657666945E+02  0.27838848172E+02  0.00000000000E+00 0.  1.
</event>
<event>
 4    1  0.7181337E+003  0.2086594E+02  0.7546771E-02  0.1521188E+00
          2   -1    0    0  502    0  0.00000000000E+00  0.00000000000E+00  0.60267459495E+03  0.60267459495E+03  0.00000000000E+00 0. -1.
          1   -1    0    0  501    0 -0.00000000000E+00 -0.00000000000E+00 -0.86003986023E+00  0.86003986023E+00  0.00000000000E+00 0. -1.
          2    1    1    2  501    0 -0.13061267460E+02  0.16272373838E+02  0.18019638550E+03  0.18140045260E+03  0.00000000000E+00 0. -1.
          1    1    1    2  502    0  0.13061267460E+02 -0.16272373838E+02  0.42161816959E+03  0.42213418221E+03  0.00000000000E+00 0. -1.
</event>
<event>
 4    1  0.7181337E+003  0.2859721E+02  0.7546771E-02  0.1432191E+00
          2   -1    0    0  502    0  0.00000000000E+00  0.00000000000E+00  0.44984558211E+03  0.44984558211E+03  0.00000000000E+00 0. -1.
          1   -1    0    0  501    0 -0.00000000000E+00 -0.00000000000E+00 -0.20846044493E+02  0.20846044493E+02  0.00000000000E+00 0. -1.
          2    1    1    2  501    0  0.22625309463E+02  0.17489877458E+02  0.43934941232E+03  0.44027912345E+03  0.00000000000E+00 0. -1.
          1    1    1    2  502    0 -0.22625309463E+02 -0.17489877458E+02 -0.10349874699E+02  0.30412503154E+02  0.00000000000E+00 0. -1.
</event>
<event>
 4    1  0.7181337E+003  0.3526035E+02  0.7546771E-02  0.1378742E+00
          2   -1    0    0  502    0  0.00000000000E+00  0.00000000000E+00  0.10801589609E+03  0.10801589609E+03  0.00000000000E+00 0.  1.
          1   -1    0    0  501    0 -0.00000000000E+00 -0.00000000000E+00 -0.11908873066E+02  0.11908873066E+02  0.00000000000E+00 0.  1.
          2    1    1    2  501    0 -0.25733354329E+02  0.24105739865E+02  0.59023683083E+02  0.68753817234E+02  0.00000000000E+00 0.  1.
          1    1    1    2  502    0  0.25733354329E+02 -0.24105739865E+02  0.37083339943E+02  0.51170951924E+02  0.00000000000E+00 0.  1.
</event>
<event>
 4    1  0.7181337E+003  0.2758011E+02  0.7546771E-02  0.1441866E+00
          2   -1    0    0  502    0  0.00000000000E+00  0.00000000000E+00  0.10473032429E+04  0.10473032429E+04  0.00000000000E+00 0. -1.
          1   -1    0    0  501    0 -0.00000000000E+00 -0.00000000000E+00 -0.77545917225E+00  0.77545917225E+00  0.00000000000E+00 0. -1.
          2    1    1    2  501    0 -0.20613747015E+02 -0.18323092086E+02  0.65519940903E+03  0.65577963362E+03  0.00000000000E+00 0. -1.
          1    1    1    2  502    0  0.20613747015E+02  0.18323092086E+02  0.39132837465E+03  0.39229906841E+03  0.00000000000E+00 0. -1.
</event>
<event>
 4    1  0.7181337E+003  0.2374680E+02  0.7546771E-02  0.1483328E+00
          2   -1    0    0  502    0  0.00000000000E+00  0.00000000000E+00  0.25826629750E+00  0.25826629750E+00  0.00000000000E+00 0.  1.
          1   -1    0    0  501    0 -0.00000000000E+00 -0.00000000000E+00 -0.24959961532E+04  0.24959961532E+04  0.00000000000E+00 0.  1.
          2    1    1    2  501    0 -0.21778228259E+02  0.94667207284E+01 -0.16895391077E+04  0.16897059823E+04  0.00000000000E+00 0.  1.
          1    1    1    2  502    0  0.21778228259E+02 -0.94667207284E+01 -0.80619877914E+03  0.80654843718E+03  0.00000000000E+00 0.  1.
</event>
<event>
 4    1  0.7181337E+003  0.3188914E+02  0.7546771E-02  0.1403860E+00
          2   -1    0    0  502    0  0.00000000000E+00  0.00000000000E+00  0.11147531712E+01  0.11147531712E+01  0.00000000000E+00 0.  1.
          1   -1    0    0  501    0 -0.00000000000E+00 -0.00000000000E+00 -0.94390495278E+03  0.94390495278E+03  0.00000000000E+00 0.  1.
          2    1    1    2  501    0  0.21423261995E+02  0.23621198264E+02 -0.38484479886E+03  0.38616374295E+03  0.00000000000E+00 0.  1.
          1    1    1    2  502    0 -0.21423261995E+02 -0.23621198264E+02 -0.55794540075E+03  0.55885596300E+03  0.00000000000E+00 0.  1.
</event>
<event>
 4    1  0.7181337E+003  0.2661283E+02  0.7546771E-02  0.1451536E+00
          2   -1    0    0  502    0  0.00000000000E+00  0.00000000000E+00  0.32527857402E+02  0.32527857402E+02  0.00000000000E+00 0. -1.
          1   -1    0    0  501    0 -0.00000000000E+00 -0.00000000000E+00 -0.43916850461E+03  0.43916850461E+03  0.00000000000E+00 0.  1.
          2    1    1    2  501    0  0.17900207633E+02 -0.19693285613E+02  0.26607008007E+02  0.37632111376E+02  0.00000000000E+00 0. -1.
          1    1    1    2  502    0 -0.17900207633E+02  0.19693285613E+02 -0.43324765521E+03  0.43406425064E+03  0.00000000000E+00 0.  1.
</event>
<event>
 4    1  0.7181337E+003  0.2102256E+02  0.7546771E-02  0.1518943E+00
          2   -1    0    0  502    0  0.00000000000E+00  0.00000000000E+00  0.16385843694E+00  0.16385843694E+00  0.00000000000E+00 0. -1.
          1   -1    0    0  501    0 -0.00000000000E+00 -0.00000000000E+00 -0.26977459345E+04  0.26977459345E+04  0.00000000000E+00 0. -1.
          2    1    1    2  501    0 -0.19945311279E+02  0.66431923089E+01 -0.13691799056E+04  0.13693412874E+04  0.00000000000E+00 0. -1.
          1    1    1    2  502    0  0.19945311279E+02 -0.66431923089E+01 -0.13284021704E+04  0.13285685055E+04  0.00000000000E+00 0. -1.
</event>
<event>
 4    1  0.8578650E+003  0.2237176E+02  0.7546771E-02  0.1500541E+00
          2   -1    0    0  502    0  0.00000000000E+00  0.00000000000E+00  0.36544072598E+03  0.36544072598E+03  0.00000000000E+00 0. -1.
          1   -1    0    0  501    0 -0.00000000000E+00 -0.00000000000E+00 -0.82032880226E+03  0.82032880226E+03  0.00000000000E+00 0. -1.
          2    1    1    2  501    0  0.20473609905E+02 -0.90181516237E+01  0.36494559834E+03  0.36563066817E+03  0.00000000000E+00 0. -1.
          1    1    1    2  502    0 -0.20473609905E+02  0.90181516237E+01 -0.81983367462E+03  0.82013886007E+03  0.00000000000E+00 0. -1.
</event>
<event>
 4    1  0.7181337E+003  0.2556788E+02  0.7546771E-02  0.1462550E+00
          2   -1    0    0  502    0  0.00000000000E+00  0.00000000000E+00  0.54528223629E+03  0.54528223629E+03  0.00000000000E+00 0.  1.
          1   -1    0    0  501    0 -0.00000000000E+00 -0.00000000000E+00 -0.47913889988E+02  0.47913889988E+02  0.00000000000E+00 0.  1.
          2    1    1    2  501    0 -0.22561626074E+02 -0.12028696646E+02  0.54154812314E+03  0.54215134989E+03  0.00000000000E+00 0.  1.
          1    1    1    2  502    0  0.22561626074E+02  0.12028696646E+02 -0.44179776841E+02  0.51044776382E+02  0.00000000000E+00 0.  1.
</event>
<event>
 4    1  0.7181337E+003  0.2423437E+02  0.7546771E-02  0.1477554E+00
          2   -1    0    0  502    0  0.00000000000E+00  0.00000000000E+00  0.12998074356E+04  0.12998074356E+04  0.00000000000E+00 0. -1.
          1   -1    0    0  501    0 -0.00000000000E+00 -0.00000000000E+00 -0.45217718310E+00  0.45217718310E+00  0.00000000000E+00 0. -1.
          2    1    1    2  501    0 -0.21547135378E+01 -0.24138387762E+02  0.66743977071E+03  0.66787959400E+03  0.00000000000E+00 0. -1.
          1    1    1    2  502    0  0.21547135378E+01  0.24138387762E+02  0.63191548767E+03  0.63238001875E+03  0.00000000000E+00 0. -1.
</event>
<event>
 4    1  0.7181337E+003  0.3346534E+02  0.7546771E-02  0.1391686E+00
          2   -1    0    0  502    0  0.00000000000E+00  0.00000000000E+00  0.17187797623E+02  0.17187797623E+02  0.00000000000E+00 0.  1.
          1   -1    0    0  501    0 -0.00000000000E+00 -0.00000000000E+00 -0.82762190389E+02  0.82762190389E+02  0.00000000000E+00 0.  1.
          2    1    1    2  501    0 -0.31341438991E+02  0.11732153893E+02 -0.97388394183E+01  0.34853611380E+02  0.00000000000E+00 0.  1.
          1    1    1    2  502    0  0.31341438991E+02 -0.11732153893E+02 -0.55835553348E+02  0.65096376632E+02  0.00000000000E+00 0.  1.
</event>
<event>
 4    1  0.7181337E+003  0.2066021E+02  0.7546771E-02  0.1524172E+00
          2   -1    0    0  502    0  0.00000000000E+00  0.00000000000E+00  0.34532769522E+03  0.34532769522E+03  0.00000000000E+00 0.  1.
          1   -1    0    0  501    0 -0.00000000000E+00 -0.00000000000E+00 -0.21380919878E+01  0.21380919878E+01  0.00000000000E+00 0.  1.
          2    1    1    2  501    0 -0.20459479880E+02  0.28730027748E+01  0.28443938774E+03  0.28518872657E+03  0.00000000000E+00 0.  1.
          1    1    1    2  502    0  0.20459479880E+02 -0.28730027748E+01  0.58750215487E+02  0.62277060638E+02  0.00000000000E+00 0.  1.
</event>
<event>
 4    1  0.7181337E+003  0.6037384E+02  0.7546771E-02  0.1258568E+00
          2   -1    0    0  502    0  0.00000000000E+00  0.00000000000E+00  0.84836318453E+01  0.84836318453E+01  0.00000000000E+00 0. -1.
          1   -1    0    0  501    0 -0.00000000000E+00 -0.00000000000E+00 -0.14434153918E+04  0.14434153918E+04  0.00000000000E+00 0.  1.
          2    1    1    2  501    0  0.22189374530E+02 -0.56148308977E+02 -0.10907980256E+03  0.12467318986E+03  0.00000000000E+00 0. -1.
          1    1    1    2  502    0 -0.22189374530E+02  0.56148308977E+02 -0.13258519574E+04  0.13272258338E+04  0.00000000000E+00 0.  1.
</event>
<event>
 4    1  0.7181337E+003  0.2341956E+02  0.7546771E-02  0.1487296E+00
          2   -1    0    0  502    0  0.00000000000E+00  0.00000000000E+00  0.11527788509E+02  0.11527788509E+02  0.00000000000E+00 0.  1.
          1   -1    0    0  501    0 -0.00000000000E+00 -0.00000000000E+00 -0.18549718430E+03  0.18549718430E+03  0.00000000000E+00 0.  1.
          2    1    1    2  501    0  0.10647297804E+02 -0.20859310795E+02 -0.20404358215E+01  0.23508278876E+02  0.00000000000E+00 0.  1.
          1    1    1    2  502    0 -0.10647297804E+02  0.20859310795E+02 -0.17192895997E+03  0.17351669394E+03  0.00000000000E+00 0.  1.
</event>
<event>
 4    1  0.7181337E+003  0.2154842E+02  0.7546771E-02  0.1511577E+00
          2   -1    0    0  502    0  0.00000000000E+00  0.00000000000E+00  0.45639981905E+01  0.45639981905E+01  0.00000000000E+00 0. -1.
          1   -1    0    0  501    0 -0.00000000000E+00 -0.00000000000E+00 -0.10192228528E+04  0.10192228528E+04  0.00000000000E+00 0. -1.
          2    1    1    2  501    0 -0.21431983503E+02 -0.22370669652E+01 -0.21656041267E+02  0.30550262009E+02  0.00000000000E+00 0. -1.
          1    1    1    2  502    0  0.21431983503E+02  0.22370669652E+01 -0.99300281335E+03  0.99323658899E+03  0.00000000000E+00 0. -1.
</event>
<event>
 4    1  0.7181337E+003  0.2255427E+02  0.7546771E-02  0.1498172E+00
          2   -1    0    0  502    0  0.00000000000E+00  0.00000000000E+00  0.77774112479E+02  0.77774112479E+02  0.00000000000E+00 0.  1.
          1   -1    0    0  501    0 -0.00000000000E+00 -0.00000000000E+00 -0.61886573349E+02  0.61886573349E+02  0.00000000000E+00 0. -1.
          2    1    1    2  501    0  0.22413155175E+02 -0.25190330311E+01  0.73980974639E+02  0.77342612193E+02  0.00000000000E+00 0.  1.
          1    1    1    2  502    0 -0.22413155175E+02  0.25190330311E+01 -0.58093435509E+02  0.62318073635E+02  0.00000000000E+00 0. -1.
</event>
<event>
 4    1  0.7181337E+003  0.2911880E+02  0.7546771E-02  0.1427412E+00
          2   -1    0    0  502    0  0.00000000000E+00  0.00000000000E+00  0.94334050323E+03  0.94334050323E+03  0.00000000000E+00 0.  1.
          1   -1    0    0  501    0 -0.00000000000E+00 -0.00000000000E+00 -0.17115604115E+01  0.17115604115E+01  0.00000000000E+00 0.  1.
          2    1    1    2  501    0 -0.18786979733E+02 -0.22247559792E+02  0.79642795014E+03  0.79696008952E+03  0.00000000000E+00 0.  1.
          1    1    1    2  502    0  0.18786979733E+02  0.22247559792E+02  0.14520099268E+03  0.14809197412E+03  0.00000000000E+00 0.  1.
</event>
<event>
 4    1  0.7181337E+003  0.2592108E+02  0.7546771E-02  0.1458758E+00
          2   -1    0    0  502    0  0.00000000000E+00  0.00000000000E+00  0.58353720620E+02  0.58353720620E+02  0.00000000000E+00 0.  1.
          1   -1    0    0  501    0 -0.00000000000E+00 -0.00000000000E+00 -0.41952724795E+02  0.41952724795E+02  0.00000000000E+00 0.  1.
          2    1    1    2  501    0  0.83345784246E+01 -0.24544596090E+02  0.50920358509E+02  0.57138299812E+02  0.00000000000E+00 0.  1.
          1    1    1    2  502    0 -0.83345784246E+01  0.24544596090E+02 -0.34519362684E+02  0.43168145604E+02  0.00000000000E+00 0.  1.
</event>
<event>
 4    1  0.7181337E+003  0.2581527E+02  0.7546771E-02  0.1459886E+00
          2   -1    0    0  502    0  0.00000000000E+00  0.00000000000E+00  0.16099191659E+02  0.16099191659E+02  0.00000000000E+00 0.  1.
          1   -1    0    0  501    0 -0.00000000000E+00 -0.00000000000E+00 -0.54041838373E+02  0.54041838373E+02  0.00000000000E+00 0.  1.
          2    1    1    2  501    0 -0.20188764485E+02  0.16088560704E+02 -0.20058499763E+01  0.25893076895E+02  0.00000000000E+00 0.  1.
          1    1    1    2  502    0  0.20188764485E+02 -0.16088560704E+02 -0.35936796738E+02  0.44247953136E+02  0.00000000000E+00 0.  1.
</event>
<event>
 4    1  0.7181337E+003  0.4659677E+02  0.7546771E-02  0.1313643E+00
          2   -1    0    0  502    0  0.00000000000E+00  0.00000000000E+00  0.69701358221E+03  0.69701358221E+03  0.00000000000E+00 0.  1.
          1   -1    0    0  501    0 -0.00000000000E+00 -0.00000000000E+00 -0.60916449532E+01  0.60916449532E+01  0.00000000000E+00 0. -1.
          2    1    1    2  501    0  0.20168257780E+01  0.46553106310E+02  0.59120335432E+03  0.59303681627E+03  0.00000000000E+00 0.  1.
          1    1    1    2  502    0 -0.20168257780E+01 -0.46553106310E+02  0.99718582930E+02  0.11006841089E+03  0.00000000000E+00 0. -1.
</event>
<event>
 4    1  0.7181337E+003  0.2646187E+02  0.7546771E-02  0.1453090E+00
          2   -1    0    0  502    0  0.00000000000E+00  0.00000000000E+00  0.57884593627E+03  0.57884593627E+03  0.00000000000E+00 0.  1.
          1   -1    0    0  501    0 -0.00000000000E+00 -0.00000000000E+00 -0.15301443690E+01  0.15301443690E+01  0.00000000000E+00 0.  1.
          2    1    1    2  501    0  0.26454858538E+02  0.60916512248E+00  0.42145506471E+03  0.42228497746E+03  0.00000000000E+00 0.  1.
          1    1    1    2  502    0 -0.26454858538E+02 -0.60916512248E+00  0.15586072719E+03  0.15809110317E+03  0.00000000000E+00 0.  1.
</event>
<event>
 4    1  0.7181337E+003  0.2530672E+02  0.7546771E-02  0.1465401E+00
          2   -1    0    0  502    0  0.00000000000E+00  0.00000000000E+00  0.11304748577E+04  0.11304748577E+04  0.00000000000E+00 0.  1.
          1   -1    0    0  501    0 -0.00000000000E+00 -0.00000000000E+00 -0.10788031454E+02  0.10788031454E+02  0.00000000000E+00 0. -1.
          2    1    1    2  501    0 -0.87027274529E+01  0.23763264058E+02  0.11152899692E+04  0.11155770460E+04  0.00000000000E+00 0.  1.
          1    1    1    2  502    0  0.87027274529E+01 -0.23763264058E+02  0.43968569907E+01  0.25685843089E+02  0.00000000000E+00 0. -1.
</event>
<event>
 4    1  0.7181337E+003  0.3347085E+02  0.7546771E-02  0.1391644E+00
          2   -1    0    0  502    0  0.00000000000E+00  0.00000000000E+00  0.14646586720E+04  0.14646586720E+04  0.00000000000E+00 0.  1.
          1   -1    0    0  501    0 -0.00000000000E+00 -0.00000000000E+00 -0.80558399328E+01  0.80558399328E+01  0.00000000000E+00 0. -1.
          2    1    1    2  501    0 -0.31225610307E+02 -0.12052347929E+02  0.14288291197E+04  0.14292210995E+04  0.00000000000E+00 0.  1.
          1    1    1    2  502    0  0.31225610307E+02  0.12052347929E+02  0.27773712352E+02  0.43493412461E+02  0.00000000000E+00 0. -1.
</event>
<event>
 4    1  0.7181337E+003  0.2701487E+02  0.7546771E-02  0.1447459E+00
          2   -1    0    0  502    0  0.00000000000E+00  0.00000000000E+00  0.20325937009E+03  0.20325937009E+03  0.00000000000E+00 0. -1.
          1   -1    0    0  501    0 -0.00000000000E+00 -0.00000000000E+00 -0.87303127182E+01  0.87303127182E+01  0.00000000000E+00 0.  1.
          2    1    1    2  501    0  0.19082408233E+02  0.19122367744E+02  0.17859314360E+03  0.18062478842E+03  0.00000000000E+00 0. -1.
          1    1    1    2  502    0 -0.19082408233E+02 -0.19122367744E+02  0.15935913775E+02  0.31364894387E+02  0.00000000000E+00 0.  1.
</event>
<event>
 4    1  0.7181337E+003  0.3064154E+02  0.7546771E-02  0.1414102E+00
          2   -1    0    0  502    0  0.00000000000E+00  0.00000000000E+00  0.30860033394E+03  0.30860033394E+03  0.00000000000E+00 0.  1.
          1   -1    0    0  501    0 -0.00000000000E+00 -0.00000000000E+00 -0.12670448785E+03  0.12670448785E+03  0.00000000000E+00 0. -1.
          2    1    1    2  501    0 -0.10353009632E+02 -0.28839536702E+02  0.30597129493E+03  0.30750176748E+03  0.00000000000E+00 0.  1.
          1    1    1    2  502    0  0.10353009632E+02  0.28839536702E+02 -0.12407544883E+03  0.12780305430E+03  0.00000000000E+00 0. -1.
</event>
<event>
 4    1  0.7181337E+003  0.2662027E+02  0.7546771E-02  0.1451460E+00
          2   -1    0    0  502    0  0.00000000000E+00  0.00000000000E+00  0.98189912686E+02  0.98189912686E+02  0.00000000000E+00 0. -1.
          1   -1    0    0  501    0 -0.00000000000E+00 -0.00000000000E+00 -0.16777216872E+02  0.16777216872E+02  0.00000000000E+00 0. -1.
          2    1    1    2  501    0 -0.26300780035E+02  0.41118848684E+01  0.84099094124E+02  0.88211656033E+02  0.00000000000E+00 0. -1.
          1    1    1    2  502    0  0.26300780035E+02 -0.41118848684E+01 -0.26863983103E+01  0.26755473524E+02  0.00000000000E+00 0. -1.
</event>
<event>
 4    1  0.7181337E+003  0.5847243E+02  0.7546771E-02  0.1265113E+00
          2   -1    0    0  502    0  0.00000000000E+00  0.00000000000E+00  0.72755093669E+03  0.72755093669E+03  0.00000000000E+00 0. -1.
          1   -1    0    0  501    0 -0.00000000000E+00 -0.00000000000E+00 -0.93861359657E+01  0.93861359657E+01  0.00000000000E+00 0. -1.
          2    1    1    2  501    0 -0.46967723169E+02  0.34828988601E+02  0.61945421970E+03  0.62220780755E+03  0.00000000000E+00 0. -1.
          1    1    1    2  502    0  0.46967723169E+02 -0.34828988601E+02  0.98710581027E+02  0.11472926511E+03  0.00000000000E+00 0. -1.
</event>
<event>
 4    1  0.7181337E+003  0.2064276E+02  0.7546771E-02  0.1524427E+00
          2   -1    0    0  502    0  0.00000000000E+00  0.00000000000E+00  0.23795620006E+01  0.23795620006E+01  0.00000000000E+00 0.  1.
          1   -1    0    0  501    0 -0.00000000000E+00 -0.00000000000E+00 -0.46179262958E+03  0.46179262958E+03  0.00000000000E+00 0.  1.
          2    1    1    2  501    0 -0.19888787235E+02 -0.55280752569E+01 -0.48112753529E+02  0.52354183461E+02  0.00000000000E+00 0.  1.
          1    1    1    2  502    0  0.19888787235E+02  0.55280752569E+01 -0.41130031405E+03  0.41181800811E+03  0.00000000000E+00 0.  1.
</event>
<event>
 4    1  0.7181337E+003  0.4099255E+02  0.7546771E-02  0.1342766E+00
          2   -1    0    0  502    0  0.00000000000E+00  0.00000000000E+00  0.41800987138E+03  0.41800987138E+03  0.00000000000E+00 0.  1.
          1   -1    0    0  501    0 -0.00000000000E+00 -0.00000000000E+00 -0.46850877579E+01  0.46850877579E+01  0.00000000000E+00 0.  1.
          2    1    1    2  501    0 -0.40911139649E+02 -0.25819014204E+01  0.12703047829E+03  0.13348082251E+03  0.00000000000E+00 0.  1.
          1    1    1    2  502    0  0.40911139649E+02  0.25819014204E+01  0.28629430533E+03  0.28921413663E+03  0.00000000000E+00 0.  1.
</event>
<event>
 4    1  0.7181337E+003  0.2462768E+02  0.7546771E-02  0.1473012E+00
          2   -1    0    0  502    0  0.00000000000E+00  0.00000000000E+00  0.18571156649E+02  0.18571156649E+02  0.00000000000E+00 0. -1.
          1   -1    0    0  501    0 -0.00000000000E+00 -0.00000000000E+00 -0.11737435048E+04  0.11737435048E+04  0.00000000000E+00 0. -1.
          2    1    1    2  501    0  0.11668043965E+02  0.21688235486E+02  0.10218609153E+02  0.26663510299E+02  0.00000000000E+00 0. -1.
          1    1    1    2  502    0 -0.11668043965E+02 -0.21688235486E+02 -0.11653909573E+04  0.11656511511E+04  0.00000000000E+00 0. -1.
</event>
<event>
 4    1  0.7181337E+003  0.2382295E+02  0.7546771E-02  0.1482415E+00
          2   -1    0    0  502    0  0.00000000000E+00  0.00000000000E+00  0.11077509232E+04  0.11077509232E+04  0.00000000000E+00 0. -1.
          1   -1    0    0  501    0 -0.00000000000E+00 -0.00000000000E+00 -0.87043888328E+00  0.87043888328E+00  0.00000000000E+00 0. -1.
          2    1    1    2  501    0 -0.19292535522E+02  0.13976090940E+02  0.90898329095E+03  0.90929541749E+03  0.00000000000E+00 0. -1.
          1    1    1    2  502    0  0.19292535522E+02 -0.13976090940E+02  0.19789719332E+03  0.19932594455E+03  0.00000000000E+00 0. -1.
</event>
<event>
 4    1  0.7181337E+003  0.2855125E+02  0.7546771E-02  0.1432618E+00
          2   -1    0    0  502    0  0.00000000000E+00  0.00000000000E+00  0.14396624754E+04  0.14396624754E+04  0.00000000000E+00 0.  1.
          1   -1    0    0  501    0 -0.00000000000E+00 -0.00000000000E+00 -0.19343123865E+01  0.19343123865E+01  0.00000000000E+00 0. -1.
          2    1    1    2  501    0 -0.26646077791E+02 -0.10254765130E+02  0.13250520841E+04  0.13253596491E+04  0.00000000000E+00 0.  1.
          1    1    1    2  502    0  0.26646077791E+02  0.10254765130E+02  0.11267607891E+03  0.11623713876E+03  0.00000000000E+00 0. -1.
</event>
<event>
 4    1  0.7181337E+003  0.2368380E+02  0.7546771E-02  0.1484086E+00
          2   -1    0    0  502    0  0.00000000000E+00  0.00000000000E+00  0.61914851992E+01  0.61914851992E+01  0.00000000000E+00 0. -1.
          1   -1    0    0  501    0 -0.00000000000E+00 -0.00000000000E+00 -0.10152516680E+03  0.10152516680E+03  0.00000000000E+00 0. -1.
          2    1    1    2  501    0 -0.16461816495E+02 -0.17027356478E+02 -0.29995707354E+02  0.38218643757E+02  0.00000000000E+00 0. -1.
          1    1    1    2  502    0  0.16461816495E+02  0.17027356478E+02 -0.65337974248E+02  0.69498008243E+02  0.00000000000E+00 0. -1.
</event>
<event>
 4    1  0.7181337E+003  0.2387536E+02  0.7546771E-02  0.1481789E+00
          2   -1    0    0  502    0  0.00000000000E+00  0.00000000000E+00  0.10168474014E+03  0.10168474014E+03  0.00000000000E+00 0. -1.
          1   -1    0    0  501    0 -0.00000000000E+00 -0.00000000000E+00 -0.53130746134E+03  0.53130746134E+03  0.00000000000E+00 0. -1.
          2    1    1    2  501    0 -0.21563352266E+02  0.10249618415E+02  0.10001061978E+03  0.10282099449E+03  0.00000000000E+00 0. -1.
          1    1    1    2  502    0  0.21563352266E+02 -0.10249618415E+02 -0.52963334099E+03  0.53017120699E+03  0.00000000000E+00 0. -1.
</event>
<event>
 4    1  0.7181337E+003  0.3154989E+02  0.7546771E-02  0.1406590E+00
          2   -1    0    0  502    0  0.00000000000E+00  0.00000000000E+00  0.79776548522E+03  0.79776548522E+03  0.00000000000E+00 0. -1.
          1   -1    0    0  501    0 -0.00000000000E+00 -0.00000000000E+00 -0.34779877754E+01  0.34779877754E+01  0.00000000000E+00 0. -1.
          2    1    1    2  501    0  0.22917954682E+02  0.21683243359E+02  0.71795385695E+03  0.71864673965E+03  0.00000000000E+00 0. -1.
          1    1    1    2  502    0 -0.22917954682E+02 -0.21683243359E+02  0.76333640490E+02  0.82596733348E+02  0.00000000000E+00 0. -1.
</event>
<event>
 4    1  0.7181337E+003  0.2183435E+02  0.7546771E-02  0.1507678E+00
          2   -1    0    0  502    0  0.00000000000E+00  0.00000000000E+00  0.24908943228E+03  0.24908943228E+03  0.00000000000E+00 0.  1.
          1   -1    0    0  501    0 -0.00000000000E+00 -0.00000000000E+00 -0.32051649597E+01  0.32051649597E+01  0.00000000000E+00 0. -1.
          2    1    1    2  501    0 -0.20743602079E+02  0.68148316227E+01  0.20300957055E+03  0.20418037293E+03  0.00000000000E+00 0.  1.
          1    1    1    2  502    0  0.20743602079E+02 -0.68148316227E+01  0.42874696770E+02  0.48114224304E+02  0.00000000000E+00 0. -1.
</event>
<event>
 4    1  0.7181337E+003  0.3898134E+02  0.7546771E-02  0.1354561E+00
          2   -1    0    0  502    0  0.00000000000E+00  0.00000000000E+00  0.13594133723E+03  0.13594133723E+03  0.00000000000E+00 0. -1.
          1   -1    0    0  501    0 -0.00000000000E+00 -0.00000000000E+00 -0.25548146713E+02  0.25548146713E+02  0.00000000000E+00 0. -1.
          2    1    1    2  501    0  0.17094312586E+02 -0.35033259177E+02  0.11575382290E+03  0.12214128003E+03  0.00000000000E+00 0. -1.
          1    1    1    2  502    0 -0.17094312586E+02  0.35033259177E+02 -0.53606323864E+01  0.39348203910E+02  0.00000000000E+00 0. -1.
</event>
<event>
 4    1  0.7181337E+003  0.2214283E+02  0.7546771E-02  0.1503552E+00
          2   -1    0    0  502    0  0.00000000000E+00  0.00000000000E+00  0.12717635455E+04  0.12717635455E+04  0.00000000000E+00 0.  1.
          1   -1    0    0  501    0 -0.00000000000E+00 -0.00000000000E+00 -0.15143353710E+01  0.15143353710E+01  0.00000000000E+00 0. -1.
          2    1    1    2  501    0  0.85218364331E+01  0.20437297816E+02  0.11847811723E+04  0.11849880722E+04  0.00000000000E+00 0.  1.
          1    1    1    2  502    0 -0.85218364331E+01 -0.20437297816E+02  0.85468037805E+02  0.88289808724E+02  0.00000000000E+00 0. -1.
</event>
<event>
 4    1  0.7181337E+003  0.2140629E+02  0.7546771E-02  0.1513542E+00
          2   -1    0    0  502    0  0.00000000000E+00  0.00000000000E+00  0.44684186055E+01  0.44684186055E+01  0.00000000000E+00 0.  1.
          1   -1    0    0  501    0 -0.00000000000E+00 -0.00000000000E+00 -0.32367421529E+03  0.32367421529E+03  0.00000000000E+00 0.  1.
          2    1    1    2  501    0 -0.35950693780E+01  0.21102245871E+02 -0.23990839933E+02  0.32152600289E+02  0.00000000000E+00 0.  1.
          1    1    1    2  502    0  0.35950693780E+01 -0.21102245871E+02 -0.29521495675E+03  0.29599003361E+03  0.00000000000E+00 0.  1.
</event>
<event>
 4    1  0.7181337E+003  0.3640780E+02  0.7546771E-02  0.1370927E+00
          2   -1    0    0  502    0  0.00000000000E+00  0.00000000000E+00  0.39003169048E+02  0.39003169048E+02  0.00000000000E+00 0.  1.
          1   -1    0    0  501    0 -0.00000000000E+00 -0.00000000000E+00 -0.77656546931E+02  0.77656546931E+02  0.00000000000E+00 0.  1.
          2    1    1    2  501    0 -0.22274651096E+02  0.28798751579E+02  0.24415495902E+02  0.43836567088E+02  0.00000000000E+00 0.  1.
          1    1    1    2  502    0  0.22274651096E+02 -0.28798751579E+02 -0.63068873784E+02  0.72823148891E+02  0.00000000000E+00 0.  1.
</event>
<event>
 4    1  0.7181337E+003  0.2428845E+02  0.7546771E-02  0.1476923E+00
          2   -1    0    0  502    0  0.00000000000E+00  0.00000000000E+00  0.68517061597E+02  0.68517061597E+02  0.00000000000E+00 0. -1.
          1   -1    0    0  501    0 -0.00000000000E+00 -0.00000000000E+00 -0.90478481046E+02  0.90478481046E+02  0.00000000000E+00 0. -1.
          2    1    1    2  501    0  0.23865486532E+02 -0.45129949734E+01  0.64640008586E+02  0.69052583449E+02  0.00000000000E+00 0. -1.
          1    1    1    2  502    0 -0.23865486532E+02  0.45129949734E+01 -0.86601428034E+02  0.89942959194E+02  0.00000000000E+00 0. -1.
</event>
<event>
 4    1  0.7181337E+003  0.2303341E+02  0.7546771E-02  0.1492079E+00
          2   -1    0    0  502    0  0.00000000000E+00  0.00000000000E+00  0.14349699340E+03  0.14349699340E+03  0.00000000000E+00 0. -1.
          1   -1    0    0  501    0 -0.00000000000E+00 -0.00000000000E+00 -0.42786540151E+03  0.42786540151E+03  0.00000000000E+00 0.  1.
          2    1    1    2  501    0 -0.40936143097E+01 -0.22666717815E+02  0.14226002318E+03  0.14411263640E+03  0.00000000000E+00 0. -1.
          1    1    1    2  502    0  0.40936143097E+01  0.22666717815E+02 -0.42662843129E+03  0.42724975852E+03  0.00000000000E+00 0.  1.
</event>
<event>
 4    1  0.7181337E+003  0.4050384E+02  0.7546771E-02  0.1345558E+00
          2   -1    0    0  502    0  0.00000000000E+00  0.00000000000E+00  0.12070750006E+02  0.12070750006E+02  0.00000000000E+00 0. -1.
          1   -1    0    0  501    0 -0.00000000000E+00 -0.00000000000E+00 -0.44682867455E+03  0.44682867455E+03  0.00000000000E+00 0.  1.
          2    1    1    2  501    0  0.40262205892E+02 -0.44176898962E+01 -0.25980288662E+02  0.48120022925E+02  0.00000000000E+00 0. -1.
          1    1    1    2  502    0 -0.40262205892E+02  0.44176898962E+01 -0.40877763588E+03  0.41077940163E+03  0.00000000000E+00 0.  1.
</event>
<event>
 4    1  0.7181337E+003  0.2558208E+02  0.7546771E-02  0.1462396E+00
          2   -1    0    0  502    0  0.00000000000E+00  0.00000000000E+00  0.83785044708E+03  0.83785044708E+03  0.00000000000E+00 0.  1.
          1   -1    0    0  501    0 -0.00000000000E+00 -0.00000000000E+00 -0.49839828697E+01  0.49839828697E+01  0.00000000000E+00 0. -1.
          2    1    1    2  501    0  0.22846506707E+02  0.11509987357E+02  0.80342149007E+03  0.80382867166E+03  0.00000000000E+00 0.  1.
          1    1    1    2  502    0 -0.22846506707E+02 -0.11509987357E+02  0.29444974146E+02  0.39005758295E+02  0.00000000000E+00 0. -1.
</event>
<event>
 4    1  0.7181337E+003  0.2361814E+02  0.7546771E-02  0.1484879E+00
          2   -1    0    0  502    0  0.00000000000E+00  0.00000000000E+00  0.60019013116E+01  0.60019013116E+01  0.00000000000E+00 0.  1.
          1   -1    0    0  501    0 -0.00000000000E+00 -0.00000000000E+00 -0.23532557965E+03  0.23532557965E+03  0.00000000000E+00 0.  1.
          2    1    1    2  501    0  0.14967739164E+02 -0.18269741417E+02 -0.20802988988E+02  0.31473497072E+02  0.00000000000E+00 0.  1.
          1    1    1    2  502    0 -0.14967739164E+02  0.18269741417E+02 -0.20852068935E+03  0.20985398389E+03  0.00000000000E+00 0.  1.
</event>
<event>
 4    1  0.7181337E+003  0.6132820E+02  0.7546771E-02  0.1255385E+00
          2   -1    0    0  502    0  0.00000000000E+00  0.00000000000E+00  0.53177180958E+02  0.53177180958E+02  0.00000000000E+00 0. -1.
          1   -1    0    0  501    0 -0.00000000000E+00 -0.00000000000E+00 -0.89634811025E+03  0.89634811025E+03  0.00000000000E+00 0.  1.
          2    1    1    2  501    0  0.37686037521E+02  0.48382960892E+02  0.34061160052E+02  0.70152055941E+02  0.00000000000E+00 0. -1.
          1    1    1    2  502    0 -0.37686037521E+02 -0.48382960892E+02 -0.87723208935E+03  0.87937323527E+03  0.00000000000E+00 0.  1.
</event>
<event>
 4    1  0.7181337E+003  0.2326448E+02  0.7546771E-02  0.1489203E+00
          2   -1    0    0  502    0  0.00000000000E+00  0.00000000000E+00  0.11642790721E+02  0.11642790721E+02  0.00000000000E+00 0.  1.
          1   -1    0    0  501    0 -0.00000000000E+00 -0.00000000000E+00 -0.38321761361E+03  0.38321761361E+03  0.00000000000E+00 0.  1.
          2    1    1    2  501    0  0.18156426629E+02 -0.14545801188E+02 -0.71900527186E+00  0.23275590835E+02  0.00000000000E+00 0.  1.
          1    1    1    2  502    0 -0.18156426629E+02  0.14545801188E+02 -0.37085581762E+03  0.37158481350E+03  0.00000000000E+00 0.  1.
</event>
<event>
 4    1  0.7181337E+003  0.4324465E+02  0.7546771E-02  0.1330454E+00
          2   -1    0    0  502    0  0.00000000000E+00  0.00000000000E+00  0.10867304880E+02  0.10867304880E+02  0.00000000000E+00 0.  1.
          1   -1    0    0  501    0 -0.00000000000E+00 -0.00000000000E+00 -0.18451975801E+03  0.18451975801E+03  0.00000000000E+00 0.  1.
          2    1    1    2  501    0 -0.42947302917E+02 -0.50623316450E+01 -0.11218723179E+03  0.12023341052E+03  0.00000000000E+00 0.  1.
          1    1    1    2  502    0  0.42947302917E+02  0.50623316450E+01 -0.61465221342E+02  0.75153652367E+02  0.00000000000E+00 0.  1.
</event>
<event>
 4    1  0.7181337E+003  0.2900517E+02  0.7546771E-02  0.1428443E+00
          2   -1    0    0  502    0  0.00000000000E+00  0.00000000000E+00  0.85398184210E+01  0.85398184210E+01  0.00000000000E+00 0. -1.
          1   -1    0    0  501    0 -0.00000000000E+00 -0.00000000000E+00 -0.20466190124E+04  0.20466190124E+04  0.00000000000E+00 0. -1.
          2    1    1    2  501    0  0.20050242964E+02 -0.20959187379E+02 -0.16496687469E+02  0.33368255513E+02  0.00000000000E+00 0. -1.
          1    1    1    2  502    0 -0.20050242964E+02  0.20959187379E+02 -0.20215825065E+04  0.20217905753E+04  0.00000000000E+00 0. -1.
</event>
<event>
 4    1  0.7181337E+003  0.2888159E+02  0.7546771E-02  0.1429571E+00
          2   -1    0    0  502    0  0.00000000000E+00  0.00000000000E+00  0.62231781990E+03  0.62231781990E+03  0.00000000000E+00 0. -1.
          1   -1    0    0  501    0 -0.00000000000E+00 -0.00000000000E+00 -0.10032925483E+02  0.10032925483E+02  0.00000000000E+00 0. -1.
          2    1    1    2  501    0  0.82790571604E+00 -0.28869716472E+02  0.60044063464E+03  0.60113484484E+03  0.00000000000E+00 0. -1.
          1    1    1    2  502    0 -0.82790571604E+00  0.28869716472E+02  0.11844259781E+02  0.31215900545E+02  0.00000000000E+00 0. -1.
</event>
<event>
 4    1  0.7181337E+003  0.2187761E+02  0.7546771E-02  0.1507094E+00
          2   -1    0    0  502    0  0.00000000000E+00  0.00000000000E+00  0.83859107992E+02  0.83859107992E+02  0.00000000000E+00 0. -1.
          1   -1    0    0  501    0 -0.00000000000E+00 -0.00000000000E+00 -0.13231251550E+03  0.13231251550E+03  0.00000000000E+00 0. -1.
          2    1    1    2  501    0 -0.51659723990E+01  0.21258937432E+02  0.81502169116E+02  0.84387399902E+02  0.00000000000E+00 0. -1.
          1    1    1    2  502    0  0.51659723990E+01 -0.21258937432E+02 -0.12995557662E+03  0.13178422359E+03  0.00000000000E+00 0. -1.
</event>
<event>
 4    1  0.7181337E+003  0.2162284E+02  0.7546771E-02  0.1510555E+00
          2   -1    0    0  502    0  0.00000000000E+00  0.00000000000E+00  0.21538705518E+03  0.21538705518E+03  0.00000000000E+00 0.  1.
          1   -1    0    0  501    0 -0.00000000000E+00 -0.00000000000E+00 -0.33988195651E+01  0.33988195651E+01  0.00000000000E+00 0.  1.
          2    1    1    2  501    0  0.28878950089E+01  0.21429124885E+02  0.17175083067E+03  0.17310660059E+03  0.00000000000E+00 0.  1.
          1    1    1    2  502    0 -0.28878950089E+01 -0.21429124885E+02  0.40237404947E+02  0.45679274161E+02  0.00000000000E+00 0.  1.
</event>
<event>
 4    1  0.7181337E+003  0.4882487E+02  0.7546771E-02  0.1303349E+00
          2   -1    0    0  502    0  0.00000000000E+00  0.00000000000E+00  0.33760453131E+04  0.33760453131E+04  0.00000000000E+00 0. -1.
          1   -1    0    0  501    0 -0.00000000000E+00 -0.00000000000E+00 -0.10358109419E+01  0.10358109419E+01  0.00000000000E+00 0.  1.
          2    1    1    2  501    0  0.48194837091E+02 -0.78182796609E+01  0.26401466823E+04  0.26405981087E+04  0.00000000000E+00 0. -1.
          1    1    1    2  502    0 -0.48194837091E+02  0.78182796609E+01  0.73486281986E+03  0.73648301530E+03  0.00000000000E+00 0.  1.
</event>
<event>
 4    1  0.7181337E+003  0.2470964E+02  0.7546771E-02  0.1472078E+00
          2   -1    0    0  502    0  0.00000000000E+00  0.00000000000E+00  0.16294788034E+04  0.16294788034E+04  0.00000000000E+00 0. -1.
          1   -1    0    0  501    0 -0.00000000000E+00 -0.00000000000E+00 -0.71507872085E+01  0.71507872085E+01  0.00000000000E+00 0. -1.
          2    1    1    2  501    0 -0.31244516278E+01 -0.24511309274E+02  0.16077505305E+04  0.16079404015E+04  0.00000000000E+00 0. -1.
          1    1    1    2  502    0  0.31244516278E+01  0.24511309274E+02  0.14577485627E+02  0.28689189036E+02  0.00000000000E+00 0. -1.
</event>
<event>
 4    1  0.7181337E+003  0.2854736E+02  0.7546771E-02  0.1432655E+00
          2   -1    0    0  502    0  0.00000000000E+00  0.00000000000E+00  0.72202607995E+03  0.72202607995E+03  0.00000000000E+00 0. -1.
          1   -1    0    0  501    0 -0.00000000000E+00 -0.00000000000E+00 -0.20574837886E+01  0.20574837886E+01  0.00000000000E+00 0.  1.
          2    1    1    2  501    0  0.80546716980E+01 -0.27387475494E+02  0.60323133844E+03  0.60390644907E+03  0.00000000000E+00 0. -1.
          1    1    1    2  502    0 -0.80546716980E+01  0.27387475494E+02  0.11673725772E+03  0.12017711466E+03  0.00000000000E+00 0.  1.
</event>
<event>
 4    1  0.7181337E+003  0.3703852E+02  0.7546771E-02  0.1366772E+00
          2   -1    0    0  502    0  0.00000000000E+00  0.00000000000E+00  0.81883530230E+03  0.81883530230E+03  0.00000000000E+00 0. -1.
          1   -1    0    0  501    0 -0.00000000000E+00 -0.00000000000E+00 -0.35885351098E+01  0.35885351098E+01  0.00000000000E+00 0. -1.
          2    1    1    2  501    0 -0.22488676975E+02 -0.29429765905E+02  0.70787363088E+03  0.70884196336E+03  0.00000000000E+00 0. -1.
          1    1    1    2  502    0  0.22488676975E+02  0.29429765905E+02  0.10737313630E+03  0.11358187405E+03  0.00000000000E+00 0. -1.
</event>
<event>
 4    1  0.7181337E+003  0.2628018E+02  0.7546771E-02  0.1454976E+00
          2   -1    0    0  502    0  0.00000000000E+00  0.00000000000E+00  0.36275069377E+03  0.36275069377E+03  0.00000000000E+00 0. -1.
          1   -1    0    0  501    0 -0.00000000000E+00 -0.00000000000E+00 -0.25242547240E+01  0.25242547240E+01  0.00000000000E+00 0.  1.
          2    1    1    2  501    0 -0.12327584560E+02  0.23209448225E+02  0.27065245147E+03  0.27192535247E+03  0.00000000000E+00 0. -1.
          1    1    1    2  502    0  0.12327584560E+02 -0.23209448225E+02  0.89573987569E+02  0.93349596020E+02  0.00000000000E+00 0.  1.
</event>
<event>
 4    1  0.7181337E+003  0.2572120E+02  0.7546771E-02  0.1460895E+00
          2   -1    0    0  502    0  0.00000000000E+00  0.00000000000E+00  0.69530665191E+01  0.69530665191E+01  0.00000000000E+00 0. -1.
          1   -1    0    0  501    0 -0.00000000000E+00 -0.00000000000E+00 -0.11035964654E+03  0.11035964654E+03  0.00000000000E+00 0. -1.
          2    1    1    2  501    0  0.25492063318E+02 -0.34256069764E+01 -0.29927289140E+02  0.39461661276E+02  0.00000000000E+00 0. -1.
          1    1    1    2  502    0 -0.25492063318E+02  0.34256069764E+01 -0.73479290877E+02  0.77851051780E+02  0.00000000000E+00 0. -1.
</event>
<event>
 4    1  0.7181337E+003  0.2642459E+02  0.7546771E-02  0.1453475E+00
          2   -1    0    0  502    0  0.00000000000E+00  0.00000000000E+00  0.16932397029E+04  0.16932397029E+04  0.00000000000E+00 0.  1.
          1   -1    0    0  501    0 -0.00000000000E+00 -0.00000000000E+00 -0.18611993437E+02  0.18611993437E+02  0.00000000000E+00 0.  1.
          2    1    1    2  501    0  0.83554984201E+01  0.25068799427E+02  0.16837043392E+04  0.16839116845E+04  0.00000000000E+00 0.  1.
          1    1    1    2  502    0 -0.83554984201E+01 -0.25068799427E+02 -0.90766297421E+01  0.27940011919E+02  0.00000000000E+00 0.  1.
</event>
<event>
 4    1  0.7181337E+003  0.2107583E+02  0.7546771E-02  0.1518185E+00
          2   -1    0    0  502    0  0.00000000000E+00  0.00000000000E+00  0.12063835654E+04  0.12063835654E+04  0.00000000000E+00 0.  1.
          1   -1    0    0  501    0 -0.00000000000E+00 -0.00000000000E+00 -0.13679221145E+01  0.13679221145E+01  0.00000000000E+00 0. -1.
          2    1    1    2  501    0 -0.15057344168E+02  0.14746765080E+02  0.11187535866E+04  0.11189520893E+04  0.00000000000E+00 0.  1.
          1    1    1    2  502    0  0.15057344168E+02 -0.14746765080E+02  0.86262056690E+02  0.88799398186E+02  0.00000000000E+00 0. -1.
</event>
<event>
 4    1  0.7181337E+003  0.2127978E+02  0.7546771E-02  0.1515308E+00
          2   -1    0    0  502    0  0.00000000000E+00  0.00000000000E+00  0.39789805381E+00  0.39789805381E+00  0.00000000000E+00 0. -1.
          1   -1    0    0  501    0 -0.00000000000E+00 -0.00000000000E+00 -0.12687678166E+04  0.12687678166E+04  0.00000000000E+00 0. -1.
          2    1    1    2  501    0 -0.21163028995E+02 -0.22260717201E+01 -0.43049989874E+03  0.43102551201E+03  0.00000000000E+00 0. -1.
          1    1    1    2  502    0  0.21163028995E+02  0.22260717201E+01 -0.83787001984E+03  0.83814020267E+03  0.00000000000E+00 0. -1.
</event>
<event>
 4    1  0.7501335E+003  0.3926657E+02  0.7546771E-02  0.1352838E+00
          2   -1    0    0  502    0  0.00000000000E+00  0.00000000000E+00  0.76524361493E+03  0.76524361493E+03  0.00000000000E+00 0. -1.
          1   -1    0    0  501    0 -0.00000000000E+00 -0.00000000000E+00 -0.45501924530E+03  0.45501924530E+03  0.00000000000E+00 0. -1.
          2    1    1    2  501    0  0.35339167284E+02 -0.17117431887E+02  0.76389125795E+03  0.76489980860E+03  0.00000000000E+00 0. -1.
          1    1    1    2  502    0 -0.35339167284E+02  0.17117431887E+02 -0.45366688832E+03  0.45536305162E+03  0.00000000000E+00 0. -1.
</event>
<event>
 4    1  0.7181337E+003  0.2860788E+02  0.7546771E-02  0.1432093E+00
          2   -1    0    0  502    0  0.00000000000E+00  0.00000000000E+00  0.47016553364E+03  0.47016553364E+03  0.00000000000E+00 0.  1.
          1   -1    0    0  501    0 -0.00000000000E+00 -0.00000000000E+00 -0.22318185039E+01  0.22318185039E+01  0.00000000000E+00 0. -1.
          2    1    1    2  501    0 -0.15526945913E+02 -0.24027581448E+02  0.34476875884E+03  0.34595362087E+03  0.00000000000E+00 0.  1.
          1    1    1    2  502    0  0.15526945913E+02  0.24027581448E+02  0.12316495630E+03  0.12644373128E+03  0.00000000000E+00 0. -1.
</event>
<event>
 4    1  0.7181337E+003  0.2313990E+02  0.7546771E-02  0.1490749E+00
          2   -1    0    0  502    0  0.00000000000E+00  0.00000000000E+00  0.54318331999E+02  0.54318331999E+02  0.00000000000E+00 0. -1.
          1   -1    0    0  501    0 -0.00000000000E+00 -0.00000000000E+00 -0.10038504225E+02  0.10038504225E+02  0.00000000000E+00 0. -1.
          2    1    1    2  501    0  0.22591399811E+02  0.50082818700E+01  0.17821488915E+02  0.29207185757E+02  0.00000000000E+00 0. -1.
          1    1    1    2  502    0 -0.22591399811E+02 -0.50082818700E+01  0.26458338860E+02  0.35149650467E+02  0.00000000000E+00 0. -1.
</event>
<event>
 4    1  0.7181337E+003  0.3642002E+02  0.7546771E-02  0.1370846E+00
          2   -1    0    0  502    0  0.00000000000E+00  0.00000000000E+00  0.81237357809E+02  0.81237357809E+02  0.00000000000E+00 0. -1.
          1   -1    0    0  501    0 -0.00000000000E+00 -0.00000000000E+00 -0.66125620459E+02  0.66125620459E+02  0.00000000000E+00 0. -1.
          2    1    1    2  501    0 -0.31906748736E+02  0.17560674886E+02  0.71496833816E+02  0.80238489288E+02  0.00000000000E+00 0. -1.
          1    1    1    2  502    0  0.31906748736E+02 -0.17560674886E+02 -0.56385096466E+02  0.67124488981E+02  0.00000000000E+00 0. -1.
</event>
<event>
 4    1  0.7181337E+003  0.2551051E+02  0.7546771E-02  0.1463173E+00
          2   -1    0    0  502    0  0.00000000000E+00  0.00000000000E+00  0.68052537528E+03  0.68052537528E+03  0.00000000000E+00 0. -1.
          1   -1    0    0  501    0 -0.00000000000E+00 -0.00000000000E+00 -0.73268769497E+02  0.73268769497E+02  0.00000000000E+00 0. -1.
          2    1    1    2  501    0 -0.51998324284E+01 -0.24974946845E+02  0.67805767743E+03  0.67853739775E+03  0.00000000000E+00 0. -1.
          1    1    1    2  502    0  0.51998324284E+01  0.24974946845E+02 -0.70801071644E+02  0.75256747027E+02  0.00000000000E+00 0. -1.
</event>
<event>
 4    1  0.7181337E+003  0.2055677E+02  0.7546771E-02  0.1525688E+00
          2   -1    0    0  502    0  0.00000000000E+00  0.00000000000E+00  0.58563386389E+02  0.58563386389E+02  0.00000000000E+00 0. -1.
          1   -1    0    0  501    0 -0.00000000000E+00 -0.00000000000E+00 -0.56295117200E+02  0.56295117200E+02  0.00000000000E+00 0. -1.
          2    1    1    2  501    0  0.18131910609E+02 -0.96858004373E+01  0.54756640868E+02  0.58488209338E+02  0.00000000000E+00 0. -1.
          1    1    1    2  502    0 -0.18131910609E+02  0.96858004373E+01 -0.52488371679E+02  0.56370294251E+02  0.00000000000E+00 0. -1.
</event>
<event>
 4    1  0.7181337E+003  0.3068043E+02  0.7546771E-02  0.1413774E+00
          2   -1    0    0  502    0  0.00000000000E+00  0.00000000000E+00  0.45306970683E+03  0.45306970683E+03  0.00000000000E+00 0. -1.
          1   -1    0    0  501    0 -0.00000000000E+00 -0.00000000000E+00 -0.19262024623E+03  0.19262024623E+03  0.00000000000E+00 0.  1.
          2    1    1    2  501    0  0.19456817630E+02 -0.23721735935E+02  0.45132390211E+03  0.45236550833E+03  0.00000000000E+00 0. -1.
          1    1    1    2  502    0 -0.19456817630E+02  0.23721735935E+02 -0.19087444151E+03  0.19332444473E+03  0.00000000000E+00 0.  1.
</event>
<event>
 4    1  0.7181337E+003  0.4346373E+02  0.7546771E-02  0.1329302E+00
          2   -1    0    0  502    0  0.00000000000E+00  0.00000000000E+00  0.72176264351E+03  0.72176264351E+03  0.00000000000E+00 0. -1.
          1   -1    0    0  501    0 -0.00000000000E+00 -0.00000000000E+00 -0.84126548113E+01  0.84126548113E+01  0.00000000000E+00 0. -1.
          2    1    1    2  501    0  0.29055899872E+02  0.32324153749E+02  0.65969355210E+03  0.66112379999E+03  0.00000000000E+00 0. -1.
          1    1    1    2  502    0 -0.29055899872E+02 -0.32324153749E+02  0.53656436593E+02  0.69051498324E+02  0.00000000000E+00 0. -1.
</event>
<event>
 4    1  0.7181337E+003  0.2245650E+02  0.7546771E-02  0.1499438E+00
          2   -1    0    0  502    0  0.00000000000E+00  0.00000000000E+00  0.23494529551E+02  0.23494529551E+02  0.00000000000E+00 0. -1.
          1   -1    0    0  501    0 -0.00000000000E+00 -0.00000000000E+00 -0.70743689426E+03  0.70743689426E+03  0.00000000000E+00 0.  1.
          2    1    1    2  501    0  0.76368516158E+01  0.21118069306E+02  0.17907529886E+02  0.28722360286E+02  0.00000000000E+00 0. -1.
          1    1    1    2  502    0 -0.76368516158E+01 -0.21118069306E+02 -0.70184989460E+03  0.70220906353E+03  0.00000000000E+00 0.  1.
</event>
<event>
 4    1  0.7181337E+003  0.2930057E+02  0.7546771E-02  0.1425773E+00
          2   -1    0    0  502    0  0.00000000000E+00  0.00000000000E+00  0.14552095748E+04  0.14552095748E+04  0.00000000000E+00 0. -1.
          1   -1    0    0  501    0 -0.00000000000E+00 -0.00000000000E+00 -0.12228521905E+02  0.12228521905E+02  0.00000000000E+00 0. -1.
          2    1    1    2  501    0 -0.12287529188E+01  0.29274790932E+02  0.14372916437E+04  0.14375902728E+04  0.00000000000E+00 0. -1.
          1    1    1    2  502    0  0.12287529188E+01 -0.29274790932E+02  0.56894091786E+01  0.29847823952E+02  0.00000000000E+00 0. -1.
</event>
<event>
 4    1  0.7181337E+003  0.2669905E+02  0.7546771E-02  0.1450655E+00
          2   -1    0    0  502    0  0.00000000000E+00  0.00000000000E+00  0.10666679600E+03  0.10666679600E+03  0.00000000000E+00 0.  1.
          1   -1    0    0  501    0 -0.00000000000E+00 -0.00000000000E+00 -0.83033336636E+01  0.83033336636E+01  0.00000000000E+00 0.  1.
          2    1    1    2  501    0 -0.26690163191E+02 -0.68894775805E+00  0.74576807526E+02  0.79211992027E+02  0.00000000000E+00 0.  1.
          1    1    1    2  502    0  0.26690163191E+02  0.68894775805E+00  0.23786654811E+02  0.35758137637E+02  0.00000000000E+00 0.  1.
</event>
<event>
 4    1  0.7181337E+003  0.6272354E+02  0.7546771E-02  0.1250849E+00
          2   -1    0    0  502    0  0.00000000000E+00  0.00000000000E+00  0.28358127052E+01  0.28358127052E+01  0.00000000000E+00 0. -1.
          1   -1    0    0  501    0 -0.00000000000E+00 -0.00000000000E+00 -0.16004762643E+04  0.16004762643E+04  0.00000000000E+00 0. -1.
          2    1    1    2  501    0  0.61488523410E+02  0.12385479637E+02 -0.10913643145E+04  0.10931652691E+04  0.00000000000E+00 0. -1.
          1    1    1    2  502    0 -0.61488523410E+02 -0.12385479637E+02 -0.50627613706E+03  0.51014680786E+03  0.00000000000E+00 0. -1.
</event>
<event>
 4    1  0.7181337E+003  0.3097312E+02  0.7546771E-02  0.1411324E+00
          2   -1    0    0  502    0  0.00000000000E+00  0.00000000000E+00  0.35570027585E+03  0.35570027585E+03  0.00000000000E+00 0.  1.
          1   -1    0    0  501    0 -0.00000000000E+00 -0.00000000000E+00 -0.78456947324E+02  0.78456947324E+02  0.00000000000E+00 0.  1.
          2    1    1    2  501    0 -0.24712896665E+02  0.18671018358E+02  0.35193650890E+03  0.35329681641E+03  0.00000000000E+00 0.  1.
          1    1    1    2  502    0  0.24712896665E+02 -0.18671018358E+02 -0.74693180373E+02  0.80860406766E+02  0.00000000000E+00 0.  1.
</event>
<event>
 4    1  0.7181337E+003  0.2155388E+02  0.7546771E-02  0.1511502E+00
          2   -1    0    0  502    0  0.00000000000E+00  0.00000000000E+00  0.21503637158E+03  0.21503637158E+03  0.00000000000E+00 0. -1.
          1   -1    0    0  501    0 -0.00000000000E+00 -0.00000000000E+00 -0.23619199560E+02  0.23619199560E+02  0.00000000000E+00 0.  1.
          2    1    1    2  501    0  0.72179613568E+01 -0.20309374746E+02  0.20944812548E+03  0.21055423752E+03  0.00000000000E+00 0. -1.
          1    1    1    2  502    0 -0.72179613568E+01  0.20309374746E+02 -0.18030953461E+02  0.28101333624E+02  0.00000000000E+00 0.  1.
</event>
<event>
 4    1  0.7181337E+003  0.3445451E+02  0.7546771E-02  0.1384439E+00
          2   -1    0    0  502    0  0.00000000000E+00  0.00000000000E+00  0.17041968692E+04  0.17041968692E+04  0.00000000000E+00 0.  1.
          1   -1    0    0  501    0 -0.00000000000E+00 -0.00000000000E+00 -0.28797947456E+02  0.28797947456E+02  0.00000000000E+00 0.  1.
          2    1    1    2  501    0  0.33595441309E+02  0.76458701976E+01  0.16936530383E+04  0.16940034614E+04  0.00000000000E+00 0.  1.
          1    1    1    2  502    0 -0.33595441309E+02 -0.76458701976E+01 -0.18254116622E+02  0.38991355215E+02  0.00000000000E+00 0.  1.
</event>
<event>
 4    1  0.7181337E+003  0.3266068E+02  0.7546771E-02  0.1397800E+00
          2   -1    0    0  502    0  0.00000000000E+00  0.00000000000E+00  0.12761017327E+03  0.12761017327E+03  0.00000000000E+00 0. -1.
          1   -1    0    0  501    0 -0.00000000000E+00 -0.00000000000E+00 -0.88198175751E+01  0.88198175751E+01  0.00000000000E+00 0.  1.
          2    1    1    2  501    0  0.27739578722E+02  0.17240521612E+02  0.74984138297E+02  0.81788390431E+02  0.00000000000E+00 0. -1.
          1    1    1    2  502    0 -0.27739578722E+02 -0.17240521612E+02  0.43806217398E+02  0.54641600414E+02  0.00000000000E+00 0.  1.
</event>
<event>
 4    1  0.7181337E+003  0.2031133E+02  0.7546771E-02  0.1529328E+00
          2   -1    0    0  502    0  0.00000000000E+00  0.00000000000E+00  0.63227446957E+03  0.63227446957E+03  0.00000000000E+00 0.  1.
          1   -1    0    0  501    0 -0.00000000000E+00 -0.00000000000E+00 -0.21706847615E+02  0.21706847615E+02  0.00000000000E+00 0.  1.
          2    1    1    2  501    0 -0.15621520111E+02 -0.12981459703E+02  0.62732246812E+03  0.62765120027E+03  0.00000000000E+00 0.  1.
          1    1    1    2  502    0  0.15621520111E+02  0.12981459703E+02 -0.16754846170E+02  0.26330116915E+02  0.00000000000E+00 0.  1.
</event>
<event>
 4    1  0.7181337E+003  0.3213288E+02  0.7546771E-02  0.1401924E+00
          2   -1    0    0  502    0  0.00000000000E+00  0.00000000000E+00  0.60325919089E+02  0.60325919089E+02  0.00000000000E+00 0. -1.
          1   -1    0    0  501    0 -0.00000000000E+00 -0.00000000000E+00 -0.32063984494E+02  0.32063984494E+02  0.00000000000E+00 0.  1.
          2    1    1    2  501    0  0.10842170142E+01 -0.32114585010E+02  0.45672371650E+02  0.55843420642E+02  0.00000000000E+00 0. -1.
          1    1    1    2  502    0 -0.10842170142E+01  0.32114585010E+02 -0.17410437055E+02  0.36546482941E+02  0.00000000000E+00 0.  1.
</event>
<event>
 4    1  0.7181337E+003  0.2384205E+02  0.7546771E-02  0.1482187E+00
          2   -1    0    0  502    0  0.00000000000E+00  0.00000000000E+00  0.42713364920E+02  0.42713364920E+02  0.00000000000E+00 0. -1.
          1   -1    0    0  501    0 -0.00000000000E+00 -0.00000000000E+00 -0.21449544279E+03  0.21449544279E+03  0.00000000000E+00 0. -1.
          2    1    1    2  501    0 -0.11736114097E+02  0.20753481723E+02  0.38659866607E+02  0.45420575335E+02  0.00000000000E+00 0. -1.
          1    1    1    2  502    0  0.11736114097E+02 -0.20753481723E+02 -0.21044194448E+03  0.21178823238E+03  0.00000000000E+00 0. -1.
</event>
<event>
 4    1  0.7181337E+003  0.2874373E+02  0.7546771E-02  0.1430837E+00
          2   -1    0    0  502    0  0.00000000000E+00  0.00000000000E+00  0.47491196423E+01  0.47491196423E+01  0.00000000000E+00 0.  1.
          1   -1    0    0  501    0 -0.00000000000E+00 -0.00000000000E+00 -0.35513274810E+03  0.35513274810E+03  0.00000000000E+00 0.  1.
          2    1    1    2  501    0  0.20260092815E+02 -0.20389471444E+02 -0.46672122769E+02  0.54813218756E+02  0.00000000000E+00 0.  1.
          1    1    1    2  502    0 -0.20260092815E+02  0.20389471444E+02 -0.30371150569E+03  0.30506864899E+03  0.00000000000E+00 0.  1.
</event>
<event>
 4    1  0.7181337E+003  0.2033632E+02  0.7546771E-02  0.1528955E+00
          2   -1    0    0  502    0  0.00000000000E+00  0.00000000000E+00  0.51189467361E+02  0.51189467361E+02  0.00000000000E+00 0.  1.
          1   -1    0    0  501    0 -0.00000000000E+00 -0.00000000000E+00 -0.31051252573E+02  0.31051252573E+02  0.00000000000E+00 0.  1.
          2    1    1    2  501    0 -0.19284441644E+02  0.64557150502E+01  0.45437716807E+02  0.49781041120E+02  0.00000000000E+00 0.  1.
          1    1    1    2  502    0  0.19284441644E+02 -0.64557150502E+01 -0.25299502019E+02  0.32459678815E+02  0.00000000000E+00 0.  1.
</event>
<event>
 4    1  0.7181337E+003  0.2026473E+02  0.7546771E-02  0.1530027E+00
          2   -1    0    0  502    0  0.00000000000E+00  0.00000000000E+00  0.25310043784E+03  0.25310043784E+03  0.00000000000E+00 0. -1.
          1   -1    0    0  501    0 -0.00000000000E+00 -0.00000000000E+00 -0.33577337154E+03  0.33577337154E+03  0.00000000000E+00 0. -1.
          2    1    1    2  501    0 -0.20013423246E+02 -0.31815632578E+01  0.25238819101E+03  0.25320043131E+03  0.00000000000E+00 0. -1.
          1    1    1    2  502    0  0.20013423246E+02  0.31815632578E+01 -0.33506112471E+03  0.33567337807E+03  0.00000000000E+00 0. -1.
</event>
<event>
 4    1  0.7181337E+003  0.2354158E+02  0.7546771E-02  0.1485807E+00
          2   -1    0    0  502    0  0.00000000000E+00  0.00000000000E+00  0.25046957903E+02  0.25046957903E+02  0.00000000000E+00 0.  1.
          1   -1    0    0  501    0 -0.00000000000E+00 -0.00000000000E+00 -0.53174195751E+03  0.53174195751E+03  0.00000000000E+00 0.  1.
          2    1    1    2  501    0 -0.92297838243E+01 -0.21656801834E+02  0.19193183467E+02  0.30374072278E+02  0.00000000000E+00 0.  1.
          1    1    1    2  502    0  0.92297838243E+01  0.21656801834E+02 -0.52588818308E+03  0.52641484314E+03  0.00000000000E+00 0.  1.
</event>
<event>
 4    1  0.7181337E+003  0.3094777E+02  0.7546771E-02  0.1411535E+00
          2   -1    0    0  502    0  0.00000000000E+00  0.00000000000E+00  0.13660528877E+04  0.13660528877E+04  0.00000000000E+00 0.  1.
          1   -1    0    0  501    0 -0.00000000000E+00 -0.00000000000E+00 -0.16825483165E+01  0.16825483165E+01  0.00000000000E+00 0. -1.
          2    1    1    2  501    0 -0.27753096540E+02 -0.13694172294E+02  0.12044827240E+04  0.12048802419E+04  0.00000000000E+00 0.  1.
          1    1    1    2  502    0  0.27753096540E+02  0.13694172294E+02  0.15988761534E+03  0.16285519415E+03  0.00000000000E+00 0. -1.
</event>
<event>
 4    1  0.7181337E+003  0.2564991E+02  0.7546771E-02  0.1461662E+00
          2   -1    0    0  502    0  0.00000000000E+00  0.00000000000E+00  0.61900956449E+03  0.61900956449E+03  0.00000000000E+00 0.  1.
          1   -1    0    0  501    0 -0.00000000000E+00 -0.00000000000E+00 -0.72965113846E+01  0.72965113846E+01  0.00000000000E+00 0. -1.
          2    1    1    2  501    0 -0.11401697584E+02 -0.22976497084E+02  0.59530441541E+03  0.59585674883E+03  0.00000000000E+00 0.  1.
          1    1    1    2  502    0  0.11401697584E+02  0.22976497084E+02  0.16408637694E+02  0.30449327038E+02  0.00000000000E+00 0. -1.
</event>
<event>
 4    1  0.7181337E+003  0.3387387E+02  0.7546771E-02  0.1388658E+00
          2   -1    0    0  502    0  0.00000000000E+00  0.00000000000E+00  0.36848442934E+01  0.36848442934E+01  0.00000000000E+00 0.  1.
          1   -1    0    0  501    0 -0.00000000000E+00 -0.00000000000E+00 -0.13841376099E+04  0.13841376099E+04  0.00000000000E+00 0.  1.
          2    1    1    2  501    0 -0.31036272232E+02  0.13571620035E+02 -0.79337514737E+02  0.86266333579E+02  0.00000000000E+00 0.  1.
          1    1    1    2  502    0  0.31036272232E+02 -0.13571620035E+02 -0.13011152509E+04  0.13015561207E+04  0.00000000000E+00 0.  1.
</event>
<event>
 4    1  0.7181337E+003  0.2887573E+02  0.7546771E-02  0.1429624E+00
          2   -1    0    0  502    0  0.00000000000E+00  0.00000000000E+00  0.35456046608E+01  0.35456046608E+01  0.00000000000E+00 0. -1.
          1   -1    0    0  501    0 -0.00000000000E+00 -0.00000000000E+00 -0.16017582569E+04  0.16017582569E+04  0.00000000000E+00 0.  1.
          2    1    1    2  501    0 -0.28796162018E+02 -0.21421409116E+01 -0.57713882986E+02  0.64534486935E+02  0.00000000000E+00 0. -1.
          1    1    1    2  502    0  0.28796162018E+02  0.21421409116E+01 -0.15404987693E+04  0.15407693747E+04  0.00000000000E+00 0.  1.
</event>
<event>
 4    1  0.7181337E+003  0.5238579E+02  0.7546771E-02  0.1288147E+00
          2   -1    0    0  502    0  0.00000000000E+00  0.00000000000E+00  0.75831257986E+03  0.75831257986E+03  0.00000000000E+00 0.  1.
          1   -1    0    0  501    0 -0.00000000000E+00 -0.00000000000E+00 -0.10548040512E+03  0.10548040512E+03  0.00000000000E+00 0.  1.
          2    1    1    2  501    0 -0.16235444613E+02 -0.49806435233E+02  0.75083896910E+03  0.75266422007E+03  0.00000000000E+00 0.  1.
          1    1    1    2  502    0  0.16235444613E+02  0.49806435233E+02 -0.98006794350E+02  0.11112876491E+03  0.00000000000E+00 0.  1.
</event>
<event>
 4    1  0.7181337E+003  0.3300237E+02  0.7546771E-02  0.1395179E+00
          2   -1    0    0  502    0  0.00000000000E+00  0.00000000000E+00  0.38621734219E+01  0.38621734219E+01  0.00000000000E+00 0.  1.
          1   -1    0    0  501    0 -0.00000000000E+00 -0.00000000000E+00 -0.73646315700E+03  0.73646315700E+03  0.00000000000E+00 0.  1.
          2    1    1    2  501    0  0.86926615753E+01 -0.31836992209E+02 -0.75521162880E+02  0.82417246259E+02  0.00000000000E+00 0.  1.
          1    1    1    2  502    0 -0.86926615753E+01  0.31836992209E+02 -0.65707982069E+03  0.65790808416E+03  0.00000000000E+00 0.  1.
</event>
<event>
 4    1  0.7181337E+003  0.2224632E+02  0.7546771E-02  0.1502185E+00
          2   -1    0    0  502    0  0.00000000000E+00  0.00000000000E+00  0.34028451917E+02  0.34028451917E+02  0.00000000000E+00 0. -1.
          1   -1    0    0  501    0 -0.00000000000E+00 -0.00000000000E+00 -0.14546060822E+02  0.14546060822E+02  0.00000000000E+00 0. -1.
          2    1    1    2  501    0 -0.12526212992E+02  0.18384582006E+02  0.10052007852E+02  0.24411917772E+02  0.00000000000E+00 0. -1.
          1    1    1    2  502    0  0.12526212992E+02 -0.18384582006E+02  0.94303832421E+01  0.24162594967E+02  0.00000000000E+00 0. -1.
</event>
<event>
 4    1  0.7181337E+003  0.2444061E+02  0.7546771E-02  0.1475159E+00
          2   -1    0    0  502    0  0.00000000000E+00  0.00000000000E+00  0.31222050686E+03  0.31222050686E+03  0.00000000000E+00 0. -1.
          1   -1    0    0  501    0 -0.00000000000E+00 -0.00000000000E+00 -0.28748931237E+02  0.28748931237E+02  0.00000000000E+00 0. -1.
          2    1    1    2  501    0  0.17806597217E+02  0.16741228665E+02  0.30645006157E+03  0.30742313491E+03  0.00000000000E+00 0. -1.
          1    1    1    2  502    0 -0.17806597217E+02 -0.16741228665E+02 -0.22978485942E+02  0.33546303192E+02  0.00000000000E+00 0. -1.
</event>
<event>
 4    1  0.7181337E+003  0.2080060E+02  0.7546771E-02  0.1522131E+00
          2   -1    0    0  502    0  0.00000000000E+00  0.00000000000E+00  0.40109158805E+01  0.40109158805E+01  0.00000000000E+00 0.  1.
          1   -1    0    0  501    0 -0.00000000000E+00 -0.00000000000E+00 -0.48197256556E+03  0.48197256556E+03  0.00000000000E+00 0. -1.
          2    1    1    2  501    0 -0.18675405049E+02  0.91593733647E+01 -0.24901548251E+02  0.32446139669E+02  0.00000000000E+00 0.  1.
          1    1    1    2  502    0  0.18675405049E+02 -0.91593733647E+01 -0.45306010143E+03  0.45353734177E+03  0.00000000000E+00 0. -1.
</event>
<event>
 4    1  0.7181337E+003  0.2858444E+02  0.7546771E-02  0.1432310E+00
          2   -1    0    0  502    0  0.00000000000E+00  0.00000000000E+00  0.10250136768E+04  0.10250136768E+04  0.00000000000E+00 0. -1.
          1   -1    0    0  501    0 -0.00000000000E+00 -0.00000000000E+00 -0.13160287752E+02  0.13160287752E+02  0.00000000000E+00 0.  1.
          2    1    1    2  501    0  0.25232661966E+02  0.13430682170E+02  0.10090473276E+04  0.10094521186E+04  0.00000000000E+00 0. -1.
          1    1    1    2  502    0 -0.25232661966E+02 -0.13430682170E+02  0.28060614613E+01  0.28721845943E+02  0.00000000000E+00 0.  1.
</event>
<event>
 4    1  0.7181337E+003  0.2583006E+02  0.7546771E-02  0.1459728E+00
          2   -1    0    0  502    0  0.00000000000E+00  0.00000000000E+00  0.39456233277E+03  0.39456233277E+03  0.00000000000E+00 0. -1.
          1   -1    0    0  501    0 -0.00000000000E+00 -0.00000000000E+00 -0.22163684206E+03  0.22163684206E+03  0.00000000000E+00 0.  1.
          2    1    1    2  501    0  0.22375607821E+02 -0.12904427350E+02  0.39338476704E+03  0.39423186960E+03  0.00000000000E+00 0. -1.
          1    1    1    2  502    0 -0.22375607821E+02  0.12904427350E+02 -0.22045927633E+03  0.22196730523E+03  0.00000000000E+00 0.  1.
</event>
<event>
 4    1  0.7181337E+003  0.2185114E+02  0.7546771E-02  0.1507451E+00
          2   -1    0    0  502    0  0.00000000000E+00  0.00000000000E+00  0.26948019346E+03  0.26948019346E+03  0.00000000000E+00 0. -1.
          1   -1    0    0  501    0 -0.00000000000E+00 -0.00000000000E+00 -0.15124981599E+02  0.15124981599E+02  0.00000000000E+00 0. -1.
          2    1    1    2  501    0  0.19198047701E+02  0.10435860581E+02  0.26088558104E+03  0.26179908062E+03  0.00000000000E+00 0. -1.
          1    1    1    2  502    0 -0.19198047701E+02 -0.10435860581E+02 -0.65303691810E+01  0.22806094432E+02  0.00000000000E+00 0. -1.
</event>
<event>
 4    1  0.7181337E+003  0.3024534E+02  0.7546771E-02  0.1417476E+00
          2   -1    0    0  502    0  0.00000000000E+00  0.00000000000E+00  0.85105336062E+01  0.85105336062E+01  0.00000000000E+00 0.  1.
          1   -1    0    0  501    0 -0.00000000000E+00 -0.00000000000E+00 -0.16569489697E+04  0.16569489697E+04  0.00000000000E+00 0.  1.
          2    1    1    2  501    0 -0.10183234488E+02  0.28479511667E+02 -0.18952360622E+02  0.35692755883E+02  0.00000000000E+00 0.  1.
          1    1    1    2  502    0  0.10183234488E+02 -0.28479511667E+02 -0.16294860755E+04  0.16297667475E+04  0.00000000000E+00 0.  1.
</event>
<event>
 4    1  0.7181337E+003  0.2123606E+02  0.7546771E-02  0.1515921E+00
          2   -1    0    0  502    0  0.00000000000E+00  0.00000000000E+00  0.54084117405E+01  0.54084117405E+01  0.00000000000E+00 0.  1.
          1   -1    0    0  501    0 -0.00000000000E+00 -0.00000000000E+00 -0.29478130480E+03  0.29478130480E+03  0.00000000000E+00 0. -1.
          2    1    1    2  501    0 -0.10455310170E+02  0.18483960796E+02 -0.17580327098E+02  0.27568790657E+02  0.00000000000E+00 0.  1.
          1    1    1    2  502    0  0.10455310170E+02 -0.18483960796E+02 -0.27179256596E+03  0.27262092588E+03  0.00000000000E+00 0. -1.
</event>
<event>
 4    1  0.7181337E+003  0.2059967E+02  0.7546771E-02  0.1525058E+00
          2   -1    0    0  502    0  0.00000000000E+00  0.00000000000E+00  0.20110202291E+03  0.20110202291E+03  0.00000000000E+00 0.  1.
          1   -1    0    0  501    0 -0.00000000000E+00 -0.00000000000E+00 -0.33332602848E+03  0.33332602848E+03  0.00000000000E+00 0. -1.
          2    1    1    2  501    0 -0.10102781893E+02  0.17952168441E+02  0.20025488674E+03  0.20131161471E+03  0.00000000000E+00 0.  1.
          1    1    1    2  502    0  0.10102781893E+02 -0.17952168441E+02 -0.33247889231E+03  0.33311643668E+03  0.00000000000E+00 0. -1.
</event>
<event>
 4    1  0.7181337E+003  0.2434164E+02  0.7546771E-02  0.1476305E+00
          2   -1    0    0  502    0  0.00000000000E+00  0.00000000000E+00  0.65351794426E+03  0.65351794426E+03  0.00000000000E+00 0. -1.
          1   -1    0    0  501    0 -0.00000000000E+00 -0.00000000000E+00 -0.19224618383E+01  0.19224618383E+01  0.00000000000E+00 0.  1.
          2    1    1    2  501    0  0.22121050255E+02 -0.10157477838E+02  0.56401868856E+03  0.56454370625E+03  0.00000000000E+00 0. -1.
          1    1    1    2  502    0 -0.22121050255E+02  0.10157477838E+02  0.87576793861E+02  0.90896699848E+02  0.00000000000E+00 0.  1.
</event>
<event>
 4    1  0.7181337E+003  0.7861080E+02  0.7546771E-02  0.1207110E+00
          2   -1    0    0  502    0  0.00000000000E+00  0.00000000000E+00  0.86592266916E+03  0.86592266916E+03  0.00000000000E+00 0.  1.
          1   -1    0    0  501    0 -0.00000000000E+00 -0.00000000000E+00 -0.11623609056E+03  0.11623609056E+03  0.00000000000E+00 0.  1.
          2    1    1    2  501    0  0.75704517756E+02  0.21177425217E+02  0.85060858683E+03  0.85423335532E+03  0.00000000000E+00 0.  1.
          1    1    1    2  502    0 -0.75704517756E+02 -0.21177425217E+02 -0.10092200822E+03  0.12792540440E+03  0.00000000000E+00 0.  1.
</event>
<event>
 4    1  0.7181337E+003  0.4089649E+02  0.7546771E-02  0.1343311E+00
          2   -1    0    0  502    0  0.00000000000E+00  0.00000000000E+00  0.25401273211E+03  0.25401273211E+03  0.00000000000E+00 0. -1.
          1   -1    0    0  501    0 -0.00000000000E+00 -0.00000000000E+00 -0.15621172198E+02  0.15621172198E+02  0.00000000000E+00 0. -1.
          2    1    1    2  501    0  0.26517067551E+02  0.31134645963E+02  0.16655523741E+02  0.44157983670E+02  0.00000000000E+00 0. -1.
          1    1    1    2  502    0 -0.26517067551E+02 -0.31134645963E+02  0.22173603617E+03  0.22547592064E+03  0.00000000000E+00 0. -1.
</event>
<event>
 4    1  0.7181337E+003  0.3569530E+02  0.7546771E-02  0.1375740E+00
          2   -1    0    0  502    0  0.00000000000E+00  0.00000000000E+00  0.87849285480E+03  0.87849285480E+03  0.00000000000E+00 0.  1.
          1   -1    0    0  501    0 -0.00000000000E+00 -0.00000000000E+00 -0.39848991400E+01  0.39848991400E+01  0.00000000000E+00 0.  1.
          2    1    1    2  501    0  0.16783187071E+02 -0.31503635899E+02  0.78914833969E+03  0.78995522435E+03  0.00000000000E+00 0.  1.
          1    1    1    2  502    0 -0.16783187071E+02  0.31503635899E+02  0.85359615971E+02  0.92522529591E+02  0.00000000000E+00 0.  1.
</event>
<event>
 4    1  0.7181337E+003  0.3069227E+02  0.7546771E-02  0.1413674E+00
          2   -1    0    0  502    0  0.00000000000E+00  0.00000000000E+00  0.40365600629E+03  0.40365600629E+03  0.00000000000E+00 0.  1.
          1   -1    0    0  501    0 -0.00000000000E+00 -0.00000000000E+00 -0.29736413796E+02  0.29736413796E+02  0.00000000000E+00 0.  1.
          2    1    1    2  501    0 -0.45042771513E+01 -0.30359951850E+02  0.39497915111E+03  0.39616984362E+03  0.00000000000E+00 0.  1.
          1    1    1    2  502    0  0.45042771513E+01  0.30359951850E+02 -0.21059558617E+02  0.37222576457E+02  0.00000000000E+00 0.  1.
</event>
<event>
 4    1  0.7181337E+003  0.2951290E+02  0.7546771E-02  0.1423877E+00
          2   -1    0    0  502    0  0.00000000000E+00  0.00000000000E+00  0.63701075780E+02  0.63701075780E+02  0.00000000000E+00 0.  1.
          1   -1    0    0  501    0 -0.00000000000E+00 -0.00000000000E+00 -0.48971188866E+02  0.48971188866E+02  0.00000000000E+00 0.  1.
          2    1    1    2  501    0  0.27387203459E+02  0.10997835602E+02  0.55193839504E+02  0.62588906528E+02  0.00000000000E+00 0.  1.
          1    1    1    2  502    0 -0.27387203459E+02 -0.10997835602E+02 -0.40463952590E+02  0.50083358118E+02  0.00000000000E+00 0.  1.
</event>
<event>
 4    1  0.7181337E+003  0.2094957E+02  0.7546771E-02  0.1519986E+00
          2   -1    0    0  502    0  0.00000000000E+00  0.00000000000E+00  0.11563011842E+02  0.11563011842E+02  0.00000000000E+00 0. -1.
          1   -1    0    0  501    0 -0.00000000000E+00 -0.00000000000E+00 -0.10015355976E+03  0.10015355976E+03  0.00000000000E+00 0.  1.
          2    1    1    2  501    0  0.94267157956E+01 -0.18708858992E+02 -0.27614192600E+00  0.20951387301E+02  0.00000000000E+00 0. -1.
          1    1    1    2  502    0 -0.94267157956E+01  0.18708858992E+02 -0.88314405992E+02  0.90765184301E+02  0.00000000000E+00 0.  1.
</event>
<event>
 4    1  0.7181337E+003  0.2550853E+02  0.7546771E-02  0.1463194E+00
          2   -1    0    0  502    0  0.00000000000E+00  0.00000000000E+00  0.77624975596E+01  0.77624975596E+01  0.00000000000E+00 0. -1.
          1   -1    0    0  501    0 -0.00000000000E+00 -0.00000000000E+00 -0.41684085000E+03  0.41684085000E+03  0.00000000000E+00 0.  1.
          2    1    1    2  501    0  0.12062344345E+02  0.22476316949E+02 -0.14780662484E+02  0.29481400207E+02  0.00000000000E+00 0. -1.
          1    1    1    2  502    0 -0.12062344345E+02 -0.22476316949E+02 -0.39429768995E+03  0.39512194735E+03  0.00000000000E+00 0.  1.
</event>
<event>
 4    1  0.7181337E+003  0.3917998E+02  0.7546771E-02  0.1353359E+00
          2   -1    0    0  502    0  0.00000000000E+00  0.00000000000E+00  0.40431229365E+04  0.40431229365E+04  0.00000000000E+00 0.  1.
          1   -1    0    0  501    0 -0.00000000000E+00 -0.00000000000E+00 -0.45683736588E+00  0.45683736588E+00  0.00000000000E+00 0.  1.
          2    1    1    2  501    0  0.58071199348E+01  0.38747229961E+02  0.28522536566E+04  0.28525227418E+04  0.00000000000E+00 0.  1.
          1    1    1    2  502    0 -0.58071199348E+01 -0.38747229961E+02  0.11904124425E+04  0.11910570321E+04  0.00000000000E+00 0.  1.
</event>
<event>
 4    1  0.7181337E+003  0.2791527E+02  0.7546771E-02  0.1438625E+00
          2   -1    0    0  502    0  0.00000000000E+00  0.00000000000E+00  0.20516915116E+02  0.20516915116E+02  0.00000000000E+00 0.  1.
          1   -1    0    0  501    0 -0.00000000000E+00 -0.00000000000E+00 -0.87005400900E+03  0.87005400900E+03  0.00000000000E+00 0. -1.
          2    1    1    2  501    0 -0.22015270026E+02  0.17163627671E+02  0.10689188033E+02  0.29891821122E+02  0.00000000000E+00 0.  1.
          1    1    1    2  502    0  0.22015270026E+02 -0.17163627671E+02 -0.86022628191E+03  0.86067910299E+03  0.00000000000E+00 0. -1.
</event>
<event>
 4    1  0.7181337E+003  0.2445634E+02  0.7546771E-02  0.1474978E+00
          2   -1    0    0  502    0  0.00000000000E+00  0.00000000000E+00  0.26309149088E+04  0.26309149088E+04  0.00000000000E+00 0.  1.
          1   -1    0    0  501    0 -0.00000000000E+00 -0.00000000000E+00 -0.22790349209E+00  0.22790349209E+00  0.00000000000E+00 0.  1.
          2    1    1    2  501    0  0.19482241470E+02 -0.14783603656E+02  0.13807488638E+04  0.13809654368E+04  0.00000000000E+00 0.  1.
          1    1    1    2  502    0 -0.19482241470E+02  0.14783603656E+02  0.12499381415E+04  0.12501773755E+04  0.00000000000E+00 0.  1.
</event>
<event>
 4    1  0.7181337E+003  0.2123925E+02  0.7546771E-02  0.1515876E+00
          2   -1    0    0  502    0  0.00000000000E+00  0.00000000000E+00  0.10389464491E+04  0.10389464491E+04  0.00000000000E+00 0.  1.
          1   -1    0    0  501    0 -0.00000000000E+00 -0.00000000000E+00 -0.11906478837E+02  0.11906478837E+02  0.00000000000E+00 0. -1.
          2    1    1    2  501    0  0.73227225154E+01  0.19936984979E+02  0.10292770757E+04  0.10294961895E+04  0.00000000000E+00 0.  1.
          1    1    1    2  502    0 -0.73227225154E+01 -0.19936984979E+02 -0.22371054547E+01  0.21356738419E+02  0.00000000000E+00 0. -1.
</event>
<event>
 4    1  0.7181337E+003  0.2555638E+02  0.7546771E-02  0.1462674E+00
          2   -1    0    0  502    0  0.00000000000E+00  0.00000000000E+00  0.18828206568E+04  0.18828206568E+04  0.00000000000E+00 0.  1.
          1   -1    0    0  501    0 -0.00000000000E+00 -0.00000000000E+00 -0.12473534207E+02  0.12473534207E+02  0.00000000000E+00 0. -1.
          2    1    1    2  501    0  0.16872151496E+02  0.19195293909E+02  0.18695507335E+04  0.18697254007E+04  0.00000000000E+00 0.  1.
          1    1    1    2  502    0 -0.16872151496E+02 -0.19195293909E+02  0.79638911348E+00  0.25568790350E+02  0.00000000000E+00 0. -1.
</event>
<event>
 4    1  0.7181337E+003  0.3265012E+02  0.7546771E-02  0.1397882E+00
          2   -1    0    0  502    0  0.00000000000E+00  0.00000000000E+00  0.22501277934E+04  0.22501277934E+04  0.00000000000E+00 0. -1.
          1   -1    0    0  501    0 -0.00000000000E+00 -0.00000000000E+00 -0.12708931606E+01  0.12708931606E+01  0.00000000000E+00 0. -1.
          2    1    1    2  501    0 -0.32626093373E+02  0.12522342389E+01  0.20159506816E+04  0.20162150631E+04  0.00000000000E+00 0. -1.
          1    1    1    2  502    0  0.32626093373E+02 -0.12522342389E+01  0.23290621862E+03  0.23518362343E+03  0.00000000000E+00 0. -1.
</event>
<event>
 4    1  0.7181337E+003  0.2190270E+02  0.7546771E-02  0.1506757E+00
          2   -1    0    0  502    0  0.00000000000E+00  0.00000000000E+00  0.79261391712E+02  0.79261391712E+02  0.00000000000E+00 0.  1.
          1   -1    0    0  501    0 -0.00000000000E+00 -0.00000000000E+00 -0.12819926461E+04  0.12819926461E+04  0.00000000000E+00 0. -1.
          2    1    1    2  501    0 -0.15388361663E+02 -0.15586097546E+02  0.77652819238E+02  0.80682640308E+02  0.00000000000E+00 0.  1.
          1    1    1    2  502    0  0.15388361663E+02  0.15586097546E+02 -0.12803840736E+04  0.12805713975E+04  0.00000000000E+00 0. -1.
</event>
<event>
 4    1  0.7181337E+003  0.3034028E+02  0.7546771E-02  0.1416662E+00
          2   -1    0    0  502    0  0.00000000000E+00  0.00000000000E+00  0.25822927783E+03  0.25822927783E+03  0.00000000000E+00 0. -1.
          1   -1    0    0  501    0 -0.00000000000E+00 -0.00000000000E+00 -0.22806200672E+02  0.22806200672E+02  0.00000000000E+00 0. -1.
          2    1    1    2  501    0  0.87782534587E+01 -0.29042641243E+02  0.24678089820E+03  0.24863898420E+03  0.00000000000E+00 0. -1.
          1    1    1    2  502    0 -0.87782534587E+01  0.29042641243E+02 -0.11357821049E+02  0.32396494303E+02  0.00000000000E+00 0. -1.
</event>
<event>
 4    1  0.7181337E+003  0.4508726E+02  0.7546771E-02  0.1321004E+00
          2   -1    0    0  502    0  0.00000000000E+00  0.00000000000E+00  0.68602964838E+02  0.68602964838E+02  0.00000000000E+00 0. -1.
          1   -1    0    0  501    0 -0.00000000000E+00 -0.00000000000E+00 -0.13299281937E+03  0.13299281937E+03  0.00000000000E+00 0.  1.
          2    1    1    2  501    0 -0.21026856055E+02  0.39883985036E+02  0.56666805550E+02  0.72415383650E+02  0.00000000000E+00 0. -1.
          1    1    1    2  502    0  0.21026856055E+02 -0.39883985036E+02 -0.12105666008E+03  0.12918040056E+03  0.00000000000E+00 0.  1.
</event>
<event>
 4    1  0.7181337E+003  0.2062739E+02  0.7546771E-02  0.1524652E+00
          2   -1    0    0  502    0  0.00000000000E+00  0.00000000000E+00  0.99904550204E+02  0.99904550204E+02  0.00000000000E+00 0. -1.
          1   -1    0    0  501    0 -0.00000000000E+00 -0.00000000000E+00 -0.78780744837E+01  0.78780744837E+01  0.00000000000E+00 0. -1.
          2    1    1    2  501    0 -0.20579437219E+02  0.14057528703E+01  0.82539896207E+02  0.85078339448E+02  0.00000000000E+00 0. -1.
          1    1    1    2  502    0  0.20579437219E+02 -0.14057528703E+01  0.94865795129E+01  0.22704285239E+02  0.00000000000E+00 0. -1.
</event>
<event>
 4    1  0.7181337E+003  0.6252008E+02  0.7546771E-02  0.1251502E+00
          2   -1    0    0  502    0  0.00000000000E+00  0.00000000000E+00  0.13273800929E+02  0.13273800929E+02  0.00000000000E+00 0.  1.
          1   -1    0    0  501    0 -0.00000000000E+00 -0.00000000000E+00 -0.40635540960E+03  0.40635540960E+03  0.00000000000E+00 0.  1.
          2    1    1    2  501    0  0.26767248560E+02 -0.56500217789E+02 -0.86446232791E+02  0.10668510378E+03  0.00000000000E+00 0.  1.
          1    1    1    2  502    0 -0.26767248560E+02  0.56500217789E+02 -0.30663537588E+03  0.31294410674E+03  0.00000000000E+00 0.  1.
</event>
<event>
 4    1  0.7181337E+003  0.2304794E+02  0.7546771E-02  0.1491897E+00
          2   -1    0    0  502    0  0.00000000000E+00  0.00000000000E+00  0.36820840449E+02  0.36820840449E+02  0.00000000000E+00 0. -1.
          1   -1    0    0  501    0 -0.00000000000E+00 -0.00000000000E+00 -0.15048185975E+03  0.15048185975E+03  0.00000000000E+00 0. -1.
          2    1    1    2  501    0 -0.21239646657E+02 -0.89490091954E+01  0.32218541590E+02  0.39613656457E+02  0.00000000000E+00 0. -1.
          1    1    1    2  502    0  0.21239646657E+02  0.89490091954E+01 -0.14587956089E+03  0.14768904374E+03  0.00000000000E+00 0. -1.
</event>
<event>
 4    1  0.7181337E+003  0.2159537E+02  0.7546771E-02  0.1510932E+00
          2   -1    0    0  502    0  0.00000000000E+00  0.00000000000E+00  0.12745834985E+03  0.12745834985E+03  0.00000000000E+00 0. -1.
          1   -1    0    0  501    0 -0.00000000000E+00 -0.00000000000E+00 -0.39583543437E+01  0.39583543437E+01  0.00000000000E+00 0. -1.
          2    1    1    2  501    0  0.14209585984E+02  0.16261848623E+02  0.79822288229E+02  0.82691944907E+02  0.00000000000E+00 0. -1.
          1    1    1    2  502    0 -0.14209585984E+02 -0.16261848623E+02  0.43677707278E+02  0.48724759286E+02  0.00000000000E+00 0. -1.
</event>
<event>
 4    1  0.7181337E+003  0.2502896E+02  0.7546771E-02  0.1468480E+00
          2   -1    0    0  502    0  0.00000000000E+00  0.00000000000E+00  0.27278987104E+03  0.27278987104E+03  0.00000000000E+00 0. -1.
          1   -1    0    0  501    0 -0.00000000000E+00 -0.00000000000E+00 -0.24999385748E+01  0.24999385748E+01  0.00000000000E+00 0. -1.
          2    1    1    2  501    0  0.14174017889E+02  0.20628761702E+02  0.17441527709E+03  0.17620197921E+03  0.00000000000E+00 0. -1.
          1    1    1    2  502    0 -0.14174017889E+02 -0.20628761702E+02  0.95874655369E+02  0.99087830407E+02  0.00000000000E+00 0. -1.
</event>
<event>
 4    1  0.7181337E+003  0.2138510E+02  0.7546771E-02  0.1513837E+00
          2   -1    0    0  502    0  0.00000000000E+00  0.00000000000E+00  0.14149386329E+02  0.14149386329E+02  0.00000000000E+00 0. -1.
          1   -1    0    0  501    0 -0.00000000000E+00 -0.00000000000E+00 -0.11302172483E+03  0.11302172483E+03  0.00000000000E+00 0. -1.
          2    1    1    2  501    0  0.91270578782E+01  0.19339575683E+02  0.42937529436E+01  0.21811893257E+02  0.00000000000E+00 0. -1.
          1    1    1    2  502    0 -0.91270578782E+01 -0.19339575683E+02 -0.10316609144E+03  0.10535921790E+03  0.00000000000E+00 0. -1.
</event>
<event>
 4    1  0.7181337E+003  0.2865018E+02  0.7546771E-02  0.1431701E+00
          2   -1    0    0  502    0  0.00000000000E+00  0.00000000000E+00  0.14205474792E+03  0.14205474792E+03  0.00000000000E+00 0. -1.
          1   -1    0    0  501    0 -0.00000000000E+00 -0.00000000000E+00 -0.58817578616E+03  0.58817578616E+03  0.00000000000E+00 0. -1.
          2    1    1    2  501    0  0.40015173140E+01 -0.28369360466E+02  0.14025686103E+03  0.14315313416E+03  0.00000000000E+00 0. -1.
          1    1    1    2  502    0 -0.40015173140E+01  0.28369360466E+02 -0.58637789926E+03  0.58707739992E+03  0.00000000000E+00 0. -1.
</event>
<event>
 4    1  0.7181337E+003  0.2481658E+02  0.7546771E-02  0.1470866E+00
          2   -1    0    0  502    0  0.00000000000E+00  0.00000000000E+00  0.32189319354E+03  0.32189319354E+03  0.00000000000E+00 0.  1.
          1   -1    0    0  501    0 -0.00000000000E+00 -0.00000000000E+00 -0.63071825243E+02  0.63071825243E+02  0.00000000000E+00 0. -1.
          2    1    1    2  501    0  0.45269120661E+01  0.24400201042E+02  0.31895128172E+03  0.31991527449E+03  0.00000000000E+00 0.  1.
          1    1    1    2  502    0 -0.45269120661E+01 -0.24400201042E+02 -0.60129913424E+02  0.65049744289E+02  0.00000000000E+00 0. -1.
</event>
<event>
 4    1  0.7181337E+003  0.2026414E+02  0.7546771E-02  0.1530035E+00
          2   -1    0    0  502    0  0.00000000000E+00  0.00000000000E+00  0.43035632495E+00  0.43035632495E+00  0.00000000000E+00 0.  1.
          1   -1    0    0  501    0 -0.00000000000E+00 -0.00000000000E+00 -0.10425862059E+04  0.10425862059E+04  0.00000000000E+00 0. -1.
          2    1    1    2  501    0  0.19928262484E+02  0.36742063177E+01 -0.36921289247E+03  0.36976857005E+03  0.00000000000E+00 0.  1.
          1    1    1    2  502    0 -0.19928262484E+02 -0.36742063177E+01 -0.67294295711E+03  0.67324799217E+03  0.00000000000E+00 0. -1.
</event>
<event>
 4    1  0.7181337E+003  0.2403798E+02  0.7546771E-02  0.1479860E+00
          2   -1    0    0  502    0  0.00000000000E+00  0.00000000000E+00  0.95487562349E+02  0.95487562349E+02  0.00000000000E+00 0.  1.
          1   -1    0    0  501    0 -0.00000000000E+00 -0.00000000000E+00 -0.73702496575E+01  0.73702496575E+01  0.00000000000E+00 0. -1.
          2    1    1    2  501    0  0.23848537998E+02  0.30118989549E+01  0.65814683016E+02  0.70067087855E+02  0.00000000000E+00 0.  1.
          1    1    1    2  502    0 -0.23848537998E+02 -0.30118989549E+01  0.22302629675E+02  0.32790724152E+02  0.00000000000E+00 0. -1.
</event>
<event>
 4    1  0.7181337E+003  0.2338588E+02  0.7546771E-02  0.1487709E+00
          2   -1    0    0  502    0  0.00000000000E+00  0.00000000000E+00  0.61943731686E+03  0.61943731686E+03  0.00000000000E+00 0. -1.
          1   -1    0    0  501    0 -0.00000000000E+00 -0.00000000000E+00 -0.13905505969E+02  0.13905505969E+02  0.00000000000E+00 0.  1.
          2    1    1    2  501    0  0.10326202779E+02  0.20982586240E+02  0.60921931585E+03  0.60966800325E+03  0.00000000000E+00 0. -1.
          1    1    1    2  502    0 -0.10326202779E+02 -0.20982586240E+02 -0.36875049570E+01  0.23674819576E+02  0.00000000000E+00 0.  1.
</event>
<event>
 4    1  0.7181337E+003  0.2157669E+02  0.7546771E-02  0.1511188E+00
          2   -1    0    0  502    0  0.00000000000E+00  0.00000000000E+00  0.75935742758E+03  0.75935742758E+03  0.00000000000E+00 0. -1.
          1   -1    0    0  501    0 -0.00000000000E+00 -0.00000000000E+00 -0.51269932124E+02  0.51269932124E+02  0.00000000000E+00 0. -1.
          2    1    1    2  501    0 -0.18994263079E+02 -0.10235797779E+02  0.75692675677E+03  0.75723422315E+03  0.00000000000E+00 0. -1.
          1    1    1    2  502    0  0.18994263079E+02  0.10235797779E+02 -0.48839261314E+02  0.53393136560E+02  0.00000000000E+00 0. -1.
</event>
<event>
 4    1  0.7181337E+003  0.4509822E+02  0.7546771E-02  0.1320949E+00
          2   -1    0    0  502    0  0.00000000000E+00  0.00000000000E+00  0.85784442486E+03  0.85784442486E+03  0.00000000000E+00 0. -1.
          1   -1    0    0  501    0 -0.00000000000E+00 -0.00000000000E+00 -0.26749548335E+01  0.26749548335E+01  0.00000000000E+00 0. -1.
          2    1    1    2  501    0 -0.13520839505E+02 -0.43023675939E+02  0.57264874327E+03  0.57442182493E+03  0.00000000000E+00 0. -1.
          1    1    1    2  502    0  0.13520839505E+02  0.43023675939E+02  0.28252072676E+03  0.28609755476E+03  0.00000000000E+00 0. -1.
</event>
<event>
 4    1  0.7181337E+003  0.2325195E+02  0.7546771E-02  0.1489358E+00
          2   -1    0    0  502    0  0.00000000000E+00  0.00000000000E+00  0.71349959512E+03  0.71349959512E+03  0.00000000000E+00 0. -1.
          1   -1    0    0  501    0 -0.00000000000E+00 -0.00000000000E+00 -0.60487812677E+02  0.60487812677E+02  0.00000000000E+00 0.  1.
          2    1    1    2  501    0 -0.11691693752E+00 -0.23251653220E+02  0.71106796499E+03  0.71144803316E+03  0.00000000000E+00 0. -1.
          1    1    1    2  502    0  0.11691693752E+00  0.23251653220E+02 -0.58056182553E+02  0.62539374634E+02  0.00000000000E+00 0.  1.
</event>
<event>
 4    1  0.7181337E+003  0.3259286E+02  0.7546771E-02  0.1398325E+00
          2   -1    0    0  502    0  0.00000000000E+00  0.00000000000E+00  0.93916810214E+01  0.93916810214E+01  0.00000000000E+00 0. -1.
          1   -1    0    0  501    0 -0.00000000000E+00 -0.00000000000E+00 -0.11956696350E+03  0.11956696350E+03  0.00000000000E+00 0. -1.
          2    1    1    2  501    0  0.17378133836E+02  0.27573451025E+02 -0.40103807211E+02  0.51677945875E+02  0.00000000000E+00 0. -1.
          1    1    1    2  502    0 -0.17378133836E+02 -0.27573451025E+02 -0.70071475265E+02  0.77280698644E+02  0.00000000000E+00 0. -1.
</event>
<event>
 4    1  0.7181337E+003  0.2602597E+02  0.7546771E-02  0.1457646E+00
          2   -1    0    0  502    0  0.00000000000E+00  0.00000000000E+00  0.12803214114E+01  0.12803214114E+01  0.00000000000E+00 0.  1.
          1   -1    0    0  501    0 -0.00000000000E+00 -0.00000000000E+00 -0.93503653329E+03  0.93503653329E+03  0.00000000000E+00 0.  1.
          2    1    1    2  501    0 -0.10530307246E+02  0.23800500934E+02 -0.15839204087E+03  0.16051601112E+03  0.00000000000E+00 0.  1.
          1    1    1    2  502    0  0.10530307246E+02 -0.23800500934E+02 -0.77536417101E+03  0.77580084358E+03  0.00000000000E+00 0.  1.
</event>
<event>
 4    1  0.7181337E+003  0.2735144E+02  0.7546771E-02  0.1444109E+00
          2   -1    0    0  502    0  0.00000000000E+00  0.00000000000E+00  0.32232793443E+03  0.32232793443E+03  0.00000000000E+00 0.  1.
          1   -1    0    0  501    0 -0.00000000000E+00 -0.00000000000E+00 -0.11072363364E+02  0.11072363364E+02  0.00000000000E+00 0.  1.
          2    1    1    2  501    0 -0.16395837316E+02  0.21892417639E+02  0.30383022487E+03  0.30505885821E+03  0.00000000000E+00 0.  1.
          1    1    1    2  502    0  0.16395837316E+02 -0.21892417639E+02  0.74253462001E+01  0.28341439582E+02  0.00000000000E+00 0.  1.
</event>
<event>
 4    1  0.7181337E+003  0.2753810E+02  0.7546771E-02  0.1442276E+00
          2   -1    0    0  502    0  0.00000000000E+00  0.00000000000E+00  0.18752548408E+04  0.18752548408E+04  0.00000000000E+00 0.  1.
          1   -1    0    0  501    0 -0.00000000000E+00 -0.00000000000E+00 -0.10561790895E+01  0.10561790895E+01  0.00000000000E+00 0. -1.
          2    1    1    2  501    0 -0.27443137317E+02 -0.22850196111E+01  0.16740820781E+04  0.16743085591E+04  0.00000000000E+00 0.  1.
          1    1    1    2  502    0  0.27443137317E+02  0.22850196111E+01  0.20011658371E+03  0.20200246082E+03  0.00000000000E+00 0. -1.
</event>
<event>
 4    1  0.7181337E+003  0.2077669E+02  0.7546771E-02  0.1522477E+00
          2   -1    0    0  502    0  0.00000000000E+00  0.00000000000E+00  0.14301613023E+04  0.14301613023E+04  0.00000000000E+00 0. -1.
          1   -1    0    0  501    0 -0.00000000000E+00 -0.00000000000E+00 -0.76473534734E+00  0.76473534734E+00  0.00000000000E+00 0.  1.
          2    1    1    2  501    0  0.82797708950E+01  0.19055604743E+02  0.12713403670E+04  0.12715101255E+04  0.00000000000E+00 0. -1.
          1    1    1    2  502    0 -0.82797708950E+01 -0.19055604743E+02  0.15805619998E+03  0.15941591210E+03  0.00000000000E+00 0.  1.
</event>
<event>
 4    1  0.7181337E+003  0.2119088E+02  0.7546771E-02  0.1516557E+00
          2   -1    0    0  502    0  0.00000000000E+00  0.00000000000E+00  0.70676975616E+03  0.70676975616E+03  0.00000000000E+00 0.  1.
          1   -1    0    0  501    0 -0.00000000000E+00 -0.00000000000E+00 -0.52722704617E+01  0.52722704617E+01  0.00000000000E+00 0.  1.
          2    1    1    2  501    0 -0.21122651951E+02  0.16991534927E+01  0.68462929684E+03  0.68495717212E+03  0.00000000000E+00 0.  1.
          1    1    1    2  502    0  0.21122651951E+02 -0.16991534927E+01  0.16868188861E+02  0.27084854504E+02  0.00000000000E+00 0.  1.
</event>
<event>
 4    1  0.7181337E+003  0.2741424E+02  0.7546771E-02  0.1443491E+00
          2   -1    0    0  502    0  0.00000000000E+00  0.00000000000E+00  0.15792633988E+04  0.15792633988E+04  0.00000000000E+00 0.  1.
          1   -1    0    0  501    0 -0.00000000000E+00 -0.00000000000E+00 -0.15624825311E+01  0.15624825311E+01  0.00000000000E+00 0.  1.
          2    1    1    2  501    0 -0.23416200680E+02  0.14255602550E+02  0.14479965973E+04  0.14482560845E+04  0.00000000000E+00 0.  1.
          1    1    1    2  502    0  0.23416200680E+02 -0.14255602550E+02  0.12970431902E+03  0.13256979683E+03  0.00000000000E+00 0.  1.
</event>
<event>
 4    1  0.7181337E+003  0.2028117E+02  0.7546771E-02  0.1529780E+00
          2   -1    0    0  502    0  0.00000000000E+00  0.00000000000E+00  0.11969553502E+04  0.11969553502E+04  0.00000000000E+00 0. -1.
          1   -1    0    0  501    0 -0.00000000000E+00 -0.00000000000E+00 -0.43587503686E+01  0.43587503686E+01  0.00000000000E+00 0. -1.
          2    1    1    2  501    0 -0.99115289775E+01  0.17694275762E+02  0.11727914359E+04  0.11729667846E+04  0.00000000000E+00 0. -1.
          1    1    1    2  502    0  0.99115289775E+01 -0.17694275762E+02  0.19805163972E+02  0.28347315946E+02  0.00000000000E+00 0. -1.
</event>
<event>
 4    1  0.7181337E+003  0.4271705E+02  0.7546771E-02  0.1333260E+00
          2   -1    0    0  502    0  0.00000000000E+00  0.00000000000E+00  0.31070689162E+04  0.31070689162E+04  0.00000000000E+00 0.  1.
          1   -1    0    0  501    0 -0.00000000000E+00 -0.00000000000E+00 -0.15351934847E+01  0.15351934847E+01  0.00000000000E+00 0.  1.
          2    1    1    2  501    0 -0.42571509798E+02  0.35232455716E+01  0.27741057953E+04  0.27744346650E+04  0.00000000000E+00 0.  1.
          1    1    1    2  502    0  0.42571509798E+02 -0.35232455716E+01  0.33142792741E+03  0.33416944470E+03  0.00000000000E+00 0.  1.
</event>
<event>
 4    1  0.7181337E+003  0.2302079E+02  0.7546771E-02  0.1492237E+00
          2   -1    0    0  502    0  0.00000000000E+00  0.00000000000E+00  0.47850723555E+03  0.47850723555E+03  0.00000000000E+00 0. -1.
          1   -1    0    0  501    0 -0.00000000000E+00 -0.00000000000E+00 -0.92895012245E+01  0.92895012245E+01  0.00000000000E+00 0.  1.
          2    1    1    2  501    0  0.21481043255E+02  0.82777684259E+01  0.46350682473E+03  0.46407815424E+03  0.00000000000E+00 0. -1.
          1    1    1    2  502    0 -0.21481043255E+02 -0.82777684259E+01  0.57109096030E+01  0.23718582544E+02  0.00000000000E+00 0.  1.
</event>
<event>
 4    1  0.7181337E+003  0.2317054E+02  0.7546771E-02  0.1490368E+00
          2   -1    0    0  502    0  0.00000000000E+00  0.00000000000E+00  0.11139332623E+03  0.11139332623E+03  0.00000000000E+00 0. -1.
          1   -1    0    0  501    0 -0.00000000000E+00 -0.00000000000E+00 -0.17557965256E+02  0.17557965256E+02  0.00000000000E+00 0. -1.
          2    1    1    2  501    0  0.18981401332E+02  0.13288358173E+02  0.10183572066E+03  0.10443844150E+03  0.00000000000E+00 0. -1.
          1    1    1    2  502    0 -0.18981401332E+02 -0.13288358173E+02 -0.80003596881E+01  0.24512849990E+02  0.00000000000E+00 0. -1.
</event>
<event>
 4    1  0.7181337E+003  0.3144809E+02  0.7546771E-02  0.1407416E+00
          2   -1    0    0  502    0  0.00000000000E+00  0.00000000000E+00  0.30208180554E+02  0.30208180554E+02  0.00000000000E+00 0.  1.
          1   -1    0    0  501    0 -0.00000000000E+00 -0.00000000000E+00 -0.29531634493E+03  0.29531634493E+03  0.00000000000E+00 0. -1.
          2    1    1    2  501    0  0.27167776707E+02  0.15839639891E+02  0.20921289660E+02  0.37771452766E+02  0.00000000000E+00 0.  1.
          1    1    1    2  502    0 -0.27167776707E+02 -0.15839639891E+02 -0.28602945403E+03  0.28775307272E+03  0.00000000000E+00 0. -1.
</event>
<event>
 4    1  0.7233274E+003  0.2379100E+02  0.7546771E-02  0.1482797E+00
          2   -1    0    0  502    0  0.00000000000E+00  0.00000000000E+00  0.95729209729E+03  0.95729209729E+03  0.00000000000E+00 0.  1.
          1   -1    0    0  501    0 -0.00000000000E+00 -0.00000000000E+00 -0.23065982775E+03  0.23065982775E+03  0.00000000000E+00 0.  1.
          2    1    1    2  501    0 -0.21752666733E+02 -0.96350056890E+01  0.95653032260E+03  0.95682614403E+03  0.00000000000E+00 0.  1.
          1    1    1    2  502    0  0.21752666733E+02  0.96350056890E+01 -0.22989805306E+03  0.23112578101E+03  0.00000000000E+00 0.  1.
</event>
<event>
 4    1  0.7181337E+003  0.2451287E+02  0.7546771E-02  0.1474327E+00
          2   -1    0    0  502    0  0.00000000000E+00  0.00000000000E+00  0.81846739892E+00  0.81846739892E+00  0.00000000000E+00 0.  1.
          1   -1    0    0  501    0 -0.00000000000E+00 -0.00000000000E+00 -0.10169683211E+04  0.10169683211E+04  0.00000000000E+00 0. -1.
          2    1    1    2  501    0  0.22937287862E+02  0.86464688773E+01 -0.23971090974E+03  0.24096099445E+03  0.00000000000E+00 0.  1.
          1    1    1    2  502    0 -0.22937287862E+02 -0.86464688773E+01 -0.77643894400E+03  0.77682579409E+03  0.00000000000E+00 0. -1.
</event>
<event>
 4    1  0.7181337E+003  0.2410267E+02  0.7546771E-02  0.1479097E+00
          2   -1    0    0  502    0  0.00000000000E+00  0.00000000000E+00  0.12913428332E+02  0.12913428332E+02  0.00000000000E+00 0.  1.
          1   -1    0    0  501    0 -0.00000000000E+00 -0.00000000000E+00 -0.10745150264E+03  0.10745150264E+03  0.00000000000E+00 0.  1.
          2    1    1    2  501    0  0.16793580310E+02  0.17289135028E+02 -0.13830796245E+01  0.24142316353E+02  0.00000000000E+00 0.  1.
          1    1    1    2  502    0 -0.16793580310E+02 -0.17289135028E+02 -0.93154994683E+02  0.96222614619E+02  0.00000000000E+00 0.  1.
</event>
<event>
 4    1  0.7181337E+003  0.2851586E+02  0.7546771E-02  0.1432948E+00
          2   -1    0    0  502    0  0.00000000000E+00  0.00000000000E+00  0.13424725533E+04  0.13424725533E+04  0.00000000000E+00 0.  1.
          1   -1    0    0  501    0 -0.00000000000E+00 -0.00000000000E+00 -0.69457228593E+00  0.69457228593E+00  0.00000000000E+00 0.  1.
          2    1    1    2  501    0  0.27169849125E+02  0.86575793910E+01  0.91109859452E+03  0.91154473468E+03  0.00000000000E+00 0.  1.
          1    1    1    2  502    0 -0.27169849125E+02 -0.86575793910E+01  0.43067938650E+03  0.43162239091E+03  0.00000000000E+00 0.  1.
</event>
<event>
 4    1  0.7181337E+003  0.2150948E+02  0.7546771E-02  0.1512114E+00
          2   -1    0    0  502    0  0.00000000000E+00  0.00000000000E+00  0.14440820449E+03  0.14440820449E+03  0.00000000000E+00 0.  1.
          1   -1    0    0  501    0 -0.00000000000E+00 -0.00000000000E+00 -0.33228724044E+01  0.33228724044E+01  0.00000000000E+00 0.  1.
          2    1    1    2  501    0 -0.35491067410E+01 -0.21214652412E+02  0.84524282384E+02  0.87218185879E+02  0.00000000000E+00 0.  1.
          1    1    1    2  502    0  0.35491067410E+01  0.21214652412E+02  0.56561049700E+02  0.60512891013E+02  0.00000000000E+00 0.  1.
</event>
<event>
 4    1  0.7181337E+003  0.2143976E+02  0.7546771E-02  0.1513078E+00
          2   -1    0    0  502    0  0.00000000000E+00  0.00000000000E+00  0.76155839709E+02  0.76155839709E+02  0.00000000000E+00 0.  1.
          1   -1    0    0  501    0 -0.00000000000E+00 -0.00000000000E+00 -0.12477343508E+02  0.12477343508E+02  0.00000000000E+00 0.  1.
          2    1    1    2  501    0 -0.18121559418E+02  0.11457415545E+02  0.63681181550E+02  0.67193423565E+02  0.00000000000E+00 0.  1.
          1    1    1    2  502    0  0.18121559418E+02 -0.11457415545E+02 -0.26853495046E-02  0.21439759652E+02  0.00000000000E+00 0.  1.
</event>
<event>
 4    1  0.7181337E+003  0.2256412E+02  0.7546771E-02  0.1498045E+00
          2   -1    0    0  502    0  0.00000000000E+00  0.00000000000E+00  0.12343791975E+03  0.12343791975E+03  0.00000000000E+00 0. -1.
          1   -1    0    0  501    0 -0.00000000000E+00 -0.00000000000E+00 -0.18728535314E+02  0.18728535314E+02  0.00000000000E+00 0. -1.
          2    1    1    2  501    0 -0.13854471646E+02  0.17809919469E+02  0.11512427902E+03  0.11731470170E+03  0.00000000000E+00 0. -1.
          1    1    1    2  502    0  0.13854471646E+02 -0.17809919469E+02 -0.10414894581E+02  0.24851753362E+02  0.00000000000E+00 0. -1.
</event>
<event>
 4    1  0.7181337E+003  0.4233107E+02  0.7546771E-02  0.1335342E+00
          2   -1    0    0  502    0  0.00000000000E+00  0.00000000000E+00  0.14498278481E+04  0.14498278481E+04  0.00000000000E+00 0. -1.
          1   -1    0    0  501    0 -0.00000000000E+00 -0.00000000000E+00 -0.19375942283E+01  0.19375942283E+01  0.00000000000E+00 0.  1.
          2    1    1    2  501    0  0.39488223832E+02  0.15251229915E+02  0.11607549849E+04  0.11615266053E+04  0.00000000000E+00 0. -1.
          1    1    1    2  502    0 -0.39488223832E+02 -0.15251229915E+02  0.28713526892E+03  0.29023883698E+03  0.00000000000E+00 0.  1.
</event>
<event>
 4    1  0.7181337E+003  0.2764983E+02  0.7546771E-02  0.1441187E+00
          2   -1    0    0  502    0  0.00000000000E+00  0.00000000000E+00  0.94893728918E+03  0.94893728918E+03  0.00000000000E+00 0. -1.
          1   -1    0    0  501    0 -0.00000000000E+00 -0.00000000000E+00 -0.21776106180E+03  0.21776106180E+03  0.00000000000E+00 0.  1.
          2    1    1    2  501    0 -0.82469984481E+01  0.26391285582E+02  0.94785717929E+03  0.94826037842E+03  0.00000000000E+00 0. -1.
          1    1    1    2  502    0  0.82469984481E+01 -0.26391285582E+02 -0.21668095191E+03  0.21843797257E+03  0.00000000000E+00 0.  1.
</event>
<event>
 4    1  0.7181337E+003  0.2777576E+02  0.7546771E-02  0.1439967E+00
          2   -1    0    0  502    0  0.00000000000E+00  0.00000000000E+00  0.85316117262E+03  0.85316117262E+03  0.00000000000E+00 0.  1.
          1   -1    0    0  501    0 -0.00000000000E+00 -0.00000000000E+00 -0.85720011408E+01  0.85720011408E+01  0.00000000000E+00 0. -1.
          2    1    1    2  501    0  0.25243642495E+02  0.11586683236E+02  0.82980150748E+03  0.83026624316E+03  0.00000000000E+00 0.  1.
          1    1    1    2  502    0 -0.25243642495E+02 -0.11586683236E+02  0.14787663997E+02  0.31466930599E+02  0.00000000000E+00 0. -1.
</event>
<event>
 4    1  0.7181337E+003  0.5379497E+02  0.7546771E-02  0.1282507E+00
          2   -1    0    0  502    0  0.00000000000E+00  0.00000000000E+00  0.35945241493E+01  0.35945241493E+01  0.00000000000E+00 0. -1.
          1   -1    0    0  501    0 -0.00000000000E+00 -0.00000000000E+00 -0.99883876524E+03  0.99883876524E+03  0.00000000000E+00 0. -1.
          2    1    1    2  501    0  0.47989332864E+02 -0.24308898880E+02 -0.27687120956E+03  0.28204887044E+03  0.00000000000E+00 0. -1.
          1    1    1    2  502    0 -0.47989332864E+02  0.24308898880E+02 -0.71837303153E+03  0.72038441895E+03  0.00000000000E+00 0. -1.
</event>
<event>
 4    1  0.7181337E+003  0.2406226E+02  0.7546771E-02  0.1479573E+00
          2   -1    0    0  502    0  0.00000000000E+00  0.00000000000E+00  0.10074844639E+04  0.10074844639E+04  0.00000000000E+00 0.  1.
          1   -1    0    0  501    0 -0.00000000000E+00 -0.00000000000E+00 -0.70427473004E+00  0.70427473004E+00  0.00000000000E+00 0.  1.
          2    1    1    2  501    0  0.18883392772E+02  0.14913405746E+02  0.71962018641E+03  0.72002236416E+03  0.00000000000E+00 0.  1.
          1    1    1    2  502    0 -0.18883392772E+02 -0.14913405746E+02  0.28716000280E+03  0.28816637451E+03  0.00000000000E+00 0.  1.
</event>
<event>
 4    1  0.7181337E+003  0.2090716E+02  0.7546771E-02  0.1520594E+00
          2   -1    0    0  502    0  0.00000000000E+00  0.00000000000E+00  0.35265732308E+02  0.35265732308E+02  0.00000000000E+00 0.  1.
          1   -1    0    0  501    0 -0.00000000000E+00 -0.00000000000E+00 -0.18689606514E+03  0.18689606514E+03  0.00000000000E+00 0. -1.
          2    1    1    2  501    0  0.12615709083E+02  0.16671930301E+02  0.31519170536E+02  0.37822843454E+02  0.00000000000E+00 0.  1.
          1    1    1    2  502    0 -0.12615709083E+02 -0.16671930301E+02 -0.18314950337E+03  0.18433895399E+03  0.00000000000E+00 0. -1.
</event>
<event>
 4    1  0.7181337E+003  0.2423668E+02  0.7546771E-02  0.1477527E+00
          2   -1    0    0  502    0  0.00000000000E+00  0.00000000000E+00  0.24704006668E+03  0.24704006668E+03  0.00000000000E+00 0.  1.
          1   -1    0    0  501    0 -0.00000000000E+00 -0.00000000000E+00 -0.14842548406E+03  0.14842548406E+03  0.00000000000E+00 0. -1.
          2    1    1    2  501    0 -0.21566038031E+02  0.11059958804E+02  0.24544980351E+03  0.24664351346E+03  0.00000000000E+00 0.  1.
          1    1    1    2  502    0  0.21566038031E+02 -0.11059958804E+02 -0.14683522090E+03  0.14882203728E+03  0.00000000000E+00 0. -1.
</event>
<event>
 4    1  0.7181337E+003  0.2984873E+02  0.7546771E-02  0.1420916E+00
          2   -1    0    0  502    0  0.00000000000E+00  0.00000000000E+00  0.35423110018E+03  0.35423110018E+03  0.00000000000E+00 0. -1.
          1   -1    0    0  501    0 -0.00000000000E+00 -0.00000000000E+00 -0.25967767939E+01  0.25967767939E+01  0.00000000000E+00 0.  1.
          2    1    1    2  501    0 -0.15427826118E+02 -0.25552473886E+02  0.20744794148E+03  0.20958433902E+03  0.00000000000E+00 0. -1.
          1    1    1    2  502    0  0.15427826118E+02  0.25552473886E+02  0.14418638191E+03  0.14724353795E+03  0.00000000000E+00 0.  1.
</event>
<event>
 4    1  0.7181337E+003  0.7213822E+02  0.7546771E-02  0.1223378E+00
          2   -1    0    0  502    0  0.00000000000E+00  0.00000000000E+00  0.54781437640E+03  0.54781437640E+03  0.00000000000E+00 0. -1.
          1   -1    0    0  501    0 -0.00000000000E+00 -0.00000000000E+00 -0.10102223794E+02  0.10102223794E+02  0.00000000000E+00 0. -1.
          2    1    1    2  501    0  0.64343653193E+02 -0.32616209405E+02  0.33699827892E+03  0.34463279417E+03  0.00000000000E+00 0. -1.
          1    1    1    2  502    0 -0.64343653193E+02  0.32616209405E+02  0.20071387369E+03  0.21328380603E+03  0.00000000000E+00 0. -1.
</event>
<event>
 4    1  0.7181337E+003  0.2290149E+02  0.7546771E-02  0.1493739E+00
          2   -1    0    0  502    0  0.00000000000E+00  0.00000000000E+00  0.14142975959E+03  0.14142975959E+03  0.00000000000E+00 0.  1.
          1   -1    0    0  501    0 -0.00000000000E+00 -0.00000000000E+00 -0.67739464749E+01  0.67739464749E+01  0.00000000000E+00 0. -1.
          2    1    1    2  501    0 -0.16638227640E+02  0.15736825971E+02  0.11717754871E+03  0.11939454021E+03  0.00000000000E+00 0.  1.
          1    1    1    2  502    0  0.16638227640E+02 -0.15736825971E+02  0.17478264410E+02  0.28809165858E+02  0.00000000000E+00 0. -1.
</event>
<event>
 4    1  0.7181337E+003  0.2033363E+02  0.7546771E-02  0.1528995E+00
          2   -1    0    0  502    0  0.00000000000E+00  0.00000000000E+00  0.21999074598E+01  0.21999074598E+01  0.00000000000E+00 0. -1.
          1   -1    0    0  501    0 -0.00000000000E+00 -0.00000000000E+00 -0.25989134741E+03  0.25989134741E+03  0.00000000000E+00 0. -1.
          2    1    1    2  501    0  0.19857239454E+02 -0.43756742746E+01 -0.59895123349E+02  0.63252527895E+02  0.00000000000E+00 0. -1.
          1    1    1    2  502    0 -0.19857239454E+02  0.43756742746E+01 -0.19779631660E+03  0.19883872698E+03  0.00000000000E+00 0. -1.
</event>
<event>
 4    1  0.7181337E+003  0.2770372E+02  0.7546771E-02  0.1440664E+00
          2   -1    0    0  502    0  0.00000000000E+00  0.00000000000E+00  0.17357230593E+03  0.17357230593E+03  0.00000000000E+00 0.  1.
          1   -1    0    0  501    0 -0.00000000000E+00 -0.00000000000E+00 -0.54772826887E+01  0.54772826887E+01  0.00000000000E+00 0.  1.
          2    1    1    2  501    0  0.22773603049E+00 -0.27702788186E+02  0.12334755683E+03  0.12642039437E+03  0.00000000000E+00 0.  1.
          1    1    1    2  502    0 -0.22773603049E+00  0.27702788186E+02  0.44747466417E+02  0.52629194253E+02  0.00000000000E+00 0.  1.
</event>
<event>
 4    1  0.7181337E+003  0.2417488E+02  0.7546771E-02  0.1478250E+00
          2   -1    0    0  502    0  0.00000000000E+00  0.00000000000E+00  0.21032855853E+04  0.21032855853E+04  0.00000000000E+00 0.  1.
          1   -1    0    0  501    0 -0.00000000000E+00 -0.00000000000E+00 -0.46175458324E+00  0.46175458324E+00  0.00000000000E+00 0. -1.
          2    1    1    2  501    0 -0.10449639215E+02 -0.21799765401E+02  0.17152148832E+04  0.17153852396E+04  0.00000000000E+00 0.  1.
          1    1    1    2  502    0  0.10449639215E+02  0.21799765401E+02  0.38760894750E+03  0.38836210026E+03  0.00000000000E+00 0. -1.
</event>
<event>
 4    1  0.7181337E+003  0.2431802E+02  0.7546771E-02  0.1476579E+00
          2   -1    0    0  502    0  0.00000000000E+00  0.00000000000E+00  0.82810654926E+02  0.82810654926E+02  0.00000000000E+00 0.  1.
          1   -1    0    0  501    0 -0.00000000000E+00 -0.00000000000E+00 -0.21157225094E+02  0.21157225094E+02  0.00000000000E+00 0. -1.
          2    1    1    2  501    0 -0.23139415669E+02 -0.74788826009E+01  0.73137637818E+02  0.77074511403E+02  0.00000000000E+00 0.  1.
          1    1    1    2  502    0  0.23139415669E+02  0.74788826009E+01 -0.11484207986E+02  0.26893368617E+02  0.00000000000E+00 0. -1.
</event>
<event>
 4    1  0.7181337E+003  0.2463903E+02  0.7546771E-02  0.1472882E+00
          2   -1    0    0  502    0  0.00000000000E+00  0.00000000000E+00  0.19296761590E+02  0.19296761590E+02  0.00000000000E+00 0. -1.
          1   -1    0    0  501    0 -0.00000000000E+00 -0.00000000000E+00 -0.41110366649E+02  0.41110366649E+02  0.00000000000E+00 0.  1.
          2    1    1    2  501    0  0.10859978091E+02 -0.22116567859E+02  0.37266876735E+01  0.24919267626E+02  0.00000000000E+00 0. -1.
          1    1    1    2  502    0 -0.10859978091E+02  0.22116567859E+02 -0.25540292732E+02  0.35487860613E+02  0.00000000000E+00 0.  1.
</event>
<event>
 4    1  0.7181337E+003  0.2266756E+02  0.7546771E-02  0.1496715E+00
          2   -1    0    0  502    0  0.00000000000E+00  0.00000000000E+00  0.19676076805E+03  0.19676076805E+03  0.00000000000E+00 0.  1.
          1   -1    0    0  501    0 -0.00000000000E+00 -0.00000000000E+00 -0.43968438820E+02  0.43968438820E+02  0.00000000000E+00 0. -1.
          2    1    1    2  501    0 -0.21793361883E+02  0.62344092230E+01  0.19313169300E+03  0.19445737148E+03  0.00000000000E+00 0.  1.
          1    1    1    2  502    0  0.21793361883E+02 -0.62344092230E+01 -0.40339363774E+02  0.46271835389E+02  0.00000000000E+00 0. -1.
</event>
<event>
 4    1  0.7181337E+003  0.2850516E+02  0.7546771E-02  0.1433047E+00
          2   -1    0    0  502    0  0.00000000000E+00  0.00000000000E+00  0.22445968565E+01  0.22445968565E+01  0.00000000000E+00 0. -1.
          1   -1    0    0  501    0 -0.00000000000E+00 -0.00000000000E+00 -0.79065868905E+03  0.79065868905E+03  0.00000000000E+00 0.  1.
          2    1    1    2  501    0 -0.25095685921E+02 -0.13518525133E+02 -0.10229532492E+03  0.10619264322E+03  0.00000000000E+00 0. -1.
          1    1    1    2  502    0  0.25095685921E+02  0.13518525133E+02 -0.68611876727E+03  0.68671064268E+03  0.00000000000E+00 0.  1.
</event>
<event>
 4    1  0.7181337E+003  0.2005185E+02  0.7546771E-02  0.1533245E+00
          2   -1    0    0  502    0  0.00000000000E+00  0.00000000000E+00  0.30853188589E+03  0.30853188589E+03  0.00000000000E+00 0.  1.
          1   -1    0    0  501    0 -0.00000000000E+00 -0.00000000000E+00 -0.46367596465E+03  0.46367596465E+03  0.00000000000E+00 0.  1.
          2    1    1    2  501    0  0.17983470505E+02 -0.88696921277E+01  0.30798891830E+03  0.30864097337E+03  0.00000000000E+00 0.  1.
          1    1    1    2  502    0 -0.17983470505E+02  0.88696921277E+01 -0.46313299706E+03  0.46356687717E+03  0.00000000000E+00 0.  1.
</event>
<event>
 4    1  0.7181337E+003  0.2996527E+02  0.7546771E-02  0.1419899E+00
          2   -1    0    0  502    0  0.00000000000E+00  0.00000000000E+00  0.18109968470E+04  0.18109968470E+04  0.00000000000E+00 0.  1.
          1   -1    0    0  501    0 -0.00000000000E+00 -0.00000000000E+00 -0.61361806273E+01  0.61361806273E+01  0.00000000000E+00 0.  1.
          2    1    1    2  501    0 -0.56777091876E+01 -0.29422454950E+02  0.17735169341E+04  0.17737700620E+04  0.00000000000E+00 0.  1.
          1    1    1    2  502    0  0.56777091876E+01  0.29422454950E+02  0.31343732272E+02  0.43362965646E+02  0.00000000000E+00 0.  1.
</event>
<event>
 4    1  0.7181337E+003  0.2131597E+02  0.7546771E-02  0.1514801E+00
          2   -1    0    0  502    0  0.00000000000E+00  0.00000000000E+00  0.14956109489E+04  0.14956109489E+04  0.00000000000E+00 0.  1.
          1   -1    0    0  501    0 -0.00000000000E+00 -0.00000000000E+00 -0.61970905432E+00  0.61970905432E+00  0.00000000000E+00 0. -1.
          2    1    1    2  501    0 -0.11476849290E+02 -0.17962535272E+02  0.12816339795E+04  0.12818112296E+04  0.00000000000E+00 0.  1.
          1    1    1    2  502    0  0.11476849290E+02  0.17962535272E+02  0.21335726029E+03  0.21441942837E+03  0.00000000000E+00 0. -1.
</event>
<event>
 4    1  0.7181337E+003  0.2544469E+02  0.7546771E-02  0.1463890E+00
          2   -1    0    0  502    0  0.00000000000E+00  0.00000000000E+00  0.18458343641E+02  0.18458343641E+02  0.00000000000E+00 0.  1.
          1   -1    0    0  501    0 -0.00000000000E+00 -0.00000000000E+00 -0.66585809299E+03  0.66585809299E+03  0.00000000000E+00 0.  1.
          2    1    1    2  501    0 -0.71074050617E+01  0.24431889356E+02  0.93245175325E+01  0.27099428988E+02  0.00000000000E+00 0.  1.
          1    1    1    2  502    0  0.71074050617E+01 -0.24431889356E+02 -0.65672426688E+03  0.65721700764E+03  0.00000000000E+00 0.  1.
</event>
<event>
 4    1  0.7181337E+003  0.2010916E+02  0.7546771E-02  0.1532374E+00
          2   -1    0    0  502    0  0.00000000000E+00  0.00000000000E+00  0.42121542284E+02  0.42121542284E+02  0.00000000000E+00 0.  1.
          1   -1    0    0  501    0 -0.00000000000E+00 -0.00000000000E+00 -0.14878327647E+02  0.14878327647E+02  0.00000000000E+00 0. -1.
          2    1    1    2  501    0 -0.16259895065E+02  0.11831903447E+02  0.30596378363E+02  0.36613064549E+02  0.00000000000E+00 0.  1.
          1    1    1    2  502    0  0.16259895065E+02 -0.11831903447E+02 -0.33531637264E+01  0.20386805382E+02  0.00000000000E+00 0. -1.
</event>
<event>
 4    1  0.7181337E+003  0.2529501E+02  0.7546771E-02  0.1465530E+00
          2   -1    0    0  502    0  0.00000000000E+00  0.00000000000E+00  0.14361147151E+04  0.14361147151E+04  0.00000000000E+00 0. -1.
          1   -1    0    0  501    0 -0.00000000000E+00 -0.00000000000E+00 -0.11087320532E+01  0.11087320532E+01  0.00000000000E+00 0. -1.
          2    1    1    2  501    0  0.15863609347E+02  0.19702376340E+02  0.12732826699E+04  0.12735339003E+04  0.00000000000E+00 0. -1.
          1    1    1    2  502    0 -0.15863609347E+02 -0.19702376340E+02  0.16172331309E+03  0.16368954681E+03  0.00000000000E+00 0. -1.
</event>
<event>
 4    1  0.7181337E+003  0.3110663E+02  0.7546771E-02  0.1410217E+00
          2   -1    0    0  502    0  0.00000000000E+00  0.00000000000E+00  0.17979647236E+02  0.17979647236E+02  0.00000000000E+00 0.  1.
          1   -1    0    0  501    0 -0.00000000000E+00 -0.00000000000E+00 -0.33860998804E+03  0.33860998804E+03  0.00000000000E+00 0.  1.
          2    1    1    2  501    0 -0.95185442321E+01  0.29614520160E+02  0.31980917519E+01  0.31270597683E+02  0.00000000000E+00 0.  1.
          1    1    1    2  502    0  0.95185442321E+01 -0.29614520160E+02 -0.32382843255E+03  0.32531903759E+03  0.00000000000E+00 0.  1.
</event>
<event>
 4    1  0.7181337E+003  0.2262371E+02  0.7546771E-02  0.1497278E+00
          2   -1    0    0  502    0  0.00000000000E+00  0.00000000000E+00  0.17437047556E+03  0.17437047556E+03  0.00000000000E+00 0. -1.
          1   -1    0    0  501    0 -0.00000000000E+00 -0.00000000000E+00 -0.35724768119E+02  0.35724768119E+02  0.00000000000E+00 0.  1.
          2    1    1    2  501    0  0.20732183147E+02 -0.90558626635E+01  0.16996238608E+03  0.17146149641E+03  0.00000000000E+00 0. -1.
          1    1    1    2  502    0 -0.20732183147E+02  0.90558626635E+01 -0.31316678647E+02  0.38633747270E+02  0.00000000000E+00 0.  1.
</event>
<event>
 4    1  0.7181337E+003  0.2959990E+02  0.7546771E-02  0.1423106E+00
          2   -1    0    0  502    0  0.00000000000E+00  0.00000000000E+00  0.60297770197E+02  0.60297770197E+02  0.00000000000E+00 0. -1.
          1   -1    0    0  501    0 -0.00000000000E+00 -0.00000000000E+00 -0.47782802280E+02  0.47782802280E+02  0.00000000000E+00 0.  1.
          2    1    1    2  501    0  0.27183938351E+02  0.11712716132E+02  0.51338424288E+02  0.59260341138E+02  0.00000000000E+00 0. -1.
          1    1    1    2  502    0 -0.27183938351E+02 -0.11712716132E+02 -0.38823456370E+02  0.48820231339E+02  0.00000000000E+00 0.  1.
</event>
<event>
 4    1  0.7181337E+003  0.2161861E+02  0.7546771E-02  0.1510613E+00
          2   -1    0    0  502    0  0.00000000000E+00  0.00000000000E+00  0.63965364974E+01  0.63965364974E+01  0.00000000000E+00 0. -1.
          1   -1    0    0  501    0 -0.00000000000E+00 -0.00000000000E+00 -0.30961346396E+03  0.30961346396E+03  0.00000000000E+00 0.  1.
          2    1    1    2  501    0 -0.82261768303E+01  0.19992355791E+02 -0.13499843624E+02  0.25487448934E+02  0.00000000000E+00 0. -1.
          1    1    1    2  502    0  0.82261768303E+01 -0.19992355791E+02 -0.28971708384E+03  0.29052255152E+03  0.00000000000E+00 0.  1.
</event>
<event>
 4    1  0.7181337E+003  0.2878098E+02  0.7546771E-02  0.1430494E+00
          2   -1    0    0  502    0  0.00000000000E+00  0.00000000000E+00  0.13594578871E+04  0.13594578871E+04  0.00000000000E+00 0.  1.
          1   -1    0    0  501    0 -0.00000000000E+00 -0.00000000000E+00 -0.14767658683E+03  0.14767658683E+03  0.00000000000E+00 0. -1.
          2    1    1    2  501    0 -0.17346010343E+02 -0.22966508209E+02  0.13579016552E+04  0.13582066300E+04  0.00000000000E+00 0.  1.
          1    1    1    2  502    0  0.17346010343E+02  0.22966508209E+02 -0.14612035493E+03  0.14892784394E+03  0.00000000000E+00 0. -1.
</event>
<event>
 4    1  0.7181337E+003  0.2086822E+02  0.7546771E-02  0.1521155E+00
          2   -1    0    0  502    0  0.00000000000E+00  0.00000000000E+00  0.23834030940E+02  0.23834030940E+02  0.00000000000E+00 0.  1.
          1   -1    0    0  501    0 -0.00000000000E+00 -0.00000000000E+00 -0.36723049157E+02  0.36723049157E+02  0.00000000000E+00 0.  1.
          2    1    1    2  501    0  0.87836101207E+01  0.18929623718E+02  0.15018098833E+02  0.25710421106E+02  0.00000000000E+00 0.  1.
          1    1    1    2  502    0 -0.87836101207E+01 -0.18929623718E+02 -0.27907117050E+02  0.34846658992E+02  0.00000000000E+00 0.  1.
</event>
<event>
 4    1  0.7181337E+003  0.2157541E+02  0.7546771E-02  0.1511206E+00
          2   -1    0    0  502    0  0.00000000000E+00  0.00000000000E+00  0.15515216610E+04  0.15515216610E+04  0.00000000000E+00 0. -1.
          1   -1    0    0  501    0 -0.00000000000E+00 -0.00000000000E+00 -0.21328641772E+01  0.21328641772E+01  0.00000000000E+00 0.  1.
          2    1    1    2  501    0 -0.21443363106E+02  0.23833818783E+01  0.14948142874E+04  0.14949699837E+04  0.00000000000E+00 0. -1.
          1    1    1    2  502    0  0.21443363106E+02 -0.23833818783E+01  0.54574509433E+02  0.58684541494E+02  0.00000000000E+00 0.  1.
</event>
<event>
 4    1  0.7181337E+003  0.2340737E+02  0.7546771E-02  0.1487445E+00
          2   -1    0    0  502    0  0.00000000000E+00  0.00000000000E+00  0.11922419168E+03  0.11922419168E+03  0.00000000000E+00 0. -1.
          1   -1    0    0  501    0 -0.00000000000E+00 -0.00000000000E+00 -0.11112198755E+02  0.11112198755E+02  0.00000000000E+00 0. -1.
          2    1    1    2  501    0 -0.29098594940E+01  0.23225802161E+02  0.10396128957E+03  0.10656385362E+03  0.00000000000E+00 0. -1.
          1    1    1    2  502    0  0.29098594940E+01 -0.23225802161E+02  0.41507033505E+01  0.23772536815E+02  0.00000000000E+00 0. -1.
</event>
<event>
 4    1  0.7181337E+003  0.2565792E+02  0.7546771E-02  0.1461576E+00
          2   -1    0    0  502    0  0.00000000000E+00  0.00000000000E+00  0.92559420389E+03  0.92559420389E+03  0.00000000000E+00 0. -1.
          1   -1    0    0  501    0 -0.00000000000E+00 -0.00000000000E+00 -0.45509613206E+01  0.45509613206E+01  0.00000000000E+00 0. -1.
          2    1    1    2  501    0  0.25631801539E+02 -0.11573962966E+01  0.88770904234E+03  0.88807976706E+03  0.00000000000E+00 0. -1.
          1    1    1    2  502    0 -0.25631801539E+02  0.11573962966E+01  0.33334200230E+02  0.42065398147E+02  0.00000000000E+00 0. -1.
</event>
<event>
 4    1  0.7181337E+003  0.3543426E+02  0.7546771E-02  0.1377536E+00
          2   -1    0    0  502    0  0.00000000000E+00  0.00000000000E+00  0.31059032823E+03  0.31059032823E+03  0.00000000000E+00 0. -1.
          1   -1    0    0  501    0 -0.00000000000E+00 -0.00000000000E+00 -0.13080360658E+02  0.13080360658E+02  0.00000000000E+00 0. -1.
          2    1    1    2  501    0 -0.35190487197E+02  0.41492228495E+01  0.28327731998E+03  0.28548489707E+03  0.00000000000E+00 0. -1.
          1    1    1    2  502    0  0.35190487197E+02 -0.41492228495E+01  0.14232647591E+02  0.38185791819E+02  0.00000000000E+00 0. -1.
</event>
<event>
 4    1  0.7181337E+003  0.2290573E+02  0.7546771E-02  0.1493685E+00
          2   -1    0    0  502    0  0.00000000000E+00  0.00000000000E+00  0.26008078837E+03  0.26008078837E+03  0.00000000000E+00 0. -1.
          1   -1    0    0  501    0 -0.00000000000E+00 -0.00000000000E+00 -0.20330887636E+01  0.20330887636E+01  0.00000000000E+00 0. -1.
          2    1    1    2  501    0  0.52217670789E+01  0.22302575842E+02  0.11748969340E+03  0.11970171175E+03  0.00000000000E+00 0. -1.
          1    1    1    2  502    0 -0.52217670789E+01 -0.22302575842E+02  0.14055800620E+03  0.14241216538E+03  0.00000000000E+00 0. -1.
</event>
<event>
 4    1  0.7181337E+003  0.2478789E+02  0.7546771E-02  0.1471190E+00
          2   -1    0    0  502    0  0.00000000000E+00  0.00000000000E+00  0.11396915653E+04  0.11396915653E+04  0.00000000000E+00 0.  1.
          1   -1    0    0  501    0 -0.00000000000E+00 -0.00000000000E+00 -0.19754624915E+02  0.19754624915E+02  0.00000000000E+00 0.  1.
          2    1    1    2  501    0 -0.16645294755E+02 -0.18367730663E+02  0.11317261684E+04  0.11319975970E+04  0.00000000000E+00 0.  1.
          1    1    1    2  502    0  0.16645294755E+02  0.18367730663E+02 -0.11789228082E+02  0.27448593151E+02  0.00000000000E+00 0.  1.
</event>
<event>
 4    1  0.7181337E+003  0.3674994E+02  0.7546771E-02  0.1368661E+00
          2   -1    0    0  502    0  0.00000000000E+00  0.00000000000E+00  0.67089261806E+02  0.67089261806E+02  0.00000000000E+00 0.  1.
          1   -1    0    0  501    0 -0.00000000000E+00 -0.00000000000E+00 -0.99773154271E+02  0.99773154271E+02  0.00000000000E+00 0.  1.
          2    1    1    2  501    0 -0.40707326643E+00  0.36747685821E+02  0.58198814841E+02  0.68830663012E+02  0.00000000000E+00 0.  1.
          1    1    1    2  502    0  0.40707326643E+00 -0.36747685821E+02 -0.90882707306E+02  0.98031753066E+02  0.00000000000E+00 0.  1.
</event>
<event>
 4    1  0.7181337E+003  0.3321112E+02  0.7546771E-02  0.1393595E+00
          2   -1    0    0  502    0  0.00000000000E+00  0.00000000000E+00  0.80392782516E+02  0.80392782516E+02  0.00000000000E+00 0. -1.
          1   -1    0    0  501    0 -0.00000000000E+00 -0.00000000000E+00 -0.11402096899E+04  0.11402096899E+04  0.00000000000E+00 0. -1.
          2    1    1    2  501    0  0.30267315252E+02  0.13669982416E+02  0.76709864907E+02  0.83590562660E+02  0.00000000000E+00 0. -1.
          1    1    1    2  502    0 -0.30267315252E+02 -0.13669982416E+02 -0.11365267723E+04  0.11370119098E+04  0.00000000000E+00 0. -1.
</event>
<event>
 4    1  0.7181337E+003  0.2475434E+02  0.7546771E-02  0.1471570E+00
          2   -1    0    0  502    0  0.00000000000E+00  0.00000000000E+00  0.41950378508E+02  0.41950378508E+02  0.00000000000E+00 0. -1.
          1   -1    0    0  501    0 -0.00000000000E+00 -0.00000000000E+00 -0.35681249275E+03  0.35681249275E+03  0.00000000000E+00 0.  1.
          2    1    1    2  501    0 -0.14478401648E+02  0.20078670072E+02  0.37826594255E+02  0.45206507707E+02  0.00000000000E+00 0. -1.
          1    1    1    2  502    0  0.14478401648E+02 -0.20078670072E+02 -0.35268870849E+03  0.35355636355E+03  0.00000000000E+00 0.  1.
</event>
<event>
 4    1  0.7181337E+003  0.2302602E+02  0.7546771E-02  0.1492172E+00
          2   -1    0    0  502    0  0.00000000000E+00  0.00000000000E+00  0.77426288839E+03  0.77426288839E+03  0.00000000000E+00 0.  1.
          1   -1    0    0  501    0 -0.00000000000E+00 -0.00000000000E+00 -0.60068043399E+01  0.60068043399E+01  0.00000000000E+00 0. -1.
          2    1    1    2  501    0  0.15969997453E+02  0.16587844079E+02  0.75135246058E+03  0.75170520645E+03  0.00000000000E+00 0.  1.
          1    1    1    2  502    0 -0.15969997453E+02 -0.16587844079E+02  0.16903623471E+02  0.28564486277E+02  0.00000000000E+00 0. -1.
</event>
<event>
 4    1  0.7181337E+003  0.4924691E+02  0.7546771E-02  0.1301471E+00
          2   -1    0    0  502    0  0.00000000000E+00  0.00000000000E+00  0.18028619467E+02  0.18028619467E+02  0.00000000000E+00 0.  1.
          1   -1    0    0  501    0 -0.00000000000E+00 -0.00000000000E+00 -0.25961148769E+03  0.25961148769E+03  0.00000000000E+00 0.  1.
          2    1    1    2  501    0  0.99024824961E+01 -0.48241055011E+02 -0.24430844563E+02  0.54973854824E+02  0.00000000000E+00 0.  1.
          1    1    1    2  502    0 -0.99024824961E+01  0.48241055011E+02 -0.21715202366E+03  0.22266625234E+03  0.00000000000E+00 0.  1.
</event>
<event>
 4    1  0.7181337E+003  0.2249967E+02  0.7546771E-02  0.1498878E+00
          2   -1    0    0  502    0  0.00000000000E+00  0.00000000000E+00  0.16526836017E+03  0.16526836017E+03  0.00000000000E+00 0. -1.
          1   -1    0    0  501    0 -0.00000000000E+00 -0.00000000000E+00 -0.11223223292E+02  0.11223223292E+02  0.00000000000E+00 0. -1.
          2    1    1    2  501    0  0.13060759556E+02  0.18320801325E+02  0.15226854635E+03  0.15392188086E+03  0.00000000000E+00 0. -1.
          1    1    1    2  502    0 -0.13060759556E+02 -0.18320801325E+02  0.17765905263E+01  0.22569702596E+02  0.00000000000E+00 0. -1.
</event>
<event>
 4    1  0.7181337E+003  0.5140013E+02  0.7546771E-02  0.1292213E+00
          2   -1    0    0  502    0  0.00000000000E+00  0.00000000000E+00  0.84869564705E+03  0.84869564705E+03  0.00000000000E+00 0. -1.
          1   -1    0    0  501    0 -0.00000000000E+00 -0.00000000000E+00 -0.83385379532E+01  0.83385379532E+01  0.00000000000E+00 0.  1.
          2    1    1    2  501    0  0.68516796828E+01 -0.50941411273E+02  0.75940485277E+03  0.76114236730E+03  0.00000000000E+00 0. -1.
          1    1    1    2  502    0 -0.68516796828E+01  0.50941411273E+02  0.80952256329E+02  0.95891817699E+02  0.00000000000E+00 0.  1.
</event>
<event>
 4    1  0.7181337E+003  0.2183052E+02  0.7546771E-02  0.1507730E+00
          2   -1    0    0  502    0  0.00000000000E+00  0.00000000000E+00  0.16476556053E+04  0.16476556053E+04  0.00000000000E+00 0.  1.
          1   -1    0    0  501    0 -0.00000000000E+00 -0.00000000000E+00 -0.12298321449E+01  0.12298321449E+01  0.00000000000E+00 0.  1.
          2    1    1    2  501    0  0.13413943178E+02 -0.17223176251E+02  0.15442169510E+04  0.15443712518E+04  0.00000000000E+00 0.  1.
          1    1    1    2  502    0 -0.13413943178E+02  0.17223176251E+02  0.10220882213E+03  0.10451418560E+03  0.00000000000E+00 0.  1.
</event>
<event>
 4    1  0.7181337E+003  0.2148112E+02  0.7546771E-02  0.1512505E+00
          2   -1    0    0  502    0  0.00000000000E+00  0.00000000000E+00  0.14482176113E+03  0.14482176113E+03  0.00000000000E+00 0.  1.
          1   -1    0    0  501    0 -0.00000000000E+00 -0.00000000000E+00 -0.15799605207E+02  0.15799605207E+02  0.00000000000E+00 0. -1.
          2    1    1    2  501    0 -0.10587158042E+02  0.18690920989E+02  0.13626828113E+03  0.13795101625E+03  0.00000000000E+00 0.  1.
          1    1    1    2  502    0  0.10587158042E+02 -0.18690920989E+02 -0.72461252006E+01  0.22670350091E+02  0.00000000000E+00 0. -1.
</event>
<event>
 4    1  0.7181337E+003  0.2028089E+02  0.7546771E-02  0.1529784E+00
          2   -1    0    0  502    0  0.00000000000E+00  0.00000000000E+00  0.78506999399E+00  0.78506999399E+00  0.00000000000E+00 0. -1.
          1   -1    0    0  501    0 -0.00000000000E+00 -0.00000000000E+00 -0.55693283764E+03  0.55693283764E+03  0.00000000000E+00 0. -1.
          2    1    1    2  501    0 -0.16038534057E+02  0.12412887047E+02 -0.21018155822E+03  0.21115776509E+03  0.00000000000E+00 0. -1.
          1    1    1    2  502    0  0.16038534057E+02 -0.12412887047E+02 -0.34596620942E+03  0.34656014254E+03  0.00000000000E+00 0. -1.
</event>
<event>
 4    1  0.7181337E+003  0.3064837E+02  0.7546771E-02  0.1414044E+00
          2   -1    0    0  502    0  0.00000000000E+00  0.00000000000E+00  0.95794746374E+02  0.95794746374E+02  0.00000000000E+00 0.  1.
          1   -1    0    0  501    0 -0.00000000000E+00 -0.00000000000E+00 -0.19121350319E+03  0.19121350319E+03  0.00000000000E+00 0.  1.
          2    1    1    2  501    0 -0.85227854826E+01  0.29439512007E+02  0.92066823316E+02  0.97034131598E+02  0.00000000000E+00 0.  1.
          1    1    1    2  502    0  0.85227854826E+01 -0.29439512007E+02 -0.18748558013E+03  0.18997411797E+03  0.00000000000E+00 0.  1.
</event>
<event>
 4    1  0.7181337E+003  0.4952702E+02  0.7546771E-02  0.1300236E+00
          2   -1    0    0  502    0  0.00000000000E+00  0.00000000000E+00  0.31259588016E+03  0.31259588016E+03  0.00000000000E+00 0.  1.
          1   -1    0    0  501    0 -0.00000000000E+00 -0.00000000000E+00 -0.11058416584E+03  0.11058416584E+03  0.00000000000E+00 0.  1.
          2    1    1    2  501    0 -0.15765832026E+02  0.46950655018E+02  0.30495064022E+03  0.30894630348E+03  0.00000000000E+00 0.  1.
          1    1    1    2  502    0  0.15765832026E+02 -0.46950655018E+02 -0.10293892589E+03  0.11423374252E+03  0.00000000000E+00 0.  1.
</event>
<event>
 4    1  0.7181337E+003  0.2105134E+02  0.7546771E-02  0.1518533E+00
          2   -1    0    0  502    0  0.00000000000E+00  0.00000000000E+00  0.95747157048E+02  0.95747157048E+02  0.00000000000E+00 0. -1.
          1   -1    0    0  501    0 -0.00000000000E+00 -0.00000000000E+00 -0.50481374178E+02  0.50481374178E+02  0.00000000000E+00 0. -1.
          2    1    1    2  501    0  0.44392741772E+01 -0.20577938909E+02  0.92314820555E+02  0.94684659893E+02  0.00000000000E+00 0. -1.
          1    1    1    2  502    0 -0.44392741772E+01  0.20577938909E+02 -0.47049037685E+02  0.51543871333E+02  0.00000000000E+00 0. -1.
</event>
<event>
 4    1  0.7181337E+003  0.2006334E+02  0.7546771E-02  0.1533070E+00
          2   -1    0    0  502    0  0.00000000000E+00  0.00000000000E+00  0.62394412631E+03  0.62394412631E+03  0.00000000000E+00 0. -1.
          1   -1    0    0  501    0 -0.00000000000E+00 -0.00000000000E+00 -0.33345931650E+01  0.33345931650E+01  0.00000000000E+00 0.  1.
          2    1    1    2  501    0  0.19920495523E+02  0.23898574033E+01  0.59197458598E+03  0.59231448404E+03  0.00000000000E+00 0. -1.
          1    1    1    2  502    0 -0.19920495523E+02 -0.23898574033E+01  0.28634947168E+02  0.34964235435E+02  0.00000000000E+00 0.  1.
</event>
<event>
 4    1  0.7181337E+003  0.2193824E+02  0.7546771E-02  0.1506279E+00
          2   -1    0    0  502    0  0.00000000000E+00  0.00000000000E+00  0.70810684468E+03  0.70810684468E+03  0.00000000000E+00 0.  1.
          1   -1    0    0  501    0 -0.00000000000E+00 -0.00000000000E+00 -0.16081373282E+01  0.16081373282E+01  0.00000000000E+00 0.  1.
          2    1    1    2  501    0 -0.21501702791E+02 -0.43546486605E+01  0.62288253953E+03  0.62326875763E+03  0.00000000000E+00 0.  1.
          1    1    1    2  502    0  0.21501702791E+02  0.43546486605E+01  0.83616167827E+02  0.86446224382E+02  0.00000000000E+00 0.  1.
</event>
<event>
 4    1  0.7181337E+003  0.2027984E+02  0.7546771E-02  0.1529800E+00
          2   -1    0    0  502    0  0.00000000000E+00  0.00000000000E+00  0.13108193567E+03  0.13108193567E+03  0.00000000000E+00 0. -1.
          1   -1    0    0  501    0 -0.00000000000E+00 -0.00000000000E+00 -0.54567850671E+01  0.54567850671E+01  0.00000000000E+00 0. -1.
          2    1    1    2  501    0 -0.12505537915E+02 -0.15965075321E+02  0.10732002040E+03  0.10921931554E+03  0.00000000000E+00 0. -1.
          1    1    1    2  502    0  0.12505537915E+02  0.15965075321E+02  0.18305130205E+02  0.27319405198E+02  0.00000000000E+00 0. -1.
</event>
<event>
 4    1  0.7181337E+003  0.2762213E+02  0.7546771E-02  0.1441457E+00
          2   -1    0    0  502    0  0.00000000000E+00  0.00000000000E+00  0.30312502579E+02  0.30312502579E+02  0.00000000000E+00 0. -1.
          1   -1    0    0  501    0 -0.00000000000E+00 -0.00000000000E+00 -0.12465805718E+03  0.12465805718E+03  0.00000000000E+00 0. -1.
          2    1    1    2  501    0  0.27619053369E+02 -0.41230501942E+00  0.22049091854E+02  0.35343239184E+02  0.00000000000E+00 0. -1.
          1    1    1    2  502    0 -0.27619053369E+02  0.41230501942E+00 -0.11639464645E+03  0.11962732057E+03  0.00000000000E+00 0. -1.
</event>
<event>
 4    1  0.7181337E+003  0.2167861E+02  0.7546771E-02  0.1509793E+00
          2   -1    0    0  502    0  0.00000000000E+00  0.00000000000E+00  0.75797304712E+02  0.75797304712E+02  0.00000000000E+00 0.  1.
          1   -1    0    0  501    0 -0.00000000000E+00 -0.00000000000E+00 -0.84057831982E+03  0.84057831982E+03  0.00000000000E+00 0.  1.
          2    1    1    2  501    0 -0.14192073133E+02 -0.16387413981E+02  0.74104340915E+02  0.77210204113E+02  0.00000000000E+00 0.  1.
          1    1    1    2  502    0  0.14192073133E+02  0.16387413981E+02 -0.83888535603E+03  0.83916542042E+03  0.00000000000E+00 0.  1.
</event>
<event>
 4    1  0.7181337E+003  0.7644782E+02  0.7546771E-02  0.1212343E+00
          2   -1    0    0  502    0  0.00000000000E+00  0.00000000000E+00  0.14300249976E+04  0.14300249976E+04  0.00000000000E+00 0.  1.
          1   -1    0    0  501    0 -0.00000000000E+00 -0.00000000000E+00 -0.41480515719E+01  0.41480515719E+01  0.00000000000E+00 0.  1.
          2    1    1    2  501    0  0.13640055196E+02  0.75221085927E+02  0.62581863263E+03  0.63047063676E+03  0.00000000000E+00 0.  1.
          1    1    1    2  502    0 -0.13640055196E+02 -0.75221085927E+02  0.80005831336E+03  0.80370241237E+03  0.00000000000E+00 0.  1.
</event>
<event>
 4    1  0.7181337E+003  0.2126288E+02  0.7546771E-02  0.1515545E+00
          2   -1    0    0  502    0  0.00000000000E+00  0.00000000000E+00  0.16446245420E+03  0.16446245420E+03  0.00000000000E+00 0. -1.
          1   -1    0    0  501    0 -0.00000000000E+00 -0.00000000000E+00 -0.10097969979E+03  0.10097969979E+03  0.00000000000E+00 0.  1.
          2    1    1    2  501    0  0.16473901442E+02 -0.13443235771E+02  0.16264342539E+03  0.16402741795E+03  0.00000000000E+00 0. -1.
          1    1    1    2  502    0 -0.16473901442E+02  0.13443235771E+02 -0.99160670978E+02  0.10141473604E+03  0.00000000000E+00 0.  1.
</event>
<event>
 4    1  0.7181337E+003  0.3648845E+02  0.7546771E-02  0.1370390E+00
          2   -1    0    0  502    0  0.00000000000E+00  0.00000000000E+00  0.84304854837E+01  0.84304854837E+01  0.00000000000E+00 0.  1.
          1   -1    0    0  501    0 -0.00000000000E+00 -0.00000000000E+00 -0.26270440638E+03  0.26270440638E+03  0.00000000000E+00 0.  1.
          2    1    1    2  501    0 -0.31322870954E+02  0.18715887398E+02 -0.41521099420E+02  0.55275748597E+02  0.00000000000E+00 0.  1.
          1    1    1    2  502    0  0.31322870954E+02 -0.18715887398E+02 -0.21275282148E+03  0.21585914327E+03  0.00000000000E+00 0.  1.
</event>
<event>
 4    1  0.7181337E+003  0.2348571E+02  0.7546771E-02  0.1486487E+00
          2   -1    0    0  502    0  0.00000000000E+00  0.00000000000E+00  0.13197569860E+02  0.13197569860E+02  0.00000000000E+00 0. -1.
          1   -1    0    0  501    0 -0.00000000000E+00 -0.00000000000E+00 -0.71069878644E+03  0.71069878644E+03  0.00000000000E+00 0. -1.
          2    1    1    2  501    0 -0.21637998638E+02 -0.91310292038E+01  0.23938133512E+01  0.23607393371E+02  0.00000000000E+00 0. -1.
          1    1    1    2  502    0  0.21637998638E+02  0.91310292038E+01 -0.69989502993E+03  0.70028896293E+03  0.00000000000E+00 0. -1.
</event>
<event>
 4    1  0.7181337E+003  0.2371118E+02  0.7546771E-02  0.1483756E+00
          2   -1    0    0  502    0  0.00000000000E+00  0.00000000000E+00  0.32731473814E+03  0.32731473814E+03  0.00000000000E+00 0.  1.
          1   -1    0    0  501    0 -0.00000000000E+00 -0.00000000000E+00 -0.29011729234E+02  0.29011729234E+02  0.00000000000E+00 0.  1.
          2    1    1    2  501    0  0.90065638899E+01 -0.21934037156E+02  0.32196008698E+03  0.32283202721E+03  0.00000000000E+00 0.  1.
          1    1    1    2  502    0 -0.90065638899E+01  0.21934037156E+02 -0.23657078078E+02  0.33494440169E+02  0.00000000000E+00 0.  1.
</event>
<event>
 4    1  0.7181337E+003  0.2003868E+02  0.7546771E-02  0.1533445E+00
          2   -1    0    0  502    0  0.00000000000E+00  0.00000000000E+00  0.90418235783E+03  0.90418235783E+03  0.00000000000E+00 0.  1.
          1   -1    0    0  501    0 -0.00000000000E+00 -0.00000000000E+00 -0.87223843877E+03  0.87223843877E+03  0.00000000000E+00 0.  1.
          2    1    1    2  501    0  0.94554789690E+01 -0.17667559240E+02  0.90395621222E+03  0.90417829124E+03  0.00000000000E+00 0.  1.
          1    1    1    2  502    0 -0.94554789690E+01  0.17667559240E+02 -0.87201229316E+03  0.87224250536E+03  0.00000000000E+00 0.  1.
</event>
<event>
 4    1  0.7181337E+003  0.2270878E+02  0.7546771E-02  0.1496188E+00
          2   -1    0    0  502    0  0.00000000000E+00  0.00000000000E+00  0.10692582950E+02  0.10692582950E+02  0.00000000000E+00 0. -1.
          1   -1    0    0  501    0 -0.00000000000E+00 -0.00000000000E+00 -0.67510192073E+02  0.67510192073E+02  0.00000000000E+00 0. -1.
          2    1    1    2  501    0 -0.18906319903E+02 -0.12579314225E+02 -0.49305575472E+02  0.54283771528E+02  0.00000000000E+00 0. -1.
          1    1    1    2  502    0  0.18906319903E+02  0.12579314225E+02 -0.75120336516E+01  0.23919003496E+02  0.00000000000E+00 0. -1.
</event>
<event>
 4    1  0.7181337E+003  0.4464399E+02  0.7546771E-02  0.1323229E+00
          2   -1    0    0  502    0  0.00000000000E+00  0.00000000000E+00  0.18940727575E+04  0.18940727575E+04  0.00000000000E+00 0. -1.
          1   -1    0    0  501    0 -0.00000000000E+00 -0.00000000000E+00 -0.20304001288E+02  0.20304001288E+02  0.00000000000E+00 0.  1.
          2    1    1    2  501    0  0.15078566238E+02 -0.42020498388E+02  0.18689391631E+04  0.18694723001E+04  0.00000000000E+00 0. -1.
          1    1    1    2  502    0 -0.15078566238E+02  0.42020498388E+02  0.48295931558E+01  0.44904458739E+02  0.00000000000E+00 0.  1.
</event>
<event>
 4    1  0.7181337E+003  0.2655513E+02  0.7546771E-02  0.1452129E+00
          2   -1    0    0  502    0  0.00000000000E+00  0.00000000000E+00  0.18167136898E+02  0.18167136898E+02  0.00000000000E+00 0. -1.
          1   -1    0    0  501    0 -0.00000000000E+00 -0.00000000000E+00 -0.73293206211E+02  0.73293206211E+02  0.00000000000E+00 0. -1.
          2    1    1    2  501    0 -0.26554900564E+02  0.11081944694E+00  0.38013808143E+01  0.26825836819E+02  0.00000000000E+00 0. -1.
          1    1    1    2  502    0  0.26554900564E+02 -0.11081944694E+00 -0.58927450127E+02  0.64634506291E+02  0.00000000000E+00 0. -1.
</event>
<event>
 4    1  0.7181337E+003  0.3724103E+02  0.7546771E-02  0.1365458E+00
          2   -1    0    0  502    0  0.00000000000E+00  0.00000000000E+00  0.80666676846E+03  0.80666676846E+03  0.00000000000E+00 0. -1.
          1   -1    0    0  501    0 -0.00000000000E+00 -0.00000000000E+00 -0.17844613741E+01  0.17844613741E+01  0.00000000000E+00 0. -1.
          2    1    1    2  501    0 -0.19180685969E+01 -0.37191588432E+02  0.32519047701E+03  0.32731596291E+03  0.00000000000E+00 0. -1.
          1    1    1    2  502    0  0.19180685969E+01  0.37191588432E+02  0.47969183008E+03  0.48113526693E+03  0.00000000000E+00 0. -1.
</event>
<event>
 4    1  0.7181337E+003  0.2795734E+02  0.7546771E-02  0.1438221E+00
          2   -1    0    0  502    0  0.00000000000E+00  0.00000000000E+00  0.65880509741E+02  0.65880509741E+02  0.00000000000E+00 0. -1.
          1   -1    0    0  501    0 -0.00000000000E+00 -0.00000000000E+00 -0.24379820035E+03  0.24379820035E+03  0.00000000000E+00 0. -1.
          2    1    1    2  501    0  0.12197248571E+02 -0.25156313242E+02  0.62066003191E+02  0.68072033323E+02  0.00000000000E+00 0. -1.
          1    1    1    2  502    0 -0.12197248571E+02  0.25156313242E+02 -0.23998369380E+03  0.24160667677E+03  0.00000000000E+00 0. -1.
</event>
<event>
 4    1  0.7181337E+003  0.2052038E+02  0.7546771E-02  0.1526224E+00
          2   -1    0    0  502    0  0.00000000000E+00  0.00000000000E+00  0.21646234365E+03  0.21646234365E+03  0.00000000000E+00 0.  1.
          1   -1    0    0  501    0 -0.00000000000E+00 -0.00000000000E+00 -0.47360332586E+01  0.47360332586E+01  0.00000000000E+00 0. -1.
          2    1    1    2  501    0  0.59179281104E+01 -0.19648511998E+02  0.19076226206E+03  0.19186278046E+03  0.00000000000E+00 0.  1.
          1    1    1    2  502    0 -0.59179281104E+01  0.19648511998E+02  0.20964048324E+02  0.29335596448E+02  0.00000000000E+00 0. -1.
</event>
<event>
 4    1  0.7181337E+003  0.2271605E+02  0.7546771E-02  0.1496095E+00
          2   -1    0    0  502    0  0.00000000000E+00  0.00000000000E+00  0.57311619403E+03  0.57311619403E+03  0.00000000000E+00 0. -1.
          1   -1    0    0  501    0 -0.00000000000E+00 -0.00000000000E+00 -0.90828653016E+01  0.90828653016E+01  0.00000000000E+00 0. -1.
          2    1    1    2  501    0  0.22180508011E+02 -0.49034866125E+01  0.55831154236E+03  0.55877347597E+03  0.00000000000E+00 0. -1.
          1    1    1    2  502    0 -0.22180508011E+02  0.49034866125E+01  0.57217863701E+01  0.23425583362E+02  0.00000000000E+00 0. -1.
</event>
<event>
 4    1  0.7181337E+003  0.2231902E+02  0.7546771E-02  0.1501231E+00
          2   -1    0    0  502    0  0.00000000000E+00  0.00000000000E+00  0.52453248692E+03  0.52453248692E+03  0.00000000000E+00 0. -1.
          1   -1    0    0  501    0 -0.00000000000E+00 -0.00000000000E+00 -0.43944602283E+02  0.43944602283E+02  0.00000000000E+00 0.  1.
          2    1    1    2  501    0  0.21433680936E+01 -0.22215868502E+02  0.52144438895E+03  0.52192182327E+03  0.00000000000E+00 0. -1.
          1    1    1    2  502    0 -0.21433680936E+01  0.22215868502E+02 -0.40856504319E+02  0.46555265924E+02  0.00000000000E+00 0.  1.
</event>
<event>
 4    1  0.7181337E+003  0.2093160E+02  0.7546771E-02  0.1520244E+00
          2   -1    0    0  502    0  0.00000000000E+00  0.00000000000E+00  0.20915630587E+02  0.20915630587E+02  0.00000000000E+00 0. -1.
          1   -1    0    0  501    0 -0.00000000000E+00 -0.00000000000E+00 -0.80374984128E+02  0.80374984128E+02  0.00000000000E+00 0. -1.
          2    1    1    2  501    0  0.69218330700E+01  0.19753986840E+02  0.13818718316E+02  0.25081641593E+02  0.00000000000E+00 0. -1.
          1    1    1    2  502    0 -0.69218330700E+01 -0.19753986840E+02 -0.73278071858E+02  0.76208973122E+02  0.00000000000E+00 0. -1.
</event>
<event>
 4    1  0.7181337E+003  0.2774642E+02  0.7546771E-02  0.1440251E+00
          2   -1    0    0  502    0  0.00000000000E+00  0.00000000000E+00  0.71375706915E+02  0.71375706915E+02  0.00000000000E+00 0.  1.
          1   -1    0    0  501    0 -0.00000000000E+00 -0.00000000000E+00 -0.20098275927E+03  0.20098275927E+03  0.00000000000E+00 0. -1.
          2    1    1    2  501    0 -0.11049775272E+02 -0.25451251529E+02  0.67671176214E+02  0.73138579615E+02  0.00000000000E+00 0.  1.
          1    1    1    2  502    0  0.11049775272E+02  0.25451251529E+02 -0.19727822856E+03  0.19921988657E+03  0.00000000000E+00 0. -1.
</event>
<event>
 4    1  0.7181337E+003  0.2975752E+02  0.7546771E-02  0.1421716E+00
          2   -1    0    0  502    0  0.00000000000E+00  0.00000000000E+00  0.15586206203E+04  0.15586206203E+04  0.00000000000E+00 0. -1.
          1   -1    0    0  501    0 -0.00000000000E+00 -0.00000000000E+00 -0.15738864210E+01  0.15738864210E+01  0.00000000000E+00 0.  1.
          2    1    1    2  501    0  0.16513600054E+02 -0.24755016197E+02  0.14021246241E+04  0.14024403628E+04  0.00000000000E+00 0. -1.
          1    1    1    2  502    0 -0.16513600054E+02  0.24755016197E+02  0.15492210982E+03  0.15775414392E+03  0.00000000000E+00 0.  1.
</event>
<event>
 4    1  0.7181337E+003  0.2542757E+02  0.7546771E-02  0.1464077E+00
          2   -1    0    0  502    0  0.00000000000E+00  0.00000000000E+00  0.43874141540E+03  0.43874141540E+03  0.00000000000E+00 0.  1.
          1   -1    0    0  501    0 -0.00000000000E+00 -0.00000000000E+00 -0.57873314681E+02  0.57873314681E+02  0.00000000000E+00 0. -1.
          2    1    1    2  501    0 -0.19921762535E+02 -0.15801416331E+02  0.43555960827E+03  0.43630119612E+03  0.00000000000E+00 0.  1.
          1    1    1    2  502    0  0.19921762535E+02  0.15801416331E+02 -0.54691507551E+02  0.60313533960E+02  0.00000000000E+00 0. -1.
</event>
<event>
 4    1  0.7181337E+003  0.2716206E+02  0.7546771E-02  0.1445987E+00
          2   -1    0    0  502    0  0.00000000000E+00  0.00000000000E+00  0.15891489865E+04  0.15891489865E+04  0.00000000000E+00 0.  1.
          1   -1    0    0  501    0 -0.00000000000E+00 -0.00000000000E+00 -0.37424992327E+01  0.37424992327E+01  0.00000000000E+00 0. -1.
          2    1    1    2  501    0  0.88899446994E+01 -0.25666054366E+02  0.15381140632E+04  0.15383538763E+04  0.00000000000E+00 0.  1.
          1    1    1    2  502    0 -0.88899446994E+01  0.25666054366E+02  0.47292424091E+02  0.54537609408E+02  0.00000000000E+00 0. -1.
</event>
<event>
 4    1  0.7181337E+003  0.2441318E+02  0.7546771E-02  0.1475476E+00
          2   -1    0    0  502    0  0.00000000000E+00  0.00000000000E+00  0.36693352713E+02  0.36693352713E+02  0.00000000000E+00 0.  1.
          1   -1    0    0  501    0 -0.00000000000E+00 -0.00000000000E+00 -0.62996109584E+02  0.62996109584E+02  0.00000000000E+00 0.  1.
          2    1    1    2  501    0  0.23460904174E+02 -0.67519911591E+01  0.29789259697E+02  0.38514976341E+02  0.00000000000E+00 0.  1.
          1    1    1    2  502    0 -0.23460904174E+02  0.67519911591E+01 -0.56092016568E+02  0.61174485956E+02  0.00000000000E+00 0.  1.
</event>
<event>
 4    1  0.7181337E+003  0.3991510E+02  0.7546771E-02  0.1348984E+00
          2   -1    0    0  502    0  0.00000000000E+00  0.00000000000E+00  0.42901001367E+02  0.42901001367E+02  0.00000000000E+00 0. -1.
          1   -1    0    0  501    0 -0.00000000000E+00 -0.00000000000E+00 -0.40079863973E+02  0.40079863973E+02  0.00000000000E+00 0. -1.
          2    1    1    2  501    0  0.38010473258E+02  0.12182672953E+02 -0.98321532428E+01  0.41108208851E+02  0.00000000000E+00 0. -1.
          1    1    1    2  502    0 -0.38010473258E+02 -0.12182672953E+02  0.12653290637E+02  0.41872656489E+02  0.00000000000E+00 0. -1.
</event>
<event>
 4    1  0.7181337E+003  0.2177287E+02  0.7546771E-02  0.1508510E+00
          2   -1    0    0  502    0  0.00000000000E+00  0.00000000000E+00  0.17222914855E+03  0.17222914855E+03  0.00000000000E+00 0. -1.
          1   -1    0    0  501    0 -0.00000000000E+00 -0.00000000000E+00 -0.40043953936E+01  0.40043953936E+01  0.00000000000E+00 0. -1.
          2    1    1    2  501    0 -0.19432015418E+02  0.98211349955E+01  0.13338174088E+03  0.13514712988E+03  0.00000000000E+00 0. -1.
          1    1    1    2  502    0  0.19432015418E+02 -0.98211349955E+01  0.34843012279E+02  0.41086414062E+02  0.00000000000E+00 0. -1.
</event>
<event>
 4    1  0.7181337E+003  0.3062825E+02  0.7546771E-02  0.1414214E+00
          2   -1    0    0  502    0  0.00000000000E+00  0.00000000000E+00  0.64246881982E+00  0.64246881982E+00  0.00000000000E+00 0.  1.
          1   -1    0    0  501    0 -0.00000000000E+00 -0.00000000000E+00 -0.15000390473E+04  0.15000390473E+04  0.00000000000E+00 0.  1.
          2    1    1    2  501    0  0.28980616395E+02  0.99102177191E+01 -0.87208614569E+03  0.87262382162E+03  0.00000000000E+00 0.  1.
          1    1    1    2  502    0 -0.28980616395E+02 -0.99102177191E+01 -0.62731043274E+03  0.62805769446E+03  0.00000000000E+00 0.  1.
</event>
<event>
 4    1  0.7181337E+003  0.2113213E+02  0.7546771E-02  0.1517387E+00
          2   -1    0    0  502    0  0.00000000000E+00  0.00000000000E+00  0.77330324502E+03  0.77330324502E+03  0.00000000000E+00 0. -1.
          1   -1    0    0  501    0 -0.00000000000E+00 -0.00000000000E+00 -0.44770061140E+01  0.44770061140E+01  0.00000000000E+00 0. -1.
          2    1    1    2  501    0 -0.17484780800E+02 -0.11867991816E+02  0.74735661303E+03  0.74765531753E+03  0.00000000000E+00 0. -1.
          1    1    1    2  502    0  0.17484780800E+02  0.11867991816E+02  0.21469625872E+02  0.30124933601E+02  0.00000000000E+00 0. -1.
</event>
<event>
 4    1  0.7181337E+003  0.2060618E+02  0.7546771E-02  0.1524963E+00
          2   -1    0    0  502    0  0.00000000000E+00  0.00000000000E+00  0.22054070103E+01  0.22054070103E+01  0.00000000000E+00 0. -1.
          1   -1    0    0  501    0 -0.00000000000E+00 -0.00000000000E+00 -0.41909135524E+03  0.41909135524E+03  0.00000000000E+00 0. -1.
          2    1    1    2  501    0 -0.12197771886E+02 -0.16608097580E+02 -0.53563659563E+02  0.57390593044E+02  0.00000000000E+00 0. -1.
          1    1    1    2  502    0  0.12197771886E+02  0.16608097580E+02 -0.36332228866E+03  0.36390616920E+03  0.00000000000E+00 0. -1.
</event>
<event>
 4    1  0.1450965E+004  0.2331359E+02  0.7546771E-02  0.1488598E+00
          2   -1    0    0  502    0  0.00000000000E+00  0.00000000000E+00  0.84770998125E+03  0.84770998125E+03  0.00000000000E+00 0.  1.
          1   -1    0    0  501    0 -0.00000000000E+00 -0.00000000000E+00 -0.54939289647E+03  0.54939289647E+03  0.00000000000E+00 0. -1.
          2    1    1    2  501    0 -0.23162605632E+02 -0.26489789754E+01  0.84730224149E+03  0.84762291841E+03  0.00000000000E+00 0.  1.
          1    1    1    2  502    0  0.23162605632E+02  0.26489789754E+01 -0.54898515671E+03  0.54947995931E+03  0.00000000000E+00 0. -1.
</event>
<event>
 4    1  0.7181337E+003  0.2015429E+02  0.7546771E-02  0.1531690E+00
          2   -1    0    0  502    0  0.00000000000E+00  0.00000000000E+00  0.25145250100E+02  0.25145250100E+02  0.00000000000E+00 0.  1.
          1   -1    0    0  501    0 -0.00000000000E+00 -0.00000000000E+00 -0.55716665062E+02  0.55716665062E+02  0.00000000000E+00 0.  1.
          2    1    1    2  501    0 -0.19989768325E+02  0.25699600265E+01  0.18783687648E+02  0.27550362138E+02  0.00000000000E+00 0.  1.
          1    1    1    2  502    0  0.19989768325E+02 -0.25699600265E+01 -0.49355102610E+02  0.53311553025E+02  0.00000000000E+00 0.  1.
</event>
<event>
 4    1  0.7181337E+003  0.2481514E+02  0.7546771E-02  0.1470882E+00
          2   -1    0    0  502    0  0.00000000000E+00  0.00000000000E+00  0.91621607725E+02  0.91621607725E+02  0.00000000000E+00 0.  1.
          1   -1    0    0  501    0 -0.00000000000E+00 -0.00000000000E+00 -0.69300785000E+01  0.69300785000E+01  0.00000000000E+00 0.  1.
          2    1    1    2  501    0 -0.16567753994E+02  0.18474332103E+02  0.50904119144E+02  0.56630563876E+02  0.00000000000E+00 0.  1.
          1    1    1    2  502    0  0.16567753994E+02 -0.18474332103E+02  0.33787410081E+02  0.41921122349E+02  0.00000000000E+00 0.  1.
</event>
<event>
 4    1  0.7181337E+003  0.2030927E+02  0.7546771E-02  0.1529359E+00
          2   -1    0    0  502    0  0.00000000000E+00  0.00000000000E+00  0.10066282335E+03  0.10066282335E+03  0.00000000000E+00 0.  1.
          1   -1    0    0  501    0 -0.00000000000E+00 -0.00000000000E+00 -0.22629557773E+02  0.22629557773E+02  0.00000000000E+00 0. -1.
          2    1    1    2  501    0  0.76189602833E+01  0.18825993043E+02  0.94803241055E+02  0.96954221592E+02  0.00000000000E+00 0.  1.
          1    1    1    2  502    0 -0.76189602833E+01 -0.18825993043E+02 -0.16769975480E+02  0.26338159531E+02  0.00000000000E+00 0. -1.
</event>
<event>
 4    1  0.7181337E+003  0.4466441E+02  0.7546771E-02  0.1323126E+00
          2   -1    0    0  502    0  0.00000000000E+00  0.00000000000E+00  0.89235357973E+00  0.89235357973E+00  0.00000000000E+00 0. -1.
          1   -1    0    0  501    0 -0.00000000000E+00 -0.00000000000E+00 -0.23091489576E+04  0.23091489576E+04  0.00000000000E+00 0. -1.
          2    1    1    2  501    0 -0.44558322015E+02 -0.30762490561E+01 -0.13603235720E+04  0.13610566218E+04  0.00000000000E+00 0. -1.
          1    1    1    2  502    0  0.44558322015E+02  0.30762490561E+01 -0.94793303208E+03  0.94898468938E+03  0.00000000000E+00 0. -1.
</event>
<event>
 4    1  0.7181337E+003  0.4688145E+02  0.7546771E-02  0.1312291E+00
          2   -1    0    0  502    0  0.00000000000E+00  0.00000000000E+00  0.14520159737E+04  0.14520159737E+04  0.00000000000E+00 0. -1.
          1   -1    0    0  501    0 -0.00000000000E+00 -0.00000000000E+00 -0.70538904563E+01  0.70538904563E+01  0.00000000000E+00 0.  1.
          2    1    1    2  501    0 -0.42420107025E+02 -0.19960075962E+02  0.13690209512E+04  0.13698234320E+04  0.00000000000E+00 0. -1.
          1    1    1    2  502    0  0.42420107025E+02  0.19960075962E+02  0.75941132086E+02  0.89246432169E+02  0.00000000000E+00 0.  1.
</event>
<event>
 4    1  0.7181337E+003  0.2208913E+02  0.7546771E-02  0.1504264E+00
          2   -1    0    0  502    0  0.00000000000E+00  0.00000000000E+00  0.15955003224E+02  0.15955003224E+02  0.00000000000E+00 0. -1.
          1   -1    0    0  501    0 -0.00000000000E+00 -0.00000000000E+00 -0.65699439042E+03  0.65699439042E+03  0.00000000000E+00 0.  1.
          2    1    1    2  501    0 -0.31473576354E+01 -0.21863758329E+02  0.80306172775E+01  0.23503629554E+02  0.00000000000E+00 0. -1.
          1    1    1    2  502    0  0.31473576354E+01  0.21863758329E+02 -0.64907000448E+03  0.64944576409E+03  0.00000000000E+00 0.  1.
</event>
<event>
 4    1  0.7181337E+003  0.4903982E+02  0.7546771E-02  0.1302390E+00
          2   -1    0    0  502    0  0.00000000000E+00  0.00000000000E+00  0.32079909914E+03  0.32079909914E+03  0.00000000000E+00 0. -1.
          1   -1    0    0  501    0 -0.00000000000E+00 -0.00000000000E+00 -0.21939858148E+02  0.21939858148E+02  0.00000000000E+00 0. -1.
          2    1    1    2  501    0 -0.48448695399E+02 -0.75913224300E+01  0.28847260247E+03  0.29261125515E+03  0.00000000000E+00 0. -1.
          1    1    1    2  502    0  0.48448695399E+02  0.75913224300E+01  0.10386638519E+02  0.50127702140E+02  0.00000000000E+00 0. -1.
</event>
<event>
 4    1  0.7181337E+003  0.2497845E+02  0.7546771E-02  0.1469045E+00
          2   -1    0    0  502    0  0.00000000000E+00  0.00000000000E+00  0.70482076577E+03  0.70482076577E+03  0.00000000000E+00 0.  1.
          1   -1    0    0  501    0 -0.00000000000E+00 -0.00000000000E+00 -0.10067594301E+01  0.10067594301E+01  0.00000000000E+00 0. -1.
          2    1    1    2  501    0  0.23413680422E+02  0.87018824008E+01  0.47452660559E+03  0.47518356727E+03  0.00000000000E+00 0.  1.
          1    1    1    2  502    0 -0.23413680422E+02 -0.87018824008E+01  0.22928740075E+03  0.23064395793E+03  0.00000000000E+00 0. -1.
</event>
<event>
 4    1  0.7181337E+003  0.2023743E+02  0.7546771E-02  0.1530437E+00
          2   -1    0    0  502    0  0.00000000000E+00  0.00000000000E+00  0.32735593959E+01  0.32735593959E+01  0.00000000000E+00 0.  1.
          1   -1    0    0  501    0 -0.00000000000E+00 -0.00000000000E+00 -0.20158578948E+03  0.20158578948E+03  0.00000000000E+00 0.  1.
          2    1    1    2  501    0  0.72847680914E+01 -0.18880828241E+02 -0.36066320000E+02  0.41356171964E+02  0.00000000000E+00 0.  1.
          1    1    1    2  502    0 -0.72847680914E+01  0.18880828241E+02 -0.16224591009E+03  0.16350317691E+03  0.00000000000E+00 0.  1.
</event>
<event>
 4    1  0.7181337E+003  0.2767072E+02  0.7546771E-02  0.1440985E+00
          2   -1    0    0  502    0  0.00000000000E+00  0.00000000000E+00  0.10506366484E+03  0.10506366484E+03  0.00000000000E+00 0. -1.
          1   -1    0    0  501    0 -0.00000000000E+00 -0.00000000000E+00 -0.25465947922E+02  0.25465947922E+02  0.00000000000E+00 0.  1.
          2    1    1    2  501    0 -0.58805374754E+01 -0.27038635647E+02  0.94939979180E+02  0.98890182452E+02  0.00000000000E+00 0. -1.
          1    1    1    2  502    0  0.58805374754E+01  0.27038635647E+02 -0.15342262266E+02  0.31639430306E+02  0.00000000000E+00 0.  1.
</event>
<event>
 4    1  0.7181337E+003  0.2235790E+02  0.7546771E-02  0.1500722E+00
          2   -1    0    0  502    0  0.00000000000E+00  0.00000000000E+00  0.83087174891E+03  0.83087174891E+03  0.00000000000E+00 0.  1.
          1   -1    0    0  501    0 -0.00000000000E+00 -0.00000000000E+00 -0.43974169630E+01  0.43974169630E+01  0.00000000000E+00 0.  1.
          2    1    1    2  501    0  0.18212032407E+02  0.12969100434E+02  0.80125229629E+03  0.80156416961E+03  0.00000000000E+00 0.  1.
          1    1    1    2  502    0 -0.18212032407E+02 -0.12969100434E+02  0.25222035657E+02  0.33704996264E+02  0.00000000000E+00 0.  1.
</event>
<event>
 4    1  0.7181337E+003  0.2317483E+02  0.7546771E-02  0.1490314E+00
          2   -1    0    0  502    0  0.00000000000E+00  0.00000000000E+00  0.43567850825E+03  0.43567850825E+03  0.00000000000E+00 0. -1.
          1   -1    0    0  501    0 -0.00000000000E+00 -0.00000000000E+00 -0.10370471887E+03  0.10370471887E+03  0.00000000000E+00 0. -1.
          2    1    1    2  501    0  0.13746605419E+02  0.18657538325E+02  0.43407081784E+03  0.43468902424E+03  0.00000000000E+00 0. -1.
          1    1    1    2  502    0 -0.13746605419E+02 -0.18657538325E+02 -0.10209702846E+03  0.10469420288E+03  0.00000000000E+00 0. -1.
</event>
<event>
 4    1  0.7181337E+003  0.2953871E+02  0.7546771E-02  0.1423648E+00
          2   -1    0    0  502    0  0.00000000000E+00  0.00000000000E+00  0.44812694145E+03  0.44812694145E+03  0.00000000000E+00 0.  1.
          1   -1    0    0  501    0 -0.00000000000E+00 -0.00000000000E+00 -0.15505618285E+02  0.15505618285E+02  0.00000000000E+00 0.  1.
          2    1    1    2  501    0 -0.26034443706E+02 -0.13955042212E+02  0.43308404213E+03  0.43409022450E+03  0.00000000000E+00 0.  1.
          1    1    1    2  502    0  0.26034443706E+02  0.13955042212E+02 -0.46271896247E+00  0.29542335233E+02  0.00000000000E+00 0.  1.
</event>
<event>
 4    1  0.7181337E+003  0.2546228E+02  0.7546771E-02  0.1463698E+00
          2   -1    0    0  502    0  0.00000000000E+00  0.00000000000E+00  0.43553121848E+03  0.43553121848E+03  0.00000000000E+00 0. -1.
          1   -1    0    0  501    0 -0.00000000000E+00 -0.00000000000E+00 -0.12823654616E+02  0.12823654616E+02  0.00000000000E+00 0.  1.
          2    1    1    2  501    0  0.22341864595E+02 -0.12213475464E+02  0.42211852891E+03  0.42288577694E+03  0.00000000000E+00 0. -1.
          1    1    1    2  502    0 -0.22341864595E+02  0.12213475464E+02  0.58903495703E+00  0.25469096149E+02  0.00000000000E+00 0.  1.
</event>
<event>
 4    1  0.7181337E+003  0.3151766E+02  0.7546771E-02  0.1406851E+00
          2   -1    0    0  502    0  0.00000000000E+00  0.00000000000E+00  0.50896426759E+03  0.50896426759E+03  0.00000000000E+00 0. -1.
          1   -1    0    0  501    0 -0.00000000000E+00 -0.00000000000E+00 -0.14105841393E+02  0.14105841393E+02  0.00000000000E+00 0.  1.
          2    1    1    2  501    0 -0.27530418032E+02  0.15344016840E+02  0.49019749630E+03  0.49120967839E+03  0.00000000000E+00 0. -1.
          1    1    1    2  502    0  0.27530418032E+02 -0.15344016840E+02  0.46609298973E+01  0.31860430589E+02  0.00000000000E+00 0.  1.
</event>
<event>
 4    1  0.7181337E+003  0.2092623E+02  0.7546771E-02  0.1520321E+00
          2   -1    0    0  502    0  0.00000000000E+00  0.00000000000E+00  0.12530474941E+04  0.12530474941E+04  0.00000000000E+00 0.  1.
          1   -1    0    0  501    0 -0.00000000000E+00 -0.00000000000E+00 -0.14957073566E+03  0.14957073566E+03  0.00000000000E+00 0.  1.
          2    1    1    2  501    0  0.16825468637E+02  0.12442288102E+02  0.12522277071E+04  0.12524025461E+04  0.00000000000E+00 0.  1.
          1    1    1    2  502    0 -0.16825468637E+02 -0.12442288102E+02 -0.14875094863E+03  0.15021568375E+03  0.00000000000E+00 0.  1.
</event>
<event>
 4    1  0.7181337E+003  0.2300392E+02  0.7546771E-02  0.1492449E+00
          2   -1    0    0  502    0  0.00000000000E+00  0.00000000000E+00  0.35004853347E+02  0.35004853347E+02  0.00000000000E+00 0.  1.
          1   -1    0    0  501    0 -0.00000000000E+00 -0.00000000000E+00 -0.11193748828E+04  0.11193748828E+04  0.00000000000E+00 0.  1.
          2    1    1    2  501    0  0.12083149720E+02 -0.19574925235E+02  0.31094083484E+02  0.38678446618E+02  0.00000000000E+00 0.  1.
          1    1    1    2  502    0 -0.12083149720E+02  0.19574925235E+02 -0.11154641130E+04  0.11157012895E+04  0.00000000000E+00 0.  1.
</event>
<event>
 4    1  0.7181337E+003  0.2455572E+02  0.7546771E-02  0.1473835E+00
          2   -1    0    0  502    0  0.00000000000E+00  0.00000000000E+00  0.11034543259E+03  0.11034543259E+03  0.00000000000E+00 0.  1.
          1   -1    0    0  501    0 -0.00000000000E+00 -0.00000000000E+00 -0.10633005137E+02  0.10633005137E+02  0.00000000000E+00 0.  1.
          2    1    1    2  501    0  0.17390729122E+02 -0.17336261119E+02  0.92028984834E+02  0.95248713684E+02  0.00000000000E+00 0.  1.
          1    1    1    2  502    0 -0.17390729122E+02  0.17336261119E+02  0.76834426244E+01  0.25729724047E+02  0.00000000000E+00 0.  1.
</event>
<event>
 4    1  0.7181337E+003  0.4379667E+02  0.7546771E-02  0.1327567E+00
          2   -1    0    0  502    0  0.00000000000E+00  0.00000000000E+00  0.50480684369E+03  0.50480684369E+03  0.00000000000E+00 0. -1.
          1   -1    0    0  501    0 -0.00000000000E+00 -0.00000000000E+00 -0.38782754032E+01  0.38782754032E+01  0.00000000000E+00 0.  1.
          2    1    1    2  501    0  0.43567522232E+02  0.44743329869E+01  0.28665159782E+03  0.28997808052E+03  0.00000000000E+00 0. -1.
          1    1    1    2  502    0 -0.43567522232E+02 -0.44743329869E+01  0.21427697047E+03  0.21870703857E+03  0.00000000000E+00 0.  1.
</event>
<event>
 4    1  0.7181337E+003  0.2683985E+02  0.7546771E-02  0.1449223E+00
          2   -1    0    0  502    0  0.00000000000E+00  0.00000000000E+00  0.20356971413E+02  0.20356971413E+02  0.00000000000E+00 0. -1.
          1   -1    0    0  501    0 -0.00000000000E+00 -0.00000000000E+00 -0.15052443122E+03  0.15052443122E+03  0.00000000000E+00 0. -1.
          2    1    1    2  501    0 -0.18562875515E+02 -0.19385491758E+02  0.96418108180E+01  0.28519154159E+02  0.00000000000E+00 0. -1.
          1    1    1    2  502    0  0.18562875515E+02  0.19385491758E+02 -0.13980927062E+03  0.14236224847E+03  0.00000000000E+00 0. -1.
</event>
<event>
 4    1  0.7181337E+003  0.2225744E+02  0.7546771E-02  0.1502039E+00
          2   -1    0    0  502    0  0.00000000000E+00  0.00000000000E+00  0.14614582342E+03  0.14614582342E+03  0.00000000000E+00 0.  1.
          1   -1    0    0  501    0 -0.00000000000E+00 -0.00000000000E+00 -0.42156546416E+01  0.42156546416E+01  0.00000000000E+00 0. -1.
          2    1    1    2  501    0 -0.15562416867E+02  0.15912409390E+02  0.10424227174E+03  0.10659195471E+03  0.00000000000E+00 0.  1.
          1    1    1    2  502    0  0.15562416867E+02 -0.15912409390E+02  0.37687897045E+02  0.43769523358E+02  0.00000000000E+00 0. -1.
</event>
<event>
 4    1  0.7181337E+003  0.4309530E+02  0.7546771E-02  0.1331243E+00
          2   -1    0    0  502    0  0.00000000000E+00  0.00000000000E+00  0.15795836509E+03  0.15795836509E+03  0.00000000000E+00 0.  1.
          1   -1    0    0  501    0 -0.00000000000E+00 -0.00000000000E+00 -0.13615051744E+02  0.13615051744E+02  0.00000000000E+00 0.  1.
          2    1    1    2  501    0  0.38309765776E+02  0.19737454283E+02  0.10385810629E+03  0.11244425951E+03  0.00000000000E+00 0.  1.
          1    1    1    2  502    0 -0.38309765776E+02 -0.19737454283E+02  0.40485207064E+02  0.59129157329E+02  0.00000000000E+00 0.  1.
</event>
<event>
 4    1  0.7181337E+003  0.2791382E+02  0.7546771E-02  0.1438638E+00
          2   -1    0    0  502    0  0.00000000000E+00  0.00000000000E+00  0.15569701935E+02  0.15569701935E+02  0.00000000000E+00 0.  1.
          1   -1    0    0  501    0 -0.00000000000E+00 -0.00000000000E+00 -0.89413627004E+02  0.89413627004E+02  0.00000000000E+00 0.  1.
          2    1    1    2  501    0 -0.57647367029E+01  0.27312073525E+02 -0.20910297900E+01  0.27992033779E+02  0.00000000000E+00 0.  1.
          1    1    1    2  502    0  0.57647367029E+01 -0.27312073525E+02 -0.71752895279E+02  0.76991295160E+02  0.00000000000E+00 0.  1.
</event>
<event>
 4    1  0.7181337E+003  0.2398006E+02  0.7546771E-02  0.1480545E+00
          2   -1    0    0  502    0  0.00000000000E+00  0.00000000000E+00  0.12827347261E+04  0.12827347261E+04  0.00000000000E+00 0. -1.
          1   -1    0    0  501    0 -0.00000000000E+00 -0.00000000000E+00 -0.44359919950E+01  0.44359919950E+01  0.00000000000E+00 0.  1.
          2    1    1    2  501    0  0.13064536068E+02 -0.20108738709E+02  0.12493488821E+04  0.12495789981E+04  0.00000000000E+00 0. -1.
          1    1    1    2  502    0 -0.13064536068E+02  0.20108738709E+02  0.28949851988E+02  0.37591719903E+02  0.00000000000E+00 0.  1.
</event>
<event>
 4    1  0.7181337E+003  0.2373796E+02  0.7546771E-02  0.1483434E+00
          2   -1    0    0  502    0  0.00000000000E+00  0.00000000000E+00  0.50121991357E+02  0.50121991357E+02  0.00000000000E+00 0. -1.
          1   -1    0    0  501    0 -0.00000000000E+00 -0.00000000000E+00 -0.15356983661E+04  0.15356983661E+04  0.00000000000E+00 0.  1.
          2    1    1    2  501    0  0.15272271139E+02 -0.18172736132E+02  0.47214332426E+02  0.52845849323E+02  0.00000000000E+00 0. -1.
          1    1    1    2  502    0 -0.15272271139E+02  0.18172736132E+02 -0.15327907071E+04  0.15329745081E+04  0.00000000000E+00 0.  1.
</event>
<event>
 4    1  0.7181337E+003  0.2168951E+02  0.7546771E-02  0.1509644E+00
          2   -1    0    0  502    0  0.00000000000E+00  0.00000000000E+00  0.48650043722E+03  0.48650043722E+03  0.00000000000E+00 0.  1.
          1   -1    0    0  501    0 -0.00000000000E+00 -0.00000000000E+00 -0.72657560650E+01  0.72657560650E+01  0.00000000000E+00 0.  1.
          2    1    1    2  501    0 -0.62046322651E+01  0.20783103845E+02  0.46948566373E+03  0.46998640759E+03  0.00000000000E+00 0.  1.
          1    1    1    2  502    0  0.62046322651E+01 -0.20783103845E+02  0.97490174173E+01  0.23779785692E+02  0.00000000000E+00 0.  1.
</event>
<event>
 4    1  0.7181337E+003  0.3040321E+02  0.7546771E-02  0.1416124E+00
          2   -1    0    0  502    0  0.00000000000E+00  0.00000000000E+00  0.22177069115E+02  0.22177069115E+02  0.00000000000E+00 0. -1.
          1   -1    0    0  501    0 -0.00000000000E+00 -0.00000000000E+00 -0.74529161449E+02  0.74529161449E+02  0.00000000000E+00 0. -1.
          2    1    1    2  501    0  0.30311887448E+02 -0.23547083443E+01  0.59249888689E+01  0.30975162068E+02  0.00000000000E+00 0. -1.
          1    1    1    2  502    0 -0.30311887448E+02  0.23547083443E+01 -0.58277081203E+02  0.65731068496E+02  0.00000000000E+00 0. -1.
</event>
<event>
 4    1  0.7181337E+003  0.2399552E+02  0.7546771E-02  0.1480362E+00
          2   -1    0    0  502    0  0.00000000000E+00  0.00000000000E+00  0.16800331848E+04  0.16800331848E+04  0.00000000000E+00 0.  1.
          1   -1    0    0  501    0 -0.00000000000E+00 -0.00000000000E+00 -0.30086631554E+01  0.30086631554E+01  0.00000000000E+00 0.  1.
          2    1    1    2  501    0  0.66708355761E+01 -0.23049619001E+02  0.16306548857E+04  0.16308314264E+04  0.00000000000E+00 0.  1.
          1    1    1    2  502    0 -0.66708355761E+01  0.23049619001E+02  0.46369635862E+02  0.52210421502E+02  0.00000000000E+00 0.  1.
</event>
<event>
 4    1  0.7181337E+003  0.2536434E+02  0.7546771E-02  0.1464769E+00
          2   -1    0    0  502    0  0.00000000000E+00  0.00000000000E+00  0.55066319644E+03  0.55066319644E+03  0.00000000000E+00 0.  1.
          1   -1    0    0  501    0 -0.00000000000E+00 -0.00000000000E+00 -0.34173523274E+01  0.34173523274E+01  0.00000000000E+00 0.  1.
          2    1    1    2  501    0 -0.89179073324E+01 -0.23744908556E+02  0.49837104193E+03  0.49901607708E+03  0.00000000000E+00 0.  1.
          1    1    1    2  502    0  0.89179073324E+01  0.23744908556E+02  0.48874802188E+02  0.55064471689E+02  0.00000000000E+00 0.  1.
</event>
<event>
 4    1  0.7181337E+003  0.2690418E+02  0.7546771E-02  0.1448573E+00
          2   -1    0    0  502    0  0.00000000000E+00  0.00000000000E+00  0.27092725335E+03  0.27092725335E+03  0.00000000000E+00 0.  1.
          1   -1    0    0  501    0 -0.00000000000E+00 -0.00000000000E+00 -0.91500842898E+01  0.91500842898E+01  0.00000000000E+00 0.  1.
          2    1    1    2  501    0  0.26867410461E+02  0.14061184267E+01  0.24872213299E+03  0.25017300884E+03  0.00000000000E+00 0.  1.
          1    1    1    2  502    0 -0.26867410461E+02 -0.14061184267E+01  0.13055036065E+02  0.29904328793E+02  0.00000000000E+00 0.  1.
</event>
<event>
 4    1  0.1089879E+004  0.2116499E+02  0.7546771E-02  0.1516922E+00
          2   -1    0    0  502    0  0.00000000000E+00  0.00000000000E+00  0.44661202748E+03  0.44661202748E+03  0.00000000000E+00 0.  1.
          1   -1    0    0  501    0 -0.00000000000E+00 -0.00000000000E+00 -0.75531646384E+03  0.75531646384E+03  0.00000000000E+00 0. -1.
          2    1    1    2  501    0  0.28937116455E+01  0.20966240646E+02  0.44621287423E+03  0.44671454638E+03  0.00000000000E+00 0.  1.
          1    1    1    2  502    0 -0.28937116455E+01 -0.20966240646E+02 -0.75491731059E+03  0.75521394495E+03  0.00000000000E+00 0. -1.
</event>
<event>
 4    1  0.7181337E+003  0.3999179E+02  0.7546771E-02  0.1348534E+00
          2   -1    0    0  502    0  0.00000000000E+00  0.00000000000E+00  0.21786512774E+02  0.21786512774E+02  0.00000000000E+00 0.  1.
          1   -1    0    0  501    0 -0.00000000000E+00 -0.00000000000E+00 -0.20268019460E+04  0.20268019460E+04  0.00000000000E+00 0. -1.
          2    1    1    2  501    0  0.88322412420E+01  0.39004291244E+02  0.30657143234E+01  0.40109123963E+02  0.00000000000E+00 0.  1.
          1    1    1    2  502    0 -0.88322412420E+01 -0.39004291244E+02 -0.20080811476E+04  0.20084793348E+04  0.00000000000E+00 0. -1.
</event>
<event>
 4    1  0.7181337E+003  0.2347243E+02  0.7546771E-02  0.1486649E+00
          2   -1    0    0  502    0  0.00000000000E+00  0.00000000000E+00  0.15845624997E+03  0.15845624997E+03  0.00000000000E+00 0. -1.
          1   -1    0    0  501    0 -0.00000000000E+00 -0.00000000000E+00 -0.37017869652E+01  0.37017869652E+01  0.00000000000E+00 0. -1.
          2    1    1    2  501    0  0.22646322493E+02  0.61724481767E+01  0.97356157119E+02  0.10014577559E+03  0.00000000000E+00 0. -1.
          1    1    1    2  502    0 -0.22646322493E+02 -0.61724481767E+01  0.57398305888E+02  0.62012261350E+02  0.00000000000E+00 0. -1.
</event>
<event>
 4    1  0.7181337E+003  0.6518507E+02  0.7546771E-02  0.1243165E+00
          2   -1    0    0  502    0  0.00000000000E+00  0.00000000000E+00  0.14027478394E+02  0.14027478394E+02  0.00000000000E+00 0. -1.
          1   -1    0    0  501    0 -0.00000000000E+00 -0.00000000000E+00 -0.16511361515E+04  0.16511361515E+04  0.00000000000E+00 0.  1.
          2    1    1    2  501    0 -0.65120129720E+02  0.29090325391E+01 -0.66210264405E+02  0.92913362213E+02  0.00000000000E+00 0. -1.
          1    1    1    2  502    0  0.65120129720E+02 -0.29090325391E+01 -0.15708984087E+04  0.15722502677E+04  0.00000000000E+00 0.  1.
</event>
<event>
 4    1  0.7181337E+003  0.2772600E+02  0.7546771E-02  0.1440448E+00
          2   -1    0    0  502    0  0.00000000000E+00  0.00000000000E+00  0.39054492715E+03  0.39054492715E+03  0.00000000000E+00 0. -1.
          1   -1    0    0  501    0 -0.00000000000E+00 -0.00000000000E+00 -0.62901419476E+02  0.62901419476E+02  0.00000000000E+00 0. -1.
          2    1    1    2  501    0 -0.26137144608E+02  0.92509916623E+01  0.38696934219E+03  0.38796134211E+03  0.00000000000E+00 0. -1.
          1    1    1    2  502    0  0.26137144608E+02 -0.92509916623E+01 -0.59325834519E+02  0.65485004515E+02  0.00000000000E+00 0. -1.
</event>
<event>
 4    1  0.7181337E+003  0.2397123E+02  0.7546771E-02  0.1480650E+00
          2   -1    0    0  502    0  0.00000000000E+00  0.00000000000E+00  0.29110138787E+03  0.29110138787E+03  0.00000000000E+00 0. -1.
          1   -1    0    0  501    0 -0.00000000000E+00 -0.00000000000E+00 -0.47936245138E+01  0.47936245138E+01  0.00000000000E+00 0. -1.
          2    1    1    2  501    0 -0.23248182311E+02 -0.58431145440E+01  0.25662230773E+03  0.25773945913E+03  0.00000000000E+00 0. -1.
          1    1    1    2  502    0  0.23248182311E+02  0.58431145440E+01  0.29685455628E+02  0.38155553255E+02  0.00000000000E+00 0. -1.
</event>
<event>
 4    1  0.7181337E+003  0.2053782E+02  0.7546771E-02  0.1525967E+00
          2   -1    0    0  502    0  0.00000000000E+00  0.00000000000E+00  0.13460958010E+04  0.13460958010E+04  0.00000000000E+00 0.  1.
          1   -1    0    0  501    0 -0.00000000000E+00 -0.00000000000E+00 -0.20331793519E+02  0.20331793519E+02  0.00000000000E+00 0.  1.
          2    1    1    2  501    0  0.89276563690E+01  0.18495923569E+02  0.13408105340E+04  0.13409678185E+04  0.00000000000E+00 0.  1.
          1    1    1    2  502    0 -0.89276563690E+01 -0.18495923569E+02 -0.15046526475E+02  0.25459776037E+02  0.00000000000E+00 0.  1.
</event>
<event>
 4    1  0.7181337E+003  0.3261429E+02  0.7546771E-02  0.1398159E+00
          2   -1    0    0  502    0  0.00000000000E+00  0.00000000000E+00  0.38855975446E+02  0.38855975446E+02  0.00000000000E+00 0.  1.
          1   -1    0    0  501    0 -0.00000000000E+00 -0.00000000000E+00 -0.20499205683E+03  0.20499205683E+03  0.00000000000E+00 0. -1.
          2    1    1    2  501    0  0.27620343144E+02 -0.17343826420E+02  0.30423315037E+02  0.44601230567E+02  0.00000000000E+00 0.  1.
          1    1    1    2  502    0 -0.27620343144E+02  0.17343826420E+02 -0.19655939642E+03  0.19924680171E+03  0.00000000000E+00 0. -1.
</event>
<event>
 4    1  0.7181337E+003  0.3002790E+02  0.7546771E-02  0.1419354E+00
          2   -1    0    0  502    0  0.00000000000E+00  0.00000000000E+00  0.41943539938E+03  0.41943539938E+03  0.00000000000E+00 0.  1.
          1   -1    0    0  501    0 -0.00000000000E+00 -0.00000000000E+00 -0.26715488422E+01  0.26715488422E+01  0.00000000000E+00 0.  1.
          2    1    1    2  501    0  0.14652277251E+02  0.26210408345E+02  0.30165772175E+03  0.30314857055E+03  0.00000000000E+00 0.  1.
          1    1    1    2  502    0 -0.14652277251E+02 -0.26210408345E+02  0.11510612878E+03  0.11895837767E+03  0.00000000000E+00 0.  1.
</event>
<event>
 4    1  0.7181337E+003  0.2838160E+02  0.7546771E-02  0.1434202E+00
          2   -1    0    0  502    0  0.00000000000E+00  0.00000000000E+00  0.18212469400E+04  0.18212469400E+04  0.00000000000E+00 0. -1.
          1   -1    0    0  501    0 -0.00000000000E+00 -0.00000000000E+00 -0.91966335968E+02  0.91966335968E+02  0.00000000000E+00 0.  1.
          2    1    1    2  501    0  0.26193112080E+02  0.10928694718E+02  0.18189438937E+04  0.18191653042E+04  0.00000000000E+00 0. -1.
          1    1    1    2  502    0 -0.26193112080E+02 -0.10928694718E+02 -0.89663289656E+02  0.94047971805E+02  0.00000000000E+00 0.  1.
</event>
<event>
 4    1  0.7181337E+003  0.5203335E+02  0.7546771E-02  0.1289589E+00
          2   -1    0    0  502    0  0.00000000000E+00  0.00000000000E+00  0.13389473707E+02  0.13389473707E+02  0.00000000000E+00 0.  1.
          1   -1    0    0  501    0 -0.00000000000E+00 -0.00000000000E+00 -0.10050944614E+04  0.10050944614E+04  0.00000000000E+00 0.  1.
          2    1    1    2  501    0 -0.51194946073E+02 -0.93030649394E+01 -0.40709778315E+02  0.66066296787E+02  0.00000000000E+00 0.  1.
          1    1    1    2  502    0  0.51194946073E+02  0.93030649394E+01 -0.95099520936E+03  0.95241763830E+03  0.00000000000E+00 0.  1.
</event>
<event>
 4    1  0.7181337E+003  0.2143521E+02  0.7546771E-02  0.1513141E+00
          2   -1    0    0  502    0  0.00000000000E+00  0.00000000000E+00  0.76579195082E+03  0.76579195082E+03  0.00000000000E+00 0. -1.
          1   -1    0    0  501    0 -0.00000000000E+00 -0.00000000000E+00 -0.17813400870E+02  0.17813400870E+02  0.00000000000E+00 0. -1.
          2    1    1    2  501    0 -0.16196736518E+02 -0.14040446947E+02  0.75913708218E+03  0.75943964735E+03  0.00000000000E+00 0. -1.
          1    1    1    2  502    0  0.16196736518E+02  0.14040446947E+02 -0.11158532236E+02  0.24165704334E+02  0.00000000000E+00 0. -1.
</event>
<event>
 4    1  0.7181337E+003  0.2198255E+02  0.7546771E-02  0.1505685E+00
          2   -1    0    0  502    0  0.00000000000E+00  0.00000000000E+00  0.18732462758E+03  0.18732462758E+03  0.00000000000E+00 0.  1.
          1   -1    0    0  501    0 -0.00000000000E+00 -0.00000000000E+00 -0.14485162244E+02  0.14485162244E+02  0.00000000000E+00 0. -1.
          2    1    1    2  501    0  0.93572269321E+01 -0.19891575379E+02  0.17789939389E+03  0.17925241090E+03  0.00000000000E+00 0.  1.
          1    1    1    2  502    0 -0.93572269321E+01  0.19891575379E+02 -0.50599285550E+01  0.22557378924E+02  0.00000000000E+00 0. -1.
</event>
<event>
 4    1  0.7181337E+003  0.2304566E+02  0.7546771E-02  0.1491926E+00
          2   -1    0    0  502    0  0.00000000000E+00  0.00000000000E+00  0.10650498846E+04  0.10650498846E+04  0.00000000000E+00 0.  1.
          1   -1    0    0  501    0 -0.00000000000E+00 -0.00000000000E+00 -0.47541751845E+01  0.47541751845E+01  0.00000000000E+00 0.  1.
          2    1    1    2  501    0 -0.39786986186E+01  0.22699609093E+02  0.10362200901E+04  0.10364763274E+04  0.00000000000E+00 0.  1.
          1    1    1    2  502    0  0.39786986186E+01 -0.22699609093E+02  0.24075619338E+02  0.33327732329E+02  0.00000000000E+00 0.  1.
</event>
<event>
 4    1  0.7181337E+003  0.2000397E+02  0.7546771E-02  0.1533975E+00
          2   -1    0    0  502    0  0.00000000000E+00  0.00000000000E+00  0.70093170361E+02  0.70093170361E+02  0.00000000000E+00 0.  1.
          1   -1    0    0  501    0 -0.00000000000E+00 -0.00000000000E+00 -0.11129576767E+03  0.11129576767E+03  0.00000000000E+00 0.  1.
          2    1    1    2  501    0  0.17844035857E+02 -0.90415158848E+01  0.67736448962E+02  0.70628500927E+02  0.00000000000E+00 0.  1.
          1    1    1    2  502    0 -0.17844035857E+02  0.90415158848E+01 -0.10893904627E+03  0.11076043710E+03  0.00000000000E+00 0.  1.
</event>
<event>
 4    1  0.7181337E+003  0.2105880E+02  0.7546771E-02  0.1518427E+00
          2   -1    0    0  502    0  0.00000000000E+00  0.00000000000E+00  0.52824242755E+02  0.52824242755E+02  0.00000000000E+00 0.  1.
          1   -1    0    0  501    0 -0.00000000000E+00 -0.00000000000E+00 -0.34453270801E+02  0.34453270801E+02  0.00000000000E+00 0.  1.
          2    1    1    2  501    0  0.35119373628E+00  0.21055872990E+02  0.47136885048E+02  0.51627115515E+02  0.00000000000E+00 0.  1.
          1    1    1    2  502    0 -0.35119373628E+00 -0.21055872990E+02 -0.28765913094E+02  0.35650398041E+02  0.00000000000E+00 0.  1.
</event>
<event>
 4    1  0.7181337E+003  0.2110082E+02  0.7546771E-02  0.1517830E+00
          2   -1    0    0  502    0  0.00000000000E+00  0.00000000000E+00  0.70093329745E+01  0.70093329745E+01  0.00000000000E+00 0. -1.
          1   -1    0    0  501    0 -0.00000000000E+00 -0.00000000000E+00 -0.47887378953E+03  0.47887378953E+03  0.00000000000E+00 0.  1.
          2    1    1    2  501    0  0.13531283514E+02  0.16191013625E+02 -0.96765441756E+01  0.23213790361E+02  0.00000000000E+00 0. -1.
          1    1    1    2  502    0 -0.13531283514E+02 -0.16191013625E+02 -0.46218791238E+03  0.46266933214E+03  0.00000000000E+00 0.  1.
</event>
<event>
 4    1  0.7181337E+003  0.3442417E+02  0.7546771E-02  0.1384657E+00
          2   -1    0    0  502    0  0.00000000000E+00  0.00000000000E+00  0.29553563074E+02  0.29553563074E+02  0.00000000000E+00 0.  1.
          1   -1    0    0  501    0 -0.00000000000E+00 -0.00000000000E+00 -0.46482790849E+02  0.46482790849E+02  0.00000000000E+00 0. -1.
          2    1    1    2  501    0  0.23610301643E+02 -0.25051488959E+02  0.56262028988E+01  0.34880905977E+02  0.00000000000E+00 0.  1.
          1    1    1    2  502    0 -0.23610301643E+02  0.25051488959E+02 -0.22555430674E+02  0.41155447946E+02  0.00000000000E+00 0. -1.
</event>
<event>
 4    1  0.7181337E+003  0.5620450E+02  0.7546771E-02  0.1273304E+00
          2   -1    0    0  502    0  0.00000000000E+00  0.00000000000E+00  0.44381373281E+02  0.44381373281E+02  0.00000000000E+00 0. -1.
          1   -1    0    0  501    0 -0.00000000000E+00 -0.00000000000E+00 -0.30894668785E+03  0.30894668785E+03  0.00000000000E+00 0.  1.
          2    1    1    2  501    0  0.31539386600E+02 -0.46521103706E+02  0.22700441213E+02  0.60615641780E+02  0.00000000000E+00 0. -1.
          1    1    1    2  502    0 -0.31539386600E+02  0.46521103706E+02 -0.28726575579E+03  0.29271241936E+03  0.00000000000E+00 0.  1.
</event>
<event>
 4    1  0.7181337E+003  0.3526672E+02  0.7546771E-02  0.1378698E+00
          2   -1    0    0  502    0  0.00000000000E+00  0.00000000000E+00  0.64177870288E+02  0.64177870288E+02  0.00000000000E+00 0. -1.
          1   -1    0    0  501    0 -0.00000000000E+00 -0.00000000000E+00 -0.49539117281E+02  0.49539117281E+02  0.00000000000E+00 0. -1.
          2    1    1    2  501    0 -0.22813778085E+02 -0.26893740922E+02  0.51683650257E+02  0.62569493167E+02  0.00000000000E+00 0. -1.
          1    1    1    2  502    0  0.22813778085E+02  0.26893740922E+02 -0.37044897250E+02  0.51147494402E+02  0.00000000000E+00 0. -1.
</event>
<event>
 4    1  0.7181337E+003  0.2086633E+02  0.7546771E-02  0.1521182E+00
          2   -1    0    0  502    0  0.00000000000E+00  0.00000000000E+00  0.22266751478E+01  0.22266751478E+01  0.00000000000E+00 0.  1.
          1   -1    0    0  501    0 -0.00000000000E+00 -0.00000000000E+00 -0.19917260609E+03  0.19917260609E+03  0.00000000000E+00 0.  1.
          2    1    1    2  501    0 -0.19979164140E+02  0.60196986439E+01 -0.84873245294E+02  0.87400638088E+02  0.00000000000E+00 0.  1.
          1    1    1    2  502    0  0.19979164140E+02 -0.60196986439E+01 -0.11207268565E+03  0.11399864315E+03  0.00000000000E+00 0.  1.
</event>
<event>
 4    1  0.7181337E+003  0.4021434E+02  0.7546771E-02  0.1347234E+00
          2   -1    0    0  502    0  0.00000000000E+00  0.00000000000E+00  0.14305472977E+02  0.14305472977E+02  0.00000000000E+00 0. -1.
          1   -1    0    0  501    0 -0.00000000000E+00 -0.00000000000E+00 -0.41317963738E+03  0.41317963738E+03  0.00000000000E+00 0. -1.
          2    1    1    2  501    0  0.32908227409E+02 -0.23113665656E+02 -0.17266584681E+02  0.43764459528E+02  0.00000000000E+00 0. -1.
          1    1    1    2  502    0 -0.32908227409E+02  0.23113665656E+02 -0.38160757972E+03  0.38372065083E+03  0.00000000000E+00 0. -1.
</event>
<event>
 4    1  0.7181337E+003  0.2252840E+02  0.7546771E-02  0.1498507E+00
          2   -1    0    0  502    0  0.00000000000E+00  0.00000000000E+00  0.23423180798E+02  0.23423180798E+02  0.00000000000E+00 0. -1.
          1   -1    0    0  501    0 -0.00000000000E+00 -0.00000000000E+00 -0.51102614492E+03  0.51102614492E+03  0.00000000000E+00 0.  1.
          2    1    1    2  501    0 -0.14514241297E+02 -0.17229782681E+02  0.17696583614E+02  0.28647821615E+02  0.00000000000E+00 0. -1.
          1    1    1    2  502    0  0.14514241297E+02  0.17229782681E+02 -0.50529954774E+03  0.50580150410E+03  0.00000000000E+00 0.  1.
</event>
<event>
 4    1  0.7181337E+003  0.3041655E+02  0.7546771E-02  0.1416010E+00
          2   -1    0    0  502    0  0.00000000000E+00  0.00000000000E+00  0.13991266562E+04  0.13991266562E+04  0.00000000000E+00 0.  1.
          1   -1    0    0  501    0 -0.00000000000E+00 -0.00000000000E+00 -0.84055269909E+00  0.84055269909E+00  0.00000000000E+00 0.  1.
          2    1    1    2  501    0 -0.27598798818E+02  0.12785647564E+02  0.10224417976E+04  0.10228941275E+04  0.00000000000E+00 0.  1.
          1    1    1    2  502    0  0.27598798818E+02 -0.12785647564E+02  0.37584430584E+03  0.37707308140E+03  0.00000000000E+00 0.  1.
</event>
<event>
 4    1  0.7181337E+003  0.2112374E+02  0.7546771E-02  0.1517505E+00
          2   -1    0    0  502    0  0.00000000000E+00  0.00000000000E+00  0.10942149964E+04  0.10942149964E+04  0.00000000000E+00 0.  1.
          1   -1    0    0  501    0 -0.00000000000E+00 -0.00000000000E+00 -0.63988480953E+00  0.63988480953E+00  0.00000000000E+00 0. -1.
          2    1    1    2  501    0  0.58269454146E+01  0.20304161229E+02  0.87647802391E+03  0.87673253541E+03  0.00000000000E+00 0.  1.
          1    1    1    2  502    0 -0.58269454146E+01 -0.20304161229E+02  0.21709708770E+03  0.21812234582E+03  0.00000000000E+00 0. -1.
</event>
<event>
 4    1  0.7181337E+003  0.2960902E+02  0.7546771E-02  0.1423025E+00
          2   -1    0    0  502    0  0.00000000000E+00  0.00000000000E+00  0.42372808700E+03  0.42372808700E+03  0.00000000000E+00 0. -1.
          1   -1    0    0  501    0 -0.00000000000E+00 -0.00000000000E+00 -0.85328388463E+02  0.85328388463E+02  0.00000000000E+00 0. -1.
          2    1    1    2  501    0 -0.26385277797E+02  0.13435451942E+02  0.42062331119E+03  0.42166416040E+03  0.00000000000E+00 0. -1.
          1    1    1    2  502    0  0.26385277797E+02 -0.13435451942E+02 -0.82223612654E+02  0.87392315058E+02  0.00000000000E+00 0. -1.
</event>
<event>
 4    1  0.7181337E+003  0.2182472E+02  0.7546771E-02  0.1507808E+00
          2   -1    0    0  502    0  0.00000000000E+00  0.00000000000E+00  0.12723367531E+04  0.12723367531E+04  0.00000000000E+00 0.  1.
          1   -1    0    0  501    0 -0.00000000000E+00 -0.00000000000E+00 -0.35498724988E+02  0.35498724988E+02  0.00000000000E+00 0. -1.
          2    1    1    2  501    0 -0.21059800513E+02  0.57273927715E+01  0.12688795487E+04  0.12690672273E+04  0.00000000000E+00 0.  1.
          1    1    1    2  502    0  0.21059800513E+02 -0.57273927715E+01 -0.32041520617E+02  0.38768250787E+02  0.00000000000E+00 0. -1.
</event>
<event>
 4    1  0.7181337E+003  0.3166031E+02  0.7546771E-02  0.1405697E+00
          2   -1    0    0  502    0  0.00000000000E+00  0.00000000000E+00  0.21591267065E+03  0.21591267065E+03  0.00000000000E+00 0. -1.
          1   -1    0    0  501    0 -0.00000000000E+00 -0.00000000000E+00 -0.20881739255E+03  0.20881739255E+03  0.00000000000E+00 0. -1.
          2    1    1    2  501    0 -0.30926221024E+02  0.67782227088E+01  0.21353871359E+03  0.21587301279E+03  0.00000000000E+00 0. -1.
          1    1    1    2  502    0  0.30926221024E+02 -0.67782227088E+01 -0.20644343549E+03  0.20885705041E+03  0.00000000000E+00 0. -1.
</event>
<event>
 4    1  0.7181337E+003  0.3229892E+02  0.7546771E-02  0.1400617E+00
          2   -1    0    0  502    0  0.00000000000E+00  0.00000000000E+00  0.82074959077E+03  0.82074959077E+03  0.00000000000E+00 0. -1.
          1   -1    0    0  501    0 -0.00000000000E+00 -0.00000000000E+00 -0.15729447287E+01  0.15729447287E+01  0.00000000000E+00 0.  1.
          2    1    1    2  501    0 -0.22212449681E+02 -0.23448395192E+02  0.58971483101E+03  0.59059868107E+03  0.00000000000E+00 0. -1.
          1    1    1    2  502    0  0.22212449681E+02  0.23448395192E+02  0.22946181503E+03  0.23172385443E+03  0.00000000000E+00 0.  1.
</event>
<event>
 4    1  0.7181337E+003  0.2258996E+02  0.7546771E-02  0.1497712E+00
          2   -1    0    0  502    0  0.00000000000E+00  0.00000000000E+00  0.30956793596E+01  0.30956793596E+01  0.00000000000E+00 0.  1.
          1   -1    0    0  501    0 -0.00000000000E+00 -0.00000000000E+00 -0.28477032061E+03  0.28477032061E+03  0.00000000000E+00 0. -1.
          2    1    1    2  501    0 -0.41221441394E+01 -0.22210680219E+02 -0.47432568599E+02  0.52537176856E+02  0.00000000000E+00 0.  1.
          1    1    1    2  502    0  0.41221441394E+01  0.22210680219E+02 -0.23424207265E+03  0.23532882311E+03  0.00000000000E+00 0. -1.
</event>
<event>
 4    1  0.7181337E+003  0.6733642E+02  0.7546771E-02  0.1236756E+00
          2   -1    0    0  502    0  0.00000000000E+00  0.00000000000E+00  0.10356139757E+04  0.10356139757E+04  0.00000000000E+00 0. -1.
          1   -1    0    0  501    0 -0.00000000000E+00 -0.00000000000E+00 -0.90972263216E+01  0.90972263216E+01  0.00000000000E+00 0. -1.
          2    1    1    2  501    0  0.78489059931E+01 -0.66877407894E+02  0.88947236259E+03  0.89201753168E+03  0.00000000000E+00 0. -1.
          1    1    1    2  502    0 -0.78489059931E+01  0.66877407894E+02  0.13704438677E+03  0.15269367033E+03  0.00000000000E+00 0. -1.
</event>
<event>
 4    1  0.7181337E+003  0.2184817E+02  0.7546771E-02  0.1507491E+00
          2   -1    0    0  502    0  0.00000000000E+00  0.00000000000E+00  0.44220327715E+03  0.44220327715E+03  0.00000000000E+00 0. -1.
          1   -1    0    0  501    0 -0.00000000000E+00 -0.00000000000E+00 -0.17828062009E+02  0.17828062009E+02  0.00000000000E+00 0.  1.
          2    1    1    2  501    0  0.59754480717E+01  0.21015150142E+02  0.43513098932E+03  0.43567914843E+03  0.00000000000E+00 0. -1.
          1    1    1    2  502    0 -0.59754480717E+01 -0.21015150142E+02 -0.10755774174E+02  0.24352190727E+02  0.00000000000E+00 0.  1.
</event>
<event>
 4    1  0.7181337E+003  0.5132691E+02  0.7546771E-02  0.1292520E+00
          2   -1    0    0  502    0  0.00000000000E+00  0.00000000000E+00  0.25148265224E+01  0.25148265224E+01  0.00000000000E+00 0.  1.
          1   -1    0    0  501    0 -0.00000000000E+00 -0.00000000000E+00 -0.15106864630E+04  0.15106864630E+04  0.00000000000E+00 0. -1.
          2    1    1    2  501    0 -0.33003630566E+02 -0.39309190369E+02 -0.33517118390E+03  0.33907841954E+03  0.00000000000E+00 0.  1.
          1    1    1    2  502    0  0.33003630566E+02  0.39309190369E+02 -0.11730004525E+04  0.11741228700E+04  0.00000000000E+00 0. -1.
</event>
<event>
 4    1  0.7181337E+003  0.2336973E+02  0.7546771E-02  0.1487907E+00
          2   -1    0    0  502    0  0.00000000000E+00  0.00000000000E+00  0.33766241465E+03  0.33766241465E+03  0.00000000000E+00 0. -1.
          1   -1    0    0  501    0 -0.00000000000E+00 -0.00000000000E+00 -0.91316839808E+01  0.91316839808E+01  0.00000000000E+00 0. -1.
          2    1    1    2  501    0  0.20571070278E+01 -0.23279014633E+02  0.32155832921E+03  0.32240642564E+03  0.00000000000E+00 0. -1.
          1    1    1    2  502    0 -0.20571070278E+01  0.23279014633E+02  0.69724014580E+01  0.24387672987E+02  0.00000000000E+00 0. -1.
</event>
<event>
 4    1  0.7181337E+003  0.2830169E+02  0.7546771E-02  0.1434953E+00
          2   -1    0    0  502    0  0.00000000000E+00  0.00000000000E+00  0.80956233441E+03  0.80956233441E+03  0.00000000000E+00 0. -1.
          1   -1    0    0  501    0 -0.00000000000E+00 -0.00000000000E+00 -0.30823628876E+01  0.30823628876E+01  0.00000000000E+00 0.  1.
          2    1    1    2  501    0 -0.61160903998E+01 -0.27632935314E+02  0.73805813219E+03  0.73860056334E+03  0.00000000000E+00 0. -1.
          1    1    1    2  502    0  0.61160903998E+01  0.27632935314E+02  0.68421839337E+02  0.74044133962E+02  0.00000000000E+00 0.  1.
</event>
<event>
 4    1  0.7181337E+003  0.2362877E+02  0.7546771E-02  0.1484750E+00
          2   -1    0    0  502    0  0.00000000000E+00  0.00000000000E+00  0.81888098251E+02  0.81888098251E+02  0.00000000000E+00 0. -1.
          1   -1    0    0  501    0 -0.00000000000E+00 -0.00000000000E+00 -0.62840577592E+02  0.62840577592E+02  0.00000000000E+00 0.  1.
          2    1    1    2  501    0 -0.14214546995E+02 -0.18874989962E+02  0.77849727847E+02  0.81356614471E+02  0.00000000000E+00 0. -1.
          1    1    1    2  502    0  0.14214546995E+02  0.18874989962E+02 -0.58802207188E+02  0.63372061372E+02  0.00000000000E+00 0.  1.
</event>
<event>
 4    1  0.7181337E+003  0.2157543E+02  0.7546771E-02  0.1511206E+00
          2   -1    0    0  502    0  0.00000000000E+00  0.00000000000E+00  0.72457008993E+03  0.72457008993E+03  0.00000000000E+00 0.  1.
          1   -1    0    0  501    0 -0.00000000000E+00 -0.00000000000E+00 -0.18294147712E+02  0.18294147712E+02  0.00000000000E+00 0.  1.
          2    1    1    2  501    0 -0.18966524401E+02  0.10284454589E+02  0.71798987997E+03  0.71831397508E+03  0.00000000000E+00 0.  1.
          1    1    1    2  502    0  0.18966524401E+02 -0.10284454589E+02 -0.11713937755E+02  0.24550262560E+02  0.00000000000E+00 0.  1.
</event>
<event>
 4    1  0.7181337E+003  0.2093872E+02  0.7546771E-02  0.1520142E+00
          2   -1    0    0  502    0  0.00000000000E+00  0.00000000000E+00  0.76287694178E+01  0.76287694178E+01  0.00000000000E+00 0. -1.
          1   -1    0    0  501    0 -0.00000000000E+00 -0.00000000000E+00 -0.83064260358E+03  0.83064260358E+03  0.00000000000E+00 0.  1.
          2    1    1    2  501    0  0.31381421875E+01 -0.20702221504E+02 -0.71307047686E+01  0.22119603570E+02  0.00000000000E+00 0. -1.
          1    1    1    2  502    0 -0.31381421875E+01  0.20702221504E+02 -0.81588312940E+03  0.81615176943E+03  0.00000000000E+00 0.  1.
</event>
<event>
 4    1  0.7181337E+003  0.2258027E+02  0.7546771E-02  0.1497837E+00
          2   -1    0    0  502    0  0.00000000000E+00  0.00000000000E+00  0.34617304364E+03  0.34617304364E+03  0.00000000000E+00 0. -1.
          1   -1    0    0  501    0 -0.00000000000E+00 -0.00000000000E+00 -0.57590853865E+01  0.57590853865E+01  0.00000000000E+00 0. -1.
          2    1    1    2  501    0  0.66179975748E+01 -0.21588666535E+02  0.32201302951E+03  0.32280374780E+03  0.00000000000E+00 0. -1.
          1    1    1    2  502    0 -0.66179975748E+01  0.21588666535E+02  0.18400928742E+02  0.29128381233E+02  0.00000000000E+00 0. -1.
</event>
<event>
 4    1  0.7181337E+003  0.2241932E+02  0.7546771E-02  0.1499921E+00
          2   -1    0    0  502    0  0.00000000000E+00  0.00000000000E+00  0.19950445892E+03  0.19950445892E+03  0.00000000000E+00 0.  1.
          1   -1    0    0  501    0 -0.00000000000E+00 -0.00000000000E+00 -0.31490821090E+01  0.31490821090E+01  0.00000000000E+00 0. -1.
          2    1    1    2  501    0 -0.11235828966E+02 -0.19400567295E+02  0.14348858816E+03  0.14522947633E+03  0.00000000000E+00 0.  1.
          1    1    1    2  502    0  0.11235828966E+02  0.19400567295E+02  0.52866788650E+02  0.57424064695E+02  0.00000000000E+00 0. -1.
</event>
<event>
 4    1  0.7181337E+003  0.5331817E+02  0.7546771E-02  0.1284393E+00
          2   -1    0    0  502    0  0.00000000000E+00  0.00000000000E+00  0.13565380991E+03  0.13565380991E+03  0.00000000000E+00 0. -1.
          1   -1    0    0  501    0 -0.00000000000E+00 -0.00000000000E+00 -0.46052906709E+02  0.46052906709E+02  0.00000000000E+00 0. -1.
          2    1    1    2  501    0  0.85939877383E+01  0.52621011272E+02  0.11186891199E+03  0.12392530380E+03  0.00000000000E+00 0. -1.
          1    1    1    2  502    0 -0.85939877383E+01 -0.52621011272E+02 -0.22268008783E+02  0.57781412822E+02  0.00000000000E+00 0. -1.
</event>
<event>
 4    1  0.7181337E+003  0.2551890E+02  0.7546771E-02  0.1463081E+00
          2   -1    0    0  502    0  0.00000000000E+00  0.00000000000E+00  0.10186369588E+01  0.10186369588E+01  0.00000000000E+00 0.  1.
          1   -1    0    0  501    0 -0.00000000000E+00 -0.00000000000E+00 -0.14763037476E+04  0.14763037476E+04  0.00000000000E+00 0. -1.
          2    1    1    2  501    0  0.11484831352E+02 -0.22788437498E+02 -0.18145506338E+03  0.18324070034E+03  0.00000000000E+00 0.  1.
          1    1    1    2  502    0 -0.11484831352E+02  0.22788437498E+02 -0.12938300472E+04  0.12940816842E+04  0.00000000000E+00 0. -1.
</event>
<event>
 4    1  0.7181337E+003  0.2126363E+02  0.7546771E-02  0.1515534E+00
          2   -1    0    0  502    0  0.00000000000E+00  0.00000000000E+00  0.61232747041E+01  0.61232747041E+01  0.00000000000E+00 0.  1.
          1   -1    0    0  501    0 -0.00000000000E+00 -0.00000000000E+00 -0.13003035520E+03  0.13003035520E+03  0.00000000000E+00 0. -1.
          2    1    1    2  501    0  0.93606119750E+01 -0.19092431835E+02 -0.17201986547E+02  0.27350509156E+02  0.00000000000E+00 0.  1.
          1    1    1    2  502    0 -0.93606119750E+01  0.19092431835E+02 -0.10670509395E+03  0.10880312075E+03  0.00000000000E+00 0. -1.
</event>
<event>
 4    1  0.7181337E+003  0.2189346E+02  0.7546771E-02  0.1506881E+00
          2   -1    0    0  502    0  0.00000000000E+00  0.00000000000E+00  0.97674526798E+02  0.97674526798E+02  0.00000000000E+00 0. -1.
          1   -1    0    0  501    0 -0.00000000000E+00 -0.00000000000E+00 -0.35358696701E+03  0.35358696701E+03  0.00000000000E+00 0.  1.
          2    1    1    2  501    0 -0.16590803349E+02 -0.14285260764E+02  0.96103317095E+02  0.98565566947E+02  0.00000000000E+00 0. -1.
          1    1    1    2  502    0  0.16590803349E+02  0.14285260764E+02 -0.35201575731E+03  0.35269592686E+03  0.00000000000E+00 0.  1.
</event>
<event>
 4    1  0.7181337E+003  0.2114273E+02  0.7546771E-02  0.1517237E+00
          2   -1    0    0  502    0  0.00000000000E+00  0.00000000000E+00  0.97647343718E+01  0.97647343718E+01  0.00000000000E+00 0. -1.
          1   -1    0    0  501    0 -0.00000000000E+00 -0.00000000000E+00 -0.82618351158E+02  0.82618351158E+02  0.00000000000E+00 0. -1.
          2    1    1    2  501    0  0.68754860580E+01 -0.19993570279E+02 -0.55819360458E+01  0.21867171080E+02  0.00000000000E+00 0. -1.
          1    1    1    2  502    0 -0.68754860580E+01  0.19993570279E+02 -0.67271680741E+02  0.70515914450E+02  0.00000000000E+00 0. -1.
</event>
<event>
 4    1  0.7181337E+003  0.2523116E+02  0.7546771E-02  0.1466234E+00
          2   -1    0    0  502    0  0.00000000000E+00  0.00000000000E+00  0.20683334613E+03  0.20683334613E+03  0.00000000000E+00 0.  1.
          1   -1    0    0  501    0 -0.00000000000E+00 -0.00000000000E+00 -0.16056851253E+02  0.16056851253E+02  0.00000000000E+00 0. -1.
          2    1    1    2  501    0 -0.18399992982E+01  0.25163978180E+02  0.19558431097E+03  0.19720505595E+03  0.00000000000E+00 0.  1.
          1    1    1    2  502    0  0.18399992982E+01 -0.25163978180E+02 -0.48078160846E+01  0.25685141439E+02  0.00000000000E+00 0. -1.
</event>
<event>
 4    1  0.7181337E+003  0.2189304E+02  0.7546771E-02  0.1506887E+00
          2   -1    0    0  502    0  0.00000000000E+00  0.00000000000E+00  0.11157672084E+02  0.11157672084E+02  0.00000000000E+00 0. -1.
          1   -1    0    0  501    0 -0.00000000000E+00 -0.00000000000E+00 -0.58179763612E+03  0.58179763612E+03  0.00000000000E+00 0.  1.
          2    1    1    2  501    0  0.19087519442E+01 -0.21809672320E+02  0.24900654312E-02  0.21893038777E+02  0.00000000000E+00 0. -1.
          1    1    1    2  502    0 -0.19087519442E+01  0.21809672320E+02 -0.57064245410E+03  0.57106226943E+03  0.00000000000E+00 0.  1.
</event>
<event>
 4    1  0.7181337E+003  0.2070407E+02  0.7546771E-02  0.1523532E+00
          2   -1    0    0  502    0  0.00000000000E+00  0.00000000000E+00  0.20655517645E+03  0.20655517645E+03  0.00000000000E+00 0. -1.
          1   -1    0    0  501    0 -0.00000000000E+00 -0.00000000000E+00 -0.54293540744E+01  0.54293540744E+01  0.00000000000E+00 0. -1.
          2    1    1    2  501    0 -0.85724186756E+01 -0.18846016395E+02  0.18387092316E+03  0.18503290269E+03  0.00000000000E+00 0. -1.
          1    1    1    2  502    0  0.85724186756E+01  0.18846016395E+02  0.17254899224E+02  0.26951627838E+02  0.00000000000E+00 0. -1.
</event>
<event>
 4    1  0.7181337E+003  0.4714030E+02  0.7546771E-02  0.1311071E+00
          2   -1    0    0  502    0  0.00000000000E+00  0.00000000000E+00  0.46137952836E+03  0.46137952836E+03  0.00000000000E+00 0.  1.
          1   -1    0    0  501    0 -0.00000000000E+00 -0.00000000000E+00 -0.38166146376E+02  0.38166146376E+02  0.00000000000E+00 0.  1.
          2    1    1    2  501    0  0.35338656824E+02  0.31199150696E+02  0.44508796091E+03  0.44757736830E+03  0.00000000000E+00 0.  1.
          1    1    1    2  502    0 -0.35338656824E+02 -0.31199150696E+02 -0.21874578925E+02  0.51968306433E+02  0.00000000000E+00 0.  1.
</event>
<event>
 4    1  0.7181337E+003  0.3546337E+02  0.7546771E-02  0.1377335E+00
          2   -1    0    0  502    0  0.00000000000E+00  0.00000000000E+00  0.56431126302E+03  0.56431126302E+03  0.00000000000E+00 0.  1.
          1   -1    0    0  501    0 -0.00000000000E+00 -0.00000000000E+00 -0.67753637380E+02  0.67753637380E+02  0.00000000000E+00 0.  1.
          2    1    1    2  501    0  0.61952112978E+01  0.34918048845E+02  0.55907011236E+03  0.56019375337E+03  0.00000000000E+00 0.  1.
          1    1    1    2  502    0 -0.61952112978E+01 -0.34918048845E+02 -0.62512486726E+02  0.71871147026E+02  0.00000000000E+00 0.  1.
</event>
<event>
 4    1  0.7181337E+003  0.2517788E+02  0.7546771E-02  0.1466823E+00
          2   -1    0    0  502    0  0.00000000000E+00  0.00000000000E+00  0.33587837601E+02  0.33587837601E+02  0.00000000000E+00 0.  1.
          1   -1    0    0  501    0 -0.00000000000E+00 -0.00000000000E+00 -0.44014362714E+02  0.44014362714E+02  0.00000000000E+00 0. -1.
          2    1    1    2  501    0  0.23990224829E+02  0.76416446642E+01  0.24111566365E+02  0.34861056397E+02  0.00000000000E+00 0.  1.
          1    1    1    2  502    0 -0.23990224829E+02 -0.76416446642E+01 -0.34538091478E+02  0.42741143918E+02  0.00000000000E+00 0. -1.
</event>
<event>
 4    1  0.7181337E+003  0.2208813E+02  0.7546771E-02  0.1504277E+00
          2   -1    0    0  502    0  0.00000000000E+00  0.00000000000E+00  0.39539678442E+03  0.39539678442E+03  0.00000000000E+00 0. -1.
          1   -1    0    0  501    0 -0.00000000000E+00 -0.00000000000E+00 -0.20108822269E+03  0.20108822269E+03  0.00000000000E+00 0.  1.
          2    1    1    2  501    0 -0.76624853081E+01  0.20716465162E+02  0.39448034124E+03  0.39509824757E+03  0.00000000000E+00 0. -1.
          1    1    1    2  502    0  0.76624853081E+01 -0.20716465162E+02 -0.20017177951E+03  0.20138675955E+03  0.00000000000E+00 0.  1.
</event>
<event>
 4    1  0.7181337E+003  0.2191814E+02  0.7546771E-02  0.1506549E+00
          2   -1    0    0  502    0  0.00000000000E+00  0.00000000000E+00  0.13256943427E+02  0.13256943427E+02  0.00000000000E+00 0. -1.
          1   -1    0    0  501    0 -0.00000000000E+00 -0.00000000000E+00 -0.54403650978E+02  0.54403650978E+02  0.00000000000E+00 0.  1.
          2    1    1    2  501    0  0.20156390795E+02  0.86095657927E+01 -0.10246648235E+01  0.21942074902E+02  0.00000000000E+00 0. -1.
          1    1    1    2  502    0 -0.20156390795E+02 -0.86095657927E+01 -0.40122042727E+02  0.45718519503E+02  0.00000000000E+00 0.  1.
</event>
<event>
 4    1  0.7181337E+003  0.2057813E+02  0.7546771E-02  0.1525374E+00
          2   -1    0    0  502    0  0.00000000000E+00  0.00000000000E+00  0.12823468040E+02  0.12823468040E+02  0.00000000000E+00 0. -1.
          1   -1    0    0  501    0 -0.00000000000E+00 -0.00000000000E+00 -0.22733471875E+03  0.22733471875E+03  0.00000000000E+00 0.  1.
          2    1    1    2  501    0  0.17897465930E+02  0.10155784288E+02  0.37602014192E+01  0.20918851688E+02  0.00000000000E+00 0. -1.
          1    1    1    2  502    0 -0.17897465930E+02 -0.10155784288E+02 -0.21827145213E+03  0.21923933510E+03  0.00000000000E+00 0.  1.
</event>
<event>
 4    1  0.7181337E+003  0.2265862E+02  0.7546771E-02  0.1496830E+00
          2   -1    0    0  502    0  0.00000000000E+00  0.00000000000E+00  0.92139465645E+03  0.92139465645E+03  0.00000000000E+00 0.  1.
          1   -1    0    0  501    0 -0.00000000000E+00 -0.00000000000E+00 -0.12848292082E+02  0.12848292082E+02  0.00000000000E+00 0.  1.
          2    1    1    2  501    0 -0.13096631397E+01  0.22620735952E+02  0.91115317693E+03  0.91143487137E+03  0.00000000000E+00 0.  1.
          1    1    1    2  502    0  0.13096631397E+01 -0.22620735952E+02 -0.26068125561E+01  0.22808077171E+02  0.00000000000E+00 0.  1.
</event>
<event>
 4    1  0.7181337E+003  0.3176168E+02  0.7546771E-02  0.1404881E+00
          2   -1    0    0  502    0  0.00000000000E+00  0.00000000000E+00  0.11012112234E+03  0.11012112234E+03  0.00000000000E+00 0.  1.
          1   -1    0    0  501    0 -0.00000000000E+00 -0.00000000000E+00 -0.98759383710E+02  0.98759383710E+02  0.00000000000E+00 0. -1.
          2    1    1    2  501    0 -0.31710238202E+02  0.18069156328E+01  0.10515935314E+03  0.10985123442E+03  0.00000000000E+00 0.  1.
          1    1    1    2  502    0  0.31710238202E+02 -0.18069156328E+01 -0.93797614512E+02  0.99029271627E+02  0.00000000000E+00 0. -1.
</event>
<event>
 4    1  0.7181337E+003  0.3441560E+02  0.7546771E-02  0.1384719E+00
          2   -1    0    0  502    0  0.00000000000E+00  0.00000000000E+00  0.57047408723E+03  0.57047408723E+03  0.00000000000E+00 0. -1.
          1   -1    0    0  501    0 -0.00000000000E+00 -0.00000000000E+00 -0.21369022404E+01  0.21369022404E+01  0.00000000000E+00 0. -1.
          2    1    1    2  501    0  0.90530162145E+01  0.33203561340E+02  0.33241265006E+03  0.33418947247E+03  0.00000000000E+00 0. -1.
          1    1    1    2  502    0 -0.90530162145E+01 -0.33203561340E+02  0.23592453493E+03  0.23842151700E+03  0.00000000000E+00 0. -1.
</event>
<event>
 4    1  0.7181337E+003  0.2241721E+02  0.7546771E-02  0.1499949E+00
          2   -1    0    0  502    0  0.00000000000E+00  0.00000000000E+00  0.84056738745E+02  0.84056738745E+02  0.00000000000E+00 0.  1.
          1   -1    0    0  501    0 -0.00000000000E+00 -0.00000000000E+00 -0.16926309402E+02  0.16926309402E+02  0.00000000000E+00 0. -1.
          2    1    1    2  501    0  0.54923422284E+01 -0.21733971541E+02  0.74172260689E+02  0.77485841274E+02  0.00000000000E+00 0.  1.
          1    1    1    2  502    0 -0.54923422284E+01  0.21733971541E+02 -0.70418313465E+01  0.23497206873E+02  0.00000000000E+00 0. -1.
</event>
<event>
 4    1  0.7181337E+003  0.2796613E+02  0.7546771E-02  0.1438137E+00
          2   -1    0    0  502    0  0.00000000000E+00  0.00000000000E+00  0.14663887365E+03  0.14663887365E+03  0.00000000000E+00 0. -1.
          1   -1    0    0  501    0 -0.00000000000E+00 -0.00000000000E+00 -0.14331039876E+03  0.14331039876E+03  0.00000000000E+00 0.  1.
          2    1    1    2  501    0 -0.22877852524E+02  0.16084417736E+02  0.14391555531E+03  0.14660761129E+03  0.00000000000E+00 0. -1.
          1    1    1    2  502    0  0.22877852524E+02 -0.16084417736E+02 -0.14058708042E+03  0.14334166112E+03  0.00000000000E+00 0.  1.
</event>
<event>
 4    1  0.7181337E+003  0.4380635E+02  0.7546771E-02  0.1327517E+00
          2   -1    0    0  502    0  0.00000000000E+00  0.00000000000E+00  0.14189265405E+04  0.14189265405E+04  0.00000000000E+00 0. -1.
          1   -1    0    0  501    0 -0.00000000000E+00 -0.00000000000E+00 -0.13540248244E+01  0.13540248244E+01  0.00000000000E+00 0. -1.
          2    1    1    2  501    0  0.43270007177E+02 -0.68339244379E+01  0.73317298772E+03  0.73448051435E+03  0.00000000000E+00 0. -1.
          1    1    1    2  502    0 -0.43270007177E+02  0.68339244379E+01  0.68439952795E+03  0.68580005096E+03  0.00000000000E+00 0. -1.
</event>
<event>
 4    1  0.7181337E+003  0.2482737E+02  0.7546771E-02  0.1470744E+00
          2   -1    0    0  502    0  0.00000000000E+00  0.00000000000E+00  0.10410625388E+04  0.10410625388E+04  0.00000000000E+00 0. -1.
          1   -1    0    0  501    0 -0.00000000000E+00 -0.00000000000E+00 -0.68955919608E+02  0.68955919608E+02  0.00000000000E+00 0. -1.
          2    1    1    2  501    0 -0.89400286287E+01 -0.23161912473E+02  0.10386746255E+04  0.10389713067E+04  0.00000000000E+00 0. -1.
          1    1    1    2  502    0  0.89400286287E+01  0.23161912473E+02 -0.66568006357E+02  0.71047151749E+02  0.00000000000E+00 0. -1.
</event>
<event>
 4    1  0.7181337E+003  0.4380702E+02  0.7546771E-02  0.1327513E+00
          2   -1    0    0  502    0  0.00000000000E+00  0.00000000000E+00  0.24605748523E+02  0.24605748523E+02  0.00000000000E+00 0. -1.
          1   -1    0    0  501    0 -0.00000000000E+00 -0.00000000000E+00 -0.10339068005E+03  0.10339068005E+03  0.00000000000E+00 0.  1.
          2    1    1    2  501    0 -0.21694051517E+02  0.38058151219E+02 -0.76725796230E+01  0.44473848759E+02  0.00000000000E+00 0. -1.
          1    1    1    2  502    0  0.21694051517E+02 -0.38058151219E+02 -0.71112351901E+02  0.83522579811E+02  0.00000000000E+00 0.  1.
</event>
<event>
 4    1  0.7181337E+003  0.2105199E+02  0.7546771E-02  0.1518524E+00
          2   -1    0    0  502    0  0.00000000000E+00  0.00000000000E+00  0.12698700091E+01  0.12698700091E+01  0.00000000000E+00 0. -1.
          1   -1    0    0  501    0 -0.00000000000E+00 -0.00000000000E+00 -0.11476673501E+04  0.11476673501E+04  0.00000000000E+00 0.  1.
          2    1    1    2  501    0  0.16371983195E+02  0.13234221517E+02 -0.93972195840E+02  0.96301402087E+02  0.00000000000E+00 0. -1.
          1    1    1    2  502    0 -0.16371983195E+02 -0.13234221517E+02 -0.10524252842E+04  0.10526358180E+04  0.00000000000E+00 0.  1.
</event>
<event>
 4    1  0.7181337E+003  0.2261451E+02  0.7546771E-02  0.1497396E+00
          2   -1    0    0  502    0  0.00000000000E+00  0.00000000000E+00  0.52978905577E+01  0.52978905577E+01  0.00000000000E+00 0. -1.
          1   -1    0    0  501    0 -0.00000000000E+00 -0.00000000000E+00 -0.11986725737E+03  0.11986725737E+03  0.00000000000E+00 0. -1.
          2    1    1    2  501    0  0.10985171164E+02 -0.19767202215E+02 -0.29671981025E+02  0.37307408471E+02  0.00000000000E+00 0. -1.
          1    1    1    2  502    0 -0.10985171164E+02  0.19767202215E+02 -0.84897385786E+02  0.87857739456E+02  0.00000000000E+00 0. -1.
</event>
<event>
 4    1  0.7181337E+003  0.3781049E+02  0.7546771E-02  0.1361817E+00
          2   -1    0    0  502    0  0.00000000000E+00  0.00000000000E+00  0.25794460081E+02  0.25794460081E+02  0.00000000000E+00 0. -1.
          1   -1    0    0  501    0 -0.00000000000E+00 -0.00000000000E+00 -0.58948426235E+02  0.58948426235E+02  0.00000000000E+00 0.  1.
          2    1    1    2  501    0 -0.30243826104E+02  0.22692372536E+02 -0.62165037368E+01  0.38318112002E+02  0.00000000000E+00 0. -1.
          1    1    1    2  502    0  0.30243826104E+02 -0.22692372536E+02 -0.26937462417E+02  0.46424774315E+02  0.00000000000E+00 0.  1.
</event>
<event>
 4    1  0.7181337E+003  0.2848999E+02  0.7546771E-02  0.1433189E+00
          2   -1    0    0  502    0  0.00000000000E+00  0.00000000000E+00  0.17461717129E+02  0.17461717129E+02  0.00000000000E+00 0.  1.
          1   -1    0    0  501    0 -0.00000000000E+00 -0.00000000000E+00 -0.16932107949E+04  0.16932107949E+04  0.00000000000E+00 0. -1.
          2    1    1    2  501    0 -0.24048553056E+02  0.15275687164E+02  0.56393263809E+01  0.29042753389E+02  0.00000000000E+00 0.  1.
          1    1    1    2  502    0  0.24048553056E+02 -0.15275687164E+02 -0.16813884041E+04  0.16816297586E+04  0.00000000000E+00 0. -1.
</event>
<event>
 4    1  0.7181337E+003  0.2685979E+02  0.7546771E-02  0.1449022E+00
          2   -1    0    0  502    0  0.00000000000E+00  0.00000000000E+00  0.26093543679E+01  0.26093543679E+01  0.00000000000E+00 0.  1.
          1   -1    0    0  501    0 -0.00000000000E+00 -0.00000000000E+00 -0.29009831729E+03  0.29009831729E+03  0.00000000000E+00 0.  1.
          2    1    1    2  501    0  0.26756872023E+02  0.23490710400E+01 -0.11204096621E+03  0.11521556511E+03  0.00000000000E+00 0.  1.
          1    1    1    2  502    0 -0.26756872023E+02 -0.23490710400E+01 -0.17544799671E+03  0.17749210655E+03  0.00000000000E+00 0.  1.
</event>
<event>
 4    1  0.7181337E+003  0.2107876E+02  0.7546771E-02  0.1518143E+00
          2   -1    0    0  502    0  0.00000000000E+00  0.00000000000E+00  0.90847303700E+03  0.90847303700E+03  0.00000000000E+00 0. -1.
          1   -1    0    0  501    0 -0.00000000000E+00 -0.00000000000E+00 -0.15728516672E+01  0.15728516672E+01  0.00000000000E+00 0.  1.
          2    1    1    2  501    0 -0.10273988928E+02  0.18405411226E+02  0.83116032179E+03  0.83142756421E+03  0.00000000000E+00 0. -1.
          1    1    1    2  502    0  0.10273988928E+02 -0.18405411226E+02  0.75739863542E+02  0.78618324456E+02  0.00000000000E+00 0.  1.
</event>
<event>
 4    1  0.7181337E+003  0.2062273E+02  0.7546771E-02  0.1524720E+00
          2   -1    0    0  502    0  0.00000000000E+00  0.00000000000E+00  0.16413307137E+02  0.16413307137E+02  0.00000000000E+00 0.  1.
          1   -1    0    0  501    0 -0.00000000000E+00 -0.00000000000E+00 -0.33059108707E+02  0.33059108707E+02  0.00000000000E+00 0. -1.
          2    1    1    2  501    0 -0.13149916432E+02 -0.15886365497E+02  0.31787837857E+01  0.20866278471E+02  0.00000000000E+00 0.  1.
          1    1    1    2  502    0  0.13149916432E+02  0.15886365497E+02 -0.19824585355E+02  0.28606137373E+02  0.00000000000E+00 0. -1.
</event>
<event>
 4    1  0.7181337E+003  0.2185089E+02  0.7546771E-02  0.1507455E+00
          2   -1    0    0  502    0  0.00000000000E+00  0.00000000000E+00  0.39097619116E+03  0.39097619116E+03  0.00000000000E+00 0.  1.
          1   -1    0    0  501    0 -0.00000000000E+00 -0.00000000000E+00 -0.17544786631E+02  0.17544786631E+02  0.00000000000E+00 0.  1.
          2    1    1    2  501    0 -0.65262940915E+01 -0.20853505891E+02  0.38373922434E+03  0.38436083765E+03  0.00000000000E+00 0.  1.
          1    1    1    2  502    0  0.65262940915E+01  0.20853505891E+02 -0.10307819808E+02  0.24160140143E+02  0.00000000000E+00 0.  1.
</event>
<event>
 4    1  0.7181337E+003  0.2676238E+02  0.7546771E-02  0.1450010E+00
          2   -1    0    0  502    0  0.00000000000E+00  0.00000000000E+00  0.60497099378E+01  0.60497099378E+01  0.00000000000E+00 0. -1.
          1   -1    0    0  501    0 -0.00000000000E+00 -0.00000000000E+00 -0.44045900515E+03  0.44045900515E+03  0.00000000000E+00 0. -1.
          2    1    1    2  501    0 -0.13776239447E+02  0.22944287818E+02 -0.26297728829E+02  0.37520603118E+02  0.00000000000E+00 0. -1.
          1    1    1    2  502    0  0.13776239447E+02 -0.22944287818E+02 -0.40811156638E+03  0.40898811197E+03  0.00000000000E+00 0. -1.
</event>
<event>
 4    1  0.7181337E+003  0.5405511E+02  0.7546771E-02  0.1281487E+00
          2   -1    0    0  502    0  0.00000000000E+00  0.00000000000E+00  0.11870872699E+01  0.11870872699E+01  0.00000000000E+00 0. -1.
          1   -1    0    0  501    0 -0.00000000000E+00 -0.00000000000E+00 -0.25314927328E+04  0.25314927328E+04  0.00000000000E+00 0. -1.
          2    1    1    2  501    0  0.83287063722E+01  0.53409616468E+02 -0.10545096652E+04  0.10558942127E+04  0.00000000000E+00 0. -1.
          1    1    1    2  502    0 -0.83287063722E+01 -0.53409616468E+02 -0.14757959803E+04  0.14767856073E+04  0.00000000000E+00 0. -1.
</event>
<event>
 4    1  0.7181337E+003  0.2912080E+02  0.7546771E-02  0.1427394E+00
          2   -1    0    0  502    0  0.00000000000E+00  0.00000000000E+00  0.64860578392E+02  0.64860578392E+02  0.00000000000E+00 0. -1.
          1   -1    0    0  501    0 -0.00000000000E+00 -0.00000000000E+00 -0.38975294655E+02  0.38975294655E+02  0.00000000000E+00 0.  1.
          2    1    1    2  501    0  0.17677060039E+02 -0.23141797734E+02  0.55265896208E+02  0.62468716472E+02  0.00000000000E+00 0. -1.
          1    1    1    2  502    0 -0.17677060039E+02  0.23141797734E+02 -0.29380612471E+02  0.41367156576E+02  0.00000000000E+00 0.  1.
</event>
<event>
 4    1  0.7181337E+003  0.3301491E+02  0.7546771E-02  0.1395083E+00
          2   -1    0    0  502    0  0.00000000000E+00  0.00000000000E+00  0.48666479478E+03  0.48666479478E+03  0.00000000000E+00 0.  1.
          1   -1    0    0  501    0 -0.00000000000E+00 -0.00000000000E+00 -0.74495294137E+01  0.74495294137E+01  0.00000000000E+00 0.  1.
          2    1    1    2  501    0  0.31302382322E+02  0.10494999414E+02  0.44621447202E+03  0.44743417302E+03  0.00000000000E+00 0.  1.
          1    1    1    2  502    0 -0.31302382322E+02 -0.10494999414E+02  0.33000793353E+02  0.46680151174E+02  0.00000000000E+00 0.  1.
</event>
<event>
 4    1  0.7181337E+003  0.2480180E+02  0.7546771E-02  0.1471033E+00
          2   -1    0    0  502    0  0.00000000000E+00  0.00000000000E+00  0.26816707868E+03  0.26816707868E+03  0.00000000000E+00 0. -1.
          1   -1    0    0  501    0 -0.00000000000E+00 -0.00000000000E+00 -0.20060667550E+02  0.20060667550E+02  0.00000000000E+00 0. -1.
          2    1    1    2  501    0  0.13056636977E+01 -0.24767410783E+02  0.25967771458E+03  0.26085943503E+03  0.00000000000E+00 0. -1.
          1    1    1    2  502    0 -0.13056636977E+01  0.24767410783E+02 -0.11571303448E+02  0.27368311202E+02  0.00000000000E+00 0. -1.
</event>
<event>
 4    1  0.7181337E+003  0.3897247E+02  0.7546771E-02  0.1354615E+00
          2   -1    0    0  502    0  0.00000000000E+00  0.00000000000E+00  0.39268022197E+03  0.39268022197E+03  0.00000000000E+00 0.  1.
          1   -1    0    0  501    0 -0.00000000000E+00 -0.00000000000E+00 -0.56725567294E+01  0.56725567294E+01  0.00000000000E+00 0.  1.
          2    1    1    2  501    0  0.24452059200E+02  0.30347160291E+02  0.30584632294E+03  0.30831935812E+03  0.00000000000E+00 0.  1.
          1    1    1    2  502    0 -0.24452059200E+02 -0.30347160291E+02  0.81161342302E+02  0.90033420579E+02  0.00000000000E+00 0.  1.
</event>
<event>
 4    1  0.7181337E+003  0.2185168E+02  0.7546771E-02  0.1507444E+00
          2   -1    0    0  502    0  0.00000000000E+00  0.00000000000E+00  0.21266480050E+03  0.21266480050E+03  0.00000000000E+00 0.  1.
          1   -1    0    0  501    0 -0.00000000000E+00 -0.00000000000E+00 -0.53084418887E+01  0.53084418887E+01  0.00000000000E+00 0.  1.
          2    1    1    2  501    0  0.79056445978E+01 -0.20371460868E+02  0.20889028815E+02  0.30229905048E+02  0.00000000000E+00 0.  1.
          1    1    1    2  502    0 -0.79056445978E+01  0.20371460868E+02  0.18646732980E+03  0.18774333734E+03  0.00000000000E+00 0.  1.
</event>
<event>
 4    1  0.7181337E+003  0.3931426E+02  0.7546771E-02  0.1352552E+00
          2   -1    0    0  502    0  0.00000000000E+00  0.00000000000E+00  0.65292794113E+03  0.65292794113E+03  0.00000000000E+00 0.  1.
          1   -1    0    0  501    0 -0.00000000000E+00 -0.00000000000E+00 -0.50697900221E+01  0.50697900221E+01  0.00000000000E+00 0.  1.
          2    1    1    2  501    0 -0.15563167198E+01  0.39283438343E+02  0.56413822455E+03  0.56550645182E+03  0.00000000000E+00 0.  1.
          1    1    1    2  502    0  0.15563167198E+01 -0.39283438343E+02  0.83719926551E+02  0.92491279327E+02  0.00000000000E+00 0.  1.
</event>
<event>
 4    1  0.7181337E+003  0.3454208E+02  0.7546771E-02  0.1383811E+00
          2   -1    0    0  502    0  0.00000000000E+00  0.00000000000E+00  0.81266125886E+01  0.81266125886E+01  0.00000000000E+00 0.  1.
          1   -1    0    0  501    0 -0.00000000000E+00 -0.00000000000E+00 -0.31033463241E+03  0.31033463241E+03  0.00000000000E+00 0.  1.
          2    1    1    2  501    0 -0.21538975973E+02  0.27004221380E+02 -0.35522392067E+02  0.49547914149E+02  0.00000000000E+00 0.  1.
          1    1    1    2  502    0  0.21538975973E+02 -0.27004221380E+02 -0.26668562775E+03  0.26891333085E+03  0.00000000000E+00 0.  1.
</event>
<event>
 4    1  0.7181337E+003  0.5137352E+02  0.7546771E-02  0.1292325E+00
          2   -1    0    0  502    0  0.00000000000E+00  0.00000000000E+00  0.98758060836E+03  0.98758060836E+03  0.00000000000E+00 0.  1.
          1   -1    0    0  501    0 -0.00000000000E+00 -0.00000000000E+00 -0.26461428779E+02  0.26461428779E+02  0.00000000000E+00 0. -1.
          2    1    1    2  501    0  0.45158417062E+02  0.24493992943E+02  0.96129644292E+03  0.96266821361E+03  0.00000000000E+00 0.  1.
          1    1    1    2  502    0 -0.45158417062E+02 -0.24493992943E+02 -0.17726334044E+00  0.51373823530E+02  0.00000000000E+00 0. -1.
</event>
<event>
 4    1  0.7181337E+003  0.2248064E+02  0.7546771E-02  0.1499125E+00
          2   -1    0    0  502    0  0.00000000000E+00  0.00000000000E+00  0.20000269075E+03  0.20000269075E+03  0.00000000000E+00 0. -1.
          1   -1    0    0  501    0 -0.00000000000E+00 -0.00000000000E+00 -0.42381152377E+02  0.42381152377E+02  0.00000000000E+00 0.  1.
          2    1    1    2  501    0 -0.12215352185E+02  0.18872320710E+02  0.19633429926E+03  0.19761714598E+03  0.00000000000E+00 0. -1.
          1    1    1    2  502    0  0.12215352185E+02 -0.18872320710E+02 -0.38712760889E+02  0.44766697149E+02  0.00000000000E+00 0.  1.
</event>
<event>
 4    1  0.7181337E+003  0.2107259E+02  0.7546771E-02  0.1518231E+00
          2   -1    0    0  502    0  0.00000000000E+00  0.00000000000E+00  0.33107149094E+03  0.33107149094E+03  0.00000000000E+00 0. -1.
          1   -1    0    0  501    0 -0.00000000000E+00 -0.00000000000E+00 -0.37739515911E+01  0.37739515911E+01  0.00000000000E+00 0. -1.
          2    1    1    2  501    0  0.16493065763E+02 -0.13116131683E+02  0.29806739285E+03  0.29881135321E+03  0.00000000000E+00 0. -1.
          1    1    1    2  502    0 -0.16493065763E+02  0.13116131683E+02  0.29230146494E+02  0.36034089314E+02  0.00000000000E+00 0. -1.
</event>
<event>
 4    1  0.7181337E+003  0.2780282E+02  0.7546771E-02  0.1439706E+00
          2   -1    0    0  502    0  0.00000000000E+00  0.00000000000E+00  0.40072719219E+03  0.40072719219E+03  0.00000000000E+00 0. -1.
          1   -1    0    0  501    0 -0.00000000000E+00 -0.00000000000E+00 -0.10318254240E+02  0.10318254240E+02  0.00000000000E+00 0. -1.
          2    1    1    2  501    0 -0.11565909865E+02  0.25282926965E+02  0.38052298109E+03  0.38153733212E+03  0.00000000000E+00 0. -1.
          1    1    1    2  502    0  0.11565909865E+02 -0.25282926965E+02  0.98859568627E+01  0.29508114308E+02  0.00000000000E+00 0. -1.
</event>
<event>
 4    1  0.7181337E+003  0.2416020E+02  0.7546771E-02  0.1478422E+00
          2   -1    0    0  502    0  0.00000000000E+00  0.00000000000E+00  0.13972218122E+03  0.13972218122E+03  0.00000000000E+00 0.  1.
          1   -1    0    0  501    0 -0.00000000000E+00 -0.00000000000E+00 -0.14695647852E+02  0.14695647852E+02  0.00000000000E+00 0.  1.
          2    1    1    2  501    0  0.21671304359E+02 -0.10680354681E+02  0.12783216828E+03  0.13009526761E+03  0.00000000000E+00 0.  1.
          1    1    1    2  502    0 -0.21671304359E+02  0.10680354681E+02 -0.28056349085E+01  0.24322561460E+02  0.00000000000E+00 0.  1.
</event>
<event>
 4    1  0.7181337E+003  0.2174254E+02  0.7546771E-02  0.1508922E+00
          2   -1    0    0  502    0  0.00000000000E+00  0.00000000000E+00  0.78348455430E+00  0.78348455430E+00  0.00000000000E+00 0.  1.
          1   -1    0    0  501    0 -0.00000000000E+00 -0.00000000000E+00 -0.12270440381E+04  0.12270440381E+04  0.00000000000E+00 0.  1.
          2    1    1    2  501    0  0.77359768124E+01  0.20319765310E+02 -0.17545404691E+03  0.17679609944E+03  0.00000000000E+00 0.  1.
          1    1    1    2  502    0 -0.77359768124E+01 -0.20319765310E+02 -0.10508065066E+04  0.10510314232E+04  0.00000000000E+00 0.  1.
</event>
<event>
 4    1  0.7181337E+003  0.3794681E+02  0.7546771E-02  0.1360956E+00
          2   -1    0    0  502    0  0.00000000000E+00  0.00000000000E+00  0.18985033685E+04  0.18985033685E+04  0.00000000000E+00 0. -1.
          1   -1    0    0  501    0 -0.00000000000E+00 -0.00000000000E+00 -0.21883708005E+01  0.21883708005E+01  0.00000000000E+00 0.  1.
          2    1    1    2  501    0 -0.12733278675E+02 -0.35746665105E+02  0.17163569320E+04  0.17167763624E+04  0.00000000000E+00 0. -1.
          1    1    1    2  502    0  0.12733278675E+02  0.35746665105E+02  0.17995806567E+03  0.18391537688E+03  0.00000000000E+00 0.  1.
</event>
<event>
 4    1  0.7181337E+003  0.5132210E+02  0.7546771E-02  0.1292540E+00
          2   -1    0    0  502    0  0.00000000000E+00  0.00000000000E+00  0.11461313421E+04  0.11461313421E+04  0.00000000000E+00 0. -1.
          1   -1    0    0  501    0 -0.00000000000E+00 -0.00000000000E+00 -0.26918875825E+02  0.26918875825E+02  0.00000000000E+00 0.  1.
          2    1    1    2  501    0  0.51041217506E+02 -0.53621246424E+01  0.11205363469E+04  0.11217110426E+04  0.00000000000E+00 0. -1.
          1    1    1    2  502    0 -0.51041217506E+02  0.53621246424E+01 -0.13238806501E+01  0.51339175345E+02  0.00000000000E+00 0.  1.
</event>
<event>
 4    1  0.7181337E+003  0.2284690E+02  0.7546771E-02  0.1494430E+00
          2   -1    0    0  502    0  0.00000000000E+00  0.00000000000E+00  0.16081472166E+04  0.16081472166E+04  0.00000000000E+00 0.  1.
          1   -1    0    0  501    0 -0.00000000000E+00 -0.00000000000E+00 -0.19809804056E+02  0.19809804056E+02  0.00000000000E+00 0.  1.
          2    1    1    2  501    0 -0.13294178716E+02  0.18580790378E+02  0.16014511211E+04  0.16016140840E+04  0.00000000000E+00 0.  1.
          1    1    1    2  502    0  0.13294178716E+02 -0.18580790378E+02 -0.13113708531E+02  0.26342936629E+02  0.00000000000E+00 0.  1.
</event>
<event>
 4    1  0.7181337E+003  0.4019238E+02  0.7546771E-02  0.1347362E+00
          2   -1    0    0  502    0  0.00000000000E+00  0.00000000000E+00  0.27053393906E+02  0.27053393906E+02  0.00000000000E+00 0. -1.
          1   -1    0    0  501    0 -0.00000000000E+00 -0.00000000000E+00 -0.40940767226E+03  0.40940767226E+03  0.00000000000E+00 0.  1.
          2    1    1    2  501    0 -0.34138437415E+02 -0.21213075275E+02  0.10511903509E+02  0.41544284651E+02  0.00000000000E+00 0. -1.
          1    1    1    2  502    0  0.34138437415E+02  0.21213075275E+02 -0.39286618186E+03  0.39491678151E+03  0.00000000000E+00 0.  1.
</event>
<event>
 4    1  0.7181337E+003  0.4017189E+02  0.7546771E-02  0.1347481E+00
          2   -1    0    0  502    0  0.00000000000E+00  0.00000000000E+00  0.88155852075E+03  0.88155852075E+03  0.00000000000E+00 0.  1.
          1   -1    0    0  501    0 -0.00000000000E+00 -0.00000000000E+00 -0.31423602743E+02  0.31423602743E+02  0.00000000000E+00 0.  1.
          2    1    1    2  501    0 -0.34446560809E+02  0.20669191713E+02  0.86806244175E+03  0.86899147511E+03  0.00000000000E+00 0.  1.
          1    1    1    2  502    0  0.34446560809E+02 -0.20669191713E+02 -0.17927523742E+02  0.43990648383E+02  0.00000000000E+00 0.  1.
</event>
<event>
 4    1  0.7181337E+003  0.2925246E+02  0.7546771E-02  0.1426206E+00
          2   -1    0    0  502    0  0.00000000000E+00  0.00000000000E+00  0.14186423813E+04  0.14186423813E+04  0.00000000000E+00 0.  1.
          1   -1    0    0  501    0 -0.00000000000E+00 -0.00000000000E+00 -0.35406194609E+02  0.35406194609E+02  0.00000000000E+00 0.  1.
          2    1    1    2  501    0 -0.29242290769E+02 -0.77121416188E+00  0.14124229152E+04  0.14127258042E+04  0.00000000000E+00 0.  1.
          1    1    1    2  502    0  0.29242290769E+02  0.77121416188E+00 -0.29186728535E+02  0.41322771728E+02  0.00000000000E+00 0.  1.
</event>
<event>
 4    1  0.7181337E+003  0.2049768E+02  0.7546771E-02  0.1526559E+00
          2   -1    0    0  502    0  0.00000000000E+00  0.00000000000E+00  0.19554374513E+02  0.19554374513E+02  0.00000000000E+00 0.  1.
          1   -1    0    0  501    0 -0.00000000000E+00 -0.00000000000E+00 -0.61169542203E+02  0.61169542203E+02  0.00000000000E+00 0. -1.
          2    1    1    2  501    0  0.18063073753E+02  0.96891847859E+01  0.11701679718E+02  0.23602632130E+02  0.00000000000E+00 0.  1.
          1    1    1    2  502    0 -0.18063073753E+02 -0.96891847859E+01 -0.53316847409E+02  0.57121284587E+02  0.00000000000E+00 0. -1.
</event>
<event>
 4    1  0.7181337E+003  0.2321229E+02  0.7546771E-02  0.1489849E+00
          2   -1    0    0  502    0  0.00000000000E+00  0.00000000000E+00  0.86207649878E+03  0.86207649878E+03  0.00000000000E+00 0. -1.
          1   -1    0    0  501    0 -0.00000000000E+00 -0.00000000000E+00 -0.79457077537E+00  0.79457077537E+00  0.00000000000E+00 0.  1.
          2    1    1    2  501    0 -0.19072511527E+01 -0.23133803840E+02  0.62994050221E+03  0.63036802490E+03  0.00000000000E+00 0. -1.
          1    1    1    2  502    0  0.19072511527E+01  0.23133803840E+02  0.23134142579E+03  0.23250304466E+03  0.00000000000E+00 0.  1.
</event>
<event>
 4    1  0.7181337E+003  0.3215519E+02  0.7546771E-02  0.1401748E+00
          2   -1    0    0  502    0  0.00000000000E+00  0.00000000000E+00  0.46672513416E+02  0.46672513416E+02  0.00000000000E+00 0.  1.
          1   -1    0    0  501    0 -0.00000000000E+00 -0.00000000000E+00 -0.22009780978E+03  0.22009780978E+03  0.00000000000E+00 0. -1.
          2    1    1    2  501    0  0.19451142559E+02 -0.25604864555E+02  0.39781737947E+02  0.51152152544E+02  0.00000000000E+00 0.  1.
          1    1    1    2  502    0 -0.19451142559E+02  0.25604864555E+02 -0.21320703431E+03  0.21561817065E+03  0.00000000000E+00 0. -1.
</event>
<event>
 4    1  0.7181337E+003  0.2138068E+02  0.7546771E-02  0.1513899E+00
          2   -1    0    0  502    0  0.00000000000E+00  0.00000000000E+00  0.14145030383E+04  0.14145030383E+04  0.00000000000E+00 0. -1.
          1   -1    0    0  501    0 -0.00000000000E+00 -0.00000000000E+00 -0.27140753690E+01  0.27140753690E+01  0.00000000000E+00 0. -1.
          2    1    1    2  501    0  0.20544698614E+02 -0.59202067601E+01  0.13709778468E+04  0.13711445547E+04  0.00000000000E+00 0. -1.
          1    1    1    2  502    0 -0.20544698614E+02  0.59202067601E+01  0.40811116117E+02  0.46072558947E+02  0.00000000000E+00 0. -1.
</event>
<event>
 4    1  0.7181337E+003  0.2535313E+02  0.7546771E-02  0.1464891E+00
          2   -1    0    0  502    0  0.00000000000E+00  0.00000000000E+00  0.12985093111E+02  0.12985093111E+02  0.00000000000E+00 0. -1.
          1   -1    0    0  501    0 -0.00000000000E+00 -0.00000000000E+00 -0.72976918638E+02  0.72976918638E+02  0.00000000000E+00 0. -1.
          2    1    1    2  501    0  0.22752529719E+02  0.11184980560E+02 -0.56183310558E+01  0.25968192902E+02  0.00000000000E+00 0. -1.
          1    1    1    2  502    0 -0.22752529719E+02 -0.11184980560E+02 -0.54373494472E+02  0.59993818847E+02  0.00000000000E+00 0. -1.
</event>
<event>
 4    1  0.7181337E+003  0.3992223E+02  0.7546771E-02  0.1348942E+00
          2   -1    0    0  502    0  0.00000000000E+00  0.00000000000E+00  0.20518102442E+02  0.20518102442E+02  0.00000000000E+00 0.  1.
          1   -1    0    0  501    0 -0.00000000000E+00 -0.00000000000E+00 -0.82123693473E+02  0.82123693473E+02  0.00000000000E+00 0.  1.
          2    1    1    2  501    0 -0.11253878419E+02 -0.38303192565E+02 -0.18860733334E+02  0.44153273967E+02  0.00000000000E+00 0.  1.
          1    1    1    2  502    0  0.11253878419E+02  0.38303192565E+02 -0.42744857697E+02  0.58488521948E+02  0.00000000000E+00 0.  1.
</event>
<event>
 4    1  0.7181337E+003  0.2159100E+02  0.7546771E-02  0.1510992E+00
          2   -1    0    0  502    0  0.00000000000E+00  0.00000000000E+00  0.10084542924E+03  0.10084542924E+03  0.00000000000E+00 0.  1.
          1   -1    0    0  501    0 -0.00000000000E+00 -0.00000000000E+00 -0.81326334030E+02  0.81326334030E+02  0.00000000000E+00 0.  1.
          2    1    1    2  501    0  0.78410099173E+01  0.20116909279E+02  0.98218873654E+02  0.10056400259E+03  0.00000000000E+00 0.  1.
          1    1    1    2  502    0 -0.78410099173E+01 -0.20116909279E+02 -0.78699778445E+02  0.81607760678E+02  0.00000000000E+00 0.  1.
</event>
<event>
 4    1  0.7181337E+003  0.2216932E+02  0.7546771E-02  0.1503201E+00
          2   -1    0    0  502    0  0.00000000000E+00  0.00000000000E+00  0.17754552093E+02  0.17754552093E+02  0.00000000000E+00 0. -1.
          1   -1    0    0  501    0 -0.00000000000E+00 -0.00000000000E+00 -0.27719339392E+02  0.27719339392E+02  0.00000000000E+00 0. -1.
          2    1    1    2  501    0 -0.19864191070E+00  0.22168422240E+02 -0.58188434676E+01  0.22920238710E+02  0.00000000000E+00 0. -1.
          1    1    1    2  502    0  0.19864191070E+00 -0.22168422240E+02 -0.41459438315E+01  0.22553652774E+02  0.00000000000E+00 0. -1.
</event>
<event>
 4    1  0.7181337E+003  0.2363936E+02  0.7546771E-02  0.1484622E+00
          2   -1    0    0  502    0  0.00000000000E+00  0.00000000000E+00  0.27151753260E+03  0.27151753260E+03  0.00000000000E+00 0. -1.
          1   -1    0    0  501    0 -0.00000000000E+00 -0.00000000000E+00 -0.41812366211E+01  0.41812366211E+01  0.00000000000E+00 0. -1.
          2    1    1    2  501    0 -0.23313791353E+02 -0.39098099351E+01  0.23189674618E+03  0.23309852074E+03  0.00000000000E+00 0. -1.
          1    1    1    2  502    0  0.23313791353E+02  0.39098099351E+01  0.35439549800E+02  0.42600248485E+02  0.00000000000E+00 0. -1.
</event>
<event>
 4    1  0.7181337E+003  0.2163784E+02  0.7546771E-02  0.1510350E+00
          2   -1    0    0  502    0  0.00000000000E+00  0.00000000000E+00  0.20860029198E+02  0.20860029198E+02  0.00000000000E+00 0. -1.
          1   -1    0    0  501    0 -0.00000000000E+00 -0.00000000000E+00 -0.27005723955E+03  0.27005723955E+03  0.00000000000E+00 0.  1.
          2    1    1    2  501    0 -0.21631862768E+02 -0.50862485600E+00  0.14684342526E+02  0.26150068862E+02  0.00000000000E+00 0. -1.
          1    1    1    2  502    0  0.21631862768E+02  0.50862485600E+00 -0.26388155288E+03  0.26476719989E+03  0.00000000000E+00 0.  1.
</event>
<event>
 4    1  0.7181337E+003  0.2062634E+02  0.7546771E-02  0.1524667E+00
          2   -1    0    0  502    0  0.00000000000E+00  0.00000000000E+00  0.16001455226E+03  0.16001455226E+03  0.00000000000E+00 0.  1.
          1   -1    0    0  501    0 -0.00000000000E+00 -0.00000000000E+00 -0.51590882305E+02  0.51590882305E+02  0.00000000000E+00 0.  1.
          2    1    1    2  501    0  0.14675765124E+02  0.14493721332E+02  0.15725215785E+03  0.15859913994E+03  0.00000000000E+00 0.  1.
          1    1    1    2  502    0 -0.14675765124E+02 -0.14493721332E+02 -0.48828487895E+02  0.53006294628E+02  0.00000000000E+00 0.  1.
</event>
<event>
 4    1  0.7181337E+003  0.2237025E+02  0.7546771E-02  0.1500561E+00
          2   -1    0    0  502    0  0.00000000000E+00  0.00000000000E+00  0.36482826756E+03  0.36482826756E+03  0.00000000000E+00 0.  1.
          1   -1    0    0  501    0 -0.00000000000E+00 -0.00000000000E+00 -0.27385248843E+01  0.27385248843E+01  0.00000000000E+00 0.  1.
          2    1    1    2  501    0 -0.65657438421E+01  0.21385021728E+02  0.31088451695E+03  0.31168832353E+03  0.00000000000E+00 0.  1.
          1    1    1    2  502    0  0.65657438421E+01 -0.21385021728E+02  0.51205225732E+02  0.55878468919E+02  0.00000000000E+00 0.  1.
</event>
<event>
 4    1  0.7181337E+003  0.2207271E+02  0.7546771E-02  0.1504482E+00
          2   -1    0    0  502    0  0.00000000000E+00  0.00000000000E+00  0.11848215978E+02  0.11848215978E+02  0.00000000000E+00 0.  1.
          1   -1    0    0  501    0 -0.00000000000E+00 -0.00000000000E+00 -0.21947637633E+03  0.21947637633E+03  0.00000000000E+00 0.  1.
          2    1    1    2  501    0  0.93715802894E+01 -0.19984444199E+02  0.45166092378E+00  0.22077330560E+02  0.00000000000E+00 0.  1.
          1    1    1    2  502    0 -0.93715802894E+01  0.19984444199E+02 -0.20807982127E+03  0.20924726175E+03  0.00000000000E+00 0.  1.
</event>
<event>
 4    1  0.7181337E+003  0.2421150E+02  0.7546771E-02  0.1477821E+00
          2   -1    0    0  502    0  0.00000000000E+00  0.00000000000E+00  0.14614586441E+04  0.14614586441E+04  0.00000000000E+00 0.  1.
          1   -1    0    0  501    0 -0.00000000000E+00 -0.00000000000E+00 -0.93238963536E+00  0.93238963536E+00  0.00000000000E+00 0.  1.
          2    1    1    2  501    0  0.19342712748E+02  0.14562146607E+02  0.12822120758E+04  0.12824406434E+04  0.00000000000E+00 0.  1.
          1    1    1    2  502    0 -0.19342712748E+02 -0.14562146607E+02  0.17831417866E+03  0.17995039027E+03  0.00000000000E+00 0.  1.
</event>
<event>
 4    1  0.7181337E+003  0.7812536E+02  0.7546771E-02  0.1208268E+00
          2   -1    0    0  502    0  0.00000000000E+00  0.00000000000E+00  0.34078031254E+03  0.34078031254E+03  0.00000000000E+00 0. -1.
          1   -1    0    0  501    0 -0.00000000000E+00 -0.00000000000E+00 -0.21364045723E+02  0.21364045723E+02  0.00000000000E+00 0. -1.
          2    1    1    2  501    0 -0.61568169555E+02  0.48092961516E+02  0.23250918699E+03  0.24528370203E+03  0.00000000000E+00 0. -1.
          1    1    1    2  502    0  0.61568169555E+02 -0.48092961516E+02  0.86907079829E+02  0.11686065623E+03  0.00000000000E+00 0. -1.
</event>
<event>
 4    1  0.7181337E+003  0.3300865E+02  0.7546771E-02  0.1395131E+00
          2   -1    0    0  502    0  0.00000000000E+00  0.00000000000E+00  0.24259114844E+02  0.24259114844E+02  0.00000000000E+00 0. -1.
          1   -1    0    0  501    0 -0.00000000000E+00 -0.00000000000E+00 -0.42337206155E+03  0.42337206155E+03  0.00000000000E+00 0. -1.
          2    1    1    2  501    0  0.23792487556E+02  0.22879875915E+02  0.12054496272E+02  0.35140888810E+02  0.00000000000E+00 0. -1.
          1    1    1    2  502    0 -0.23792487556E+02 -0.22879875915E+02 -0.41116744298E+03  0.41249028758E+03  0.00000000000E+00 0. -1.
</event>
<event>
 4    1  0.7181337E+003  0.5906082E+02  0.7546771E-02  0.1263057E+00
          2   -1    0    0  502    0  0.00000000000E+00  0.00000000000E+00  0.90730818997E+03  0.90730818997E+03  0.00000000000E+00 0. -1.
          1   -1    0    0  501    0 -0.00000000000E+00 -0.00000000000E+00 -0.28687923063E+03  0.28687923063E+03  0.00000000000E+00 0. -1.
          2    1    1    2  501    0  0.21841925332E+02 -0.54873583581E+02  0.90329379757E+03  0.90522254976E+03  0.00000000000E+00 0. -1.
          1    1    1    2  502    0 -0.21841925332E+02  0.54873583581E+02 -0.28286483822E+03  0.28896487084E+03  0.00000000000E+00 0. -1.
</event>
<event>
 4    1  0.7181337E+003  0.2385698E+02  0.7546771E-02  0.1482008E+00
          2   -1    0    0  502    0  0.00000000000E+00  0.00000000000E+00  0.12021958425E+01  0.12021958425E+01  0.00000000000E+00 0. -1.
          1   -1    0    0  501    0 -0.00000000000E+00 -0.00000000000E+00 -0.71939890748E+03  0.71939890748E+03  0.00000000000E+00 0.  1.
          2    1    1    2  501    0 -0.15200388223E+02 -0.18387602448E+02 -0.14841994324E+03  0.15032509863E+03  0.00000000000E+00 0. -1.
          1    1    1    2  502    0  0.15200388223E+02  0.18387602448E+02 -0.56977676839E+03  0.57027600469E+03  0.00000000000E+00 0.  1.
</event>
<event>
 4    1  0.7181337E+003  0.3453717E+02  0.7546771E-02  0.1383846E+00
          2   -1    0    0  502    0  0.00000000000E+00  0.00000000000E+00  0.84871558987E+03  0.84871558987E+03  0.00000000000E+00 0.  1.
          1   -1    0    0  501    0 -0.00000000000E+00 -0.00000000000E+00 -0.29291586752E+01  0.29291586752E+01  0.00000000000E+00 0.  1.
          2    1    1    2  501    0  0.33743031124E+02  0.73637043515E+01  0.73001445439E+03  0.73083097903E+03  0.00000000000E+00 0.  1.
          1    1    1    2  502    0 -0.33743031124E+02 -0.73637043515E+01  0.11577197680E+03  0.12081376951E+03  0.00000000000E+00 0.  1.
</event>
<event>
 4    1  0.7181337E+003  0.2533615E+02  0.7546771E-02  0.1465078E+00
          2   -1    0    0  502    0  0.00000000000E+00  0.00000000000E+00  0.12039510020E+04  0.12039510020E+04  0.00000000000E+00 0. -1.
          1   -1    0    0  501    0 -0.00000000000E+00 -0.00000000000E+00 -0.10960308366E+01  0.10960308366E+01  0.00000000000E+00 0.  1.
          2    1    1    2  501    0 -0.32827828578E+01 -0.25122574023E+02  0.10332049588E+04  0.10335155573E+04  0.00000000000E+00 0. -1.
          1    1    1    2  502    0  0.32827828578E+01  0.25122574023E+02  0.16965001237E+03  0.17153147549E+03  0.00000000000E+00 0.  1.
</event>
<event>
 4    1  0.7181337E+003  0.3615886E+02  0.7546771E-02  0.1372594E+00
          2   -1    0    0  502    0  0.00000000000E+00  0.00000000000E+00  0.84407967159E+02  0.84407967159E+02  0.00000000000E+00 0.  1.
          1   -1    0    0  501    0 -0.00000000000E+00 -0.00000000000E+00 -0.16499556007E+03  0.16499556007E+03  0.00000000000E+00 0.  1.
          2    1    1    2  501    0  0.36143225531E+02  0.10630570955E+01  0.78410222736E+02  0.86345966157E+02  0.00000000000E+00 0.  1.
          1    1    1    2  502    0 -0.36143225531E+02 -0.10630570955E+01 -0.15899781564E+03  0.16305756107E+03  0.00000000000E+00 0.  1.
</event>
<event>
 4    1  0.7181337E+003  0.4428758E+02  0.7546771E-02  0.1325040E+00
          2   -1    0    0  502    0  0.00000000000E+00  0.00000000000E+00  0.38916911795E+01  0.38916911795E+01  0.00000000000E+00 0. -1.
          1   -1    0    0  501    0 -0.00000000000E+00 -0.00000000000E+00 -0.56378846205E+03  0.56378846205E+03  0.00000000000E+00 0. -1.
          2    1    1    2  501    0  0.32979903273E+02  0.29558677381E+02 -0.18751141373E+03  0.19267049517E+03  0.00000000000E+00 0. -1.
          1    1    1    2  502    0 -0.32979903273E+02 -0.29558677381E+02 -0.37238535714E+03  0.37500965806E+03  0.00000000000E+00 0. -1.
</event>
<event>
 4    1  0.7181337E+003  0.2422598E+02  0.7546771E-02  0.1477652E+00
          2   -1    0    0  502    0  0.00000000000E+00  0.00000000000E+00  0.17013563091E+03  0.17013563091E+03  0.00000000000E+00 0.  1.
          1   -1    0    0  501    0 -0.00000000000E+00 -0.00000000000E+00 -0.86592839891E+01  0.86592839891E+01  0.00000000000E+00 0.  1.
          2    1    1    2  501    0 -0.70474984787E+01 -0.23178244944E+02  0.15007919855E+03  0.15202191984E+03  0.00000000000E+00 0.  1.
          1    1    1    2  502    0  0.70474984787E+01  0.23178244944E+02  0.11397148366E+02  0.26772995058E+02  0.00000000000E+00 0.  1.
</event>
<event>
 4    1  0.7181337E+003  0.3058237E+02  0.7546771E-02  0.1414602E+00
          2   -1    0    0  502    0  0.00000000000E+00  0.00000000000E+00  0.25050185275E+03  0.25050185275E+03  0.00000000000E+00 0. -1.
          1   -1    0    0  501    0 -0.00000000000E+00 -0.00000000000E+00 -0.16812736940E+03  0.16812736940E+03  0.00000000000E+00 0. -1.
          2    1    1    2  501    0 -0.17042927577E+02 -0.25393310867E+02  0.24816466270E+03  0.25004195934E+03  0.00000000000E+00 0. -1.
          1    1    1    2  502    0  0.17042927577E+02  0.25393310867E+02 -0.16579017934E+03  0.16858726281E+03  0.00000000000E+00 0. -1.
</event>
<event>
 4    1  0.7181337E+003  0.3252007E+02  0.7546771E-02  0.1398890E+00
          2   -1    0    0  502    0  0.00000000000E+00  0.00000000000E+00  0.39856130386E+03  0.39856130386E+03  0.00000000000E+00 0. -1.
          1   -1    0    0  501    0 -0.00000000000E+00 -0.00000000000E+00 -0.29748830256E+01  0.29748830256E+01  0.00000000000E+00 0. -1.
          2    1    1    2  501    0 -0.28504667212E+02 -0.15653715236E+02  0.26378926034E+03  0.26578624631E+03  0.00000000000E+00 0. -1.
          1    1    1    2  502    0  0.28504667212E+02  0.15653715236E+02  0.13179716049E+03  0.13574994058E+03  0.00000000000E+00 0. -1.
</event>
<event>
 4    1  0.7181337E+003  0.2008972E+02  0.7546771E-02  0.1532669E+00
          2   -1    0    0  502    0  0.00000000000E+00  0.00000000000E+00  0.23550993753E+04  0.23550993753E+04  0.00000000000E+00 0. -1.
          1   -1    0    0  501    0 -0.00000000000E+00 -0.00000000000E+00 -0.17198220797E+00  0.17198220797E+00  0.00000000000E+00 0. -1.
          2    1    1    2  501    0 -0.15571122415E+01  0.20029272533E+02  0.11072745610E+04  0.11074567936E+04  0.00000000000E+00 0. -1.
          1    1    1    2  502    0  0.15571122415E+01 -0.20029272533E+02  0.12476528321E+04  0.12478145639E+04  0.00000000000E+00 0. -1.
</event>
<event>
 4    1  0.7181337E+003  0.2683492E+02  0.7546771E-02  0.1449273E+00
          2   -1    0    0  502    0  0.00000000000E+00  0.00000000000E+00  0.13277262019E+04  0.13277262019E+04  0.00000000000E+00 0. -1.
          1   -1    0    0  501    0 -0.00000000000E+00 -0.00000000000E+00 -0.22104751011E+02  0.22104751011E+02  0.00000000000E+00 0. -1.
          2    1    1    2  501    0 -0.16273762576E+02  0.21337236848E+02  0.13193948643E+04  0.13196677312E+04  0.00000000000E+00 0. -1.
          1    1    1    2  502    0  0.16273762576E+02 -0.21337236848E+02 -0.13773413386E+02  0.30163221662E+02  0.00000000000E+00 0. -1.
</event>
<event>
 4    1  0.7181337E+003  0.2213003E+02  0.7546771E-02  0.1503721E+00
          2   -1    0    0  502    0  0.00000000000E+00  0.00000000000E+00  0.60115003555E+01  0.60115003555E+01  0.00000000000E+00 0.  1.
          1   -1    0    0  501    0 -0.00000000000E+00 -0.00000000000E+00 -0.96776985726E+02  0.96776985726E+02  0.00000000000E+00 0. -1.
          2    1    1    2  501    0 -0.10864347797E+02  0.19279634221E+02 -0.24941037499E+02  0.33343570599E+02  0.00000000000E+00 0.  1.
          1    1    1    2  502    0  0.10864347797E+02 -0.19279634221E+02 -0.65824447872E+02  0.69444915483E+02  0.00000000000E+00 0. -1.
</event>
<event>
 4    1  0.7181337E+003  0.2443299E+02  0.7546771E-02  0.1475248E+00
          2   -1    0    0  502    0  0.00000000000E+00  0.00000000000E+00  0.46340193311E+03  0.46340193311E+03  0.00000000000E+00 0.  1.
          1   -1    0    0  501    0 -0.00000000000E+00 -0.00000000000E+00 -0.15256427473E+02  0.15256427473E+02  0.00000000000E+00 0. -1.
          2    1    1    2  501    0 -0.14449897789E+02 -0.19702063090E+02  0.45307477957E+03  0.45373310075E+03  0.00000000000E+00 0.  1.
          1    1    1    2  502    0  0.14449897789E+02  0.19702063090E+02 -0.49292739335E+01  0.24925259831E+02  0.00000000000E+00 0. -1.
</event>
<event>
 4    1  0.7181337E+003  0.2935080E+02  0.7546771E-02  0.1425323E+00
          2   -1    0    0  502    0  0.00000000000E+00  0.00000000000E+00  0.16978176867E+04  0.16978176867E+04  0.00000000000E+00 0.  1.
          1   -1    0    0  501    0 -0.00000000000E+00 -0.00000000000E+00 -0.17645117161E+01  0.17645117161E+01  0.00000000000E+00 0.  1.
          2    1    1    2  501    0 -0.28208472174E+02 -0.81087295348E+01  0.15653040369E+04  0.15655791891E+04  0.00000000000E+00 0.  1.
          1    1    1    2  502    0  0.28208472174E+02  0.81087295348E+01  0.13074913809E+03  0.13400300933E+03  0.00000000000E+00 0.  1.
</event>
<event>
 4    1  0.7181337E+003  0.2826686E+02  0.7546771E-02  0.1435281E+00
          2   -1    0    0  502    0  0.00000000000E+00  0.00000000000E+00  0.11951878967E+03  0.11951878967E+03  0.00000000000E+00 0.  1.
          1   -1    0    0  501    0 -0.00000000000E+00 -0.00000000000E+00 -0.66878213682E+01  0.66878213682E+01  0.00000000000E+00 0.  1.
          2    1    1    2  501    0  0.24641113432E+02 -0.13850301665E+02  0.57648115114E+02  0.64205299654E+02  0.00000000000E+00 0.  1.
          1    1    1    2  502    0 -0.24641113432E+02  0.13850301665E+02  0.55182853185E+02  0.62001311382E+02  0.00000000000E+00 0.  1.
</event>
<event>
 4    1  0.7181337E+003  0.2488612E+02  0.7546771E-02  0.1470081E+00
          2   -1    0    0  502    0  0.00000000000E+00  0.00000000000E+00  0.10720007247E+04  0.10720007247E+04  0.00000000000E+00 0.  1.
          1   -1    0    0  501    0 -0.00000000000E+00 -0.00000000000E+00 -0.12731226639E+01  0.12731226639E+01  0.00000000000E+00 0. -1.
          2    1    1    2  501    0  0.21419582545E+02  0.12669667728E+02  0.93197301914E+03  0.93230522224E+03  0.00000000000E+00 0.  1.
          1    1    1    2  502    0 -0.21419582545E+02 -0.12669667728E+02  0.13875458287E+03  0.14096862511E+03  0.00000000000E+00 0. -1.
</event>
<event>
 4    1  0.7181337E+003  0.4220419E+02  0.7546771E-02  0.1336032E+00
          2   -1    0    0  502    0  0.00000000000E+00  0.00000000000E+00  0.66591737184E+02  0.66591737184E+02  0.00000000000E+00 0.  1.
          1   -1    0    0  501    0 -0.00000000000E+00 -0.00000000000E+00 -0.33069165129E+03  0.33069165129E+03  0.00000000000E+00 0. -1.
          2    1    1    2  501    0  0.35307969814E+02  0.23120139119E+02  0.58388808357E+02  0.72044753498E+02  0.00000000000E+00 0.  1.
          1    1    1    2  502    0 -0.35307969814E+02 -0.23120139119E+02 -0.32248872246E+03  0.32523863497E+03  0.00000000000E+00 0. -1.
</event>
<event>
 4    1  0.7181337E+003  0.2301428E+02  0.7546771E-02  0.1492319E+00
          2   -1    0    0  502    0  0.00000000000E+00  0.00000000000E+00  0.56390358864E+03  0.56390358864E+03  0.00000000000E+00 0.  1.
          1   -1    0    0  501    0 -0.00000000000E+00 -0.00000000000E+00 -0.42287317370E+02  0.42287317370E+02  0.00000000000E+00 0.  1.
          2    1    1    2  501    0 -0.45338559295E+01  0.22563269288E+02  0.56051857007E+03  0.56099084161E+03  0.00000000000E+00 0.  1.
          1    1    1    2  502    0  0.45338559295E+01 -0.22563269288E+02 -0.38902298799E+02  0.45200064407E+02  0.00000000000E+00 0.  1.
</event>
<event>
 4    1  0.7181337E+003  0.2409679E+02  0.7546771E-02  0.1479167E+00
          2   -1    0    0  502    0  0.00000000000E+00  0.00000000000E+00  0.61392694209E+01  0.61392694209E+01  0.00000000000E+00 0. -1.
          1   -1    0    0  501    0 -0.00000000000E+00 -0.00000000000E+00 -0.76420433292E+03  0.76420433292E+03  0.00000000000E+00 0.  1.
          2    1    1    2  501    0  0.17635933951E+02 -0.16420393506E+02 -0.18482804769E+02  0.30368891343E+02  0.00000000000E+00 0. -1.
          1    1    1    2  502    0 -0.17635933951E+02  0.16420393506E+02 -0.73958225873E+03  0.73997471099E+03  0.00000000000E+00 0.  1.
</event>
<event>
 4    1  0.7181337E+003  0.2421611E+02  0.7546771E-02  0.1477767E+00
          2   -1    0    0  502    0  0.00000000000E+00  0.00000000000E+00  0.36279272459E+00  0.36279272459E+00  0.00000000000E+00 0.  1.
          1   -1    0    0  501    0 -0.00000000000E+00 -0.00000000000E+00 -0.18420253425E+04  0.18420253425E+04  0.00000000000E+00 0. -1.
          2    1    1    2  501    0  0.14380566164E+02 -0.19483815943E+02 -0.59843277787E+03  0.59892254039E+03  0.00000000000E+00 0.  1.
          1    1    1    2  502    0 -0.14380566164E+02  0.19483815943E+02 -0.12432297719E+04  0.12434655948E+04  0.00000000000E+00 0. -1.
</event>
<event>
 4    1  0.7181337E+003  0.2505941E+02  0.7546771E-02  0.1468140E+00
          2   -1    0    0  502    0  0.00000000000E+00  0.00000000000E+00  0.14852014853E+02  0.14852014853E+02  0.00000000000E+00 0.  1.
          1   -1    0    0  501    0 -0.00000000000E+00 -0.00000000000E+00 -0.27341285159E+03  0.27341285159E+03  0.00000000000E+00 0. -1.
          2    1    1    2  501    0  0.20776594338E+02  0.14010967557E+02  0.32394941371E+01  0.25267932374E+02  0.00000000000E+00 0.  1.
          1    1    1    2  502    0 -0.20776594338E+02 -0.14010967557E+02 -0.26180033088E+03  0.26299693407E+03  0.00000000000E+00 0. -1.
</event>
<event>
 4    1  0.7181337E+003  0.2361310E+02  0.7546771E-02  0.1484940E+00
          2   -1    0    0  502    0  0.00000000000E+00  0.00000000000E+00  0.27304540731E+02  0.27304540731E+02  0.00000000000E+00 0.  1.
          1   -1    0    0  501    0 -0.00000000000E+00 -0.00000000000E+00 -0.48258563859E+03  0.48258563859E+03  0.00000000000E+00 0.  1.
          2    1    1    2  501    0 -0.56874228717E+01  0.22917938576E+02  0.21852205650E+02  0.32172932401E+02  0.00000000000E+00 0.  1.
          1    1    1    2  502    0  0.56874228717E+01 -0.22917938576E+02 -0.47713330351E+03  0.47771724692E+03  0.00000000000E+00 0.  1.
</event>
<event>
 4    1  0.7181337E+003  0.2819121E+02  0.7546771E-02  0.1435996E+00
          2   -1    0    0  502    0  0.00000000000E+00  0.00000000000E+00  0.31282350520E+03  0.31282350520E+03  0.00000000000E+00 0. -1.
          1   -1    0    0  501    0 -0.00000000000E+00 -0.00000000000E+00 -0.12182246417E+03  0.12182246417E+03  0.00000000000E+00 0.  1.
          2    1    1    2  501    0 -0.10762623528E+02  0.26055903999E+02  0.31054548043E+03  0.31182244886E+03  0.00000000000E+00 0. -1.
          1    1    1    2  502    0  0.10762623528E+02 -0.26055903999E+02 -0.11954443940E+03  0.12282352050E+03  0.00000000000E+00 0.  1.
</event>
<event>
 4    1  0.7181337E+003  0.2400280E+02  0.7546771E-02  0.1480276E+00
          2   -1    0    0  502    0  0.00000000000E+00  0.00000000000E+00  0.60802605077E+03  0.60802605077E+03  0.00000000000E+00 0.  1.
          1   -1    0    0  501    0 -0.00000000000E+00 -0.00000000000E+00 -0.64919554872E+02  0.64919554872E+02  0.00000000000E+00 0. -1.
          2    1    1    2  501    0  0.16384554941E+02 -0.17540831589E+02  0.60556149005E+03  0.60603700600E+03  0.00000000000E+00 0.  1.
          1    1    1    2  502    0 -0.16384554941E+02  0.17540831589E+02 -0.62454994143E+02  0.66908599648E+02  0.00000000000E+00 0. -1.
</event>
<event>
 4    1  0.7181337E+003  0.5357106E+02  0.7546771E-02  0.1283390E+00
          2   -1    0    0  502    0  0.00000000000E+00  0.00000000000E+00  0.22336139274E+04  0.22336139274E+04  0.00000000000E+00 0.  1.
          1   -1    0    0  501    0 -0.00000000000E+00 -0.00000000000E+00 -0.40375911964E+02  0.40375911964E+02  0.00000000000E+00 0. -1.
          2    1    1    2  501    0  0.32108641756E+02 -0.42882325167E+02  0.22153768344E+04  0.22160244532E+04  0.00000000000E+00 0.  1.
          1    1    1    2  502    0 -0.32108641756E+02  0.42882325167E+02 -0.22138818986E+02  0.57965386165E+02  0.00000000000E+00 0. -1.
</event>
<event>
 4    1  0.7181337E+003  0.2507812E+02  0.7546771E-02  0.1467931E+00
          2   -1    0    0  502    0  0.00000000000E+00  0.00000000000E+00  0.14900032820E+04  0.14900032820E+04  0.00000000000E+00 0. -1.
          1   -1    0    0  501    0 -0.00000000000E+00 -0.00000000000E+00 -0.63052518220E+01  0.63052518220E+01  0.00000000000E+00 0.  1.
          2    1    1    2  501    0  0.25046801689E+02  0.12530197749E+01  0.14645279806E+04  0.14647426799E+04  0.00000000000E+00 0. -1.
          1    1    1    2  502    0 -0.25046801689E+02 -0.12530197749E+01  0.19170049571E+02  0.31565853925E+02  0.00000000000E+00 0.  1.
</event>
<event>
 4    1  0.7181337E+003  0.3795211E+02  0.7546771E-02  0.1360923E+00
          2   -1    0    0  502    0  0.00000000000E+00  0.00000000000E+00  0.32693060643E+03  0.32693060643E+03  0.00000000000E+00 0. -1.
          1   -1    0    0  501    0 -0.00000000000E+00 -0.00000000000E+00 -0.56248808263E+02  0.56248808263E+02  0.00000000000E+00 0. -1.
          2    1    1    2  501    0  0.16971465789E+02 -0.33946013157E+02  0.31927445724E+03  0.32152222552E+03  0.00000000000E+00 0. -1.
          1    1    1    2  502    0 -0.16971465789E+02  0.33946013157E+02 -0.48592659074E+02  0.61657189168E+02  0.00000000000E+00 0. -1.
</event>
<event>
 4    1  0.7181337E+003  0.2119623E+02  0.7546771E-02  0.1516481E+00
          2   -1    0    0  502    0  0.00000000000E+00  0.00000000000E+00  0.53173625354E+03  0.53173625354E+03  0.00000000000E+00 0.  1.
          1   -1    0    0  501    0 -0.00000000000E+00 -0.00000000000E+00 -0.86654742920E+02  0.86654742920E+02  0.00000000000E+00 0. -1.
          2    1    1    2  501    0  0.12518179759E+02  0.17104836388E+02  0.53022514927E+03  0.53064864946E+03  0.00000000000E+00 0.  1.
          1    1    1    2  502    0 -0.12518179759E+02 -0.17104836388E+02 -0.85143638657E+02  0.87742346995E+02  0.00000000000E+00 0. -1.
</event>
<event>
 4    1  0.7181337E+003  0.2075034E+02  0.7546771E-02  0.1522859E+00
          2   -1    0    0  502    0  0.00000000000E+00  0.00000000000E+00  0.14925626658E+03  0.14925626658E+03  0.00000000000E+00 0.  1.
          1   -1    0    0  501    0 -0.00000000000E+00 -0.00000000000E+00 -0.12080834327E+02  0.12080834327E+02  0.00000000000E+00 0.  1.
          2    1    1    2  501    0 -0.91308899701E+01  0.18633397849E+02  0.13896876494E+03  0.14050940999E+03  0.00000000000E+00 0.  1.
          1    1    1    2  502    0  0.91308899701E+01 -0.18633397849E+02 -0.17933326796E+01  0.20827690922E+02  0.00000000000E+00 0.  1.
</event>
<event>
 4    1  0.7181337E+003  0.2456697E+02  0.7546771E-02  0.1473706E+00
          2   -1    0    0  502    0  0.00000000000E+00  0.00000000000E+00  0.28975649955E+03  0.28975649955E+03  0.00000000000E+00 0.  1.
          1   -1    0    0  501    0 -0.00000000000E+00 -0.00000000000E+00 -0.29977212866E+02  0.29977212866E+02  0.00000000000E+00 0.  1.
          2    1    1    2  501    0  0.93165300567E+01 -0.22731873039E+02  0.28410250263E+03  0.28516270406E+03  0.00000000000E+00 0.  1.
          1    1    1    2  502    0 -0.93165300567E+01  0.22731873039E+02 -0.24323215953E+02  0.34571008352E+02  0.00000000000E+00 0.  1.
</event>
<event>
 4    1  0.7181337E+003  0.2448085E+02  0.7546771E-02  0.1474696E+00
          2   -1    0    0  502    0  0.00000000000E+00  0.00000000000E+00  0.45407744891E+02  0.45407744891E+02  0.00000000000E+00 0. -1.
          1   -1    0    0  501    0 -0.00000000000E+00 -0.00000000000E+00 -0.40346094418E+02  0.40346094418E+02  0.00000000000E+00 0. -1.
          2    1    1    2  501    0 -0.14350905257E+01 -0.24438752191E+02  0.37702160824E+02  0.44952920086E+02  0.00000000000E+00 0. -1.
          1    1    1    2  502    0  0.14350905257E+01  0.24438752191E+02 -0.32640510351E+02  0.40800919223E+02  0.00000000000E+00 0. -1.
</event>
<event>
 4    1  0.7181337E+003  0.4510872E+02  0.7546771E-02  0.1320897E+00
          2   -1    0    0  502    0  0.00000000000E+00  0.00000000000E+00  0.43398026808E+01  0.43398026808E+01  0.00000000000E+00 0. -1.
          1   -1    0    0  501    0 -0.00000000000E+00 -0.00000000000E+00 -0.49513407204E+03  0.49513407204E+03  0.00000000000E+00 0. -1.
          2    1    1    2  501    0  0.45108242938E+02  0.20213682003E+00 -0.30291718419E+03  0.30625743243E+03  0.00000000000E+00 0. -1.
          1    1    1    2  502    0 -0.45108242938E+02 -0.20213682003E+00 -0.18787708517E+03  0.19321644229E+03  0.00000000000E+00 0. -1.
</event>
<event>
 4    1  0.7181337E+003  0.2291188E+02  0.7546771E-02  0.1493608E+00
          2   -1    0    0  502    0  0.00000000000E+00  0.00000000000E+00  0.27501640983E+03  0.27501640983E+03  0.00000000000E+00 0. -1.
          1   -1    0    0  501    0 -0.00000000000E+00 -0.00000000000E+00 -0.37059424934E+01  0.37059424934E+01  0.00000000000E+00 0.  1.
          2    1    1    2  501    0 -0.12030617937E+02  0.19499187542E+02  0.23270232183E+03  0.23382755326E+03  0.00000000000E+00 0. -1.
          1    1    1    2  502    0  0.12030617937E+02 -0.19499187542E+02  0.38608145513E+02  0.44894799060E+02  0.00000000000E+00 0.  1.
</event>
<event>
 4    1  0.7181337E+003  0.4199299E+02  0.7546771E-02  0.1337187E+00
          2   -1    0    0  502    0  0.00000000000E+00  0.00000000000E+00  0.16229417261E+03  0.16229417261E+03  0.00000000000E+00 0. -1.
          1   -1    0    0  501    0 -0.00000000000E+00 -0.00000000000E+00 -0.44428095338E+02  0.44428095338E+02  0.00000000000E+00 0. -1.
          2    1    1    2  501    0  0.11017381917E+01  0.41978537745E+02  0.14877020016E+03  0.15458325885E+03  0.00000000000E+00 0. -1.
          1    1    1    2  502    0 -0.11017381917E+01 -0.41978537745E+02 -0.30904122893E+02  0.52139009101E+02  0.00000000000E+00 0. -1.
</event>
<event>
 4    1  0.7181337E+003  0.2050388E+02  0.7546771E-02  0.1526467E+00
          2   -1    0    0  502    0  0.00000000000E+00  0.00000000000E+00  0.39521823140E+02  0.39521823140E+02  0.00000000000E+00 0. -1.
          1   -1    0    0  501    0 -0.00000000000E+00 -0.00000000000E+00 -0.53848456341E+02  0.53848456341E+02  0.00000000000E+00 0. -1.
          2    1    1    2  501    0 -0.11079841875E+02  0.17252425106E+02  0.34657212512E+02  0.40268243656E+02  0.00000000000E+00 0. -1.
          1    1    1    2  502    0  0.11079841875E+02 -0.17252425106E+02 -0.48983845713E+02  0.53102035826E+02  0.00000000000E+00 0. -1.
</event>
<event>
 4    1  0.7181337E+003  0.2090973E+02  0.7546771E-02  0.1520558E+00
          2   -1    0    0  502    0  0.00000000000E+00  0.00000000000E+00  0.12253521941E+02  0.12253521941E+02  0.00000000000E+00 0. -1.
          1   -1    0    0  501    0 -0.00000000000E+00 -0.00000000000E+00 -0.42981972597E+03  0.42981972597E+03  0.00000000000E+00 0. -1.
          2    1    1    2  501    0 -0.19183728299E+02 -0.83187343392E+01  0.28802516019E+01  0.21107169913E+02  0.00000000000E+00 0. -1.
          1    1    1    2  502    0  0.19183728299E+02  0.83187343392E+01 -0.42044645563E+03  0.42096607800E+03  0.00000000000E+00 0. -1.
</event>
<event>
 4    1  0.7181337E+003  0.3362722E+02  0.7546771E-02  0.1390480E+00
          2   -1    0    0  502    0  0.00000000000E+00  0.00000000000E+00  0.92524999784E+01  0.92524999784E+01  0.00000000000E+00 0. -1.
          1   -1    0    0  501    0 -0.00000000000E+00 -0.00000000000E+00 -0.15440919783E+03  0.15440919783E+03  0.00000000000E+00 0.  1.
          2    1    1    2  501    0 -0.99477081652E+01 -0.32122162926E+02 -0.35212726626E+02  0.48690105414E+02  0.00000000000E+00 0. -1.
          1    1    1    2  502    0  0.99477081652E+01  0.32122162926E+02 -0.10994397122E+03  0.11497159239E+03  0.00000000000E+00 0.  1.
</event>
<event>
 4    1  0.7181337E+003  0.2349045E+02  0.7546771E-02  0.1486430E+00
          2   -1    0    0  502    0  0.00000000000E+00  0.00000000000E+00  0.50724373267E+02  0.50724373267E+02  0.00000000000E+00 0.  1.
          1   -1    0    0  501    0 -0.00000000000E+00 -0.00000000000E+00 -0.38064022674E+02  0.38064022674E+02  0.00000000000E+00 0.  1.
          2    1    1    2  501    0 -0.56900967742E+01  0.22790876146E+02  0.43848058218E+02  0.49743878481E+02  0.00000000000E+00 0.  1.
          1    1    1    2  502    0  0.56900967742E+01 -0.22790876146E+02 -0.31187707625E+02  0.39044517460E+02  0.00000000000E+00 0.  1.
</event>
<event>
 4    1  0.7181337E+003  0.2141316E+02  0.7546771E-02  0.1513447E+00
          2   -1    0    0  502    0  0.00000000000E+00  0.00000000000E+00  0.52032033702E+02  0.52032033702E+02  0.00000000000E+00 0.  1.
          1   -1    0    0  501    0 -0.00000000000E+00 -0.00000000000E+00 -0.10241998850E+02  0.10241998850E+02  0.00000000000E+00 0. -1.
          2    1    1    2  501    0  0.20914007636E+02  0.45964695524E+01  0.32528318142E+02  0.38943737994E+02  0.00000000000E+00 0.  1.
          1    1    1    2  502    0 -0.20914007636E+02 -0.45964695524E+01  0.92617167098E+01  0.23330294558E+02  0.00000000000E+00 0. -1.
</event>
<event>
 4    1  0.7181337E+003  0.2072488E+02  0.7546771E-02  0.1523229E+00
          2   -1    0    0  502    0  0.00000000000E+00  0.00000000000E+00  0.15236689576E+04  0.15236689576E+04  0.00000000000E+00 0. -1.
          1   -1    0    0  501    0 -0.00000000000E+00 -0.00000000000E+00 -0.11083669512E+01  0.11083669512E+01  0.00000000000E+00 0. -1.
          2    1    1    2  501    0  0.14786861988E+01 -0.20672065137E+02  0.14196163613E+04  0.14197676338E+04  0.00000000000E+00 0. -1.
          1    1    1    2  502    0 -0.14786861988E+01  0.20672065137E+02  0.10294422935E+03  0.10500969072E+03  0.00000000000E+00 0. -1.
</event>
<event>
 4    1  0.7181337E+003  0.2063548E+02  0.7546771E-02  0.1524533E+00
          2   -1    0    0  502    0  0.00000000000E+00  0.00000000000E+00  0.11990831277E+04  0.11990831277E+04  0.00000000000E+00 0. -1.
          1   -1    0    0  501    0 -0.00000000000E+00 -0.00000000000E+00 -0.12305869192E+01  0.12305869192E+01  0.00000000000E+00 0. -1.
          2    1    1    2  501    0 -0.18837119710E+02  0.84253160964E+01  0.11051325611E+04  0.11053252013E+04  0.00000000000E+00 0. -1.
          1    1    1    2  502    0  0.18837119710E+02 -0.84253160964E+01  0.92719979710E+02  0.94988513346E+02  0.00000000000E+00 0. -1.
</event>
<event>
 4    1  0.7181337E+003  0.2629570E+02  0.7546771E-02  0.1454814E+00
          2   -1    0    0  502    0  0.00000000000E+00  0.00000000000E+00  0.97186613799E+00  0.97186613799E+00  0.00000000000E+00 0. -1.
          1   -1    0    0  501    0 -0.00000000000E+00 -0.00000000000E+00 -0.72658586418E+03  0.72658586418E+03  0.00000000000E+00 0. -1.
          2    1    1    2  501    0 -0.14881312601E+02 -0.21679726754E+02 -0.31035567322E+03  0.31146766753E+03  0.00000000000E+00 0. -1.
          1    1    1    2  502    0  0.14881312601E+02  0.21679726754E+02 -0.41525832482E+03  0.41609006279E+03  0.00000000000E+00 0. -1.
</event>
<event>
 4    1  0.7181337E+003  0.2094115E+02  0.7546771E-02  0.1520107E+00
          2   -1    0    0  502    0  0.00000000000E+00  0.00000000000E+00  0.85633253138E+01  0.85633253138E+01  0.00000000000E+00 0. -1.
          1   -1    0    0  501    0 -0.00000000000E+00 -0.00000000000E+00 -0.33377150067E+03  0.33377150067E+03  0.00000000000E+00 0.  1.
          2    1    1    2  501    0 -0.38702498420E+01 -0.20580401358E+02 -0.51142234693E+01  0.21556600743E+02  0.00000000000E+00 0. -1.
          1    1    1    2  502    0  0.38702498420E+01  0.20580401358E+02 -0.32009395188E+03  0.32077822524E+03  0.00000000000E+00 0.  1.
</event>
<event>
 4    1  0.7181337E+003  0.5255700E+02  0.7546771E-02  0.1287451E+00
          2   -1    0    0  502    0  0.00000000000E+00  0.00000000000E+00  0.52693802641E+03  0.52693802641E+03  0.00000000000E+00 0.  1.
          1   -1    0    0  501    0 -0.00000000000E+00 -0.00000000000E+00 -0.10635615255E+02  0.10635615255E+02  0.00000000000E+00 0. -1.
          2    1    1    2  501    0 -0.41215957883E+02  0.32611085818E+02  0.44956112036E+03  0.45262284415E+03  0.00000000000E+00 0.  1.
          1    1    1    2  502    0  0.41215957883E+02 -0.32611085818E+02  0.66741290796E+02  0.84950797522E+02  0.00000000000E+00 0. -1.
</event>
<event>
 4    1  0.7181337E+003  0.2321807E+02  0.7546771E-02  0.1489778E+00
          2   -1    0    0  502    0  0.00000000000E+00  0.00000000000E+00  0.25517800943E+02  0.25517800943E+02  0.00000000000E+00 0. -1.
          1   -1    0    0  501    0 -0.00000000000E+00 -0.00000000000E+00 -0.43222012971E+03  0.43222012971E+03  0.00000000000E+00 0. -1.
          2    1    1    2  501    0 -0.15535132300E+02  0.17255095586E+02  0.19854527179E+02  0.30549646622E+02  0.00000000000E+00 0. -1.
          1    1    1    2  502    0  0.15535132300E+02 -0.17255095586E+02 -0.42655685595E+03  0.42718828403E+03  0.00000000000E+00 0. -1.
</event>
<event>
 4    1  0.7181337E+003  0.2382971E+02  0.7546771E-02  0.1482334E+00
          2   -1    0    0  502    0  0.00000000000E+00  0.00000000000E+00  0.40595062390E+03  0.40595062390E+03  0.00000000000E+00 0. -1.
          1   -1    0    0  501    0 -0.00000000000E+00 -0.00000000000E+00 -0.14017022882E+01  0.14017022882E+01  0.00000000000E+00 0. -1.
          2    1    1    2  501    0 -0.22353124643E+02  0.82578770659E+01  0.19304983002E+03  0.19451501635E+03  0.00000000000E+00 0. -1.
          1    1    1    2  502    0  0.22353124643E+02 -0.82578770659E+01  0.21149909160E+03  0.21283730984E+03  0.00000000000E+00 0. -1.
</event>
<event>
 4    1  0.7181337E+003  0.2597558E+02  0.7546771E-02  0.1458179E+00
          2   -1    0    0  502    0  0.00000000000E+00  0.00000000000E+00  0.77569048569E+01  0.77569048569E+01  0.00000000000E+00 0.  1.
          1   -1    0    0  501    0 -0.00000000000E+00 -0.00000000000E+00 -0.34537497904E+03  0.34537497904E+03  0.00000000000E+00 0. -1.
          2    1    1    2  501    0  0.23366881129E+02 -0.11345466514E+02 -0.16087697102E+02  0.30553964427E+02  0.00000000000E+00 0.  1.
          1    1    1    2  502    0 -0.23366881129E+02  0.11345466514E+02 -0.32153037708E+03  0.32257791947E+03  0.00000000000E+00 0. -1.
</event>
<event>
 4    1  0.7181337E+003  0.3412723E+02  0.7546771E-02  0.1386805E+00
          2   -1    0    0  502    0  0.00000000000E+00  0.00000000000E+00  0.95785476759E+03  0.95785476759E+03  0.00000000000E+00 0. -1.
          1   -1    0    0  501    0 -0.00000000000E+00 -0.00000000000E+00 -0.92535837180E+01  0.92535837180E+01  0.00000000000E+00 0. -1.
          2    1    1    2  501    0 -0.30475220216E+02 -0.15359977342E+02  0.92496708238E+03  0.92559644091E+03  0.00000000000E+00 0. -1.
          1    1    1    2  502    0  0.30475220216E+02  0.15359977342E+02  0.23634101497E+02  0.41511910396E+02  0.00000000000E+00 0. -1.
</event>
<event>
 4    1  0.7181337E+003  0.2335943E+02  0.7546771E-02  0.1488033E+00
          2   -1    0    0  502    0  0.00000000000E+00  0.00000000000E+00  0.59365655885E+00  0.59365655885E+00  0.00000000000E+00 0. -1.
          1   -1    0    0  501    0 -0.00000000000E+00 -0.00000000000E+00 -0.11660164328E+04  0.11660164328E+04  0.00000000000E+00 0. -1.
          2    1    1    2  501    0 -0.13393994026E+02 -0.19138022629E+02 -0.31431965007E+03  0.31518646133E+03  0.00000000000E+00 0. -1.
          1    1    1    2  502    0  0.13393994026E+02  0.19138022629E+02 -0.85110312615E+03  0.85142362801E+03  0.00000000000E+00 0. -1.
</event>
<event>
 4    1  0.7181337E+003  0.2509895E+02  0.7546771E-02  0.1467699E+00
          2   -1    0    0  502    0  0.00000000000E+00  0.00000000000E+00  0.55236364197E+03  0.55236364197E+03  0.00000000000E+00 0. -1.
          1   -1    0    0  501    0 -0.00000000000E+00 -0.00000000000E+00 -0.85314322523E+02  0.85314322523E+02  0.00000000000E+00 0.  1.
          2    1    1    2  501    0  0.23393395527E+02 -0.90943039477E+01  0.55022536357E+03  0.55079752000E+03  0.00000000000E+00 0. -1.
          1    1    1    2  502    0 -0.23393395527E+02  0.90943039477E+01 -0.83176044127E+02  0.86880444493E+02  0.00000000000E+00 0.  1.
</event>
<event>
 4    1  0.7181337E+003  0.3644127E+02  0.7546771E-02  0.1370704E+00
          2   -1    0    0  502    0  0.00000000000E+00  0.00000000000E+00  0.44633523547E+01  0.44633523547E+01  0.00000000000E+00 0.  1.
          1   -1    0    0  501    0 -0.00000000000E+00 -0.00000000000E+00 -0.84642028848E+03  0.84642028848E+03  0.00000000000E+00 0. -1.
          2    1    1    2  501    0  0.26963227391E+02  0.24514298031E+02 -0.78375414068E+02  0.86433049059E+02  0.00000000000E+00 0.  1.
          1    1    1    2  502    0 -0.26963227391E+02 -0.24514298031E+02 -0.76358152206E+03  0.76445059178E+03  0.00000000000E+00 0. -1.
</event>
<event>
 4    1  0.7181337E+003  0.2612282E+02  0.7546771E-02  0.1456624E+00
          2   -1    0    0  502    0  0.00000000000E+00  0.00000000000E+00  0.13342416106E+02  0.13342416106E+02  0.00000000000E+00 0.  1.
          1   -1    0    0  501    0 -0.00000000000E+00 -0.00000000000E+00 -0.91030723231E+03  0.91030723231E+03  0.00000000000E+00 0. -1.
          2    1    1    2  501    0  0.24953714011E+02  0.77274899672E+01  0.18114231445E+00  0.26123452235E+02  0.00000000000E+00 0.  1.
          1    1    1    2  502    0 -0.24953714011E+02 -0.77274899672E+01 -0.89714595852E+03  0.89752619618E+03  0.00000000000E+00 0. -1.
</event>
<event>
 4    1  0.7181337E+003  0.2026872E+02  0.7546771E-02  0.1529967E+00
          2   -1    0    0  502    0  0.00000000000E+00  0.00000000000E+00  0.82251345651E+03  0.82251345651E+03  0.00000000000E+00 0. -1.
          1   -1    0    0  501    0 -0.00000000000E+00 -0.00000000000E+00 -0.59966885434E+00  0.59966885434E+00  0.00000000000E+00 0. -1.
          2    1    1    2  501    0 -0.24581603720E+01  0.20119103078E+02  0.57918749298E+03  0.57954203720E+03  0.00000000000E+00 0. -1.
          1    1    1    2  502    0  0.24581603720E+01 -0.20119103078E+02  0.24272629468E+03  0.24357108816E+03  0.00000000000E+00 0. -1.
</event>
<event>
 4    1  0.7181337E+003  0.8153705E+02  0.7546771E-02  0.1200324E+00
          2   -1    0    0  502    0  0.00000000000E+00  0.00000000000E+00  0.59500447781E+01  0.59500447781E+01  0.00000000000E+00 0.  1.
          1   -1    0    0  501    0 -0.00000000000E+00 -0.00000000000E+00 -0.13665497320E+04  0.13665497320E+04  0.00000000000E+00 0.  1.
          2    1    1    2  501    0  0.49992061867E+02  0.64413328462E+02 -0.97335088139E+03  0.97676006340E+03  0.00000000000E+00 0.  1.
          1    1    1    2  502    0 -0.49992061867E+02 -0.64413328462E+02 -0.38724880582E+03  0.39573971338E+03  0.00000000000E+00 0.  1.
</event>
<event>
 4    1  0.7181337E+003  0.2017957E+02  0.7546771E-02  0.1531308E+00
          2   -1    0    0  502    0  0.00000000000E+00  0.00000000000E+00  0.92002809936E+01  0.92002809936E+01  0.00000000000E+00 0.  1.
          1   -1    0    0  501    0 -0.00000000000E+00 -0.00000000000E+00 -0.55354563260E+02  0.55354563260E+02  0.00000000000E+00 0. -1.
          2    1    1    2  501    0  0.19603593350E+02  0.47868653692E+01 -0.86275731860E+01  0.21946525269E+02  0.00000000000E+00 0.  1.
          1    1    1    2  502    0 -0.19603593350E+02 -0.47868653692E+01 -0.37526709081E+02  0.42608318985E+02  0.00000000000E+00 0. -1.
</event>
<event>
 4    1  0.7181337E+003  0.2269473E+02  0.7546771E-02  0.1496367E+00
          2   -1    0    0  502    0  0.00000000000E+00  0.00000000000E+00  0.58974953117E+03  0.58974953117E+03  0.00000000000E+00 0. -1.
          1   -1    0    0  501    0 -0.00000000000E+00 -0.00000000000E+00 -0.25764950456E+02  0.25764950456E+02  0.00000000000E+00 0.  1.
          2    1    1    2  501    0  0.22065512090E+02  0.53069662810E+01  0.58448864029E+03  0.58492907377E+03  0.00000000000E+00 0. -1.
          1    1    1    2  502    0 -0.22065512090E+02 -0.53069662810E+01 -0.20504059573E+02  0.30585407858E+02  0.00000000000E+00 0.  1.
</event>
<event>
 4    1  0.7181337E+003  0.2036809E+02  0.7546771E-02  0.1528481E+00
          2   -1    0    0  502    0  0.00000000000E+00  0.00000000000E+00  0.14347192175E+04  0.14347192175E+04  0.00000000000E+00 0.  1.
          1   -1    0    0  501    0 -0.00000000000E+00 -0.00000000000E+00 -0.28923086161E+00  0.28923086161E+00  0.00000000000E+00 0. -1.
          2    1    1    2  501    0  0.35762461909E+01  0.20051659446E+02  0.70572082886E+03  0.70601469310E+03  0.00000000000E+00 0.  1.
          1    1    1    2  502    0 -0.35762461909E+01 -0.20051659446E+02  0.72870915781E+03  0.72899375529E+03  0.00000000000E+00 0. -1.
</event>
<event>
 4    1  0.7181337E+003  0.4657856E+02  0.7546771E-02  0.1313729E+00
          2   -1    0    0  502    0  0.00000000000E+00  0.00000000000E+00  0.16466600171E+04  0.16466600171E+04  0.00000000000E+00 0.  1.
          1   -1    0    0  501    0 -0.00000000000E+00 -0.00000000000E+00 -0.27741189466E+01  0.27741189466E+01  0.00000000000E+00 0. -1.
          2    1    1    2  501    0 -0.12819603284E+02  0.44779684489E+02  0.14195386602E+04  0.14203026333E+04  0.00000000000E+00 0.  1.
          1    1    1    2  502    0  0.12819603284E+02 -0.44779684489E+02  0.22434723796E+03  0.22913150275E+03  0.00000000000E+00 0. -1.
</event>
<event>
 4    1  0.7181337E+003  0.4400726E+02  0.7546771E-02  0.1326479E+00
          2   -1    0    0  502    0  0.00000000000E+00  0.00000000000E+00  0.18468742921E+04  0.18468742921E+04  0.00000000000E+00 0.  1.
          1   -1    0    0  501    0 -0.00000000000E+00 -0.00000000000E+00 -0.96041797352E+01  0.96041797352E+01  0.00000000000E+00 0.  1.
          2    1    1    2  501    0  0.14467079966E+02  0.41561309974E+02  0.17947365371E+04  0.17952759889E+04  0.00000000000E+00 0.  1.
          1    1    1    2  502    0 -0.14467079966E+02 -0.41561309974E+02  0.42533575337E+02  0.61202482960E+02  0.00000000000E+00 0.  1.
</event>
<event>
 4    1  0.7181337E+003  0.3297108E+02  0.7546771E-02  0.1395417E+00
          2   -1    0    0  502    0  0.00000000000E+00  0.00000000000E+00  0.83916861601E+03  0.83916861601E+03  0.00000000000E+00 0.  1.
          1   -1    0    0  501    0 -0.00000000000E+00 -0.00000000000E+00 -0.19916377386E+01  0.19916377386E+01  0.00000000000E+00 0. -1.
          2    1    1    2  501    0  0.16626702608E+02  0.28471827677E+02  0.66725083130E+03  0.66806494002E+03  0.00000000000E+00 0.  1.
          1    1    1    2  502    0 -0.16626702608E+02 -0.28471827677E+02  0.16992614697E+03  0.17309531373E+03  0.00000000000E+00 0. -1.
</event>
<event>
 4    1  0.7181337E+003  0.2155011E+02  0.7546771E-02  0.1511554E+00
          2   -1    0    0  502    0  0.00000000000E+00  0.00000000000E+00  0.14335608929E+04  0.14335608929E+04  0.00000000000E+00 0. -1.
          1   -1    0    0  501    0 -0.00000000000E+00 -0.00000000000E+00 -0.36259421719E+00  0.36259421719E+00  0.00000000000E+00 0. -1.
          2    1    1    2  501    0 -0.72051306054E+01  0.20309923216E+02  0.48254904266E+03  0.48303000472E+03  0.00000000000E+00 0. -1.
          1    1    1    2  502    0  0.72051306054E+01 -0.20309923216E+02  0.95064925602E+03  0.95089348239E+03  0.00000000000E+00 0. -1.
</event>
<event>
 4    1  0.7181337E+003  0.2728781E+02  0.7546771E-02  0.1444738E+00
          2   -1    0    0  502    0  0.00000000000E+00  0.00000000000E+00  0.85857853387E+03  0.85857853387E+03  0.00000000000E+00 0.  1.
          1   -1    0    0  501    0 -0.00000000000E+00 -0.00000000000E+00 -0.94707136687E+00  0.94707136687E+00  0.00000000000E+00 0.  1.
          2    1    1    2  501    0 -0.13413828504E+02 -0.23763265764E+02  0.30406894797E+03  0.30529092472E+03  0.00000000000E+00 0.  1.
          1    1    1    2  502    0  0.13413828504E+02  0.23763265764E+02  0.55356251453E+03  0.55423468052E+03  0.00000000000E+00 0.  1.
</event>
<event>
 4    1  0.7181337E+003  0.2352158E+02  0.7546771E-02  0.1486050E+00
          2   -1    0    0  502    0  0.00000000000E+00  0.00000000000E+00  0.40384455332E+03  0.40384455332E+03  0.00000000000E+00 0. -1.
          1   -1    0    0  501    0 -0.00000000000E+00 -0.00000000000E+00 -0.29141771992E+02  0.29141771992E+02  0.00000000000E+00 0.  1.
          2    1    1    2  501    0  0.19188284135E+02 -0.13604205429E+02  0.39869447861E+03  0.39938772130E+03  0.00000000000E+00 0. -1.
          1    1    1    2  502    0 -0.19188284135E+02  0.13604205429E+02 -0.23991697277E+02  0.33598604013E+02  0.00000000000E+00 0.  1.
</event>
<event>
 4    1  0.7181337E+003  0.2818121E+02  0.7546771E-02  0.1436090E+00
          2   -1    0    0  502    0  0.00000000000E+00  0.00000000000E+00  0.77223293966E+03  0.77223293966E+03  0.00000000000E+00 0.  1.
          1   -1    0    0  501    0 -0.00000000000E+00 -0.00000000000E+00 -0.22287961924E+01  0.22287961924E+01  0.00000000000E+00 0. -1.
          2    1    1    2  501    0  0.13785055127E+02  0.24579518891E+02  0.66918194425E+03  0.66977507792E+03  0.00000000000E+00 0.  1.
          1    1    1    2  502    0 -0.13785055127E+02 -0.24579518891E+02  0.10082219922E+03  0.10468665793E+03  0.00000000000E+00 0. -1.
</event>
<event>
 4    1  0.7181337E+003  0.3709066E+02  0.7546771E-02  0.1366433E+00
          2   -1    0    0  502    0  0.00000000000E+00  0.00000000000E+00  0.20160100204E+04  0.20160100204E+04  0.00000000000E+00 0.  1.
          1   -1    0    0  501    0 -0.00000000000E+00 -0.00000000000E+00 -0.92344768358E+00  0.92344768358E+00  0.00000000000E+00 0.  1.
          2    1    1    2  501    0  0.54667844345E+01 -0.36685576884E+02  0.15227843455E+04  0.15232359897E+04  0.00000000000E+00 0.  1.
          1    1    1    2  502    0 -0.54667844345E+01  0.36685576884E+02  0.49230222717E+03  0.49369747838E+03  0.00000000000E+00 0.  1.
</event>
<event>
 4    1  0.7181337E+003  0.2853849E+02  0.7546771E-02  0.1432737E+00
          2   -1    0    0  502    0  0.00000000000E+00  0.00000000000E+00  0.11189901590E+04  0.11189901590E+04  0.00000000000E+00 0.  1.
          1   -1    0    0  501    0 -0.00000000000E+00 -0.00000000000E+00 -0.83423712781E+00  0.83423712781E+00  0.00000000000E+00 0.  1.
          2    1    1    2  501    0 -0.25047138033E+02  0.13677952190E+02  0.75903682775E+03  0.75957313761E+03  0.00000000000E+00 0.  1.
          1    1    1    2  502    0  0.25047138033E+02 -0.13677952190E+02  0.35911909418E+03  0.36025125857E+03  0.00000000000E+00 0.  1.
</event>
<event>
 4    1  0.7181337E+003  0.3276295E+02  0.7546771E-02  0.1397011E+00
          2   -1    0    0  502    0  0.00000000000E+00  0.00000000000E+00  0.18871359158E+04  0.18871359158E+04  0.00000000000E+00 0.  1.
          1   -1    0    0  501    0 -0.00000000000E+00 -0.00000000000E+00 -0.23898245420E+02  0.23898245420E+02  0.00000000000E+00 0.  1.
          2    1    1    2  501    0 -0.11188071044E+02  0.30793476325E+02  0.18756962616E+04  0.18759823765E+04  0.00000000000E+00 0.  1.
          1    1    1    2  502    0  0.11188071044E+02 -0.30793476325E+02 -0.12458591218E+02  0.35051784733E+02  0.00000000000E+00 0.  1.
</event>
<event>
 4    1  0.7181337E+003  0.3258819E+02  0.7546771E-02  0.1398361E+00
          2   -1    0    0  502    0  0.00000000000E+00  0.00000000000E+00  0.29773185389E+03  0.29773185389E+03  0.00000000000E+00 0. -1.
          1   -1    0    0  501    0 -0.00000000000E+00 -0.00000000000E+00 -0.10623595476E+03  0.10623595476E+03  0.00000000000E+00 0.  1.
          2    1    1    2  501    0 -0.27048707410E+02 -0.18175735574E+02  0.29431203947E+03  0.29611073354E+03  0.00000000000E+00 0. -1.
          1    1    1    2  502    0  0.27048707410E+02  0.18175735574E+02 -0.10281614035E+03  0.10785707511E+03  0.00000000000E+00 0.  1.
</event>
<event>
 4    1  0.7181337E+003  0.2482573E+02  0.7546771E-02  0.1470762E+00
          2   -1    0    0  502    0  0.00000000000E+00  0.00000000000E+00  0.17927117105E+01  0.17927117105E+01  0.00000000000E+00 0. -1.
          1   -1    0    0  501    0 -0.00000000000E+00 -0.00000000000E+00 -0.47242666047E+03  0.47242666047E+03  0.00000000000E+00 0. -1.
          2    1    1    2  501    0  0.24824632447E+02  0.23346826061E+00 -0.11159011734E+03  0.11431828888E+03  0.00000000000E+00 0. -1.
          1    1    1    2  502    0 -0.24824632447E+02 -0.23346826061E+00 -0.35904383142E+03  0.35990108330E+03  0.00000000000E+00 0. -1.
</event>
<event>
 4    1  0.7181337E+003  0.2127405E+02  0.7546771E-02  0.1515388E+00
          2   -1    0    0  502    0  0.00000000000E+00  0.00000000000E+00  0.45569954256E+02  0.45569954256E+02  0.00000000000E+00 0. -1.
          1   -1    0    0  501    0 -0.00000000000E+00 -0.00000000000E+00 -0.11369111086E+03  0.11369111086E+03  0.00000000000E+00 0. -1.
          2    1    1    2  501    0 -0.19502909641E+02 -0.84983394759E+01  0.42012361401E+02  0.47091652857E+02  0.00000000000E+00 0. -1.
          1    1    1    2  502    0  0.19502909641E+02  0.84983394759E+01 -0.11013351800E+03  0.11216941226E+03  0.00000000000E+00 0. -1.
</event>
<event>
 4    1  0.7181337E+003  0.2015622E+02  0.7546771E-02  0.1531661E+00
          2   -1    0    0  502    0  0.00000000000E+00  0.00000000000E+00  0.89337144531E+03  0.89337144531E+03  0.00000000000E+00 0.  1.
          1   -1    0    0  501    0 -0.00000000000E+00 -0.00000000000E+00 -0.23106507136E+03  0.23106507136E+03  0.00000000000E+00 0.  1.
          2    1    1    2  501    0 -0.16896221202E+02  0.10990486499E+02  0.89281791618E+03  0.89304541012E+03  0.00000000000E+00 0.  1.
          1    1    1    2  502    0  0.16896221202E+02 -0.10990486499E+02 -0.23051154224E+03  0.23139110655E+03  0.00000000000E+00 0.  1.
</event>
<event>
 4    1  0.7181337E+003  0.2743156E+02  0.7546771E-02  0.1443321E+00
          2   -1    0    0  502    0  0.00000000000E+00  0.00000000000E+00  0.35828070945E+02  0.35828070945E+02  0.00000000000E+00 0.  1.
          1   -1    0    0  501    0 -0.00000000000E+00 -0.00000000000E+00 -0.50847788289E+03  0.50847788289E+03  0.00000000000E+00 0.  1.
          2    1    1    2  501    0 -0.23888955767E+02 -0.13483623715E+02  0.30148123963E+02  0.40760271032E+02  0.00000000000E+00 0.  1.
          1    1    1    2  502    0  0.23888955767E+02  0.13483623715E+02 -0.50279793591E+03  0.50354568280E+03  0.00000000000E+00 0.  1.
</event>
<event>
 4    1  0.7181337E+003  0.2081398E+02  0.7546771E-02  0.1521937E+00
          2   -1    0    0  502    0  0.00000000000E+00  0.00000000000E+00  0.16922383872E+01  0.16922383872E+01  0.00000000000E+00 0. -1.
          1   -1    0    0  501    0 -0.00000000000E+00 -0.00000000000E+00 -0.11128204225E+04  0.11128204225E+04  0.00000000000E+00 0.  1.
          2    1    1    2  501    0  0.19032827956E+02  0.84245585936E+01 -0.66589752367E+02  0.69766875004E+02  0.00000000000E+00 0. -1.
          1    1    1    2  502    0 -0.19032827956E+02 -0.84245585936E+01 -0.10445384318E+04  0.10447457859E+04  0.00000000000E+00 0.  1.
</event>
<event>
 4    1  0.7181337E+003  0.3077683E+02  0.7546771E-02  0.1412963E+00
          2   -1    0    0  502    0  0.00000000000E+00  0.00000000000E+00  0.13936367154E+02  0.13936367154E+02  0.00000000000E+00 0. -1.
          1   -1    0    0  501    0 -0.00000000000E+00 -0.00000000000E+00 -0.31401776293E+03  0.31401776293E+03  0.00000000000E+00 0.  1.
          2    1    1    2  501    0  0.15712501705E+02  0.26463761877E+02 -0.48902641527E+01  0.31162928071E+02  0.00000000000E+00 0. -1.
          1    1    1    2  502    0 -0.15712501705E+02 -0.26463761877E+02 -0.29519113162E+03  0.29679120201E+03  0.00000000000E+00 0.  1.
</event>
<event>
 4    1  0.7181337E+003  0.2403606E+02  0.7546771E-02  0.1479883E+00
          2   -1    0    0  502    0  0.00000000000E+00  0.00000000000E+00  0.59207009298E+00  0.59207009298E+00  0.00000000000E+00 0.  1.
          1   -1    0    0  501    0 -0.00000000000E+00 -0.00000000000E+00 -0.12801774435E+04  0.12801774435E+04  0.00000000000E+00 0.  1.
          2    1    1    2  501    0  0.34093364018E+01 -0.23793038267E+02 -0.32752727400E+03  0.32840805023E+03  0.00000000000E+00 0.  1.
          1    1    1    2  502    0 -0.34093364018E+01  0.23793038267E+02 -0.95205809943E+03  0.95236146338E+03  0.00000000000E+00 0.  1.
</event>
<event>
 4    1  0.7181337E+003  0.2001586E+02  0.7546771E-02  0.1533793E+00
          2   -1    0    0  502    0  0.00000000000E+00  0.00000000000E+00  0.60392482790E+01  0.60392482790E+01  0.00000000000E+00 0. -1.
          1   -1    0    0  501    0 -0.00000000000E+00 -0.00000000000E+00 -0.67321327954E+02  0.67321327954E+02  0.00000000000E+00 0.  1.
          2    1    1    2  501    0 -0.18582285635E+01 -0.19929412896E+02 -0.26209026982E+02  0.32977986705E+02  0.00000000000E+00 0. -1.
          1    1    1    2  502    0  0.18582285635E+01  0.19929412896E+02 -0.35073052693E+02  0.40382589528E+02  0.00000000000E+00 0.  1.
</event>
<event>
 4    1  0.7181337E+003  0.2530387E+02  0.7546771E-02  0.1465433E+00
          2   -1    0    0  502    0  0.00000000000E+00  0.00000000000E+00  0.14541495291E+04  0.14541495291E+04  0.00000000000E+00 0. -1.
          1   -1    0    0  501    0 -0.00000000000E+00 -0.00000000000E+00 -0.25939985417E+01  0.25939985417E+01  0.00000000000E+00 0. -1.
          2    1    1    2  501    0  0.20077325795E+02  0.15400865963E+02  0.13894582616E+04  0.13896886509E+04  0.00000000000E+00 0. -1.
          1    1    1    2  502    0 -0.20077325795E+02 -0.15400865963E+02  0.62097268894E+02  0.67054876687E+02  0.00000000000E+00 0. -1.
</event>
<event>
 4    1  0.7181337E+003  0.2601485E+02  0.7546771E-02  0.1457763E+00
          2   -1    0    0  502    0  0.00000000000E+00  0.00000000000E+00  0.83326983319E+02  0.83326983319E+02  0.00000000000E+00 0. -1.
          1   -1    0    0  501    0 -0.00000000000E+00 -0.00000000000E+00 -0.17848774540E+02  0.17848774540E+02  0.00000000000E+00 0. -1.
          2    1    1    2  501    0 -0.11676546796E+02  0.23247163051E+02  0.70083825289E+02  0.74756370311E+02  0.00000000000E+00 0. -1.
          1    1    1    2  502    0  0.11676546796E+02 -0.23247163051E+02 -0.46056165104E+01  0.26419387548E+02  0.00000000000E+00 0. -1.
</event>
<event>
 4    1  0.7181337E+003  0.2211168E+02  0.7546771E-02  0.1503965E+00
          2   -1    0    0  502    0  0.00000000000E+00  0.00000000000E+00  0.28481793434E+02  0.28481793434E+02  0.00000000000E+00 0.  1.
          1   -1    0    0  501    0 -0.00000000000E+00 -0.00000000000E+00 -0.18250485300E+02  0.18250485300E+02  0.00000000000E+00 0. -1.
          2    1    1    2  501    0  0.17080022594E+02  0.14042765811E+02  0.10810808430E+02  0.24613005147E+02  0.00000000000E+00 0.  1.
          1    1    1    2  502    0 -0.17080022594E+02 -0.14042765811E+02 -0.57950029548E+00  0.22119273587E+02  0.00000000000E+00 0. -1.
</event>
<event>
 4    1  0.7181337E+003  0.2724254E+02  0.7546771E-02  0.1445187E+00
          2   -1    0    0  502    0  0.00000000000E+00  0.00000000000E+00  0.18752073443E+04  0.18752073443E+04  0.00000000000E+00 0. -1.
          1   -1    0    0  501    0 -0.00000000000E+00 -0.00000000000E+00 -0.80607687017E+01  0.80607687017E+01  0.00000000000E+00 0.  1.
          2    1    1    2  501    0 -0.11013410469E+02 -0.24917083278E+02  0.18517999273E+04  0.18520003043E+04  0.00000000000E+00 0. -1.
          1    1    1    2  502    0  0.11013410469E+02  0.24917083278E+02  0.15346648299E+02  0.31267808737E+02  0.00000000000E+00 0.  1.
</event>
<event>
 4    1  0.7181337E+003  0.2345315E+02  0.7546771E-02  0.1486885E+00
          2   -1    0    0  502    0  0.00000000000E+00  0.00000000000E+00  0.47875708570E+02  0.47875708570E+02  0.00000000000E+00 0.  1.
          1   -1    0    0  501    0 -0.00000000000E+00 -0.00000000000E+00 -0.20840870481E+03  0.20840870481E+03  0.00000000000E+00 0. -1.
          2    1    1    2  501    0 -0.23421207245E+02  0.12237204662E+01  0.44293533927E+02  0.50119533002E+02  0.00000000000E+00 0.  1.
          1    1    1    2  502    0  0.23421207245E+02 -0.12237204662E+01 -0.20482653017E+03  0.20616488038E+03  0.00000000000E+00 0. -1.
</event>
<event>
 4    1  0.7181337E+003  0.2380727E+02  0.7546771E-02  0.1482603E+00
          2   -1    0    0  502    0  0.00000000000E+00  0.00000000000E+00  0.75477855098E+01  0.75477855098E+01  0.00000000000E+00 0.  1.
          1   -1    0    0  501    0 -0.00000000000E+00 -0.00000000000E+00 -0.92206627169E+03  0.92206627169E+03  0.00000000000E+00 0.  1.
          2    1    1    2  501    0  0.23152552997E+02  0.55448463826E+01 -0.11781033781E+02  0.26562733079E+02  0.00000000000E+00 0.  1.
          1    1    1    2  502    0 -0.23152552997E+02 -0.55448463826E+01 -0.90273745240E+03  0.90305132412E+03  0.00000000000E+00 0.  1.
</event>
<event>
 4    1  0.7181337E+003  0.2106031E+02  0.7546771E-02  0.1518405E+00
          2   -1    0    0  502    0  0.00000000000E+00  0.00000000000E+00  0.90626636414E+01  0.90626636414E+01  0.00000000000E+00 0. -1.
          1   -1    0    0  501    0 -0.00000000000E+00 -0.00000000000E+00 -0.13515017689E+03  0.13515017689E+03  0.00000000000E+00 0.  1.
          2    1    1    2  501    0  0.20687022864E+02  0.39476319710E+01 -0.54544131380E+01  0.21755168026E+02  0.00000000000E+00 0. -1.
          1    1    1    2  502    0 -0.20687022864E+02 -0.39476319710E+01 -0.12063310011E+03  0.12245767250E+03  0.00000000000E+00 0.  1.
</event>
<event>
 4    1  0.7181337E+003  0.2393113E+02  0.7546771E-02  0.1481126E+00
          2   -1    0    0  502    0  0.00000000000E+00  0.00000000000E+00  0.20958453236E+03  0.20958453236E+03  0.00000000000E+00 0. -1.
          1   -1    0    0  501    0 -0.00000000000E+00 -0.00000000000E+00 -0.56211505173E+01  0.56211505173E+01  0.00000000000E+00 0. -1.
          2    1    1    2  501    0  0.22052923849E+02  0.92934239246E+01  0.17911735915E+03  0.18070895808E+03  0.00000000000E+00 0. -1.
          1    1    1    2  502    0 -0.22052923849E+02 -0.92934239246E+01  0.24846022686E+02  0.34496724799E+02  0.00000000000E+00 0. -1.
</event>
<event>
 4    1  0.7181337E+003  0.2182182E+02  0.7546771E-02  0.1507847E+00
          2   -1    0    0  502    0  0.00000000000E+00  0.00000000000E+00  0.85035924432E+03  0.85035924432E+03  0.00000000000E+00 0.  1.
          1   -1    0    0  501    0 -0.00000000000E+00 -0.00000000000E+00 -0.13227954397E+03  0.13227954397E+03  0.00000000000E+00 0.  1.
          2    1    1    2  501    0 -0.39167533908E+01 -0.21467434549E+02  0.84931817182E+03  0.84959846321E+03  0.00000000000E+00 0.  1.
          1    1    1    2  502    0  0.39167533908E+01  0.21467434549E+02 -0.13123847147E+03  0.13304032508E+03  0.00000000000E+00 0.  1.
</event>
<event>
 4    1  0.7181337E+003  0.2627188E+02  0.7546771E-02  0.1455063E+00
          2   -1    0    0  502    0  0.00000000000E+00  0.00000000000E+00  0.11618281484E+03  0.11618281484E+03  0.00000000000E+00 0. -1.
          1   -1    0    0  501    0 -0.00000000000E+00 -0.00000000000E+00 -0.76723078950E+01  0.76723078950E+01  0.00000000000E+00 0. -1.
          2    1    1    2  501    0 -0.24385643212E+02  0.97750424126E+01  0.24835322943E+02  0.36152514639E+02  0.00000000000E+00 0. -1.
          1    1    1    2  502    0  0.24385643212E+02 -0.97750424126E+01  0.83675183999E+02  0.87702608093E+02  0.00000000000E+00 0. -1.
</event>
<event>
 4    1  0.7181337E+003  0.2342166E+02  0.7546771E-02  0.1487270E+00
          2   -1    0    0  502    0  0.00000000000E+00  0.00000000000E+00  0.15828498674E+04  0.15828498674E+04  0.00000000000E+00 0. -1.
          1   -1    0    0  501    0 -0.00000000000E+00 -0.00000000000E+00 -0.43364689519E+00  0.43364689519E+00  0.00000000000E+00 0.  1.
          2    1    1    2  501    0 -0.12322843389E+02  0.19917878787E+02  0.11459418134E+04  0.11461811436E+04  0.00000000000E+00 0. -1.
          1    1    1    2  502    0  0.12322843389E+02 -0.19917878787E+02  0.43647440712E+03  0.43710237066E+03  0.00000000000E+00 0.  1.
</event>
<event>
 4    1  0.7181337E+003  0.2181035E+02  0.7546771E-02  0.1508002E+00
          2   -1    0    0  502    0  0.00000000000E+00  0.00000000000E+00  0.27694368945E+02  0.27694368945E+02  0.00000000000E+00 0.  1.
          1   -1    0    0  501    0 -0.00000000000E+00 -0.00000000000E+00 -0.99192679236E+03  0.99192679236E+03  0.00000000000E+00 0. -1.
          2    1    1    2  501    0  0.11487951830E+02  0.18539644628E+02  0.23261085221E+02  0.31886824017E+02  0.00000000000E+00 0.  1.
          1    1    1    2  502    0 -0.11487951830E+02 -0.18539644628E+02 -0.98749350864E+03  0.98773433729E+03  0.00000000000E+00 0. -1.
</event>
<event>
 4    1  0.7181337E+003  0.2887635E+02  0.7546771E-02  0.1429619E+00
          2   -1    0    0  502    0  0.00000000000E+00  0.00000000000E+00  0.40109113671E+02  0.40109113671E+02  0.00000000000E+00 0. -1.
          1   -1    0    0  501    0 -0.00000000000E+00 -0.00000000000E+00 -0.33845912225E+02  0.33845912225E+02  0.00000000000E+00 0. -1.
          2    1    1    2  501    0  0.17782767930E+02  0.22751197543E+02  0.26098291200E+02  0.38922546531E+02  0.00000000000E+00 0. -1.
          1    1    1    2  502    0 -0.17782767930E+02 -0.22751197543E+02 -0.19835089755E+02  0.35032479365E+02  0.00000000000E+00 0. -1.
</event>
<event>
 4    1  0.7181337E+003  0.2827304E+02  0.7546771E-02  0.1435223E+00
          2   -1    0    0  502    0  0.00000000000E+00  0.00000000000E+00  0.27940485579E+03  0.27940485579E+03  0.00000000000E+00 0. -1.
          1   -1    0    0  501    0 -0.00000000000E+00 -0.00000000000E+00 -0.33141264749E+02  0.33141264749E+02  0.00000000000E+00 0. -1.
          2    1    1    2  501    0  0.16127923684E+02  0.23221858702E+02  0.27250742091E+03  0.27397017921E+03  0.00000000000E+00 0. -1.
          1    1    1    2  502    0 -0.16127923684E+02 -0.23221858702E+02 -0.26243829865E+02  0.38575941335E+02  0.00000000000E+00 0. -1.
</event>
<event>
 4    1  0.7181337E+003  0.2430498E+02  0.7546771E-02  0.1476731E+00
          2   -1    0    0  502    0  0.00000000000E+00  0.00000000000E+00  0.94921607346E+03  0.94921607346E+03  0.00000000000E+00 0. -1.
          1   -1    0    0  501    0 -0.00000000000E+00 -0.00000000000E+00 -0.55028390596E+01  0.55028390596E+01  0.00000000000E+00 0.  1.
          2    1    1    2  501    0 -0.14559252840E+02  0.19461768284E+02  0.92141321456E+03  0.92173371656E+03  0.00000000000E+00 0. -1.
          1    1    1    2  502    0  0.14559252840E+02 -0.19461768284E+02  0.22300019843E+02  0.32985195967E+02  0.00000000000E+00 0.  1.
</event>
<event>
 4    1  0.7181337E+003  0.2036117E+02  0.7546771E-02  0.1528584E+00
          2   -1    0    0  502    0  0.00000000000E+00  0.00000000000E+00  0.11085179332E+04  0.11085179332E+04  0.00000000000E+00 0. -1.
          1   -1    0    0  501    0 -0.00000000000E+00 -0.00000000000E+00 -0.58544421221E+01  0.58544421221E+01  0.00000000000E+00 0. -1.
          2    1    1    2  501    0  0.77641405955E+01  0.18822733479E+02  0.10904272203E+04  0.10906173023E+04  0.00000000000E+00 0. -1.
          1    1    1    2  502    0 -0.77641405955E+01 -0.18822733479E+02  0.12236270789E+02  0.23755073093E+02  0.00000000000E+00 0. -1.
</event>
<event>
 4    1  0.7181337E+003  0.2209756E+02  0.7546771E-02  0.1504152E+00
          2   -1    0    0  502    0  0.00000000000E+00  0.00000000000E+00  0.72848854741E+03  0.72848854741E+03  0.00000000000E+00 0. -1.
          1   -1    0    0  501    0 -0.00000000000E+00 -0.00000000000E+00 -0.22108500912E+02  0.22108500912E+02  0.00000000000E+00 0.  1.
          2    1    1    2  501    0  0.19676172020E+02  0.10057356621E+02  0.72275552898E+03  0.72309325597E+03  0.00000000000E+00 0. -1.
          1    1    1    2  502    0 -0.19676172020E+02 -0.10057356621E+02 -0.16375482474E+02  0.27503792354E+02  0.00000000000E+00 0.  1.
</event>
<event>
 4    1  0.7181337E+003  0.3711147E+02  0.7546771E-02  0.1366298E+00
          2   -1    0    0  502    0  0.00000000000E+00  0.00000000000E+00  0.11291725234E+02  0.11291725234E+02  0.00000000000E+00 0.  1.
          1   -1    0    0  501    0 -0.00000000000E+00 -0.00000000000E+00 -0.25153566233E+03  0.25153566233E+03  0.00000000000E+00 0.  1.
          2    1    1    2  501    0  0.36165473010E+02  0.83258331504E+01 -0.25806173105E+02  0.45201985643E+02  0.00000000000E+00 0.  1.
          1    1    1    2  502    0 -0.36165473010E+02 -0.83258331504E+01 -0.21443776399E+03  0.21762540192E+03  0.00000000000E+00 0.  1.
</event>
<event>
 4    1  0.7181337E+003  0.4579614E+02  0.7546771E-02  0.1317506E+00
          2   -1    0    0  502    0  0.00000000000E+00  0.00000000000E+00  0.30757680977E+01  0.30757680977E+01  0.00000000000E+00 0.  1.
          1   -1    0    0  501    0 -0.00000000000E+00 -0.00000000000E+00 -0.71552032606E+03  0.71552032606E+03  0.00000000000E+00 0.  1.
          2    1    1    2  501    0 -0.34054750629E+02  0.30619606068E+02 -0.27830879030E+03  0.28205153621E+03  0.00000000000E+00 0.  1.
          1    1    1    2  502    0  0.34054750629E+02 -0.30619606068E+02 -0.43413576766E+03  0.43654455795E+03  0.00000000000E+00 0.  1.
</event>
<event>
 4    1  0.1087058E+004  0.2379343E+02  0.7546771E-02  0.1482768E+00
          2   -1    0    0  502    0  0.00000000000E+00  0.00000000000E+00  0.39334762817E+03  0.39334762817E+03  0.00000000000E+00 0.  1.
          1   -1    0    0  501    0 -0.00000000000E+00 -0.00000000000E+00 -0.65400769598E+03  0.65400769598E+03  0.00000000000E+00 0. -1.
          2    1    1    2  501    0 -0.21186769245E+02  0.10828109162E+02  0.39277109040E+03  0.39349111374E+03  0.00000000000E+00 0.  1.
          1    1    1    2  502    0  0.21186769245E+02 -0.10828109162E+02 -0.65343115820E+03  0.65386421041E+03  0.00000000000E+00 0. -1.
</event>
<event>
 4    1  0.7181337E+003  0.2069721E+02  0.7546771E-02  0.1523632E+00
          2   -1    0    0  502    0  0.00000000000E+00  0.00000000000E+00  0.15675354653E+03  0.15675354653E+03  0.00000000000E+00 0.  1.
          1   -1    0    0  501    0 -0.00000000000E+00 -0.00000000000E+00 -0.31520727965E+02  0.31520727965E+02  0.00000000000E+00 0. -1.
          2    1    1    2  501    0  0.19990522816E+01  0.20600445237E+02  0.15258028259E+03  0.15397765159E+03  0.00000000000E+00 0.  1.
          1    1    1    2  502    0 -0.19990522816E+01 -0.20600445237E+02 -0.27347464025E+02  0.34296622904E+02  0.00000000000E+00 0. -1.
</event>
<event>
 4    1  0.7181337E+003  0.2750735E+02  0.7546771E-02  0.1442577E+00
          2   -1    0    0  502    0  0.00000000000E+00  0.00000000000E+00  0.17695673306E+04  0.17695673306E+04  0.00000000000E+00 0. -1.
          1   -1    0    0  501    0 -0.00000000000E+00 -0.00000000000E+00 -0.33747237800E+02  0.33747237800E+02  0.00000000000E+00 0.  1.
          2    1    1    2  501    0  0.27200881013E+02  0.40947006738E+01  0.17638369158E+04  0.17640513938E+04  0.00000000000E+00 0. -1.
          1    1    1    2  502    0 -0.27200881013E+02 -0.40947006738E+01 -0.28016823041E+02  0.39263174538E+02  0.00000000000E+00 0.  1.
</event>
<event>
 4    1  0.7181337E+003  0.3643769E+02  0.7546771E-02  0.1370728E+00
          2   -1    0    0  502    0  0.00000000000E+00  0.00000000000E+00  0.10750998740E+03  0.10750998740E+03  0.00000000000E+00 0.  1.
          1   -1    0    0  501    0 -0.00000000000E+00 -0.00000000000E+00 -0.73075884424E+02  0.73075884424E+02  0.00000000000E+00 0. -1.
          2    1    1    2  501    0 -0.10347818997E+02 -0.34937481202E+02  0.99527525363E+02  0.10598789202E+03  0.00000000000E+00 0.  1.
          1    1    1    2  502    0  0.10347818997E+02  0.34937481202E+02 -0.65093422393E+02  0.74597979795E+02  0.00000000000E+00 0. -1.
</event>
<event>
 4    1  0.7181337E+003  0.2888963E+02  0.7546771E-02  0.1429497E+00
          2   -1    0    0  502    0  0.00000000000E+00  0.00000000000E+00  0.14265163376E+04  0.14265163376E+04  0.00000000000E+00 0.  1.
          1   -1    0    0  501    0 -0.00000000000E+00 -0.00000000000E+00 -0.58626908679E+00  0.58626908679E+00  0.00000000000E+00 0. -1.
          2    1    1    2  501    0  0.28359781484E+02 -0.55076008884E+01  0.74524507187E+03  0.74580481899E+03  0.00000000000E+00 0.  1.
          1    1    1    2  502    0 -0.28359781484E+02  0.55076008884E+01  0.68068499662E+03  0.68129778768E+03  0.00000000000E+00 0. -1.
</event>
<event>
 4    1  0.7181337E+003  0.2303478E+02  0.7546771E-02  0.1492062E+00
          2   -1    0    0  502    0  0.00000000000E+00  0.00000000000E+00  0.12416403074E+02  0.12416403074E+02  0.00000000000E+00 0.  1.
          1   -1    0    0  501    0 -0.00000000000E+00 -0.00000000000E+00 -0.17018937480E+03  0.17018937480E+03  0.00000000000E+00 0. -1.
          2    1    1    2  501    0 -0.78458829363E+01  0.21657403585E+02  0.12633904006E+00  0.23035124715E+02  0.00000000000E+00 0.  1.
          1    1    1    2  502    0  0.78458829363E+01 -0.21657403585E+02 -0.15789931076E+03  0.15957065316E+03  0.00000000000E+00 0. -1.
</event>
<event>
 4    1  0.7181337E+003  0.2171870E+02  0.7546771E-02  0.1509246E+00
          2   -1    0    0  502    0  0.00000000000E+00  0.00000000000E+00  0.57663462320E+03  0.57663462320E+03  0.00000000000E+00 0. -1.
          1   -1    0    0  501    0 -0.00000000000E+00 -0.00000000000E+00 -0.65474386748E+02  0.65474386748E+02  0.00000000000E+00 0.  1.
          2    1    1    2  501    0  0.29271484025E+01  0.21520546107E+02  0.57462271885E+03  0.57503301742E+03  0.00000000000E+00 0. -1.
          1    1    1    2  502    0 -0.29271484025E+01 -0.21520546107E+02 -0.63462482395E+02  0.67075992533E+02  0.00000000000E+00 0.  1.
</event>
<event>
 4    1  0.7181337E+003  0.2342567E+02  0.7546771E-02  0.1487221E+00
          2   -1    0    0  502    0  0.00000000000E+00  0.00000000000E+00  0.16941851671E+04  0.16941851671E+04  0.00000000000E+00 0.  1.
          1   -1    0    0  501    0 -0.00000000000E+00 -0.00000000000E+00 -0.18495744192E+02  0.18495744192E+02  0.00000000000E+00 0.  1.
          2    1    1    2  501    0 -0.21507241524E+02  0.92844345864E+01  0.16866536588E+04  0.16868163287E+04  0.00000000000E+00 0.  1.
          1    1    1    2  502    0  0.21507241524E+02 -0.92844345864E+01 -0.10964235869E+02  0.25864582575E+02  0.00000000000E+00 0.  1.
</event>
<event>
 4    1  0.7181337E+003  0.2111415E+02  0.7546771E-02  0.1517641E+00
          2   -1    0    0  502    0  0.00000000000E+00  0.00000000000E+00  0.12459334932E+04  0.12459334932E+04  0.00000000000E+00 0. -1.
          1   -1    0    0  501    0 -0.00000000000E+00 -0.00000000000E+00 -0.31097403434E+01  0.31097403434E+01  0.00000000000E+00 0.  1.
          2    1    1    2  501    0 -0.18947384138E+02  0.93168643860E+01  0.12089068272E+04  0.12090911976E+04  0.00000000000E+00 0. -1.
          1    1    1    2  502    0  0.18947384138E+02 -0.93168643860E+01  0.33916925636E+02  0.39952035896E+02  0.00000000000E+00 0.  1.
</event>
<event>
 4    1  0.7181337E+003  0.2629069E+02  0.7546771E-02  0.1454866E+00
          2   -1    0    0  502    0  0.00000000000E+00  0.00000000000E+00  0.22109612551E+03  0.22109612551E+03  0.00000000000E+00 0. -1.
          1   -1    0    0  501    0 -0.00000000000E+00 -0.00000000000E+00 -0.41535575935E+01  0.41535575935E+01  0.00000000000E+00 0. -1.
          2    1    1    2  501    0 -0.25517358524E+02  0.63296594357E+01  0.16448260835E+03  0.16657049146E+03  0.00000000000E+00 0. -1.
          1    1    1    2  502    0  0.25517358524E+02 -0.63296594357E+01  0.52459959568E+02  0.58679191649E+02  0.00000000000E+00 0. -1.
</event>
<event>
 4    1  0.7181337E+003  0.4506099E+02  0.7546771E-02  0.1321135E+00
          2   -1    0    0  502    0  0.00000000000E+00  0.00000000000E+00  0.11999498638E+03  0.11999498638E+03  0.00000000000E+00 0. -1.
          1   -1    0    0  501    0 -0.00000000000E+00 -0.00000000000E+00 -0.28786997398E+03  0.28786997398E+03  0.00000000000E+00 0.  1.
          2    1    1    2  501    0 -0.43604399781E+02 -0.11364398347E+02  0.11391046972E+03  0.12249934017E+03  0.00000000000E+00 0. -1.
          1    1    1    2  502    0  0.43604399781E+02  0.11364398347E+02 -0.28178545732E+03  0.28536562019E+03  0.00000000000E+00 0.  1.
</event>
<event>
 4    1  0.7181337E+003  0.2392483E+02  0.7546771E-02  0.1481200E+00
          2   -1    0    0  502    0  0.00000000000E+00  0.00000000000E+00  0.22658325441E+02  0.22658325441E+02  0.00000000000E+00 0. -1.
          1   -1    0    0  501    0 -0.00000000000E+00 -0.00000000000E+00 -0.14290089681E+03  0.14290089681E+03  0.00000000000E+00 0.  1.
          2    1    1    2  501    0 -0.16558566485E+02 -0.17268801878E+02  0.14985837891E+02  0.28230709868E+02  0.00000000000E+00 0. -1.
          1    1    1    2  502    0  0.16558566485E+02  0.17268801878E+02 -0.13522840926E+03  0.13732851238E+03  0.00000000000E+00 0.  1.
</event>
<event>
 4    1  0.7181337E+003  0.5526419E+02  0.7546771E-02  0.1276832E+00
          2   -1    0    0  502    0  0.00000000000E+00  0.00000000000E+00  0.26352068204E+03  0.26352068204E+03  0.00000000000E+00 0.  1.
          1   -1    0    0  501    0 -0.00000000000E+00 -0.00000000000E+00 -0.80466990381E+03  0.80466990381E+03  0.00000000000E+00 0.  1.
          2    1    1    2  501    0  0.51875576921E+02  0.19054001593E+02  0.25966042537E+03  0.26547630207E+03  0.00000000000E+00 0.  1.
          1    1    1    2  502    0 -0.51875576921E+02 -0.19054001593E+02 -0.80080964713E+03  0.80271428379E+03  0.00000000000E+00 0.  1.
</event>
<event>
 4    1  0.7181337E+003  0.2818967E+02  0.7546771E-02  0.1436010E+00
          2   -1    0    0  502    0  0.00000000000E+00  0.00000000000E+00  0.15556190607E+04  0.15556190607E+04  0.00000000000E+00 0.  1.
          1   -1    0    0  501    0 -0.00000000000E+00 -0.00000000000E+00 -0.60482411863E+02  0.60482411863E+02  0.00000000000E+00 0. -1.
          2    1    1    2  501    0  0.33439393743E+01  0.27990634205E+02  0.15521994536E+04  0.15524554104E+04  0.00000000000E+00 0.  1.
          1    1    1    2  502    0 -0.33439393743E+01 -0.27990634205E+02 -0.57062804793E+02  0.63646062129E+02  0.00000000000E+00 0. -1.
</event>
<event>
 4    1  0.1145850E+004  0.2376592E+02  0.7546771E-02  0.1483098E+00
          2   -1    0    0  502    0  0.00000000000E+00  0.00000000000E+00  0.80169462004E+03  0.80169462004E+03  0.00000000000E+00 0. -1.
          1   -1    0    0  501    0 -0.00000000000E+00 -0.00000000000E+00 -0.57189277684E+03  0.57189277684E+03  0.00000000000E+00 0.  1.
          2    1    1    2  501    0 -0.12014355926E+02 -0.20505471509E+02  0.80127144901E+03  0.80162382332E+03  0.00000000000E+00 0. -1.
          1    1    1    2  502    0  0.12014355926E+02  0.20505471509E+02 -0.57146960581E+03  0.57196357356E+03  0.00000000000E+00 0.  1.
</event>
<event>
 4    1  0.7181337E+003  0.2786422E+02  0.7546771E-02  0.1439115E+00
          2   -1    0    0  502    0  0.00000000000E+00  0.00000000000E+00  0.46847654953E+02  0.46847654953E+02  0.00000000000E+00 0.  1.
          1   -1    0    0  501    0 -0.00000000000E+00 -0.00000000000E+00 -0.48076818443E+03  0.48076818443E+03  0.00000000000E+00 0.  1.
          2    1    1    2  501    0  0.14879230623E+02 -0.23558927264E+02  0.42260746847E+02  0.50620008710E+02  0.00000000000E+00 0.  1.
          1    1    1    2  502    0 -0.14879230623E+02  0.23558927264E+02 -0.47618127632E+03  0.47699583067E+03  0.00000000000E+00 0.  1.
</event>
<event>
 4    1  0.7181337E+003  0.5758442E+02  0.7546771E-02  0.1268268E+00
          2   -1    0    0  502    0  0.00000000000E+00  0.00000000000E+00  0.91031248342E+03  0.91031248342E+03  0.00000000000E+00 0. -1.
          1   -1    0    0  501    0 -0.00000000000E+00 -0.00000000000E+00 -0.88649042765E+02  0.88649042765E+02  0.00000000000E+00 0.  1.
          2    1    1    2  501    0 -0.24999897864E+02 -0.51874569030E+02  0.89994278776E+03  0.90178322620E+03  0.00000000000E+00 0. -1.
          1    1    1    2  502    0  0.24999897864E+02  0.51874569030E+02 -0.78279347106E+02  0.97178299988E+02  0.00000000000E+00 0.  1.
</event>
<event>
 4    1  0.7181337E+003  0.3039515E+02  0.7546771E-02  0.1416193E+00
          2   -1    0    0  502    0  0.00000000000E+00  0.00000000000E+00  0.97816984202E+02  0.97816984202E+02  0.00000000000E+00 0. -1.
          1   -1    0    0  501    0 -0.00000000000E+00 -0.00000000000E+00 -0.23919973910E+02  0.23919973910E+02  0.00000000000E+00 0. -1.
          2    1    1    2  501    0 -0.22755610341E+02  0.20150616902E+02  0.84298887088E+02  0.89611202022E+02  0.00000000000E+00 0. -1.
          1    1    1    2  502    0  0.22755610341E+02 -0.20150616902E+02 -0.10401876796E+02  0.32125756091E+02  0.00000000000E+00 0. -1.
</event>
<event>
 4    1  0.7181337E+003  0.2416922E+02  0.7546771E-02  0.1478316E+00
          2   -1    0    0  502    0  0.00000000000E+00  0.00000000000E+00  0.15668578084E+04  0.15668578084E+04  0.00000000000E+00 0.  1.
          1   -1    0    0  501    0 -0.00000000000E+00 -0.00000000000E+00 -0.31826006589E+01  0.31826006589E+01  0.00000000000E+00 0.  1.
          2    1    1    2  501    0 -0.23029029010E+02  0.73358640307E+01  0.15194466070E+04  0.15196388197E+04  0.00000000000E+00 0.  1.
          1    1    1    2  502    0  0.23029029010E+02 -0.73358640307E+01  0.44228600785E+02  0.50401589316E+02  0.00000000000E+00 0.  1.
</event>
<event>
 4    1  0.7181337E+003  0.3545880E+02  0.7546771E-02  0.1377366E+00
          2   -1    0    0  502    0  0.00000000000E+00  0.00000000000E+00  0.60420346600E+03  0.60420346600E+03  0.00000000000E+00 0. -1.
          1   -1    0    0  501    0 -0.00000000000E+00 -0.00000000000E+00 -0.10127738182E+02  0.10127738182E+02  0.00000000000E+00 0. -1.
          2    1    1    2  501    0  0.27169488858E+01  0.35354555960E+02  0.57083393956E+03  0.57193418589E+03  0.00000000000E+00 0. -1.
          1    1    1    2  502    0 -0.27169488858E+01 -0.35354555960E+02  0.23241788256E+02  0.42397018288E+02  0.00000000000E+00 0. -1.
</event>
<event>
 4    1  0.7181337E+003  0.2155362E+02  0.7546771E-02  0.1511505E+00
          2   -1    0    0  502    0  0.00000000000E+00  0.00000000000E+00  0.31860516763E+02  0.31860516763E+02  0.00000000000E+00 0.  1.
          1   -1    0    0  501    0 -0.00000000000E+00 -0.00000000000E+00 -0.43791435891E+02  0.43791435891E+02  0.00000000000E+00 0. -1.
          2    1    1    2  501    0  0.21121937460E+01 -0.21449874016E+02  0.24927855329E+02  0.32953853022E+02  0.00000000000E+00 0.  1.
          1    1    1    2  502    0 -0.21121937460E+01  0.21449874016E+02 -0.36858774456E+02  0.42698099632E+02  0.00000000000E+00 0. -1.
</event>
<event>
 4    1  0.7181337E+003  0.2823741E+02  0.7546771E-02  0.1435559E+00
          2   -1    0    0  502    0  0.00000000000E+00  0.00000000000E+00  0.41694892306E+02  0.41694892306E+02  0.00000000000E+00 0.  1.
          1   -1    0    0  501    0 -0.00000000000E+00 -0.00000000000E+00 -0.26674473622E+03  0.26674473622E+03  0.00000000000E+00 0. -1.
          2    1    1    2  501    0  0.30834969960E+01  0.28068548991E+02  0.36063923716E+02  0.45803471375E+02  0.00000000000E+00 0.  1.
          1    1    1    2  502    0 -0.30834969960E+01 -0.28068548991E+02 -0.26111376763E+03  0.26263615715E+03  0.00000000000E+00 0. -1.
</event>
<event>
 4    1  0.7181337E+003  0.3138000E+02  0.7546771E-02  0.1407972E+00
          2   -1    0    0  502    0  0.00000000000E+00  0.00000000000E+00  0.32238453350E+02  0.32238453350E+02  0.00000000000E+00 0. -1.
          1   -1    0    0  501    0 -0.00000000000E+00 -0.00000000000E+00 -0.39080713803E+02  0.39080713803E+02  0.00000000000E+00 0. -1.
          2    1    1    2  501    0 -0.26861992755E+02 -0.16221520793E+02  0.13244819588E+02  0.34060675823E+02  0.00000000000E+00 0. -1.
          1    1    1    2  502    0  0.26861992755E+02  0.16221520793E+02 -0.20087080042E+02  0.37258491330E+02  0.00000000000E+00 0. -1.
</event>
<event>
 4    1  0.7181337E+003  0.2681720E+02  0.7546771E-02  0.1449453E+00
          2   -1    0    0  502    0  0.00000000000E+00  0.00000000000E+00  0.89849865649E+01  0.89849865649E+01  0.00000000000E+00 0. -1.
          1   -1    0    0  501    0 -0.00000000000E+00 -0.00000000000E+00 -0.11820011175E+04  0.11820011175E+04  0.00000000000E+00 0.  1.
          2    1    1    2  501    0 -0.21244809251E+02  0.16365221425E+02 -0.11530630258E+02  0.29191057305E+02  0.00000000000E+00 0. -1.
          1    1    1    2  502    0  0.21244809251E+02 -0.16365221425E+02 -0.11614855006E+04  0.11617950467E+04  0.00000000000E+00 0.  1.
</event>
<event>
 4    1  0.7181337E+003  0.2652927E+02  0.7546771E-02  0.1452395E+00
          2   -1    0    0  502    0  0.00000000000E+00  0.00000000000E+00  0.55346918216E+01  0.55346918216E+01  0.00000000000E+00 0. -1.
          1   -1    0    0  501    0 -0.00000000000E+00 -0.00000000000E+00 -0.22271987003E+03  0.22271987003E+03  0.00000000000E+00 0.  1.
          2    1    1    2  501    0 -0.21701624560E+02  0.15259154287E+02 -0.33837064455E+02  0.42997083960E+02  0.00000000000E+00 0. -1.
          1    1    1    2  502    0  0.21701624560E+02 -0.15259154287E+02 -0.18334811375E+03  0.18525747789E+03  0.00000000000E+00 0.  1.
</event>
<event>
 4    1  0.7181337E+003  0.2075750E+02  0.7546771E-02  0.1522755E+00
          2   -1    0    0  502    0  0.00000000000E+00  0.00000000000E+00  0.72909326867E+02  0.72909326867E+02  0.00000000000E+00 0.  1.
          1   -1    0    0  501    0 -0.00000000000E+00 -0.00000000000E+00 -0.12256923313E+02  0.12256923313E+02  0.00000000000E+00 0.  1.
          2    1    1    2  501    0 -0.20197009845E+02  0.47911033667E+01  0.60969670240E+02  0.64406323969E+02  0.00000000000E+00 0.  1.
          1    1    1    2  502    0  0.20197009845E+02 -0.47911033667E+01 -0.31726668606E+00  0.20759926211E+02  0.00000000000E+00 0.  1.
</event>
<event>
 4    1  0.7181337E+003  0.2320735E+02  0.7546771E-02  0.1489911E+00
          2   -1    0    0  502    0  0.00000000000E+00  0.00000000000E+00  0.14355446283E+03  0.14355446283E+03  0.00000000000E+00 0. -1.
          1   -1    0    0  501    0 -0.00000000000E+00 -0.00000000000E+00 -0.38956734721E+01  0.38956734721E+01  0.00000000000E+00 0. -1.
          2    1    1    2  501    0  0.21883927921E+02 -0.77249017435E+01  0.55658729907E+02  0.60303189162E+02  0.00000000000E+00 0. -1.
          1    1    1    2  502    0 -0.21883927921E+02  0.77249017435E+01  0.84000059450E+02  0.87146947140E+02  0.00000000000E+00 0. -1.
</event>
<event>
 4    1  0.7181337E+003  0.2931555E+02  0.7546771E-02  0.1425639E+00
          2   -1    0    0  502    0  0.00000000000E+00  0.00000000000E+00  0.78382495929E+01  0.78382495929E+01  0.00000000000E+00 0.  1.
          1   -1    0    0  501    0 -0.00000000000E+00 -0.00000000000E+00 -0.76192253824E+03  0.76192253824E+03  0.00000000000E+00 0. -1.
          2    1    1    2  501    0  0.25402614549E+02 -0.14632454743E+02 -0.20929347471E+02  0.36019982556E+02  0.00000000000E+00 0.  1.
          1    1    1    2  502    0 -0.25402614549E+02  0.14632454743E+02 -0.73315494118E+03  0.73374080528E+03  0.00000000000E+00 0. -1.
</event>
<event>
 4    1  0.7181337E+003  0.2101330E+02  0.7546771E-02  0.1519075E+00
          2   -1    0    0  502    0  0.00000000000E+00  0.00000000000E+00  0.13072349329E+04  0.13072349329E+04  0.00000000000E+00 0.  1.
          1   -1    0    0  501    0 -0.00000000000E+00 -0.00000000000E+00 -0.20028165807E+01  0.20028165807E+01  0.00000000000E+00 0.  1.
          2    1    1    2  501    0 -0.20948264334E+02  0.16520283097E+01  0.12494859994E+04  0.12496626831E+04  0.00000000000E+00 0.  1.
          1    1    1    2  502    0  0.20948264334E+02 -0.16520283097E+01  0.55746116936E+02  0.59575066341E+02  0.00000000000E+00 0.  1.
</event>
<event>
 4    1  0.7181337E+003  0.2180432E+02  0.7546771E-02  0.1508084E+00
          2   -1    0    0  502    0  0.00000000000E+00  0.00000000000E+00  0.88463393499E+02  0.88463393499E+02  0.00000000000E+00 0. -1.
          1   -1    0    0  501    0 -0.00000000000E+00 -0.00000000000E+00 -0.27477429692E+02  0.27477429692E+02  0.00000000000E+00 0. -1.
          2    1    1    2  501    0  0.12106543395E+02 -0.18134495173E+02  0.82486029387E+02  0.85319243739E+02  0.00000000000E+00 0. -1.
          1    1    1    2  502    0 -0.12106543395E+02  0.18134495173E+02 -0.21500065580E+02  0.30621579452E+02  0.00000000000E+00 0. -1.
</event>
<event>
 4    1  0.7181337E+003  0.2189260E+02  0.7546771E-02  0.1506892E+00
          2   -1    0    0  502    0  0.00000000000E+00  0.00000000000E+00  0.99256757176E+03  0.99256757176E+03  0.00000000000E+00 0.  1.
          1   -1    0    0  501    0 -0.00000000000E+00 -0.00000000000E+00 -0.97047665572E+01  0.97047665572E+01  0.00000000000E+00 0.  1.
          2    1    1    2  501    0  0.97636803603E+01 -0.19594811766E+02  0.97994111969E+03  0.98018563760E+03  0.00000000000E+00 0.  1.
          1    1    1    2  502    0 -0.97636803603E+01  0.19594811766E+02  0.29216855150E+01  0.22086700717E+02  0.00000000000E+00 0.  1.
</event>
<event>
 4    1  0.7181337E+003  0.2182593E+02  0.7546771E-02  0.1507792E+00
          2   -1    0    0  502    0  0.00000000000E+00  0.00000000000E+00  0.10824067893E+03  0.10824067893E+03  0.00000000000E+00 0.  1.
          1   -1    0    0  501    0 -0.00000000000E+00 -0.00000000000E+00 -0.14213274213E+02  0.14213274213E+02  0.00000000000E+00 0.  1.
          2    1    1    2  501    0 -0.63452753559E+01 -0.20883213765E+02  0.97885816441E+02  0.10028960164E+03  0.00000000000E+00 0.  1.
          1    1    1    2  502    0  0.63452753559E+01  0.20883213765E+02 -0.38584117262E+01  0.22164351503E+02  0.00000000000E+00 0.  1.
</event>
<event>
 4    1  0.7181337E+003  0.8046325E+02  0.7546771E-02  0.1202776E+00
          2   -1    0    0  502    0  0.00000000000E+00  0.00000000000E+00  0.85920713544E+03  0.85920713544E+03  0.00000000000E+00 0. -1.
          1   -1    0    0  501    0 -0.00000000000E+00 -0.00000000000E+00 -0.62018749313E+02  0.62018749313E+02  0.00000000000E+00 0. -1.
          2    1    1    2  501    0 -0.50141305433E+02 -0.62929993404E+02  0.83031915424E+03  0.83420874635E+03  0.00000000000E+00 0. -1.
          1    1    1    2  502    0  0.50141305433E+02  0.62929993404E+02 -0.33130768116E+02  0.87017138406E+02  0.00000000000E+00 0. -1.
</event>
<event>
 4    1  0.7181337E+003  0.2037006E+02  0.7546771E-02  0.1528452E+00
          2   -1    0    0  502    0  0.00000000000E+00  0.00000000000E+00  0.18183572027E+04  0.18183572027E+04  0.00000000000E+00 0. -1.
          1   -1    0    0  501    0 -0.00000000000E+00 -0.00000000000E+00 -0.22835587484E+00  0.22835587484E+00  0.00000000000E+00 0. -1.
          2    1    1    2  501    0 -0.45266857778E+01  0.19860726899E+02  0.93322652117E+03  0.93344880908E+03  0.00000000000E+00 0. -1.
          1    1    1    2  502    0  0.45266857778E+01 -0.19860726899E+02  0.88490232565E+03  0.88513674949E+03  0.00000000000E+00 0. -1.
</event>
<event>
 4    1  0.7181337E+003  0.2433977E+02  0.7546771E-02  0.1476327E+00
          2   -1    0    0  502    0  0.00000000000E+00  0.00000000000E+00  0.75877428315E+02  0.75877428315E+02  0.00000000000E+00 0.  1.
          1   -1    0    0  501    0 -0.00000000000E+00 -0.00000000000E+00 -0.29672490536E+02  0.29672490536E+02  0.00000000000E+00 0.  1.
          2    1    1    2  501    0 -0.24107695843E+01  0.24220084623E+02  0.68405167973E+02  0.72606413728E+02  0.00000000000E+00 0.  1.
          1    1    1    2  502    0  0.24107695843E+01 -0.24220084623E+02 -0.22200230194E+02  0.32943505123E+02  0.00000000000E+00 0.  1.
</event>
<event>
 4    1  0.7181337E+003  0.2377952E+02  0.7546771E-02  0.1482935E+00
          2   -1    0    0  502    0  0.00000000000E+00  0.00000000000E+00  0.12036600503E+04  0.12036600503E+04  0.00000000000E+00 0. -1.
          1   -1    0    0  501    0 -0.00000000000E+00 -0.00000000000E+00 -0.38920793685E+01  0.38920793685E+01  0.00000000000E+00 0. -1.
          2    1    1    2  501    0 -0.23160301294E+02 -0.53913023789E+01  0.11660496206E+04  0.11662920661E+04  0.00000000000E+00 0. -1.
          1    1    1    2  502    0  0.23160301294E+02  0.53913023789E+01  0.33718350267E+02  0.41260063525E+02  0.00000000000E+00 0. -1.
</event>
<event>
 4    1  0.7181337E+003  0.2059908E+02  0.7546771E-02  0.1525067E+00
          2   -1    0    0  502    0  0.00000000000E+00  0.00000000000E+00  0.28418393295E+01  0.28418393295E+01  0.00000000000E+00 0.  1.
          1   -1    0    0  501    0 -0.00000000000E+00 -0.00000000000E+00 -0.13179947218E+04  0.13179947218E+04  0.00000000000E+00 0.  1.
          2    1    1    2  501    0  0.25776341908E+00  0.20597462303E+02 -0.35690863593E+02  0.41208732561E+02  0.00000000000E+00 0.  1.
          1    1    1    2  502    0 -0.25776341908E+00 -0.20597462303E+02 -0.12794620189E+04  0.12796278286E+04  0.00000000000E+00 0.  1.
</event>
<event>
 4    1  0.7181337E+003  0.2734693E+02  0.7546771E-02  0.1444154E+00
          2   -1    0    0  502    0  0.00000000000E+00  0.00000000000E+00  0.31474678008E+02  0.31474678008E+02  0.00000000000E+00 0. -1.
          1   -1    0    0  501    0 -0.00000000000E+00 -0.00000000000E+00 -0.39199976949E+02  0.39199976949E+02  0.00000000000E+00 0. -1.
          2    1    1    2  501    0 -0.26663717025E+02 -0.60746108759E+01  0.18314555572E+02  0.32913183509E+02  0.00000000000E+00 0. -1.
          1    1    1    2  502    0  0.26663717025E+02  0.60746108759E+01 -0.26039854513E+02  0.37761471448E+02  0.00000000000E+00 0. -1.
</event>
<event>
 4    1  0.7181337E+003  0.2845029E+02  0.7546771E-02  0.1433560E+00
          2   -1    0    0  502    0  0.00000000000E+00  0.00000000000E+00  0.18411134396E+03  0.18411134396E+03  0.00000000000E+00 0. -1.
          1   -1    0    0  501    0 -0.00000000000E+00 -0.00000000000E+00 -0.90074415105E+01  0.90074415105E+01  0.00000000000E+00 0. -1.
          2    1    1    2  501    0 -0.26525401304E+02  0.10286975390E+02  0.15663881028E+03  0.15920155672E+03  0.00000000000E+00 0. -1.
          1    1    1    2  502    0  0.26525401304E+02 -0.10286975390E+02  0.18465092166E+02  0.33917228744E+02  0.00000000000E+00 0. -1.
</event>
<event>
 4    1  0.7181337E+003  0.2031906E+02  0.7546771E-02  0.1529213E+00
          2   -1    0    0  502    0  0.00000000000E+00  0.00000000000E+00  0.14237587197E+01  0.14237587197E+01  0.00000000000E+00 0.  1.
          1   -1    0    0  501    0 -0.00000000000E+00 -0.00000000000E+00 -0.40473569320E+03  0.40473569320E+03  0.00000000000E+00 0.  1.
          2    1    1    2  501    0 -0.17402825323E+02  0.10488371314E+02 -0.93521452359E+02  0.95703324463E+02  0.00000000000E+00 0.  1.
          1    1    1    2  502    0  0.17402825323E+02 -0.10488371314E+02 -0.30979048212E+03  0.31045612746E+03  0.00000000000E+00 0.  1.
</event>
<event>
 4    1  0.7181337E+003  0.2190505E+02  0.7546771E-02  0.1506725E+00
          2   -1    0    0  502    0  0.00000000000E+00  0.00000000000E+00  0.15827809353E+01  0.15827809353E+01  0.00000000000E+00 0.  1.
          1   -1    0    0  501    0 -0.00000000000E+00 -0.00000000000E+00 -0.58147713332E+03  0.58147713332E+03  0.00000000000E+00 0.  1.
          2    1    1    2  501    0 -0.43836279527E+00  0.21900659503E+02 -0.88254924028E+02  0.90932737030E+02  0.00000000000E+00 0.  1.
          1    1    1    2  502    0  0.43836279527E+00 -0.21900659503E+02 -0.49163942836E+03  0.49212717723E+03  0.00000000000E+00 0.  1.
</event>
<event>
 4    1  0.7181337E+003  0.3675058E+02  0.7546771E-02  0.1368657E+00
          2   -1    0    0  502    0  0.00000000000E+00  0.00000000000E+00  0.39641647552E+03  0.39641647552E+03  0.00000000000E+00 0.  1.
          1   -1    0    0  501    0 -0.00000000000E+00 -0.00000000000E+00 -0.31375629819E+02  0.31375629819E+02  0.00000000000E+00 0. -1.
          2    1    1    2  501    0  0.36509773166E+02  0.42001745408E+01  0.38446949568E+03  0.38622195447E+03  0.00000000000E+00 0.  1.
          1    1    1    2  502    0 -0.36509773166E+02 -0.42001745408E+01 -0.19428649987E+02  0.41570150867E+02  0.00000000000E+00 0. -1.
</event>
<event>
 4    1  0.7181337E+003  0.3624551E+02  0.7546771E-02  0.1372012E+00
          2   -1    0    0  502    0  0.00000000000E+00  0.00000000000E+00  0.38541322702E+03  0.38541322702E+03  0.00000000000E+00 0. -1.
          1   -1    0    0  501    0 -0.00000000000E+00 -0.00000000000E+00 -0.34782211174E+01  0.34782211174E+01  0.00000000000E+00 0. -1.
          2    1    1    2  501    0 -0.30388080945E+02  0.19756048546E+02  0.21846856752E+03  0.22145485299E+03  0.00000000000E+00 0. -1.
          1    1    1    2  502    0  0.30388080945E+02 -0.19756048546E+02  0.16346643838E+03  0.16743659515E+03  0.00000000000E+00 0. -1.
</event>
<event>
 4    1  0.7181337E+003  0.2231398E+02  0.7546771E-02  0.1501297E+00
          2   -1    0    0  502    0  0.00000000000E+00  0.00000000000E+00  0.15631559061E+03  0.15631559061E+03  0.00000000000E+00 0. -1.
          1   -1    0    0  501    0 -0.00000000000E+00 -0.00000000000E+00 -0.10545963009E+04  0.10545963009E+04  0.00000000000E+00 0. -1.
          2    1    1    2  501    0 -0.21417834051E+02 -0.62601955888E+01  0.15540053736E+03  0.15699439695E+03  0.00000000000E+00 0. -1.
          1    1    1    2  502    0  0.21417834051E+02  0.62601955888E+01 -0.10536812476E+04  0.10539174945E+04  0.00000000000E+00 0. -1.
</event>
<event>
 4    1  0.7181337E+003  0.2107005E+02  0.7546771E-02  0.1518267E+00
          2   -1    0    0  502    0  0.00000000000E+00  0.00000000000E+00  0.88999184229E+03  0.88999184229E+03  0.00000000000E+00 0.  1.
          1   -1    0    0  501    0 -0.00000000000E+00 -0.00000000000E+00 -0.28396556550E+01  0.28396556550E+01  0.00000000000E+00 0.  1.
          2    1    1    2  501    0 -0.20453721514E+02 -0.50588984401E+01  0.84889044237E+03  0.84915188884E+03  0.00000000000E+00 0.  1.
          1    1    1    2  502    0  0.20453721514E+02  0.50588984401E+01  0.38261744266E+02  0.43679609104E+02  0.00000000000E+00 0.  1.
</event>
<event>
 4    1  0.7181337E+003  0.2401168E+02  0.7546771E-02  0.1480171E+00
          2   -1    0    0  502    0  0.00000000000E+00  0.00000000000E+00  0.15284669832E+03  0.15284669832E+03  0.00000000000E+00 0.  1.
          1   -1    0    0  501    0 -0.00000000000E+00 -0.00000000000E+00 -0.37571250777E+02  0.37571250777E+02  0.00000000000E+00 0. -1.
          2    1    1    2  501    0 -0.23478411751E+02 -0.50323918692E+01  0.14794081749E+03  0.14987677027E+03  0.00000000000E+00 0.  1.
          1    1    1    2  502    0  0.23478411751E+02  0.50323918692E+01 -0.32665369953E+02  0.40541178824E+02  0.00000000000E+00 0. -1.
</event>
<event>
 4    1  0.7181337E+003  0.2465111E+02  0.7546771E-02  0.1472744E+00
          2   -1    0    0  502    0  0.00000000000E+00  0.00000000000E+00  0.22671319130E+04  0.22671319130E+04  0.00000000000E+00 0.  1.
          1   -1    0    0  501    0 -0.00000000000E+00 -0.00000000000E+00 -0.39741936640E+00  0.39741936640E+00  0.00000000000E+00 0. -1.
          2    1    1    2  501    0  0.15603219472E+02  0.19084470097E+02  0.17802630092E+04  0.17804336717E+04  0.00000000000E+00 0.  1.
          1    1    1    2  502    0 -0.15603219472E+02 -0.19084470097E+02  0.48647148449E+03  0.48709566071E+03  0.00000000000E+00 0. -1.
</event>
<event>
 4    1  0.7181337E+003  0.2297111E+02  0.7546771E-02  0.1492861E+00
          2   -1    0    0  502    0  0.00000000000E+00  0.00000000000E+00  0.14416315047E+02  0.14416315047E+02  0.00000000000E+00 0.  1.
          1   -1    0    0  501    0 -0.00000000000E+00 -0.00000000000E+00 -0.55151141579E+02  0.55151141579E+02  0.00000000000E+00 0.  1.
          2    1    1    2  501    0  0.72090866212E+01 -0.21810565650E+02 -0.19508051070E+00  0.22971934187E+02  0.00000000000E+00 0.  1.
          1    1    1    2  502    0 -0.72090866212E+01  0.21810565650E+02 -0.40539746022E+02  0.46595522439E+02  0.00000000000E+00 0.  1.
</event>
<event>
 4    1  0.7181337E+003  0.3088161E+02  0.7546771E-02  0.1412087E+00
          2   -1    0    0  502    0  0.00000000000E+00  0.00000000000E+00  0.12976314280E+04  0.12976314280E+04  0.00000000000E+00 0. -1.
          1   -1    0    0  501    0 -0.00000000000E+00 -0.00000000000E+00 -0.23241299373E+01  0.23241299373E+01  0.00000000000E+00 0. -1.
          2    1    1    2  501    0 -0.13734537469E+02 -0.27659295438E+02  0.11851270270E+04  0.11855293097E+04  0.00000000000E+00 0. -1.
          1    1    1    2  502    0  0.13734537469E+02  0.27659295438E+02  0.11018027108E+03  0.11442624821E+03  0.00000000000E+00 0. -1.
</event>
<event>
 4    1  0.7181337E+003  0.2157119E+02  0.7546771E-02  0.1511264E+00
          2   -1    0    0  502    0  0.00000000000E+00  0.00000000000E+00  0.87591355038E+03  0.87591355038E+03  0.00000000000E+00 0.  1.
          1   -1    0    0  501    0 -0.00000000000E+00 -0.00000000000E+00 -0.16401737157E+03  0.16401737157E+03  0.00000000000E+00 0.  1.
          2    1    1    2  501    0 -0.19207514207E+02 -0.98177287049E+01  0.87507080990E+03  0.87533664309E+03  0.00000000000E+00 0.  1.
          1    1    1    2  502    0  0.19207514207E+02  0.98177287049E+01 -0.16317463110E+03  0.16459427886E+03  0.00000000000E+00 0.  1.
</event>
<event>
 4    1  0.7181337E+003  0.2721075E+02  0.7546771E-02  0.1445503E+00
          2   -1    0    0  502    0  0.00000000000E+00  0.00000000000E+00  0.28572922116E+03  0.28572922116E+03  0.00000000000E+00 0. -1.
          1   -1    0    0  501    0 -0.00000000000E+00 -0.00000000000E+00 -0.22483378975E+02  0.22483378975E+02  0.00000000000E+00 0.  1.
          2    1    1    2  501    0  0.68450443538E+01 -0.26335722060E+02  0.27657656147E+03  0.27791189115E+03  0.00000000000E+00 0. -1.
          1    1    1    2  502    0 -0.68450443538E+01  0.26335722060E+02 -0.13330719282E+02  0.30300708988E+02  0.00000000000E+00 0.  1.
</event>
<event>
 4    1  0.7181337E+003  0.2176044E+02  0.7546771E-02  0.1508679E+00
          2   -1    0    0  502    0  0.00000000000E+00  0.00000000000E+00  0.23169984813E+01  0.23169984813E+01  0.00000000000E+00 0. -1.
          1   -1    0    0  501    0 -0.00000000000E+00 -0.00000000000E+00 -0.13455430859E+04  0.13455430859E+04  0.00000000000E+00 0. -1.
          2    1    1    2  501    0  0.18775250249E+02  0.11000297553E+02 -0.50969183908E+02  0.55419980841E+02  0.00000000000E+00 0. -1.
          1    1    1    2  502    0 -0.18775250249E+02 -0.11000297553E+02 -0.12922569035E+04  0.12924401035E+04  0.00000000000E+00 0. -1.
</event>
<event>
 4    1  0.7181337E+003  0.2143381E+02  0.7546771E-02  0.1513161E+00
          2   -1    0    0  502    0  0.00000000000E+00  0.00000000000E+00  0.12136049835E+03  0.12136049835E+03  0.00000000000E+00 0.  1.
          1   -1    0    0  501    0 -0.00000000000E+00 -0.00000000000E+00 -0.11825847958E+02  0.11825847958E+02  0.00000000000E+00 0. -1.
          2    1    1    2  501    0 -0.13914860210E+02  0.16302903559E+02  0.10967732830E+03  0.11175206638E+03  0.00000000000E+00 0.  1.
          1    1    1    2  502    0  0.13914860210E+02 -0.16302903559E+02 -0.14267789856E+00  0.21434279929E+02  0.00000000000E+00 0. -1.
</event>
<event>
 4    1  0.7181337E+003  0.2141681E+02  0.7546771E-02  0.1513396E+00
          2   -1    0    0  502    0  0.00000000000E+00  0.00000000000E+00  0.15343338593E+04  0.15343338593E+04  0.00000000000E+00 0.  1.
          1   -1    0    0  501    0 -0.00000000000E+00 -0.00000000000E+00 -0.40936398228E+01  0.40936398228E+01  0.00000000000E+00 0. -1.
          2    1    1    2  501    0 -0.13240407647E+01 -0.21375841790E+02  0.15057150087E+04  0.15058673140E+04  0.00000000000E+00 0.  1.
          1    1    1    2  502    0  0.13240407647E+01  0.21375841790E+02  0.24525210724E+02  0.32560185153E+02  0.00000000000E+00 0. -1.
</event>
<event>
 4    1  0.7181337E+003  0.3238376E+02  0.7546771E-02  0.1399952E+00
          2   -1    0    0  502    0  0.00000000000E+00  0.00000000000E+00  0.51045019944E+02  0.51045019944E+02  0.00000000000E+00 0. -1.
          1   -1    0    0  501    0 -0.00000000000E+00 -0.00000000000E+00 -0.44190172451E+02  0.44190172451E+02  0.00000000000E+00 0.  1.
          2    1    1    2  501    0  0.23818364089E+02  0.21940672838E+02  0.38259397387E+02  0.50124735220E+02  0.00000000000E+00 0. -1.
          1    1    1    2  502    0 -0.23818364089E+02 -0.21940672838E+02 -0.31404549894E+02  0.45110457175E+02  0.00000000000E+00 0.  1.
</event>
<event>
 4    1  0.7181337E+003  0.2118599E+02  0.7546771E-02  0.1516626E+00
          2   -1    0    0  502    0  0.00000000000E+00  0.00000000000E+00  0.29244986905E+03  0.29244986905E+03  0.00000000000E+00 0. -1.
          1   -1    0    0  501    0 -0.00000000000E+00 -0.00000000000E+00 -0.12480892404E+03  0.12480892404E+03  0.00000000000E+00 0. -1.
          2    1    1    2  501    0 -0.87343308359E+00  0.21167981871E+02  0.29116313895E+03  0.29193290295E+03  0.00000000000E+00 0. -1.
          1    1    1    2  502    0  0.87343308359E+00 -0.21167981871E+02 -0.12352219394E+03  0.12532589013E+03  0.00000000000E+00 0. -1.
</event>
<event>
 4    1  0.7181337E+003  0.2712332E+02  0.7546771E-02  0.1446373E+00
          2   -1    0    0  502    0  0.00000000000E+00  0.00000000000E+00  0.18976190350E+03  0.18976190350E+03  0.00000000000E+00 0.  1.
          1   -1    0    0  501    0 -0.00000000000E+00 -0.00000000000E+00 -0.70277839774E+01  0.70277839774E+01  0.00000000000E+00 0.  1.
          2    1    1    2  501    0 -0.24892257588E+02 -0.10772652661E+02  0.15725170435E+03  0.15957372295E+03  0.00000000000E+00 0.  1.
          1    1    1    2  502    0  0.24892257588E+02  0.10772652661E+02  0.25482415174E+02  0.37215964535E+02  0.00000000000E+00 0.  1.
</event>
<event>
 4    1  0.7181337E+003  0.3822634E+02  0.7546771E-02  0.1359205E+00
          2   -1    0    0  502    0  0.00000000000E+00  0.00000000000E+00  0.90330848870E+01  0.90330848870E+01  0.00000000000E+00 0. -1.
          1   -1    0    0  501    0 -0.00000000000E+00 -0.00000000000E+00 -0.18527881294E+03  0.18527881294E+03  0.00000000000E+00 0.  1.
          2    1    1    2  501    0  0.21300147961E+02  0.31742032863E+02 -0.53512854942E+02  0.65763809177E+02  0.00000000000E+00 0. -1.
          1    1    1    2  502    0 -0.21300147961E+02 -0.31742032863E+02 -0.12273287311E+03  0.12854808865E+03  0.00000000000E+00 0.  1.
</event>
<event>
 4    1  0.7181337E+003  0.2535346E+02  0.7546771E-02  0.1464888E+00
          2   -1    0    0  502    0  0.00000000000E+00  0.00000000000E+00  0.15908944274E+04  0.15908944274E+04  0.00000000000E+00 0.  1.
          1   -1    0    0  501    0 -0.00000000000E+00 -0.00000000000E+00 -0.14089415828E+01  0.14089415828E+01  0.00000000000E+00 0.  1.
          2    1    1    2  501    0  0.11676542130E+02  0.22504589401E+02  0.14671142446E+04  0.14673332971E+04  0.00000000000E+00 0.  1.
          1    1    1    2  502    0 -0.11676542130E+02 -0.22504589401E+02  0.12237124126E+03  0.12497007189E+03  0.00000000000E+00 0.  1.
</event>
<event>
 4    1  0.7181337E+003  0.2363472E+02  0.7546771E-02  0.1484678E+00
          2   -1    0    0  502    0  0.00000000000E+00  0.00000000000E+00  0.32798936870E+03  0.32798936870E+03  0.00000000000E+00 0. -1.
          1   -1    0    0  501    0 -0.00000000000E+00 -0.00000000000E+00 -0.17283127380E+01  0.17283127380E+01  0.00000000000E+00 0. -1.
          2    1    1    2  501    0 -0.14047822332E+01  0.23592925328E+02  0.14321971945E+03  0.14515676897E+03  0.00000000000E+00 0. -1.
          1    1    1    2  502    0  0.14047822332E+01 -0.23592925328E+02  0.18304133651E+03  0.18456091246E+03  0.00000000000E+00 0. -1.
</event>
<event>
 4    1  0.7181337E+003  0.3411252E+02  0.7546771E-02  0.1386912E+00
          2   -1    0    0  502    0  0.00000000000E+00  0.00000000000E+00  0.30952618354E+01  0.30952618354E+01  0.00000000000E+00 0. -1.
          1   -1    0    0  501    0 -0.00000000000E+00 -0.00000000000E+00 -0.38044438254E+03  0.38044438254E+03  0.00000000000E+00 0. -1.
          2    1    1    2  501    0 -0.31840670816E+02 -0.12240728428E+02 -0.16783115353E+03  0.17126283848E+03  0.00000000000E+00 0. -1.
          1    1    1    2  502    0  0.31840670816E+02  0.12240728428E+02 -0.20951796718E+03  0.21227680589E+03  0.00000000000E+00 0. -1.
</event>
<event>
 4    1  0.7181337E+003  0.4269872E+02  0.7546771E-02  0.1333358E+00
          2   -1    0    0  502    0  0.00000000000E+00  0.00000000000E+00  0.13892467387E+04  0.13892467387E+04  0.00000000000E+00 0.  1.
          1   -1    0    0  501    0 -0.00000000000E+00 -0.00000000000E+00 -0.37585925713E+03  0.37585925713E+03  0.00000000000E+00 0.  1.
          2    1    1    2  501    0 -0.24549816067E+02 -0.34935473948E+02  0.13877046282E+04  0.13883613780E+04  0.00000000000E+00 0.  1.
          1    1    1    2  502    0  0.24549816067E+02  0.34935473948E+02 -0.37431714663E+03  0.37674461784E+03  0.00000000000E+00 0.  1.
</event>
<event>
 4    1  0.7181337E+003  0.2105859E+02  0.7546771E-02  0.1518430E+00
          2   -1    0    0  502    0  0.00000000000E+00  0.00000000000E+00  0.64899804970E+03  0.64899804970E+03  0.00000000000E+00 0. -1.
          1   -1    0    0  501    0 -0.00000000000E+00 -0.00000000000E+00 -0.71132959238E+00  0.71132959238E+00  0.00000000000E+00 0. -1.
          2    1    1    2  501    0 -0.89380512276E+01 -0.19067655590E+02  0.38862198220E+03  0.38919212389E+03  0.00000000000E+00 0. -1.
          1    1    1    2  502    0  0.89380512276E+01  0.19067655590E+02  0.25966473791E+03  0.26051725541E+03  0.00000000000E+00 0. -1.
</event>
<event>
 4    1  0.7181337E+003  0.3452503E+02  0.7546771E-02  0.1383933E+00
          2   -1    0    0  502    0  0.00000000000E+00  0.00000000000E+00  0.78698919063E+02  0.78698919063E+02  0.00000000000E+00 0.  1.
          1   -1    0    0  501    0 -0.00000000000E+00 -0.00000000000E+00 -0.39780228625E+03  0.39780228625E+03  0.00000000000E+00 0. -1.
          2    1    1    2  501    0 -0.31778549281E+02  0.13494493659E+02  0.74119290913E+02  0.81765804827E+02  0.00000000000E+00 0.  1.
          1    1    1    2  502    0  0.31778549281E+02 -0.13494493659E+02 -0.39322265810E+03  0.39473540049E+03  0.00000000000E+00 0. -1.
</event>
<event>
 4    1  0.7181337E+003  0.2056483E+02  0.7546771E-02  0.1525570E+00
          2   -1    0    0  502    0  0.00000000000E+00  0.00000000000E+00  0.17528432207E+02  0.17528432207E+02  0.00000000000E+00 0.  1.
          1   -1    0    0  501    0 -0.00000000000E+00 -0.00000000000E+00 -0.44320274582E+02  0.44320274582E+02  0.00000000000E+00 0. -1.
          2    1    1    2  501    0 -0.16372275384E+02  0.12444301030E+02  0.74778350114E+01  0.21882185581E+02  0.00000000000E+00 0.  1.
          1    1    1    2  502    0  0.16372275384E+02 -0.12444301030E+02 -0.34269677386E+02  0.39966521208E+02  0.00000000000E+00 0. -1.
</event>
<event>
 4    1  0.7181337E+003  0.7445395E+02  0.7546771E-02  0.1217343E+00
          2   -1    0    0  502    0  0.00000000000E+00  0.00000000000E+00  0.41440689362E+03  0.41440689362E+03  0.00000000000E+00 0.  1.
          1   -1    0    0  501    0 -0.00000000000E+00 -0.00000000000E+00 -0.33374247949E+02  0.33374247949E+02  0.00000000000E+00 0.  1.
          2    1    1    2  501    0 -0.74453856580E+02 -0.11851737958E+00  0.36382431352E+03  0.37136440582E+03  0.00000000000E+00 0.  1.
          1    1    1    2  502    0  0.74453856580E+02  0.11851737958E+00  0.17208332151E+02  0.76416735742E+02  0.00000000000E+00 0.  1.
</event>
<event>
 4    1  0.7181337E+003  0.2337615E+02  0.7546771E-02  0.1487828E+00
          2   -1    0    0  502    0  0.00000000000E+00  0.00000000000E+00  0.46609117308E+02  0.46609117308E+02  0.00000000000E+00 0.  1.
          1   -1    0    0  501    0 -0.00000000000E+00 -0.00000000000E+00 -0.95652447358E+02  0.95652447358E+02  0.00000000000E+00 0. -1.
          2    1    1    2  501    0  0.34199630750E+01 -0.23124619267E+02  0.42107473664E+02  0.48161016414E+02  0.00000000000E+00 0.  1.
          1    1    1    2  502    0 -0.34199630750E+01  0.23124619267E+02 -0.91150803714E+02  0.94100548252E+02  0.00000000000E+00 0. -1.
</event>
<event>
 4    1  0.7181337E+003  0.2533599E+02  0.7546771E-02  0.1465080E+00
          2   -1    0    0  502    0  0.00000000000E+00  0.00000000000E+00  0.87484951053E+02  0.87484951053E+02  0.00000000000E+00 0. -1.
          1   -1    0    0  501    0 -0.00000000000E+00 -0.00000000000E+00 -0.16390618869E+02  0.16390618869E+02  0.00000000000E+00 0. -1.
          2    1    1    2  501    0  0.23089834370E+01  0.25230555924E+02  0.74147155198E+02  0.78356320617E+02  0.00000000000E+00 0. -1.
          1    1    1    2  502    0 -0.23089834370E+01 -0.25230555924E+02 -0.30528230146E+01  0.25519249305E+02  0.00000000000E+00 0. -1.
</event>
<event>
 4    1  0.7181337E+003  0.2505073E+02  0.7546771E-02  0.1468237E+00
          2   -1    0    0  502    0  0.00000000000E+00  0.00000000000E+00  0.92019117945E+02  0.92019117945E+02  0.00000000000E+00 0. -1.
          1   -1    0    0  501    0 -0.00000000000E+00 -0.00000000000E+00 -0.22540239783E+02  0.22540239783E+02  0.00000000000E+00 0. -1.
          2    1    1    2  501    0 -0.23288212308E+02  0.92302859604E+01  0.82575521012E+02  0.86291689530E+02  0.00000000000E+00 0. -1.
          1    1    1    2  502    0  0.23288212308E+02 -0.92302859604E+01 -0.13096642850E+02  0.28267668198E+02  0.00000000000E+00 0. -1.
</event>
<event>
 4    1  0.7181337E+003  0.2590165E+02  0.7546771E-02  0.1458965E+00
          2   -1    0    0  502    0  0.00000000000E+00  0.00000000000E+00  0.59481779028E+02  0.59481779028E+02  0.00000000000E+00 0.  1.
          1   -1    0    0  501    0 -0.00000000000E+00 -0.00000000000E+00 -0.32685301621E+03  0.32685301621E+03  0.00000000000E+00 0.  1.
          2    1    1    2  501    0 -0.57395704354E+01 -0.25257725055E+02  0.56119620050E+02  0.61808632878E+02  0.00000000000E+00 0.  1.
          1    1    1    2  502    0  0.57395704354E+01  0.25257725055E+02 -0.32349085724E+03  0.32452616236E+03  0.00000000000E+00 0.  1.
</event>
<event>
 4    1  0.7181337E+003  0.3681776E+02  0.7546771E-02  0.1368215E+00
          2   -1    0    0  502    0  0.00000000000E+00  0.00000000000E+00  0.20793737937E+03  0.20793737937E+03  0.00000000000E+00 0.  1.
          1   -1    0    0  501    0 -0.00000000000E+00 -0.00000000000E+00 -0.54474104681E+03  0.54474104681E+03  0.00000000000E+00 0.  1.
          2    1    1    2  501    0  0.10362730701E+02  0.35329323415E+02  0.20567874116E+03  0.20894806016E+03  0.00000000000E+00 0.  1.
          1    1    1    2  502    0 -0.10362730701E+02 -0.35329323415E+02 -0.54248240861E+03  0.54373036602E+03  0.00000000000E+00 0.  1.
</event>
<event>
 4    1  0.7181337E+003  0.2471690E+02  0.7546771E-02  0.1471995E+00
          2   -1    0    0  502    0  0.00000000000E+00  0.00000000000E+00  0.27746538462E+03  0.27746538462E+03  0.00000000000E+00 0.  1.
          1   -1    0    0  501    0 -0.00000000000E+00 -0.00000000000E+00 -0.31563808074E+01  0.31563808074E+01  0.00000000000E+00 0. -1.
          2    1    1    2  501    0  0.19673530074E+02  0.14962536036E+02  0.21431612963E+03  0.21573671150E+03  0.00000000000E+00 0.  1.
          1    1    1    2  502    0 -0.19673530074E+02 -0.14962536036E+02  0.59992874181E+02  0.64885053924E+02  0.00000000000E+00 0. -1.
</event>
<event>
 4    1  0.7181337E+003  0.2149832E+02  0.7546771E-02  0.1512268E+00
          2   -1    0    0  502    0  0.00000000000E+00  0.00000000000E+00  0.91888153657E+01  0.91888153657E+01  0.00000000000E+00 0.  1.
          1   -1    0    0  501    0 -0.00000000000E+00 -0.00000000000E+00 -0.51675860872E+02  0.51675860872E+02  0.00000000000E+00 0.  1.
          2    1    1    2  501    0 -0.15019345137E+02 -0.15381692612E+02 -0.26213171425E+02  0.33901438791E+02  0.00000000000E+00 0.  1.
          1    1    1    2  502    0  0.15019345137E+02  0.15381692612E+02 -0.16273874082E+02  0.26963237447E+02  0.00000000000E+00 0.  1.
</event>
<event>
 4    1  0.7181337E+003  0.2733590E+02  0.7546771E-02  0.1444263E+00
          2   -1    0    0  502    0  0.00000000000E+00  0.00000000000E+00  0.15977892691E+03  0.15977892691E+03  0.00000000000E+00 0. -1.
          1   -1    0    0  501    0 -0.00000000000E+00 -0.00000000000E+00 -0.57673487136E+02  0.57673487136E+02  0.00000000000E+00 0. -1.
          2    1    1    2  501    0 -0.26473838990E+02  0.68108068127E+01  0.15527739889E+03  0.15766522079E+03  0.00000000000E+00 0. -1.
          1    1    1    2  502    0  0.26473838990E+02 -0.68108068127E+01 -0.53171959121E+02  0.59787193253E+02  0.00000000000E+00 0. -1.
</event>
<event>
 4    1  0.7181337E+003  0.2748951E+02  0.7546771E-02  0.1442752E+00
          2   -1    0    0  502    0  0.00000000000E+00  0.00000000000E+00  0.28483311778E+03  0.28483311778E+03  0.00000000000E+00 0.  1.
          1   -1    0    0  501    0 -0.00000000000E+00 -0.00000000000E+00 -0.45271692423E+02  0.45271692423E+02  0.00000000000E+00 0.  1.
          2    1    1    2  501    0  0.22697527044E+02 -0.15507907172E+02  0.27992386086E+03  0.28127040513E+03  0.00000000000E+00 0.  1.
          1    1    1    2  502    0 -0.22697527044E+02  0.15507907172E+02 -0.40362435510E+02  0.48834405075E+02  0.00000000000E+00 0.  1.
</event>
<event>
 4    1  0.7181337E+003  0.2599093E+02  0.7546771E-02  0.1458016E+00
          2   -1    0    0  502    0  0.00000000000E+00  0.00000000000E+00  0.79274098546E+02  0.79274098546E+02  0.00000000000E+00 0.  1.
          1   -1    0    0  501    0 -0.00000000000E+00 -0.00000000000E+00 -0.26859389296E+03  0.26859389296E+03  0.00000000000E+00 0.  1.
          2    1    1    2  501    0  0.60776126917E+01  0.25270359924E+02  0.76492739727E+02  0.80787794237E+02  0.00000000000E+00 0.  1.
          1    1    1    2  502    0 -0.60776126917E+01 -0.25270359924E+02 -0.26581253415E+03  0.26708019727E+03  0.00000000000E+00 0.  1.
</event>
<event>
 4    1  0.7181337E+003  0.3046981E+02  0.7546771E-02  0.1415557E+00
          2   -1    0    0  502    0  0.00000000000E+00  0.00000000000E+00  0.41341022249E+02  0.41341022249E+02  0.00000000000E+00 0.  1.
          1   -1    0    0  501    0 -0.00000000000E+00 -0.00000000000E+00 -0.10501120061E+03  0.10501120061E+03  0.00000000000E+00 0. -1.
          2    1    1    2  501    0 -0.11161814079E+02  0.28351774493E+02  0.33046312089E+02  0.44949615717E+02  0.00000000000E+00 0.  1.
          1    1    1    2  502    0  0.11161814079E+02 -0.28351774493E+02 -0.96716490444E+02  0.10140260714E+03  0.00000000000E+00 0. -1.
</event>
<event>
 4    1  0.7181337E+003  0.2381291E+02  0.7546771E-02  0.1482535E+00
          2   -1    0    0  502    0  0.00000000000E+00  0.00000000000E+00  0.12620224508E+04  0.12620224508E+04  0.00000000000E+00 0.  1.
          1   -1    0    0  501    0 -0.00000000000E+00 -0.00000000000E+00 -0.88087166782E+01  0.88087166782E+01  0.00000000000E+00 0. -1.
          2    1    1    2  501    0  0.15869298810E+02  0.17754437098E+02  0.12456044475E+04  0.12458320490E+04  0.00000000000E+00 0.  1.
          1    1    1    2  502    0 -0.15869298810E+02 -0.17754437098E+02  0.76092866088E+01  0.24999118466E+02  0.00000000000E+00 0. -1.
</event>
<event>
 4    1  0.7181337E+003  0.4671832E+02  0.7546771E-02  0.1313064E+00
          2   -1    0    0  502    0  0.00000000000E+00  0.00000000000E+00  0.47812484511E+03  0.47812484511E+03  0.00000000000E+00 0.  1.
          1   -1    0    0  501    0 -0.00000000000E+00 -0.00000000000E+00 -0.14800131761E+02  0.14800131761E+02  0.00000000000E+00 0.  1.
          2    1    1    2  501    0  0.20581984579E+02 -0.41940236079E+02  0.43662110595E+03  0.43911341547E+03  0.00000000000E+00 0.  1.
          1    1    1    2  502    0 -0.20581984579E+02  0.41940236079E+02  0.26703607402E+02  0.53811561395E+02  0.00000000000E+00 0.  1.
</event>
<event>
 4    1  0.7181337E+003  0.2320409E+02  0.7546771E-02  0.1489951E+00
          2   -1    0    0  502    0  0.00000000000E+00  0.00000000000E+00  0.12010002694E+04  0.12010002694E+04  0.00000000000E+00 0.  1.
          1   -1    0    0  501    0 -0.00000000000E+00 -0.00000000000E+00 -0.89480615453E+01  0.89480615453E+01  0.00000000000E+00 0.  1.
          2    1    1    2  501    0 -0.12859227381E+02 -0.19315016227E+02  0.11856502615E+04  0.11858773007E+04  0.00000000000E+00 0.  1.
          1    1    1    2  502    0  0.12859227381E+02  0.19315016227E+02  0.64019462951E+01  0.24071030245E+02  0.00000000000E+00 0.  1.
</event>
<event>
 4    1  0.7181337E+003  0.2805315E+02  0.7546771E-02  0.1437306E+00
          2   -1    0    0  502    0  0.00000000000E+00  0.00000000000E+00  0.21079504734E+01  0.21079504734E+01  0.00000000000E+00 0. -1.
          1   -1    0    0  501    0 -0.00000000000E+00 -0.00000000000E+00 -0.99692421645E+03  0.99692421645E+03  0.00000000000E+00 0.  1.
          2    1    1    2  501    0 -0.24971094479E+02 -0.12783726993E+02 -0.10234504397E+03  0.10612015482E+03  0.00000000000E+00 0. -1.
          1    1    1    2  502    0  0.24971094479E+02  0.12783726993E+02 -0.89247122201E+03  0.89291201210E+03  0.00000000000E+00 0.  1.
</event>
<event>
 4    1  0.7181337E+003  0.2165639E+02  0.7546771E-02  0.1510096E+00
          2   -1    0    0  502    0  0.00000000000E+00  0.00000000000E+00  0.89626214650E+02  0.89626214650E+02  0.00000000000E+00 0.  1.
          1   -1    0    0  501    0 -0.00000000000E+00 -0.00000000000E+00 -0.63155712575E+01  0.63155712575E+01  0.00000000000E+00 0. -1.
          2    1    1    2  501    0  0.24880590165E+01  0.21512991840E+02  0.61517765563E+02  0.65218361950E+02  0.00000000000E+00 0.  1.
          1    1    1    2  502    0 -0.24880590165E+01 -0.21512991840E+02  0.21792877830E+02  0.30723423958E+02  0.00000000000E+00 0. -1.
</event>
<event>
 4    1  0.7181337E+003  0.2477574E+02  0.7546771E-02  0.1471328E+00
          2   -1    0    0  502    0  0.00000000000E+00  0.00000000000E+00  0.23527768109E+03  0.23527768109E+03  0.00000000000E+00 0.  1.
          1   -1    0    0  501    0 -0.00000000000E+00 -0.00000000000E+00 -0.26383667836E+01  0.26383667836E+01  0.00000000000E+00 0.  1.
          2    1    1    2  501    0  0.18369986325E+02  0.16624693865E+02  0.10376696523E+03  0.10668373783E+03  0.00000000000E+00 0.  1.
          1    1    1    2  502    0 -0.18369986325E+02 -0.16624693865E+02  0.12887234907E+03  0.13123231004E+03  0.00000000000E+00 0.  1.
</event>
<event>
 4    1  0.7181337E+003  0.3157700E+02  0.7546771E-02  0.1406370E+00
          2   -1    0    0  502    0  0.00000000000E+00  0.00000000000E+00  0.17721559948E+01  0.17721559948E+01  0.00000000000E+00 0. -1.
          1   -1    0    0  501    0 -0.00000000000E+00 -0.00000000000E+00 -0.61763858955E+03  0.61763858955E+03  0.00000000000E+00 0.  1.
          2    1    1    2  501    0 -0.22723035243E+02  0.21926453167E+02 -0.40034197186E+03  0.40158535844E+03  0.00000000000E+00 0. -1.
          1    1    1    2  502    0  0.22723035243E+02 -0.21926453167E+02 -0.21552446169E+03  0.21782538711E+03  0.00000000000E+00 0.  1.
</event>
<event>
 4    1  0.7181337E+003  0.2983478E+02  0.7546771E-02  0.1421038E+00
          2   -1    0    0  502    0  0.00000000000E+00  0.00000000000E+00  0.57261826733E+03  0.57261826733E+03  0.00000000000E+00 0. -1.
          1   -1    0    0  501    0 -0.00000000000E+00 -0.00000000000E+00 -0.66832326235E+01  0.66832326235E+01  0.00000000000E+00 0. -1.
          2    1    1    2  501    0 -0.18783518142E+02 -0.23179595452E+02  0.53670693735E+03  0.53753553446E+03  0.00000000000E+00 0. -1.
          1    1    1    2  502    0  0.18783518142E+02  0.23179595452E+02  0.29228097353E+02  0.41765965498E+02  0.00000000000E+00 0. -1.
</event>
<event>
 4    1  0.7181337E+003  0.2181460E+02  0.7546771E-02  0.1507945E+00
          2   -1    0    0  502    0  0.00000000000E+00  0.00000000000E+00  0.33225959468E+02  0.33225959468E+02  0.00000000000E+00 0.  1.
          1   -1    0    0  501    0 -0.00000000000E+00 -0.00000000000E+00 -0.15004102842E+03  0.15004102842E+03  0.00000000000E+00 0. -1.
          2    1    1    2  501    0  0.61685435169E+00  0.21805873833E+02  0.28742769308E+02  0.36083561776E+02  0.00000000000E+00 0.  1.
          1    1    1    2  502    0 -0.61685435169E+00 -0.21805873833E+02 -0.14555783827E+03  0.14718342612E+03  0.00000000000E+00 0. -1.
</event>
<event>
 4    1  0.7181337E+003  0.2010460E+02  0.7546771E-02  0.1532443E+00
          2   -1    0    0  502    0  0.00000000000E+00  0.00000000000E+00  0.19558796348E+03  0.19558796348E+03  0.00000000000E+00 0.  1.
          1   -1    0    0  501    0 -0.00000000000E+00 -0.00000000000E+00 -0.78483790024E+01  0.78483790024E+01  0.00000000000E+00 0.  1.
          2    1    1    2  501    0 -0.58987555463E+00 -0.20095943483E+02  0.18117510729E+03  0.18228717563E+03  0.00000000000E+00 0.  1.
          1    1    1    2  502    0  0.58987555463E+00  0.20095943483E+02  0.65644771824E+01  0.21149166847E+02  0.00000000000E+00 0.  1.
</event>
<event>
 4    1  0.7181337E+003  0.3579776E+02  0.7546771E-02  0.1375040E+00
          2   -1    0    0  502    0  0.00000000000E+00  0.00000000000E+00  0.42316640736E+03  0.42316640736E+03  0.00000000000E+00 0. -1.
          1   -1    0    0  501    0 -0.00000000000E+00 -0.00000000000E+00 -0.38496324498E+03  0.38496324498E+03  0.00000000000E+00 0.  1.
          2    1    1    2  501    0  0.18429956974E+02  0.30689028788E+02  0.42157398235E+03  0.42309112777E+03  0.00000000000E+00 0. -1.
          1    1    1    2  502    0 -0.18429956974E+02 -0.30689028788E+02 -0.38337081997E+03  0.38503852458E+03  0.00000000000E+00 0.  1.
</event>
<event>
 4    1  0.7181337E+003  0.2102945E+02  0.7546771E-02  0.1518845E+00
          2   -1    0    0  502    0  0.00000000000E+00  0.00000000000E+00  0.91519409850E+03  0.91519409850E+03  0.00000000000E+00 0.  1.
          1   -1    0    0  501    0 -0.00000000000E+00 -0.00000000000E+00 -0.61758256960E+01  0.61758256960E+01  0.00000000000E+00 0.  1.
          2    1    1    2  501    0  0.18829299044E+02 -0.93645703743E+01  0.89680428217E+03  0.89705081139E+03  0.00000000000E+00 0.  1.
          1    1    1    2  502    0 -0.18829299044E+02  0.93645703743E+01  0.12213990630E+02  0.24319112811E+02  0.00000000000E+00 0.  1.
</event>
<event>
 4    1  0.7181337E+003  0.5782470E+02  0.7546771E-02  0.1267408E+00
          2   -1    0    0  502    0  0.00000000000E+00  0.00000000000E+00  0.31656503298E+04  0.31656503298E+04  0.00000000000E+00 0. -1.
          1   -1    0    0  501    0 -0.00000000000E+00 -0.00000000000E+00 -0.35701778057E+03  0.35701778057E+03  0.00000000000E+00 0.  1.
          2    1    1    2  501    0  0.24898743548E+02 -0.52189542234E+02  0.31630429321E+04  0.31635714448E+04  0.00000000000E+00 0. -1.
          1    1    1    2  502    0 -0.24898743548E+02  0.52189542234E+02 -0.35441038288E+03  0.35909666560E+03  0.00000000000E+00 0.  1.
</event>
<event>
 4    1  0.7181337E+003  0.3766778E+02  0.7546771E-02  0.1362722E+00
          2   -1    0    0  502    0  0.00000000000E+00  0.00000000000E+00  0.22391042956E+02  0.22391042956E+02  0.00000000000E+00 0. -1.
          1   -1    0    0  501    0 -0.00000000000E+00 -0.00000000000E+00 -0.63991556657E+03  0.63991556657E+03  0.00000000000E+00 0.  1.
          2    1    1    2  501    0  0.37419389264E+02  0.43186802927E+01  0.55675422669E+01  0.38077016943E+02  0.00000000000E+00 0. -1.
          1    1    1    2  502    0 -0.37419389264E+02 -0.43186802927E+01 -0.62309206588E+03  0.62422959258E+03  0.00000000000E+00 0.  1.
</event>
<event>
 4    1  0.7181337E+003  0.2502658E+02  0.7546771E-02  0.1468506E+00
          2   -1    0    0  502    0  0.00000000000E+00  0.00000000000E+00  0.29338258042E+03  0.29338258042E+03  0.00000000000E+00 0. -1.
          1   -1    0    0  501    0 -0.00000000000E+00 -0.00000000000E+00 -0.12339614376E+03  0.12339614376E+03  0.00000000000E+00 0. -1.
          2    1    1    2  501    0 -0.31880770698E+01 -0.24822685194E+02  0.29157206075E+03  0.29264414592E+03  0.00000000000E+00 0. -1.
          1    1    1    2  502    0  0.31880770698E+01  0.24822685194E+02 -0.12158562408E+03  0.12413457826E+03  0.00000000000E+00 0. -1.
</event>
<event>
 4    1  0.7181337E+003  0.2473595E+02  0.7546771E-02  0.1471779E+00
          2   -1    0    0  502    0  0.00000000000E+00  0.00000000000E+00  0.24981894785E+03  0.24981894785E+03  0.00000000000E+00 0. -1.
          1   -1    0    0  501    0 -0.00000000000E+00 -0.00000000000E+00 -0.31898552096E+01  0.31898552096E+01  0.00000000000E+00 0. -1.
          2    1    1    2  501    0  0.49477019278E+01 -0.24236078668E+02  0.18427043098E+03  0.18592326104E+03  0.00000000000E+00 0. -1.
          1    1    1    2  502    0 -0.49477019278E+01  0.24236078668E+02  0.62358661665E+02  0.67085542021E+02  0.00000000000E+00 0. -1.
</event>
<event>
 4    1  0.7181337E+003  0.2085259E+02  0.7546771E-02  0.1521380E+00
          2   -1    0    0  502    0  0.00000000000E+00  0.00000000000E+00  0.57858914975E+01  0.57858914975E+01  0.00000000000E+00 0. -1.
          1   -1    0    0  501    0 -0.00000000000E+00 -0.00000000000E+00 -0.38690025815E+03  0.38690025815E+03  0.00000000000E+00 0. -1.
          2    1    1    2  501    0  0.10404038894E+02 -0.18071702434E+02 -0.14312105800E+02  0.25291635507E+02  0.00000000000E+00 0. -1.
          1    1    1    2  502    0 -0.10404038894E+02  0.18071702434E+02 -0.36680226085E+03  0.36739451414E+03  0.00000000000E+00 0. -1.
</event>
<event>
 4    1  0.7181337E+003  0.2012778E+02  0.7546771E-02  0.1532091E+00
          2   -1    0    0  502    0  0.00000000000E+00  0.00000000000E+00  0.30851519297E+03  0.30851519297E+03  0.00000000000E+00 0.  1.
          1   -1    0    0  501    0 -0.00000000000E+00 -0.00000000000E+00 -0.44432296798E+01  0.44432296798E+01  0.00000000000E+00 0.  1.
          2    1    1    2  501    0  0.23220804943E+01  0.19993385033E+02  0.28337228511E+03  0.28408621837E+03  0.00000000000E+00 0.  1.
          1    1    1    2  502    0 -0.23220804943E+01 -0.19993385033E+02  0.20699678184E+02  0.28872204277E+02  0.00000000000E+00 0.  1.
</event>
<event>
 4    1  0.7181337E+003  0.2075971E+02  0.7546771E-02  0.1522723E+00
          2   -1    0    0  502    0  0.00000000000E+00  0.00000000000E+00  0.26082421270E+03  0.26082421270E+03  0.00000000000E+00 0. -1.
          1   -1    0    0  501    0 -0.00000000000E+00 -0.00000000000E+00 -0.38461557090E+01  0.38461557090E+01  0.00000000000E+00 0. -1.
          2    1    1    2  501    0  0.62689658578E+01 -0.19790547996E+02  0.22843463212E+03  0.22937599455E+03  0.00000000000E+00 0. -1.
          1    1    1    2  502    0 -0.62689658578E+01  0.19790547996E+02  0.28543424871E+02  0.35294373861E+02  0.00000000000E+00 0. -1.
</event>
<event>
 4    1  0.7181337E+003  0.4142129E+02  0.7546771E-02  0.1340353E+00
          2   -1    0    0  502    0  0.00000000000E+00  0.00000000000E+00  0.36509591799E+02  0.36509591799E+02  0.00000000000E+00 0.  1.
          1   -1    0    0  501    0 -0.00000000000E+00 -0.00000000000E+00 -0.29087803574E+03  0.29087803574E+03  0.00000000000E+00 0. -1.
          2    1    1    2  501    0 -0.33282331115E+02  0.24657846483E+02  0.22704412747E+02  0.47235720761E+02  0.00000000000E+00 0.  1.
          1    1    1    2  502    0  0.33282331115E+02 -0.24657846483E+02 -0.27707285669E+03  0.28015190678E+03  0.00000000000E+00 0. -1.
</event>
<event>
 4    1  0.7181337E+003  0.2738474E+02  0.7546771E-02  0.1443781E+00
          2   -1    0    0  502    0  0.00000000000E+00  0.00000000000E+00  0.19654517317E+03  0.19654517317E+03  0.00000000000E+00 0.  1.
          1   -1    0    0  501    0 -0.00000000000E+00 -0.00000000000E+00 -0.43433871852E+01  0.43433871852E+01  0.00000000000E+00 0.  1.
          2    1    1    2  501    0 -0.63471275480E+01 -0.26639033512E+02  0.13111708256E+03  0.13394630817E+03  0.00000000000E+00 0.  1.
          1    1    1    2  502    0  0.63471275480E+01  0.26639033512E+02  0.61084703428E+02  0.66942252184E+02  0.00000000000E+00 0.  1.
</event>
<event>
 4    1  0.7181337E+003  0.3721529E+02  0.7546771E-02  0.1365625E+00
          2   -1    0    0  502    0  0.00000000000E+00  0.00000000000E+00  0.27906982544E+04  0.27906982544E+04  0.00000000000E+00 0.  1.
          1   -1    0    0  501    0 -0.00000000000E+00 -0.00000000000E+00 -0.78382102345E+00  0.78382102345E+00  0.00000000000E+00 0.  1.
          2    1    1    2  501    0 -0.71621179790E+01 -0.36519607527E+02  0.22403209486E+04  0.22406300298E+04  0.00000000000E+00 0.  1.
          1    1    1    2  502    0  0.71621179790E+01  0.36519607527E+02  0.54959348474E+03  0.55085204560E+03  0.00000000000E+00 0.  1.
</event>
<event>
 4    1  0.7181337E+003  0.2749243E+02  0.7546771E-02  0.1442723E+00
          2   -1    0    0  502    0  0.00000000000E+00  0.00000000000E+00  0.90549331239E+02  0.90549331239E+02  0.00000000000E+00 0.  1.
          1   -1    0    0  501    0 -0.00000000000E+00 -0.00000000000E+00 -0.16662977887E+02  0.16662977887E+02  0.00000000000E+00 0. -1.
          2    1    1    2  501    0 -0.77568394132E+01 -0.26375468377E+02  0.74812682513E+02  0.79704274381E+02  0.00000000000E+00 0.  1.
          1    1    1    2  502    0  0.77568394132E+01  0.26375468377E+02 -0.92632916073E+00  0.27508034744E+02  0.00000000000E+00 0. -1.
</event>
<event>
 4    1  0.7181337E+003  0.3501815E+02  0.7546771E-02  0.1380436E+00
          2   -1    0    0  502    0  0.00000000000E+00  0.00000000000E+00  0.55899149064E+03  0.55899149064E+03  0.00000000000E+00 0.  1.
          1   -1    0    0  501    0 -0.00000000000E+00 -0.00000000000E+00 -0.39402233901E+01  0.39402233901E+01  0.00000000000E+00 0.  1.
          2    1    1    2  501    0  0.83030458096E+01  0.34019559846E+02  0.46491716843E+03  0.46623410914E+03  0.00000000000E+00 0.  1.
          1    1    1    2  502    0 -0.83030458096E+01 -0.34019559846E+02  0.90134098811E+02  0.96697604884E+02  0.00000000000E+00 0.  1.
</event>
<event>
 4    1  0.7181337E+003  0.2753158E+02  0.7546771E-02  0.1442340E+00
          2   -1    0    0  502    0  0.00000000000E+00  0.00000000000E+00  0.48635089020E+03  0.48635089020E+03  0.00000000000E+00 0. -1.
          1   -1    0    0  501    0 -0.00000000000E+00 -0.00000000000E+00 -0.22107607725E+03  0.22107607725E+03  0.00000000000E+00 0.  1.
          2    1    1    2  501    0 -0.26869017258E+02 -0.60036274137E+01  0.48510189803E+03  0.48588253632E+03  0.00000000000E+00 0. -1.
          1    1    1    2  502    0  0.26869017258E+02  0.60036274137E+01 -0.21982708508E+03  0.22154443113E+03  0.00000000000E+00 0.  1.
</event>
<event>
 4    1  0.7181337E+003  0.5482038E+02  0.7546771E-02  0.1278525E+00
          2   -1    0    0  502    0  0.00000000000E+00  0.00000000000E+00  0.84331540587E+02  0.84331540587E+02  0.00000000000E+00 0. -1.
          1   -1    0    0  501    0 -0.00000000000E+00 -0.00000000000E+00 -0.65235583110E+03  0.65235583110E+03  0.00000000000E+00 0.  1.
          2    1    1    2  501    0 -0.53427020538E+02 -0.12281180602E+02  0.74129451341E+02  0.92197882170E+02  0.00000000000E+00 0. -1.
          1    1    1    2  502    0  0.53427020538E+02  0.12281180602E+02 -0.64215374185E+03  0.64448948951E+03  0.00000000000E+00 0.  1.
</event>
<event>
 4    1  0.7181337E+003  0.2707534E+02  0.7546771E-02  0.1446853E+00
          2   -1    0    0  502    0  0.00000000000E+00  0.00000000000E+00  0.28811983205E+02  0.28811983205E+02  0.00000000000E+00 0. -1.
          1   -1    0    0  501    0 -0.00000000000E+00 -0.00000000000E+00 -0.95163472732E+02  0.95163472732E+02  0.00000000000E+00 0. -1.
          2    1    1    2  501    0 -0.23038151437E+02 -0.14223831696E+02  0.19882099629E+02  0.33591244327E+02  0.00000000000E+00 0. -1.
          1    1    1    2  502    0  0.23038151437E+02  0.14223831696E+02 -0.86233589156E+02  0.90384211611E+02  0.00000000000E+00 0. -1.
</event>
<event>
 4    1  0.7181337E+003  0.2381746E+02  0.7546771E-02  0.1482481E+00
          2   -1    0    0  502    0  0.00000000000E+00  0.00000000000E+00  0.14916075242E+04  0.14916075242E+04  0.00000000000E+00 0.  1.
          1   -1    0    0  501    0 -0.00000000000E+00 -0.00000000000E+00 -0.83913246187E+00  0.83913246187E+00  0.00000000000E+00 0.  1.
          2    1    1    2  501    0  0.16033352124E+02  0.17612581892E+02  0.12971775669E+04  0.12973962045E+04  0.00000000000E+00 0.  1.
          1    1    1    2  502    0 -0.16033352124E+02 -0.17612581892E+02  0.19359082484E+03  0.19505045215E+03  0.00000000000E+00 0.  1.
</event>
<event>
 4    1  0.7181337E+003  0.2206115E+02  0.7546771E-02  0.1504636E+00
          2   -1    0    0  502    0  0.00000000000E+00  0.00000000000E+00  0.91282221911E+01  0.91282221911E+01  0.00000000000E+00 0.  1.
          1   -1    0    0  501    0 -0.00000000000E+00 -0.00000000000E+00 -0.25196786970E+03  0.25196786970E+03  0.00000000000E+00 0. -1.
          2    1    1    2  501    0  0.10916612905E+02 -0.19170861002E+02 -0.55040765668E+01  0.22737396679E+02  0.00000000000E+00 0.  1.
          1    1    1    2  502    0 -0.10916612905E+02  0.19170861002E+02 -0.23733557094E+03  0.23835869521E+03  0.00000000000E+00 0. -1.
</event>
<event>
 4    1  0.7181337E+003  0.4242535E+02  0.7546771E-02  0.1334831E+00
          2   -1    0    0  502    0  0.00000000000E+00  0.00000000000E+00  0.68021095417E+03  0.68021095417E+03  0.00000000000E+00 0.  1.
          1   -1    0    0  501    0 -0.00000000000E+00 -0.00000000000E+00 -0.27527265098E+01  0.27527265098E+01  0.00000000000E+00 0.  1.
          2    1    1    2  501    0 -0.37992920997E+02  0.18879799191E+02  0.27152270018E+03  0.27481718574E+03  0.00000000000E+00 0.  1.
          1    1    1    2  502    0  0.37992920997E+02 -0.18879799191E+02  0.40593552748E+03  0.40814649495E+03  0.00000000000E+00 0.  1.
</event>
<event>
 4    1  0.7181337E+003  0.4649178E+02  0.7546771E-02  0.1314144E+00
          2   -1    0    0  502    0  0.00000000000E+00  0.00000000000E+00  0.94964037527E+02  0.94964037527E+02  0.00000000000E+00 0. -1.
          1   -1    0    0  501    0 -0.00000000000E+00 -0.00000000000E+00 -0.32372129551E+02  0.32372129551E+02  0.00000000000E+00 0. -1.
          2    1    1    2  501    0 -0.10554779300E+02  0.45277829027E+02  0.65987310822E+02  0.80720569603E+02  0.00000000000E+00 0. -1.
          1    1    1    2  502    0  0.10554779300E+02 -0.45277829027E+02 -0.33954028460E+01  0.46615597475E+02  0.00000000000E+00 0. -1.
</event>
<event>
 4    1  0.7181337E+003  0.2211350E+02  0.7546771E-02  0.1503940E+00
          2   -1    0    0  502    0  0.00000000000E+00  0.00000000000E+00  0.52111403576E+02  0.52111403576E+02  0.00000000000E+00 0. -1.
          1   -1    0    0  501    0 -0.00000000000E+00 -0.00000000000E+00 -0.34553152221E+02  0.34553152221E+02  0.00000000000E+00 0. -1.
          2    1    1    2  501    0 -0.19373466556E+02 -0.10661875621E+02  0.45762205214E+02  0.50825055083E+02  0.00000000000E+00 0. -1.
          1    1    1    2  502    0  0.19373466556E+02  0.10661875621E+02 -0.28203953859E+02  0.35839500714E+02  0.00000000000E+00 0. -1.
</event>
<event>
 4    1  0.7181337E+003  0.2194198E+02  0.7546771E-02  0.1506229E+00
          2   -1    0    0  502    0  0.00000000000E+00  0.00000000000E+00  0.10802070198E+04  0.10802070198E+04  0.00000000000E+00 0.  1.
          1   -1    0    0  501    0 -0.00000000000E+00 -0.00000000000E+00 -0.49938610656E+00  0.49938610656E+00  0.00000000000E+00 0.  1.
          2    1    1    2  501    0 -0.21856210520E+02  0.19381898718E+01  0.71702049140E+03  0.71735614279E+03  0.00000000000E+00 0.  1.
          1    1    1    2  502    0  0.21856210520E+02 -0.19381898718E+01  0.36268714231E+03  0.36335026313E+03  0.00000000000E+00 0.  1.
</event>
<event>
 4    1  0.7181337E+003  0.2184858E+02  0.7546771E-02  0.1507486E+00
          2   -1    0    0  502    0  0.00000000000E+00  0.00000000000E+00  0.26953506191E+03  0.26953506191E+03  0.00000000000E+00 0. -1.
          1   -1    0    0  501    0 -0.00000000000E+00 -0.00000000000E+00 -0.21095481041E+01  0.21095481041E+01  0.00000000000E+00 0. -1.
          2    1    1    2  501    0  0.19484898289E+02 -0.98842870494E+01  0.18811962638E+03  0.18938414459E+03  0.00000000000E+00 0. -1.
          1    1    1    2  502    0 -0.19484898289E+02  0.98842870494E+01  0.79305887425E+02  0.82260465426E+02  0.00000000000E+00 0. -1.
</event>
<event>
 4    1  0.7181337E+003  0.2037848E+02  0.7546771E-02  0.1528326E+00
          2   -1    0    0  502    0  0.00000000000E+00  0.00000000000E+00  0.11657383100E+04  0.11657383100E+04  0.00000000000E+00 0.  1.
          1   -1    0    0  501    0 -0.00000000000E+00 -0.00000000000E+00 -0.13159542198E+02  0.13159542198E+02  0.00000000000E+00 0.  1.
          2    1    1    2  501    0  0.20364774527E+02  0.74724822555E+00  0.11577051326E+04  0.11578844746E+04  0.00000000000E+00 0.  1.
          1    1    1    2  502    0 -0.20364774527E+02 -0.74724822555E+00 -0.51263648272E+01  0.21013377591E+02  0.00000000000E+00 0.  1.
</event>
<event>
 4    1  0.7181337E+003  0.2834110E+02  0.7546771E-02  0.1434582E+00
          2   -1    0    0  502    0  0.00000000000E+00  0.00000000000E+00  0.17947501978E+03  0.17947501978E+03  0.00000000000E+00 0.  1.
          1   -1    0    0  501    0 -0.00000000000E+00 -0.00000000000E+00 -0.75151051579E+03  0.75151051579E+03  0.00000000000E+00 0.  1.
          2    1    1    2  501    0 -0.13197223055E+02  0.25080895310E+02  0.17808690516E+03  0.18032793404E+03  0.00000000000E+00 0.  1.
          1    1    1    2  502    0  0.13197223055E+02 -0.25080895310E+02 -0.75012240117E+03  0.75065760153E+03  0.00000000000E+00 0.  1.
</event>
<event>
 4    1  0.7181337E+003  0.2942128E+02  0.7546771E-02  0.1424693E+00
          2   -1    0    0  502    0  0.00000000000E+00  0.00000000000E+00  0.54210060542E+02  0.54210060542E+02  0.00000000000E+00 0. -1.
          1   -1    0    0  501    0 -0.00000000000E+00 -0.00000000000E+00 -0.20605038542E+02  0.20605038542E+02  0.00000000000E+00 0. -1.
          2    1    1    2  501    0 -0.89189702640E+01 -0.28036831162E+02  0.34548706523E+02  0.45378685025E+02  0.00000000000E+00 0. -1.
          1    1    1    2  502    0  0.89189702640E+01  0.28036831162E+02 -0.94368452341E+00  0.29436414059E+02  0.00000000000E+00 0. -1.
</event>
<event>
 4    1  0.7181337E+003  0.5853417E+02  0.7546771E-02  0.1264896E+00
          2   -1    0    0  502    0  0.00000000000E+00  0.00000000000E+00  0.34367098704E+02  0.34367098704E+02  0.00000000000E+00 0. -1.
          1   -1    0    0  501    0 -0.00000000000E+00 -0.00000000000E+00 -0.16403751067E+03  0.16403751067E+03  0.00000000000E+00 0. -1.
          2    1    1    2  501    0  0.54679806856E+02 -0.20889416125E+02 -0.27058132813E+01  0.58596675754E+02  0.00000000000E+00 0. -1.
          1    1    1    2  502    0 -0.54679806856E+02  0.20889416125E+02 -0.12696459869E+03  0.13980793362E+03  0.00000000000E+00 0. -1.
</event>
<event>
 4    1  0.7181337E+003  0.2347894E+02  0.7546771E-02  0.1486570E+00
          2   -1    0    0  502    0  0.00000000000E+00  0.00000000000E+00  0.65365355797E+02  0.65365355797E+02  0.00000000000E+00 0. -1.
          1   -1    0    0  501    0 -0.00000000000E+00 -0.00000000000E+00 -0.10429918251E+03  0.10429918251E+03  0.00000000000E+00 0. -1.
          2    1    1    2  501    0 -0.77608029464E+01  0.22159207418E+02  0.61863345276E+02  0.66168980834E+02  0.00000000000E+00 0. -1.
          1    1    1    2  502    0  0.77608029464E+01 -0.22159207418E+02 -0.10079717199E+03  0.10349555747E+03  0.00000000000E+00 0. -1.
</event>
<event>
 4    1  0.7181337E+003  0.2695854E+02  0.7546771E-02  0.1448025E+00
          2   -1    0    0  502    0  0.00000000000E+00  0.00000000000E+00  0.88263449240E+02  0.88263449240E+02  0.00000000000E+00 0.  1.
          1   -1    0    0  501    0 -0.00000000000E+00 -0.00000000000E+00 -0.27721736856E+03  0.27721736856E+03  0.00000000000E+00 0. -1.
          2    1    1    2  501    0 -0.23196534117E+02 -0.13736225250E+02  0.85529077590E+02  0.89677121901E+02  0.00000000000E+00 0.  1.
          1    1    1    2  502    0  0.23196534117E+02  0.13736225250E+02 -0.27448299691E+03  0.27580369590E+03  0.00000000000E+00 0. -1.
</event>
<event>
 4    1  0.7181337E+003  0.2672539E+02  0.7546771E-02  0.1450386E+00
          2   -1    0    0  502    0  0.00000000000E+00  0.00000000000E+00  0.65518902297E+02  0.65518902297E+02  0.00000000000E+00 0.  1.
          1   -1    0    0  501    0 -0.00000000000E+00 -0.00000000000E+00 -0.12147384499E+03  0.12147384499E+03  0.00000000000E+00 0. -1.
          2    1    1    2  501    0 -0.18792420950E+02 -0.19002400073E+02  0.61224998202E+02  0.66803792546E+02  0.00000000000E+00 0.  1.
          1    1    1    2  502    0  0.18792420950E+02  0.19002400073E+02 -0.11717994089E+03  0.12018895474E+03  0.00000000000E+00 0. -1.
</event>
<event>
 4    1  0.7181337E+003  0.2291900E+02  0.7546771E-02  0.1493518E+00
          2   -1    0    0  502    0  0.00000000000E+00  0.00000000000E+00  0.39333083882E+02  0.39333083882E+02  0.00000000000E+00 0. -1.
          1   -1    0    0  501    0 -0.00000000000E+00 -0.00000000000E+00 -0.67396989306E+02  0.67396989306E+02  0.00000000000E+00 0.  1.
          2    1    1    2  501    0  0.67464657173E+01  0.21903553921E+02  0.33754362194E+02  0.40799968642E+02  0.00000000000E+00 0. -1.
          1    1    1    2  502    0 -0.67464657173E+01 -0.21903553921E+02 -0.61818267619E+02  0.65930104546E+02  0.00000000000E+00 0.  1.
</event>
<event>
 4    1  0.7181337E+003  0.2160113E+02  0.7546771E-02  0.1510853E+00
          2   -1    0    0  502    0  0.00000000000E+00  0.00000000000E+00  0.37923389848E+03  0.37923389848E+03  0.00000000000E+00 0.  1.
          1   -1    0    0  501    0 -0.00000000000E+00 -0.00000000000E+00 -0.32244653744E+02  0.32244653744E+02  0.00000000000E+00 0.  1.
          2    1    1    2  501    0  0.19446013998E+02  0.94053912605E+01  0.37527039851E+03  0.37589158124E+03  0.00000000000E+00 0.  1.
          1    1    1    2  502    0 -0.19446013998E+02 -0.94053912605E+01 -0.28281153776E+02  0.35586970988E+02  0.00000000000E+00 0.  1.
</event>
<event>
 4    1  0.7181337E+003  0.2329302E+02  0.7546771E-02  0.1488851E+00
          2   -1    0    0  502    0  0.00000000000E+00  0.00000000000E+00  0.11828285113E+01  0.11828285113E+01  0.00000000000E+00 0. -1.
          1   -1    0    0  501    0 -0.00000000000E+00 -0.00000000000E+00 -0.11829770085E+04  0.11829770085E+04  0.00000000000E+00 0. -1.
          2    1    1    2  501    0 -0.19073121931E+02  0.13370900676E+02 -0.12761646062E+03  0.12972480868E+03  0.00000000000E+00 0. -1.
          1    1    1    2  502    0  0.19073121931E+02 -0.13370900676E+02 -0.10541777194E+04  0.10544350284E+04  0.00000000000E+00 0. -1.
</event>
<event>
 4    1  0.7181337E+003  0.2290077E+02  0.7546771E-02  0.1493748E+00
          2   -1    0    0  502    0  0.00000000000E+00  0.00000000000E+00  0.13513689374E+04  0.13513689374E+04  0.00000000000E+00 0. -1.
          1   -1    0    0  501    0 -0.00000000000E+00 -0.00000000000E+00 -0.13357766720E+02  0.13357766720E+02  0.00000000000E+00 0. -1.
          2    1    1    2  501    0  0.12721794950E+02  0.19042095648E+02  0.13413834886E+04  0.13415789612E+04  0.00000000000E+00 0. -1.
          1    1    1    2  502    0 -0.12721794950E+02 -0.19042095648E+02 -0.33723179899E+01  0.23147742915E+02  0.00000000000E+00 0. -1.
</event>
<event>
 4    1  0.7181337E+003  0.2155528E+02  0.7546771E-02  0.1511483E+00
          2   -1    0    0  502    0  0.00000000000E+00  0.00000000000E+00  0.18061512409E+03  0.18061512409E+03  0.00000000000E+00 0.  1.
          1   -1    0    0  501    0 -0.00000000000E+00 -0.00000000000E+00 -0.88863873546E+03  0.88863873546E+03  0.00000000000E+00 0. -1.
          2    1    1    2  501    0 -0.17157468143E+02  0.13048035904E+02  0.17984072768E+03  0.18112790311E+03  0.00000000000E+00 0.  1.
          1    1    1    2  502    0  0.17157468143E+02 -0.13048035904E+02 -0.88786433905E+03  0.88812595644E+03  0.00000000000E+00 0. -1.
</event>
<event>
 4    1  0.7181337E+003  0.2726962E+02  0.7546771E-02  0.1444918E+00
          2   -1    0    0  502    0  0.00000000000E+00  0.00000000000E+00  0.59254273589E+03  0.59254273589E+03  0.00000000000E+00 0.  1.
          1   -1    0    0  501    0 -0.00000000000E+00 -0.00000000000E+00 -0.24320156818E+01  0.24320156818E+01  0.00000000000E+00 0.  1.
          2    1    1    2  501    0  0.23481481467E+01  0.27168335044E+02  0.50201194644E+03  0.50275205280E+03  0.00000000000E+00 0.  1.
          1    1    1    2  502    0 -0.23481481467E+01 -0.27168335044E+02  0.88098773768E+02  0.92222698769E+02  0.00000000000E+00 0.  1.
</event>
<event>
 4    1  0.7181337E+003  0.4059720E+02  0.7546771E-02  0.1345021E+00
          2   -1    0    0  502    0  0.00000000000E+00  0.00000000000E+00  0.87618176533E+03  0.87618176533E+03  0.00000000000E+00 0. -1.
          1   -1    0    0  501    0 -0.00000000000E+00 -0.00000000000E+00 -0.21292610027E+04  0.21292610027E+04  0.00000000000E+00 0. -1.
          2    1    1    2  501    0 -0.64765135383E+01  0.40077272590E+02  0.87551784867E+03  0.87645857652E+03  0.00000000000E+00 0. -1.
          1    1    1    2  502    0  0.64765135383E+01 -0.40077272590E+02 -0.21285970861E+04  0.21289841916E+04  0.00000000000E+00 0. -1.
</event>
<event>
 4    1  0.7181337E+003  0.3322260E+02  0.7546771E-02  0.1393509E+00
          2   -1    0    0  502    0  0.00000000000E+00  0.00000000000E+00  0.12782588175E+04  0.12782588175E+04  0.00000000000E+00 0. -1.
          1   -1    0    0  501    0 -0.00000000000E+00 -0.00000000000E+00 -0.20646454917E+02  0.20646454917E+02  0.00000000000E+00 0.  1.
          2    1    1    2  501    0  0.28828430878E+02 -0.16512503947E+02  0.12645331296E+04  0.12649694768E+04  0.00000000000E+00 0. -1.
          1    1    1    2  502    0 -0.28828430878E+02  0.16512503947E+02 -0.69207670059E+01  0.33935795695E+02  0.00000000000E+00 0.  1.
</event>
<event>
 4    1  0.7181337E+003  0.2175147E+02  0.7546771E-02  0.1508801E+00
          2   -1    0    0  502    0  0.00000000000E+00  0.00000000000E+00  0.49068727773E+03  0.49068727773E+03  0.00000000000E+00 0. -1.
          1   -1    0    0  501    0 -0.00000000000E+00 -0.00000000000E+00 -0.14978544240E+01  0.14978544240E+01  0.00000000000E+00 0.  1.
          2    1    1    2  501    0  0.66319042579E+01  0.20715799162E+02  0.39148359378E+03  0.39208740185E+03  0.00000000000E+00 0. -1.
          1    1    1    2  502    0 -0.66319042579E+01 -0.20715799162E+02  0.97705829523E+02  0.10009773030E+03  0.00000000000E+00 0.  1.
</event>
<event>
 4    1  0.7181337E+003  0.2029929E+02  0.7546771E-02  0.1529509E+00
          2   -1    0    0  502    0  0.00000000000E+00  0.00000000000E+00  0.49266315340E+03  0.49266315340E+03  0.00000000000E+00 0.  1.
          1   -1    0    0  501    0 -0.00000000000E+00 -0.00000000000E+00 -0.82698928068E+01  0.82698928068E+01  0.00000000000E+00 0.  1.
          2    1    1    2  501    0 -0.21319238778E+01 -0.20187027254E+02  0.47965984651E+03  0.48008918914E+03  0.00000000000E+00 0.  1.
          1    1    1    2  502    0  0.21319238778E+01  0.20187027254E+02  0.47334140821E+01  0.20843857072E+02  0.00000000000E+00 0.  1.
</event>
<event>
 4    1  0.7181337E+003  0.2027219E+02  0.7546771E-02  0.1529915E+00
          2   -1    0    0  502    0  0.00000000000E+00  0.00000000000E+00  0.64538625828E+01  0.64538625828E+01  0.00000000000E+00 0.  1.
          1   -1    0    0  501    0 -0.00000000000E+00 -0.00000000000E+00 -0.86949953126E+03  0.86949953126E+03  0.00000000000E+00 0.  1.
          2    1    1    2  501    0  0.16403520040E+02  0.11911593997E+02 -0.98883964762E+01  0.22555308158E+02  0.00000000000E+00 0.  1.
          1    1    1    2  502    0 -0.16403520040E+02 -0.11911593997E+02 -0.85315727221E+03  0.85339808569E+03  0.00000000000E+00 0.  1.
</event>
<event>
 4    1  0.7181337E+003  0.2701907E+02  0.7546771E-02  0.1447417E+00
          2   -1    0    0  502    0  0.00000000000E+00  0.00000000000E+00  0.13921692892E+04  0.13921692892E+04  0.00000000000E+00 0. -1.
          1   -1    0    0  501    0 -0.00000000000E+00 -0.00000000000E+00 -0.58485877227E+01  0.58485877227E+01  0.00000000000E+00 0. -1.
          2    1    1    2  501    0 -0.15357711877E+02 -0.22229948403E+02  0.13600970226E+04  0.13603653703E+04  0.00000000000E+00 0. -1.
          1    1    1    2  502    0  0.15357711877E+02  0.22229948403E+02  0.26223678947E+02  0.37652506658E+02  0.00000000000E+00 0. -1.
</event>
<event>
 4    1  0.7181337E+003  0.4092362E+02  0.7546771E-02  0.1343157E+00
          2   -1    0    0  502    0  0.00000000000E+00  0.00000000000E+00  0.92892636618E+03  0.92892636618E+03  0.00000000000E+00 0. -1.
          1   -1    0    0  501    0 -0.00000000000E+00 -0.00000000000E+00 -0.38043840005E+02  0.38043840005E+02  0.00000000000E+00 0. -1.
          2    1    1    2  501    0  0.34212451200E+02  0.22455539402E+02  0.91733125733E+03  0.91824363801E+03  0.00000000000E+00 0. -1.
          1    1    1    2  502    0 -0.34212451200E+02 -0.22455539402E+02 -0.26448731154E+02  0.48726568180E+02  0.00000000000E+00 0. -1.
</event>
<event>
 4    1  0.7181337E+003  0.2043577E+02  0.7546771E-02  0.1527475E+00
          2   -1    0    0  502    0  0.00000000000E+00  0.00000000000E+00  0.16016840978E+01  0.16016840978E+01  0.00000000000E+00 0.  1.
          1   -1    0    0  501    0 -0.00000000000E+00 -0.00000000000E+00 -0.27399144319E+03  0.27399144319E+03  0.00000000000E+00 0.  1.
          2    1    1    2  501    0 -0.14945860126E+02  0.13937075271E+02 -0.10588912472E+03  0.10784306902E+03  0.00000000000E+00 0.  1.
          1    1    1    2  502    0  0.14945860126E+02 -0.13937075271E+02 -0.16650063437E+03  0.16775005826E+03  0.00000000000E+00 0.  1.
</event>
<event>
 4    1  0.7181337E+003  0.2552126E+02  0.7546771E-02  0.1463056E+00
          2   -1    0    0  502    0  0.00000000000E+00  0.00000000000E+00  0.12920668163E+04  0.12920668163E+04  0.00000000000E+00 0.  1.
          1   -1    0    0  501    0 -0.00000000000E+00 -0.00000000000E+00 -0.45195343846E+02  0.45195343846E+02  0.00000000000E+00 0. -1.
          2    1    1    2  501    0 -0.25006612165E+02 -0.50994006796E+01  0.12883274491E+04  0.12885802073E+04  0.00000000000E+00 0.  1.
          1    1    1    2  502    0  0.25006612165E+02  0.50994006796E+01 -0.41455976613E+02  0.48681952879E+02  0.00000000000E+00 0. -1.
</event>
<event>
 4    1  0.7181337E+003  0.4060024E+02  0.7546771E-02  0.1345004E+00
          2   -1    0    0  502    0  0.00000000000E+00  0.00000000000E+00  0.73160124999E+03  0.73160124999E+03  0.00000000000E+00 0.  1.
          1   -1    0    0  501    0 -0.00000000000E+00 -0.00000000000E+00 -0.27868011109E+03  0.27868011109E+03  0.00000000000E+00 0. -1.
          2    1    1    2  501    0  0.28001021723E+02  0.29399362529E+02  0.72955508954E+03  0.73068393195E+03  0.00000000000E+00 0.  1.
          1    1    1    2  502    0 -0.28001021723E+02 -0.29399362529E+02 -0.27663395063E+03  0.27959742913E+03  0.00000000000E+00 0. -1.
</event>
<event>
 4    1  0.7181337E+003  0.2209067E+02  0.7546771E-02  0.1504244E+00
          2   -1    0    0  502    0  0.00000000000E+00  0.00000000000E+00  0.95024465570E+03  0.95024465570E+03  0.00000000000E+00 0. -1.
          1   -1    0    0  501    0 -0.00000000000E+00 -0.00000000000E+00 -0.36787437842E+02  0.36787437842E+02  0.00000000000E+00 0.  1.
          2    1    1    2  501    0 -0.13271047472E+02  0.17660035064E+02  0.94678782896E+03  0.94704550609E+03  0.00000000000E+00 0. -1.
          1    1    1    2  502    0  0.13271047472E+02 -0.17660035064E+02 -0.33330611102E+02  0.39986587450E+02  0.00000000000E+00 0.  1.
</event>
<event>
 4    1  0.7181337E+003  0.2338750E+02  0.7546771E-02  0.1487689E+00
          2   -1    0    0  502    0  0.00000000000E+00  0.00000000000E+00  0.87106402612E+03  0.87106402612E+03  0.00000000000E+00 0.  1.
          1   -1    0    0  501    0 -0.00000000000E+00 -0.00000000000E+00 -0.57304023829E+02  0.57304023829E+02  0.00000000000E+00 0.  1.
          2    1    1    2  501    0 -0.28702345068E+01  0.23210704308E+02  0.86851375016E+03  0.86882858451E+03  0.00000000000E+00 0.  1.
          1    1    1    2  502    0  0.28702345068E+01 -0.23210704308E+02 -0.54753747863E+02  0.59539465447E+02  0.00000000000E+00 0.  1.
</event>
<event>
 4    1  0.7181337E+003  0.2697745E+02  0.7546771E-02  0.1447835E+00
          2   -1    0    0  502    0  0.00000000000E+00  0.00000000000E+00  0.88558772148E+01  0.88558772148E+01  0.00000000000E+00 0. -1.
          1   -1    0    0  501    0 -0.00000000000E+00 -0.00000000000E+00 -0.14087140650E+04  0.14087140650E+04  0.00000000000E+00 0. -1.
          2    1    1    2  501    0 -0.11046052582E+02 -0.24612342675E+02 -0.12129120638E+02  0.29578679096E+02  0.00000000000E+00 0. -1.
          1    1    1    2  502    0  0.11046052582E+02  0.24612342675E+02 -0.13877290672E+04  0.13879912632E+04  0.00000000000E+00 0. -1.
</event>
<event>
 4    1  0.7181337E+003  0.2077978E+02  0.7546771E-02  0.1522432E+00
          2   -1    0    0  502    0  0.00000000000E+00  0.00000000000E+00  0.12895455717E+04  0.12895455717E+04  0.00000000000E+00 0.  1.
          1   -1    0    0  501    0 -0.00000000000E+00 -0.00000000000E+00 -0.33961784083E+00  0.33961784083E+00  0.00000000000E+00 0.  1.
          2    1    1    2  501    0 -0.20774497319E+02  0.46874542698E+00  0.72104967678E+03  0.72134903885E+03  0.00000000000E+00 0.  1.
          1    1    1    2  502    0  0.20774497319E+02 -0.46874542698E+00  0.56815627711E+03  0.56853615073E+03  0.00000000000E+00 0.  1.
</event>
<event>
 4    1  0.7181337E+003  0.2037164E+02  0.7546771E-02  0.1528428E+00
          2   -1    0    0  502    0  0.00000000000E+00  0.00000000000E+00  0.11854664698E+03  0.11854664698E+03  0.00000000000E+00 0. -1.
          1   -1    0    0  501    0 -0.00000000000E+00 -0.00000000000E+00 -0.51538226467E+01  0.51538226467E+01  0.00000000000E+00 0.  1.
          2    1    1    2  501    0 -0.17619993582E+02  0.10224458758E+02  0.91724857569E+02  0.93959849014E+02  0.00000000000E+00 0. -1.
          1    1    1    2  502    0  0.17619993582E+02 -0.10224458758E+02  0.21667966765E+02  0.29740620613E+02  0.00000000000E+00 0.  1.
</event>
<event>
 4    1  0.7181337E+003  0.2549531E+02  0.7546771E-02  0.1463338E+00
          2   -1    0    0  502    0  0.00000000000E+00  0.00000000000E+00  0.16726080934E+02  0.16726080934E+02  0.00000000000E+00 0. -1.
          1   -1    0    0  501    0 -0.00000000000E+00 -0.00000000000E+00 -0.17775154649E+03  0.17775154649E+03  0.00000000000E+00 0.  1.
          2    1    1    2  501    0 -0.20707441958E+02  0.14873214982E+02  0.54415611586E+01  0.26069546682E+02  0.00000000000E+00 0. -1.
          1    1    1    2  502    0  0.20707441958E+02 -0.14873214982E+02 -0.16646702671E+03  0.16840808074E+03  0.00000000000E+00 0.  1.
</event>
<event>
 4    1  0.7181337E+003  0.4578228E+02  0.7546771E-02  0.1317573E+00
          2   -1    0    0  502    0  0.00000000000E+00  0.00000000000E+00  0.16873513198E+03  0.16873513198E+03  0.00000000000E+00 0. -1.
          1   -1    0    0  501    0 -0.00000000000E+00 -0.00000000000E+00 -0.16367308502E+03  0.16367308502E+03  0.00000000000E+00 0.  1.
          2    1    1    2  501    0 -0.16748259125E+02 -0.42608841324E+02  0.16230368057E+03  0.16863719124E+03  0.00000000000E+00 0. -1.
          1    1    1    2  502    0  0.16748259125E+02  0.42608841324E+02 -0.15724163360E+03  0.16377102577E+03  0.00000000000E+00 0.  1.
</event>
<event>
 4    1  0.7181337E+003  0.2524566E+02  0.7546771E-02  0.1466074E+00
          2   -1    0    0  502    0  0.00000000000E+00  0.00000000000E+00  0.34993940248E+02  0.34993940248E+02  0.00000000000E+00 0.  1.
          1   -1    0    0  501    0 -0.00000000000E+00 -0.00000000000E+00 -0.13887985461E+03  0.13887985461E+03  0.00000000000E+00 0.  1.
          2    1    1    2  501    0 -0.15091145730E+02 -0.20238591426E+02  0.29093151319E+02  0.38519536810E+02  0.00000000000E+00 0.  1.
          1    1    1    2  502    0  0.15091145730E+02  0.20238591426E+02 -0.13297906569E+03  0.13535425805E+03  0.00000000000E+00 0.  1.
</event>
<event>
 4    1  0.7181337E+003  0.2174969E+02  0.7546771E-02  0.1508825E+00
          2   -1    0    0  502    0  0.00000000000E+00  0.00000000000E+00  0.31895160837E+01  0.31895160837E+01  0.00000000000E+00 0. -1.
          1   -1    0    0  501    0 -0.00000000000E+00 -0.00000000000E+00 -0.41499174062E+03  0.41499174062E+03  0.00000000000E+00 0.  1.
          2    1    1    2  501    0  0.46675783045E+01 -0.21242944544E+02 -0.38287820035E+02  0.44034147467E+02  0.00000000000E+00 0. -1.
          1    1    1    2  502    0 -0.46675783045E+01  0.21242944544E+02 -0.37351440450E+03  0.37414710923E+03  0.00000000000E+00 0.  1.
</event>
<event>
 4    1  0.7181337E+003  0.2556748E+02  0.7546771E-02  0.1462554E+00
          2   -1    0    0  502    0  0.00000000000E+00  0.00000000000E+00  0.45697467579E+02  0.45697467579E+02  0.00000000000E+00 0. -1.
          1   -1    0    0  501    0 -0.00000000000E+00 -0.00000000000E+00 -0.18538654974E+02  0.18538654974E+02  0.00000000000E+00 0.  1.
          2    1    1    2  501    0 -0.76592655143E+01 -0.24393259012E+02 -0.17694358474E+01  0.25628623386E+02  0.00000000000E+00 0. -1.
          1    1    1    2  502    0  0.76592655143E+01  0.24393259012E+02  0.28928248452E+02  0.38607499167E+02  0.00000000000E+00 0.  1.
</event>
<event>
 4    1  0.7181337E+003  0.2700281E+02  0.7546771E-02  0.1447580E+00
          2   -1    0    0  502    0  0.00000000000E+00  0.00000000000E+00  0.78250421311E+03  0.78250421311E+03  0.00000000000E+00 0. -1.
          1   -1    0    0  501    0 -0.00000000000E+00 -0.00000000000E+00 -0.10632280186E+01  0.10632280186E+01  0.00000000000E+00 0.  1.
          2    1    1    2  501    0  0.26868342483E+02 -0.26914495954E+01  0.52845633134E+03  0.52914576996E+03  0.00000000000E+00 0. -1.
          1    1    1    2  502    0 -0.26868342483E+02  0.26914495954E+01  0.25298465375E+03  0.25442167117E+03  0.00000000000E+00 0.  1.
</event>
<event>
 4    1  0.1686390E+004  0.2405821E+02  0.7546771E-02  0.1479621E+00
          2   -1    0    0  502    0  0.00000000000E+00  0.00000000000E+00  0.79675844034E+03  0.79675844034E+03  0.00000000000E+00 0.  1.
          1   -1    0    0  501    0 -0.00000000000E+00 -0.00000000000E+00 -0.11808220018E+04  0.11808220018E+04  0.00000000000E+00 0. -1.
          2    1    1    2  501    0 -0.19710634335E+02 -0.13794501366E+02  0.79645424230E+03  0.79681751829E+03  0.00000000000E+00 0.  1.
          1    1    1    2  502    0  0.19710634335E+02  0.13794501366E+02 -0.11805178037E+04  0.11807629238E+04  0.00000000000E+00 0. -1.
</event>
<event>
 4    1  0.7181337E+003  0.3818342E+02  0.7546771E-02  0.1359473E+00
          2   -1    0    0  502    0  0.00000000000E+00  0.00000000000E+00  0.67519343069E+03  0.67519343069E+03  0.00000000000E+00 0.  1.
          1   -1    0    0  501    0 -0.00000000000E+00 -0.00000000000E+00 -0.10012840175E+02  0.10012840175E+02  0.00000000000E+00 0. -1.
          2    1    1    2  501    0 -0.34363966688E+02  0.16646058030E+02  0.63601033997E+03  0.63715549594E+03  0.00000000000E+00 0.  1.
          1    1    1    2  502    0  0.34363966688E+02 -0.16646058030E+02  0.29170250549E+02  0.48050774932E+02  0.00000000000E+00 0. -1.
</event>
<event>
 4    1  0.7181337E+003  0.2963465E+02  0.7546771E-02  0.1422798E+00
          2   -1    0    0  502    0  0.00000000000E+00  0.00000000000E+00  0.83371167238E+00  0.83371167238E+00  0.00000000000E+00 0.  1.
          1   -1    0    0  501    0 -0.00000000000E+00 -0.00000000000E+00 -0.10652574364E+04  0.10652574364E+04  0.00000000000E+00 0.  1.
          2    1    1    2  501    0 -0.63529568606E+01 -0.28945680193E+02 -0.47591833518E+03  0.47684009292E+03  0.00000000000E+00 0.  1.
          1    1    1    2  502    0  0.63529568606E+01  0.28945680193E+02 -0.58850538956E+03  0.58925105516E+03  0.00000000000E+00 0.  1.
</event>
<event>
 4    1  0.7181337E+003  0.2773416E+02  0.7546771E-02  0.1440369E+00
          2   -1    0    0  502    0  0.00000000000E+00  0.00000000000E+00  0.17019046205E+04  0.17019046205E+04  0.00000000000E+00 0. -1.
          1   -1    0    0  501    0 -0.00000000000E+00 -0.00000000000E+00 -0.79966421476E+00  0.79966421476E+00  0.00000000000E+00 0. -1.
          2    1    1    2  501    0  0.25746626314E+02  0.10309946482E+02  0.14119412221E+04  0.14122135810E+04  0.00000000000E+00 0. -1.
          1    1    1    2  502    0 -0.25746626314E+02 -0.10309946482E+02  0.28916373423E+03  0.29049070374E+03  0.00000000000E+00 0. -1.
</event>
<event>
 4    1  0.7181337E+003  0.2380183E+02  0.7546771E-02  0.1482668E+00
          2   -1    0    0  502    0  0.00000000000E+00  0.00000000000E+00  0.43427306944E+02  0.43427306944E+02  0.00000000000E+00 0. -1.
          1   -1    0    0  501    0 -0.00000000000E+00 -0.00000000000E+00 -0.21427053346E+02  0.21427053346E+02  0.00000000000E+00 0. -1.
          2    1    1    2  501    0 -0.23431284318E+02  0.41835260724E+01  0.31281276772E+02  0.39307063636E+02  0.00000000000E+00 0. -1.
          1    1    1    2  502    0  0.23431284318E+02 -0.41835260724E+01 -0.92810231741E+01  0.25547296654E+02  0.00000000000E+00 0. -1.
</event>
<event>
 4    1  0.7181337E+003  0.3418482E+02  0.7546771E-02  0.1386386E+00
          2   -1    0    0  502    0  0.00000000000E+00  0.00000000000E+00  0.24029192461E+03  0.24029192461E+03  0.00000000000E+00 0. -1.
          1   -1    0    0  501    0 -0.00000000000E+00 -0.00000000000E+00 -0.65693272412E+02  0.65693272412E+02  0.00000000000E+00 0. -1.
          2    1    1    2  501    0 -0.34084505556E+02  0.26169450816E+01  0.23452004299E+03  0.23699842296E+03  0.00000000000E+00 0. -1.
          1    1    1    2  502    0  0.34084505556E+02 -0.26169450816E+01 -0.59921390795E+02  0.68986774061E+02  0.00000000000E+00 0. -1.
</event>
<event>
 4    1  0.7181337E+003  0.3060247E+02  0.7546771E-02  0.1414432E+00
          2   -1    0    0  502    0  0.00000000000E+00  0.00000000000E+00  0.39455334782E+01  0.39455334782E+01  0.00000000000E+00 0.  1.
          1   -1    0    0  501    0 -0.00000000000E+00 -0.00000000000E+00 -0.25710331183E+03  0.25710331183E+03  0.00000000000E+00 0. -1.
          2    1    1    2  501    0  0.10634187185E+01 -0.30583983596E+02 -0.90408723597E+02  0.95447620266E+02  0.00000000000E+00 0.  1.
          1    1    1    2  502    0 -0.10634187185E+01  0.30583983596E+02 -0.16274905475E+03  0.16560122504E+03  0.00000000000E+00 0. -1.
</event>
<event>
 4    1  0.7181337E+003  0.2418727E+02  0.7546771E-02  0.1478104E+00
          2   -1    0    0  502    0  0.00000000000E+00  0.00000000000E+00  0.16597512439E+02  0.16597512439E+02  0.00000000000E+00 0.  1.
          1   -1    0    0  501    0 -0.00000000000E+00 -0.00000000000E+00 -0.76441259186E+02  0.76441259186E+02  0.00000000000E+00 0.  1.
          2    1    1    2  501    0 -0.23944061864E+02 -0.34213694290E+01  0.42276621399E+01  0.24553960872E+02  0.00000000000E+00 0.  1.
          1    1    1    2  502    0  0.23944061864E+02  0.34213694290E+01 -0.64071408886E+02  0.68484810754E+02  0.00000000000E+00 0.  1.
</event>
<event>
 4    1  0.7181337E+003  0.2323972E+02  0.7546771E-02  0.1489510E+00
          2   -1    0    0  502    0  0.00000000000E+00  0.00000000000E+00  0.10085396105E+03  0.10085396105E+03  0.00000000000E+00 0. -1.
          1   -1    0    0  501    0 -0.00000000000E+00 -0.00000000000E+00 -0.92556471348E+03  0.92556471348E+03  0.00000000000E+00 0. -1.
          2    1    1    2  501    0 -0.19481470020E+02  0.12671108974E+02  0.99367148529E+02  0.10204859080E+03  0.00000000000E+00 0. -1.
          1    1    1    2  502    0  0.19481470020E+02 -0.12671108974E+02 -0.92407790095E+03  0.92437008374E+03  0.00000000000E+00 0. -1.
</event>
<event>
 4    1  0.7181337E+003  0.2702061E+02  0.7546771E-02  0.1447401E+00
          2   -1    0    0  502    0  0.00000000000E+00  0.00000000000E+00  0.18926021099E+04  0.18926021099E+04  0.00000000000E+00 0. -1.
          1   -1    0    0  501    0 -0.00000000000E+00 -0.00000000000E+00 -0.22896601185E+01  0.22896601185E+01  0.00000000000E+00 0. -1.
          2    1    1    2  501    0 -0.43971318128E+01 -0.26660434253E+02  0.18091081534E+04  0.18093099304E+04  0.00000000000E+00 0. -1.
          1    1    1    2  502    0  0.43971318128E+01  0.26660434253E+02  0.81204296382E+02  0.85581839626E+02  0.00000000000E+00 0. -1.
</event>
<event>
 4    1  0.7181337E+003  0.2539598E+02  0.7546771E-02  0.1464422E+00
          2   -1    0    0  502    0  0.00000000000E+00  0.00000000000E+00  0.77061955390E+01  0.77061955390E+01  0.00000000000E+00 0.  1.
          1   -1    0    0  501    0 -0.00000000000E+00 -0.00000000000E+00 -0.10301282473E+04  0.10301282473E+04  0.00000000000E+00 0. -1.
          2    1    1    2  501    0 -0.15835317025E+02  0.19854433620E+02 -0.13820104750E+02  0.28912818869E+02  0.00000000000E+00 0.  1.
          1    1    1    2  502    0  0.15835317025E+02 -0.19854433620E+02 -0.10086019470E+04  0.10089216240E+04  0.00000000000E+00 0. -1.
</event>
<event>
 4    1  0.7181337E+003  0.2851752E+02  0.7546771E-02  0.1432932E+00
          2   -1    0    0  502    0  0.00000000000E+00  0.00000000000E+00  0.85664530228E+03  0.85664530228E+03  0.00000000000E+00 0. -1.
          1   -1    0    0  501    0 -0.00000000000E+00 -0.00000000000E+00 -0.63983127619E+01  0.63983127619E+01  0.00000000000E+00 0.  1.
          2    1    1    2  501    0  0.26230139310E+02 -0.11190560063E+02  0.82334735560E+03  0.82384107498E+03  0.00000000000E+00 0. -1.
          1    1    1    2  502    0 -0.26230139310E+02  0.11190560063E+02  0.26899633917E+02  0.39202540066E+02  0.00000000000E+00 0.  1.
</event>
<event>
 4    1  0.7181337E+003  0.2443722E+02  0.7546771E-02  0.1475199E+00
          2   -1    0    0  502    0  0.00000000000E+00  0.00000000000E+00  0.68850623937E+03  0.68850623937E+03  0.00000000000E+00 0. -1.
          1   -1    0    0  501    0 -0.00000000000E+00 -0.00000000000E+00 -0.92069684656E+00  0.92069684656E+00  0.00000000000E+00 0. -1.
          2    1    1    2  501    0  0.12992492626E+02  0.20697164745E+02  0.42676730161E+03  0.42746638139E+03  0.00000000000E+00 0. -1.
          1    1    1    2  502    0 -0.12992492626E+02 -0.20697164745E+02  0.26081824091E+03  0.26196055482E+03  0.00000000000E+00 0. -1.
</event>
<event>
 4    1  0.7181337E+003  0.3241543E+02  0.7546771E-02  0.1399705E+00
          2   -1    0    0  502    0  0.00000000000E+00  0.00000000000E+00  0.15955642554E+03  0.15955642554E+03  0.00000000000E+00 0. -1.
          1   -1    0    0  501    0 -0.00000000000E+00 -0.00000000000E+00 -0.17904946851E+03  0.17904946851E+03  0.00000000000E+00 0. -1.
          2    1    1    2  501    0  0.30775066373E+02  0.10181121484E+02  0.15641374448E+03  0.15973734506E+03  0.00000000000E+00 0. -1.
          1    1    1    2  502    0 -0.30775066373E+02 -0.10181121484E+02 -0.17590678745E+03  0.17886854899E+03  0.00000000000E+00 0. -1.
</event>
<event>
 4    1  0.7181337E+003  0.2543596E+02  0.7546771E-02  0.1463985E+00
          2   -1    0    0  502    0  0.00000000000E+00  0.00000000000E+00  0.13245831849E+03  0.13245831849E+03  0.00000000000E+00 0. -1.
          1   -1    0    0  501    0 -0.00000000000E+00 -0.00000000000E+00 -0.15810530173E+03  0.15810530173E+03  0.00000000000E+00 0. -1.
          2    1    1    2  501    0 -0.23751276208E+02 -0.91030213596E+01  0.13019656292E+03  0.13265795535E+03  0.00000000000E+00 0. -1.
          1    1    1    2  502    0  0.23751276208E+02  0.91030213596E+01 -0.15584354616E+03  0.15790566488E+03  0.00000000000E+00 0. -1.
</event>
<event>
 4    1  0.7181337E+003  0.4042376E+02  0.7546771E-02  0.1346020E+00
          2   -1    0    0  502    0  0.00000000000E+00  0.00000000000E+00  0.14343964506E+04  0.14343964506E+04  0.00000000000E+00 0. -1.
          1   -1    0    0  501    0 -0.00000000000E+00 -0.00000000000E+00 -0.26750826873E+01  0.26750826873E+01  0.00000000000E+00 0.  1.
          2    1    1    2  501    0  0.21977691285E+02  0.33927302311E+02  0.12603096777E+04  0.12609577964E+04  0.00000000000E+00 0. -1.
          1    1    1    2  502    0 -0.21977691285E+02 -0.33927302311E+02  0.17141169018E+03  0.17611373679E+03  0.00000000000E+00 0.  1.
</event>
<event>
 4    1  0.7181337E+003  0.2575934E+02  0.7546771E-02  0.1460485E+00
          2   -1    0    0  502    0  0.00000000000E+00  0.00000000000E+00  0.12385000326E+04  0.12385000326E+04  0.00000000000E+00 0. -1.
          1   -1    0    0  501    0 -0.00000000000E+00 -0.00000000000E+00 -0.89375397593E+00  0.89375397593E+00  0.00000000000E+00 0.  1.
          2    1    1    2  501    0  0.12336166670E+02 -0.22613327602E+02  0.10110015471E+04  0.10113296553E+04  0.00000000000E+00 0. -1.
          1    1    1    2  502    0 -0.12336166670E+02  0.22613327602E+02  0.22660473153E+03  0.22806413121E+03  0.00000000000E+00 0.  1.
</event>
<event>
 4    1  0.8622884E+003  0.2945250E+02  0.7546771E-02  0.1424415E+00
          2   -1    0    0  502    0  0.00000000000E+00  0.00000000000E+00  0.20273877078E+04  0.20273877078E+04  0.00000000000E+00 0. -1.
          1   -1    0    0  501    0 -0.00000000000E+00 -0.00000000000E+00 -0.20052154726E+03  0.20052154726E+03  0.00000000000E+00 0.  1.
          2    1    1    2  501    0  0.49914630850E+01  0.29026452518E+02  0.20261986149E+04  0.20264126620E+04  0.00000000000E+00 0. -1.
          1    1    1    2  502    0 -0.49914630850E+01 -0.29026452518E+02 -0.19933245437E+03  0.20149659306E+03  0.00000000000E+00 0.  1.
</event>
<event>
 4    1  0.7181337E+003  0.2137885E+02  0.7546771E-02  0.1513924E+00
          2   -1    0    0  502    0  0.00000000000E+00  0.00000000000E+00  0.30112356730E+00  0.30112356730E+00  0.00000000000E+00 0. -1.
          1   -1    0    0  501    0 -0.00000000000E+00 -0.00000000000E+00 -0.15228965217E+04  0.15228965217E+04  0.00000000000E+00 0. -1.
          2    1    1    2  501    0 -0.52568374843E+01  0.20722460360E+02 -0.80522156302E+03  0.80550531982E+03  0.00000000000E+00 0. -1.
          1    1    1    2  502    0  0.52568374843E+01 -0.20722460360E+02 -0.71737383516E+03  0.71769232550E+03  0.00000000000E+00 0. -1.
</event>
<event>
 4    1  0.7181337E+003  0.2483964E+02  0.7546771E-02  0.1470605E+00
          2   -1    0    0  502    0  0.00000000000E+00  0.00000000000E+00  0.65532176175E+00  0.65532176175E+00  0.00000000000E+00 0.  1.
          1   -1    0    0  501    0 -0.00000000000E+00 -0.00000000000E+00 -0.12736148652E+04  0.12736148652E+04  0.00000000000E+00 0.  1.
          2    1    1    2  501    0 -0.16962372828E+02  0.18146234284E+02 -0.31114221381E+03  0.31213215971E+03  0.00000000000E+00 0.  1.
          1    1    1    2  502    0  0.16962372828E+02 -0.18146234284E+02 -0.96181732962E+03  0.96213802724E+03  0.00000000000E+00 0.  1.
</event>
<event>
 4    1  0.7181337E+003  0.2721640E+02  0.7546771E-02  0.1445446E+00
          2   -1    0    0  502    0  0.00000000000E+00  0.00000000000E+00  0.48174219183E+03  0.48174219183E+03  0.00000000000E+00 0.  1.
          1   -1    0    0  501    0 -0.00000000000E+00 -0.00000000000E+00 -0.23627662084E+01  0.23627662084E+01  0.00000000000E+00 0.  1.
          2    1    1    2  501    0  0.18675479360E+02  0.19797948148E+02  0.38273280175E+03  0.38369927002E+03  0.00000000000E+00 0.  1.
          1    1    1    2  502    0 -0.18675479360E+02 -0.19797948148E+02  0.96646623871E+02  0.10040568802E+03  0.00000000000E+00 0.  1.
</event>
<event>
 4    1  0.7181337E+003  0.2614344E+02  0.7546771E-02  0.1456407E+00
          2   -1    0    0  502    0  0.00000000000E+00  0.00000000000E+00  0.29550422739E+03  0.29550422739E+03  0.00000000000E+00 0.  1.
          1   -1    0    0  501    0 -0.00000000000E+00 -0.00000000000E+00 -0.75964675471E+02  0.75964675471E+02  0.00000000000E+00 0.  1.
          2    1    1    2  501    0  0.16030670589E+02  0.20651804672E+02  0.29265480575E+03  0.29382020823E+03  0.00000000000E+00 0.  1.
          1    1    1    2  502    0 -0.16030670589E+02 -0.20651804672E+02 -0.73115253829E+02  0.77648694633E+02  0.00000000000E+00 0.  1.
</event>
<event>
 4    1  0.7181337E+003  0.2448343E+02  0.7546771E-02  0.1474666E+00
          2   -1    0    0  502    0  0.00000000000E+00  0.00000000000E+00  0.32942711773E+01  0.32942711773E+01  0.00000000000E+00 0.  1.
          1   -1    0    0  501    0 -0.00000000000E+00 -0.00000000000E+00 -0.22814593317E+03  0.22814593317E+03  0.00000000000E+00 0. -1.
          2    1    1    2  501    0 -0.23971885558E+02  0.49786779228E+01 -0.60361675980E+02  0.65138087616E+02  0.00000000000E+00 0.  1.
          1    1    1    2  502    0  0.23971885558E+02 -0.49786779228E+01 -0.16448998602E+03  0.16630211673E+03  0.00000000000E+00 0. -1.
</event>
<event>
 4    1  0.7181337E+003  0.2296907E+02  0.7546771E-02  0.1492887E+00
          2   -1    0    0  502    0  0.00000000000E+00  0.00000000000E+00  0.21259167928E+03  0.21259167928E+03  0.00000000000E+00 0. -1.
          1   -1    0    0  501    0 -0.00000000000E+00 -0.00000000000E+00 -0.51657252459E+01  0.51657252459E+01  0.00000000000E+00 0.  1.
          2    1    1    2  501    0 -0.76443102840E+01  0.21659697271E+02  0.18219581416E+03  0.18363793906E+03  0.00000000000E+00 0. -1.
          1    1    1    2  502    0  0.76443102840E+01 -0.21659697271E+02  0.25230139880E+02  0.34119465470E+02  0.00000000000E+00 0.  1.
</event>
<event>
 4    1  0.7181337E+003  0.2684321E+02  0.7546771E-02  0.1449190E+00
          2   -1    0    0  502    0  0.00000000000E+00  0.00000000000E+00  0.24924559345E+03  0.24924559345E+03  0.00000000000E+00 0. -1.
          1   -1    0    0  501    0 -0.00000000000E+00 -0.00000000000E+00 -0.63612203553E+02  0.63612203553E+02  0.00000000000E+00 0.  1.
          2    1    1    2  501    0  0.23365899964E+02  0.13213342912E+02  0.24564968679E+03  0.24711197125E+03  0.00000000000E+00 0. -1.
          1    1    1    2  502    0 -0.23365899964E+02 -0.13213342912E+02 -0.60016296893E+02  0.65745825760E+02  0.00000000000E+00 0.  1.
</event>
<event>
 4    1  0.7181337E+003  0.3322897E+02  0.7546771E-02  0.1393461E+00
          2   -1    0    0  502    0  0.00000000000E+00  0.00000000000E+00  0.77066592799E+03  0.77066592799E+03  0.00000000000E+00 0.  1.
          1   -1    0    0  501    0 -0.00000000000E+00 -0.00000000000E+00 -0.69787436148E+01  0.69787436148E+01  0.00000000000E+00 0. -1.
          2    1    1    2  501    0 -0.23868342185E+02  0.23118535140E+02  0.72846280425E+03  0.72922028332E+03  0.00000000000E+00 0.  1.
          1    1    1    2  502    0  0.23868342185E+02 -0.23118535140E+02  0.35224380121E+02  0.48424388283E+02  0.00000000000E+00 0. -1.
</event>
<event>
 4    1  0.7181337E+003  0.2267574E+02  0.7546771E-02  0.1496610E+00
          2   -1    0    0  502    0  0.00000000000E+00  0.00000000000E+00  0.75040976305E+03  0.75040976305E+03  0.00000000000E+00 0.  1.
          1   -1    0    0  501    0 -0.00000000000E+00 -0.00000000000E+00 -0.30877155438E+01  0.30877155438E+01  0.00000000000E+00 0. -1.
          2    1    1    2  501    0  0.92370005063E+01  0.20709107752E+02  0.70598772650E+03  0.70635179571E+03  0.00000000000E+00 0.  1.
          1    1    1    2  502    0 -0.92370005063E+01 -0.20709107752E+02  0.41334321000E+02  0.47145682886E+02  0.00000000000E+00 0. -1.
</event>
<event>
 4    1  0.7181337E+003  0.2275561E+02  0.7546771E-02  0.1495590E+00
          2   -1    0    0  502    0  0.00000000000E+00  0.00000000000E+00  0.26977973190E+01  0.26977973190E+01  0.00000000000E+00 0. -1.
          1   -1    0    0  501    0 -0.00000000000E+00 -0.00000000000E+00 -0.27585900291E+03  0.27585900291E+03  0.00000000000E+00 0. -1.
          2    1    1    2  501    0  0.21214576726E+00  0.22754622395E+02 -0.59761748701E+02  0.63947513275E+02  0.00000000000E+00 0. -1.
          1    1    1    2  502    0 -0.21214576726E+00 -0.22754622395E+02 -0.21339945689E+03  0.21460928695E+03  0.00000000000E+00 0. -1.
</event>
<event>
 4    1  0.7181337E+003  0.3187723E+02  0.7546771E-02  0.1403956E+00
          2   -1    0    0  502    0  0.00000000000E+00  0.00000000000E+00  0.50247683514E+03  0.50247683514E+03  0.00000000000E+00 0. -1.
          1   -1    0    0  501    0 -0.00000000000E+00 -0.00000000000E+00 -0.14344602712E+03  0.14344602712E+03  0.00000000000E+00 0. -1.
          2    1    1    2  501    0  0.15641792011E+02 -0.27775742504E+02  0.50019220471E+03  0.50120694247E+03  0.00000000000E+00 0. -1.
          1    1    1    2  502    0 -0.15641792011E+02  0.27775742504E+02 -0.14116139668E+03  0.14471591979E+03  0.00000000000E+00 0. -1.
</event>
<event>
 4    1  0.7181337E+003  0.2684961E+02  0.7546771E-02  0.1449125E+00
          2   -1    0    0  502    0  0.00000000000E+00  0.00000000000E+00  0.14650038143E+04  0.14650038143E+04  0.00000000000E+00 0.  1.
          1   -1    0    0  501    0 -0.00000000000E+00 -0.00000000000E+00 -0.31381384059E+01  0.31381384059E+01  0.00000000000E+00 0. -1.
          2    1    1    2  501    0  0.25577346508E+02  0.81670714082E+01  0.14049975188E+04  0.14052540444E+04  0.00000000000E+00 0.  1.
          1    1    1    2  502    0 -0.25577346508E+02 -0.81670714082E+01  0.56868157158E+02  0.62887908284E+02  0.00000000000E+00 0. -1.
</event>
<event>
 4    1  0.2095003E+004  0.2155352E+02  0.7546771E-02  0.1511507E+00
          2   -1    0    0  502    0  0.00000000000E+00  0.00000000000E+00  0.12306996241E+04  0.12306996241E+04  0.00000000000E+00 0.  1.
          1   -1    0    0  501    0 -0.00000000000E+00 -0.00000000000E+00 -0.86661441157E+03  0.86661441157E+03  0.00000000000E+00 0. -1.
          2    1    1    2  501    0 -0.21481675706E+02 -0.17583626551E+01  0.12304712172E+04  0.12306599736E+04  0.00000000000E+00 0.  1.
          1    1    1    2  502    0  0.21481675706E+02  0.17583626551E+01 -0.86638600467E+03  0.86665406208E+03  0.00000000000E+00 0. -1.
</event>
<event>
 4    1  0.7181337E+003  0.2000006E+02  0.7546771E-02  0.1534035E+00
          2   -1    0    0  502    0  0.00000000000E+00  0.00000000000E+00  0.77044193990E+03  0.77044193990E+03  0.00000000000E+00 0. -1.
          1   -1    0    0  501    0 -0.00000000000E+00 -0.00000000000E+00 -0.34209618107E+03  0.34209618107E+03  0.00000000000E+00 0.  1.
          2    1    1    2  501    0  0.49586140872E+01 -0.19375613880E+02  0.77001966615E+03  0.77027935745E+03  0.00000000000E+00 0. -1.
          1    1    1    2  502    0 -0.49586140872E+01  0.19375613880E+02 -0.34167390731E+03  0.34225876352E+03  0.00000000000E+00 0.  1.
</event>
<event>
 4    1  0.7181337E+003  0.2721336E+02  0.7546771E-02  0.1445477E+00
          2   -1    0    0  502    0  0.00000000000E+00  0.00000000000E+00  0.42344232010E+02  0.42344232010E+02  0.00000000000E+00 0. -1.
          1   -1    0    0  501    0 -0.00000000000E+00 -0.00000000000E+00 -0.16337548093E+03  0.16337548093E+03  0.00000000000E+00 0.  1.
          2    1    1    2  501    0  0.22633572355E+02 -0.15109213301E+02  0.36682905031E+02  0.45674965196E+02  0.00000000000E+00 0. -1.
          1    1    1    2  502    0 -0.22633572355E+02  0.15109213301E+02 -0.15771415395E+03  0.16004474775E+03  0.00000000000E+00 0.  1.
</event>
<event>
 4    1  0.7181337E+003  0.4059605E+02  0.7546771E-02  0.1345028E+00
          2   -1    0    0  502    0  0.00000000000E+00  0.00000000000E+00  0.28563301845E+03  0.28563301845E+03  0.00000000000E+00 0. -1.
          1   -1    0    0  501    0 -0.00000000000E+00 -0.00000000000E+00 -0.64462371525E+03  0.64462371525E+03  0.00000000000E+00 0.  1.
          2    1    1    2  501    0 -0.24557054570E+02  0.32326315162E+02  0.28354674679E+03  0.28643812106E+03  0.00000000000E+00 0. -1.
          1    1    1    2  502    0  0.24557054570E+02 -0.32326315162E+02 -0.64253744358E+03  0.64381861265E+03  0.00000000000E+00 0.  1.
</event>
<event>
 4    1  0.7181337E+003  0.3236044E+02  0.7546771E-02  0.1400135E+00
          2   -1    0    0  502    0  0.00000000000E+00  0.00000000000E+00  0.22387626627E+04  0.22387626627E+04  0.00000000000E+00 0. -1.
          1   -1    0    0  501    0 -0.00000000000E+00 -0.00000000000E+00 -0.58369388887E+00  0.58369388887E+00  0.00000000000E+00 0. -1.
          2    1    1    2  501    0  0.31551870147E+02  0.71887174518E+01  0.16180985863E+04  0.16184221431E+04  0.00000000000E+00 0. -1.
          1    1    1    2  502    0 -0.31551870147E+02 -0.71887174518E+01  0.62008038247E+03  0.62092421348E+03  0.00000000000E+00 0. -1.
</event>
<event>
 4    1  0.7181337E+003  0.2088601E+02  0.7546771E-02  0.1520899E+00
          2   -1    0    0  502    0  0.00000000000E+00  0.00000000000E+00  0.65700045093E+03  0.65700045093E+03  0.00000000000E+00 0. -1.
          1   -1    0    0  501    0 -0.00000000000E+00 -0.00000000000E+00 -0.68955670772E+02  0.68955670772E+02  0.00000000000E+00 0.  1.
          2    1    1    2  501    0 -0.67949771360E+01  0.19749775650E+02  0.65524868989E+03  0.65558147545E+03  0.00000000000E+00 0. -1.
          1    1    1    2  502    0  0.67949771360E+01 -0.19749775650E+02 -0.67203909729E+02  0.70374646254E+02  0.00000000000E+00 0.  1.
</event>
<event>
 4    1  0.7181337E+003  0.2660656E+02  0.7546771E-02  0.1451601E+00
          2   -1    0    0  502    0  0.00000000000E+00  0.00000000000E+00  0.11058349904E+04  0.11058349904E+04  0.00000000000E+00 0. -1.
          1   -1    0    0  501    0 -0.00000000000E+00 -0.00000000000E+00 -0.67831919214E+00  0.67831919214E+00  0.00000000000E+00 0. -1.
          2    1    1    2  501    0  0.98138140991E+01  0.24730491068E+02  0.42135060929E+03  0.42218981997E+03  0.00000000000E+00 0. -1.
          1    1    1    2  502    0 -0.98138140991E+01 -0.24730491068E+02  0.68380606194E+03  0.68432348965E+03  0.00000000000E+00 0. -1.
</event>
<event>
 4    1  0.7181337E+003  0.2368855E+02  0.7546771E-02  0.1484028E+00
          2   -1    0    0  502    0  0.00000000000E+00  0.00000000000E+00  0.92561228726E+03  0.92561228726E+03  0.00000000000E+00 0.  1.
          1   -1    0    0  501    0 -0.00000000000E+00 -0.00000000000E+00 -0.16737398150E+01  0.16737398150E+01  0.00000000000E+00 0. -1.
          2    1    1    2  501    0  0.18639821272E+02 -0.14618628941E+02  0.83224288274E+03  0.83257994399E+03  0.00000000000E+00 0.  1.
          1    1    1    2  502    0 -0.18639821272E+02  0.14618628941E+02  0.91695664700E+02  0.94706083088E+02  0.00000000000E+00 0. -1.
</event>
<event>
 4    1  0.7181337E+003  0.2155060E+02  0.7546771E-02  0.1511547E+00
          2   -1    0    0  502    0  0.00000000000E+00  0.00000000000E+00  0.11226866127E+04  0.11226866127E+04  0.00000000000E+00 0.  1.
          1   -1    0    0  501    0 -0.00000000000E+00 -0.00000000000E+00 -0.23832983860E+01  0.23832983860E+01  0.00000000000E+00 0.  1.
          2    1    1    2  501    0  0.13893355845E+02 -0.16474317775E+02  0.10715411412E+04  0.10717578298E+04  0.00000000000E+00 0.  1.
          1    1    1    2  502    0 -0.13893355845E+02  0.16474317775E+02  0.48762173113E+02  0.53312081271E+02  0.00000000000E+00 0.  1.
</event>
<event>
 4    1  0.7181337E+003  0.2507748E+02  0.7546771E-02  0.1467938E+00
          2   -1    0    0  502    0  0.00000000000E+00  0.00000000000E+00  0.70533080843E+02  0.70533080843E+02  0.00000000000E+00 0. -1.
          1   -1    0    0  501    0 -0.00000000000E+00 -0.00000000000E+00 -0.23464530731E+02  0.23464530731E+02  0.00000000000E+00 0.  1.
          2    1    1    2  501    0  0.20681565507E+02 -0.14182831698E+02  0.60541710502E+02  0.65529982278E+02  0.00000000000E+00 0. -1.
          1    1    1    2  502    0 -0.20681565507E+02  0.14182831698E+02 -0.13473160391E+02  0.28467629296E+02  0.00000000000E+00 0.  1.
</event>
<event>
 4    1  0.7181337E+003  0.2461000E+02  0.7546771E-02  0.1473214E+00
          2   -1    0    0  502    0  0.00000000000E+00  0.00000000000E+00  0.34253189882E+01  0.34253189882E+01  0.00000000000E+00 0.  1.
          1   -1    0    0  501    0 -0.00000000000E+00 -0.00000000000E+00 -0.18207987696E+03  0.18207987696E+03  0.00000000000E+00 0.  1.
          2    1    1    2  501    0  0.13673423760E+02  0.20461903406E+02 -0.73557040405E+02  0.77564748446E+02  0.00000000000E+00 0.  1.
          1    1    1    2  502    0 -0.13673423760E+02 -0.20461903406E+02 -0.10509751757E+03  0.10794044751E+03  0.00000000000E+00 0.  1.
</event>
<event>
 4    1  0.7181337E+003  0.2112785E+02  0.7546771E-02  0.1517447E+00
          2   -1    0    0  502    0  0.00000000000E+00  0.00000000000E+00  0.89247037877E+03  0.89247037877E+03  0.00000000000E+00 0.  1.
          1   -1    0    0  501    0 -0.00000000000E+00 -0.00000000000E+00 -0.15166822201E+03  0.15166822201E+03  0.00000000000E+00 0.  1.
          2    1    1    2  501    0  0.14378147572E+02  0.15480793400E+02  0.89160883190E+03  0.89185912297E+03  0.00000000000E+00 0.  1.
          1    1    1    2  502    0 -0.14378147572E+02 -0.15480793400E+02 -0.15080667515E+03  0.15227947781E+03  0.00000000000E+00 0.  1.
</event>
<event>
 4    1  0.7181337E+003  0.2244069E+02  0.7546771E-02  0.1499643E+00
          2   -1    0    0  502    0  0.00000000000E+00  0.00000000000E+00  0.46388416408E+01  0.46388416408E+01  0.00000000000E+00 0. -1.
          1   -1    0    0  501    0 -0.00000000000E+00 -0.00000000000E+00 -0.45857623530E+03  0.45857623530E+03  0.00000000000E+00 0.  1.
          2    1    1    2  501    0  0.64475962563E+01 -0.21494492041E+02 -0.24623882789E+02  0.33315466216E+02  0.00000000000E+00 0. -1.
          1    1    1    2  502    0 -0.64475962563E+01  0.21494492041E+02 -0.42931351087E+03  0.42989961073E+03  0.00000000000E+00 0.  1.
</event>
<event>
 4    1  0.7181337E+003  0.2896132E+02  0.7546771E-02  0.1428842E+00
          2   -1    0    0  502    0  0.00000000000E+00  0.00000000000E+00  0.18542206150E+03  0.18542206150E+03  0.00000000000E+00 0.  1.
          1   -1    0    0  501    0 -0.00000000000E+00 -0.00000000000E+00 -0.82211408070E+01  0.82211408070E+01  0.00000000000E+00 0.  1.
          2    1    1    2  501    0  0.12988920827E+01  0.28932179755E+02  0.15353385651E+03  0.15624149014E+03  0.00000000000E+00 0.  1.
          1    1    1    2  502    0 -0.12988920827E+01 -0.28932179755E+02  0.23667064181E+02  0.37401712166E+02  0.00000000000E+00 0.  1.
</event>
<event>
 4    1  0.7181337E+003  0.2591470E+02  0.7546771E-02  0.1458826E+00
          2   -1    0    0  502    0  0.00000000000E+00  0.00000000000E+00  0.71868839224E+03  0.71868839224E+03  0.00000000000E+00 0.  1.
          1   -1    0    0  501    0 -0.00000000000E+00 -0.00000000000E+00 -0.75467849435E+01  0.75467849435E+01  0.00000000000E+00 0. -1.
          2    1    1    2  501    0 -0.25213421981E+02 -0.59879082164E+01  0.69546521646E+03  0.69594787089E+03  0.00000000000E+00 0.  1.
          1    1    1    2  502    0  0.25213421981E+02  0.59879082164E+01  0.15676390838E+02  0.30287306294E+02  0.00000000000E+00 0. -1.
</event>
<event>
 4    1  0.7181337E+003  0.3677449E+02  0.7546771E-02  0.1368500E+00
          2   -1    0    0  502    0  0.00000000000E+00  0.00000000000E+00  0.22667063549E+04  0.22667063549E+04  0.00000000000E+00 0. -1.
          1   -1    0    0  501    0 -0.00000000000E+00 -0.00000000000E+00 -0.15880229033E+01  0.15880229033E+01  0.00000000000E+00 0. -1.
          2    1    1    2  501    0  0.21152320248E+02  0.30082263547E+02  0.20286789124E+04  0.20290121964E+04  0.00000000000E+00 0. -1.
          1    1    1    2  502    0 -0.21152320248E+02 -0.30082263547E+02  0.23643941953E+03  0.23928218141E+03  0.00000000000E+00 0. -1.
</event>
<event>
 4    1  0.7181337E+003  0.2062491E+02  0.7546771E-02  0.1524688E+00
          2   -1    0    0  502    0  0.00000000000E+00  0.00000000000E+00  0.12071833920E+04  0.12071833920E+04  0.00000000000E+00 0.  1.
          1   -1    0    0  501    0 -0.00000000000E+00 -0.00000000000E+00 -0.29993967957E+02  0.29993967957E+02  0.00000000000E+00 0.  1.
          2    1    1    2  501    0 -0.13142491657E+02 -0.15895345704E+02  0.12035389559E+04  0.12037156664E+04  0.00000000000E+00 0.  1.
          1    1    1    2  502    0  0.13142491657E+02  0.15895345704E+02 -0.26349531911E+02  0.33461693531E+02  0.00000000000E+00 0.  1.
</event>
<event>
 4    1  0.7181337E+003  0.2051070E+02  0.7546771E-02  0.1526367E+00
          2   -1    0    0  502    0  0.00000000000E+00  0.00000000000E+00  0.15229016563E+04  0.15229016563E+04  0.00000000000E+00 0.  1.
          1   -1    0    0  501    0 -0.00000000000E+00 -0.00000000000E+00 -0.80702407095E+02  0.80702407095E+02  0.00000000000E+00 0. -1.
          2    1    1    2  501    0 -0.19940252984E+02 -0.48036433939E+01  0.15215282098E+04  0.15216664490E+04  0.00000000000E+00 0.  1.
          1    1    1    2  502    0  0.19940252984E+02  0.48036433939E+01 -0.79328960567E+02  0.81937614461E+02  0.00000000000E+00 0. -1.
</event>
<event>
 4    1  0.7181337E+003  0.2265143E+02  0.7546771E-02  0.1496922E+00
          2   -1    0    0  502    0  0.00000000000E+00  0.00000000000E+00  0.81559989575E+01  0.81559989575E+01  0.00000000000E+00 0.  1.
          1   -1    0    0  501    0 -0.00000000000E+00 -0.00000000000E+00 -0.59734538256E+03  0.59734538256E+03  0.00000000000E+00 0. -1.
          2    1    1    2  501    0  0.22649639644E+02  0.28458271969E+00 -0.82294363572E+01  0.24100016309E+02  0.00000000000E+00 0.  1.
          1    1    1    2  502    0 -0.22649639644E+02 -0.28458271969E+00 -0.58095994724E+03  0.58140136521E+03  0.00000000000E+00 0. -1.
</event>
<event>
 4    1  0.7181337E+003  0.3000550E+02  0.7546771E-02  0.1419549E+00
          2   -1    0    0  502    0  0.00000000000E+00  0.00000000000E+00  0.43259756975E+03  0.43259756975E+03  0.00000000000E+00 0. -1.
          1   -1    0    0  501    0 -0.00000000000E+00 -0.00000000000E+00 -0.41553656907E+02  0.41553656907E+02  0.00000000000E+00 0.  1.
          2    1    1    2  501    0 -0.21007316219E+02 -0.21424813784E+02  0.42658433351E+03  0.42763830930E+03  0.00000000000E+00 0. -1.
          1    1    1    2  502    0  0.21007316219E+02  0.21424813784E+02 -0.35540420667E+02  0.46512917363E+02  0.00000000000E+00 0.  1.
</event>
<event>
 4    1  0.7181337E+003  0.2100449E+02  0.7546771E-02  0.1519201E+00
          2   -1    0    0  502    0  0.00000000000E+00  0.00000000000E+00  0.49216288604E+03  0.49216288604E+03  0.00000000000E+00 0.  1.
          1   -1    0    0  501    0 -0.00000000000E+00 -0.00000000000E+00 -0.13819162891E+01  0.13819162891E+01  0.00000000000E+00 0. -1.
          2    1    1    2  501    0 -0.17570882316E+02  0.11508800334E+02  0.39165712349E+03  0.39221995203E+03  0.00000000000E+00 0.  1.
          1    1    1    2  502    0  0.17570882316E+02 -0.11508800334E+02  0.99123846264E+02  0.10132485030E+03  0.00000000000E+00 0. -1.
</event>
<event>
 4    1  0.7181337E+003  0.2782884E+02  0.7546771E-02  0.1439455E+00
          2   -1    0    0  502    0  0.00000000000E+00  0.00000000000E+00  0.25133285759E+01  0.25133285759E+01  0.00000000000E+00 0.  1.
          1   -1    0    0  501    0 -0.00000000000E+00 -0.00000000000E+00 -0.43341174165E+03  0.43341174165E+03  0.00000000000E+00 0.  1.
          2    1    1    2  501    0 -0.25509025474E+02 -0.11123553565E+02 -0.33263290617E+03  0.33379498811E+03  0.00000000000E+00 0.  1.
          1    1    1    2  502    0  0.25509025474E+02  0.11123553565E+02 -0.98265506904E+02  0.10213008211E+03  0.00000000000E+00 0.  1.
</event>
<event>
 4    1  0.7181337E+003  0.2183456E+02  0.7546771E-02  0.1507675E+00
          2   -1    0    0  502    0  0.00000000000E+00  0.00000000000E+00  0.23835793888E+01  0.23835793888E+01  0.00000000000E+00 0. -1.
          1   -1    0    0  501    0 -0.00000000000E+00 -0.00000000000E+00 -0.63901012079E+03  0.63901012079E+03  0.00000000000E+00 0. -1.
          2    1    1    2  501    0  0.37615748558E+01  0.21508105694E+02 -0.52503210018E+02  0.56862422725E+02  0.00000000000E+00 0. -1.
          1    1    1    2  502    0 -0.37615748558E+01 -0.21508105694E+02 -0.58412333139E+03  0.58453127746E+03  0.00000000000E+00 0. -1.
</event>
<event>
 4    1  0.7181337E+003  0.2568670E+02  0.7546771E-02  0.1461266E+00
          2   -1    0    0  502    0  0.00000000000E+00  0.00000000000E+00  0.25254503431E+03  0.25254503431E+03  0.00000000000E+00 0.  1.
          1   -1    0    0  501    0 -0.00000000000E+00 -0.00000000000E+00 -0.64774598327E+02  0.64774598327E+02  0.00000000000E+00 0. -1.
          2    1    1    2  501    0 -0.16710024509E+02  0.19508495273E+02  0.24931239807E+03  0.25063215703E+03  0.00000000000E+00 0.  1.
          1    1    1    2  502    0  0.16710024509E+02 -0.19508495273E+02 -0.61541962080E+02  0.66687475613E+02  0.00000000000E+00 0. -1.
</event>
<event>
 4    1  0.7181337E+003  0.2352506E+02  0.7546771E-02  0.1486008E+00
          2   -1    0    0  502    0  0.00000000000E+00  0.00000000000E+00  0.23538871394E+01  0.23538871394E+01  0.00000000000E+00 0. -1.
          1   -1    0    0  501    0 -0.00000000000E+00 -0.00000000000E+00 -0.15734606449E+04  0.15734606449E+04  0.00000000000E+00 0. -1.
          2    1    1    2  501    0 -0.23348684374E+02 -0.28753209622E+01 -0.58892638510E+02  0.63417437691E+02  0.00000000000E+00 0. -1.
          1    1    1    2  502    0  0.23348684374E+02  0.28753209622E+01 -0.15122141193E+04  0.15123970944E+04  0.00000000000E+00 0. -1.
</event>
<event>
 4    1  0.7181337E+003  0.2250300E+02  0.7546771E-02  0.1498835E+00
          2   -1    0    0  502    0  0.00000000000E+00  0.00000000000E+00  0.73371577552E+00  0.73371577552E+00  0.00000000000E+00 0. -1.
          1   -1    0    0  501    0 -0.00000000000E+00 -0.00000000000E+00 -0.17495589950E+04  0.17495589950E+04  0.00000000000E+00 0.  1.
          2    1    1    2  501    0  0.11286937192E+02  0.19467662555E+02 -0.19341567305E+03  0.19472033129E+03  0.00000000000E+00 0. -1.
          1    1    1    2  502    0 -0.11286937192E+02 -0.19467662555E+02 -0.15554096062E+04  0.15555723795E+04  0.00000000000E+00 0.  1.
</event>
<event>
 4    1  0.7181337E+003  0.2888942E+02  0.7546771E-02  0.1429499E+00
          2   -1    0    0  502    0  0.00000000000E+00  0.00000000000E+00  0.12508897159E+02  0.12508897159E+02  0.00000000000E+00 0.  1.
          1   -1    0    0  501    0 -0.00000000000E+00 -0.00000000000E+00 -0.81797582641E+03  0.81797582641E+03  0.00000000000E+00 0.  1.
          2    1    1    2  501    0  0.21560963310E+01 -0.28808846820E+02 -0.47864656626E+01  0.29283248795E+02  0.00000000000E+00 0.  1.
          1    1    1    2  502    0 -0.21560963310E+01  0.28808846820E+02 -0.80068046359E+03  0.80120147477E+03  0.00000000000E+00 0.  1.
</event>
<event>
 4    1  0.1366724E+004  0.3304755E+02  0.7546771E-02  0.1394835E+00
          2   -1    0    0  502    0  0.00000000000E+00  0.00000000000E+00  0.16981338244E+04  0.16981338244E+04  0.00000000000E+00 0.  1.
          1   -1    0    0  501    0 -0.00000000000E+00 -0.00000000000E+00 -0.14748793222E+04  0.14748793222E+04  0.00000000000E+00 0. -1.
          2    1    1    2  501    0  0.66348279855E+01  0.32374672435E+02  0.16977878777E+04  0.16981094835E+04  0.00000000000E+00 0.  1.
          1    1    1    2  502    0 -0.66348279855E+01 -0.32374672435E+02 -0.14745333755E+04  0.14749036632E+04  0.00000000000E+00 0. -1.
</event>
<event>
 4    1  0.7181337E+003  0.3940412E+02  0.7546771E-02  0.1352013E+00
          2   -1    0    0  502    0  0.00000000000E+00  0.00000000000E+00  0.19900576869E+01  0.19900576869E+01  0.00000000000E+00 0.  1.
          1   -1    0    0  501    0 -0.00000000000E+00 -0.00000000000E+00 -0.16297620591E+04  0.16297620591E+04  0.00000000000E+00 0. -1.
          2    1    1    2  501    0 -0.18925984071E+02 -0.34561418529E+02 -0.22483308561E+03  0.22825994154E+03  0.00000000000E+00 0.  1.
          1    1    1    2  502    0  0.18925984071E+02  0.34561418529E+02 -0.14029389158E+04  0.14034921752E+04  0.00000000000E+00 0. -1.
</event>
<event>
 4    1  0.7181337E+003  0.3187952E+02  0.7546771E-02  0.1403937E+00
          2   -1    0    0  502    0  0.00000000000E+00  0.00000000000E+00  0.34228085840E+01  0.34228085840E+01  0.00000000000E+00 0.  1.
          1   -1    0    0  501    0 -0.00000000000E+00 -0.00000000000E+00 -0.32937813783E+03  0.32937813783E+03  0.00000000000E+00 0.  1.
          2    1    1    2  501    0 -0.30883019007E+02  0.79084192388E+01 -0.11074263193E+03  0.11523989971E+03  0.00000000000E+00 0.  1.
          1    1    1    2  502    0  0.30883019007E+02 -0.79084192388E+01 -0.21521269731E+03  0.21756104670E+03  0.00000000000E+00 0.  1.
</event>
<event>
 4    1  0.7181337E+003  0.2057658E+02  0.7546771E-02  0.1525397E+00
          2   -1    0    0  502    0  0.00000000000E+00  0.00000000000E+00  0.35079730517E+03  0.35079730517E+03  0.00000000000E+00 0. -1.
          1   -1    0    0  501    0 -0.00000000000E+00 -0.00000000000E+00 -0.60084004230E+01  0.60084004230E+01  0.00000000000E+00 0. -1.
          2    1    1    2  501    0  0.84156681875E+00 -0.20559366251E+02  0.33187527255E+03  0.33251254458E+03  0.00000000000E+00 0. -1.
          1    1    1    2  502    0 -0.84156681875E+00  0.20559366251E+02  0.12913632199E+02  0.24293161012E+02  0.00000000000E+00 0. -1.
</event>
<event>
 4    1  0.7181337E+003  0.3012032E+02  0.7546771E-02  0.1418554E+00
          2   -1    0    0  502    0  0.00000000000E+00  0.00000000000E+00  0.35740984329E+02  0.35740984329E+02  0.00000000000E+00 0. -1.
          1   -1    0    0  501    0 -0.00000000000E+00 -0.00000000000E+00 -0.33673718437E+02  0.33673718437E+02  0.00000000000E+00 0. -1.
          2    1    1    2  501    0 -0.25203504897E+02  0.16492932132E+02  0.18254591196E+02  0.35220215347E+02  0.00000000000E+00 0. -1.
          1    1    1    2  502    0  0.25203504897E+02 -0.16492932132E+02 -0.16187325304E+02  0.34194487419E+02  0.00000000000E+00 0. -1.
</event>
<event>
 4    1  0.7181337E+003  0.3102955E+02  0.7546771E-02  0.1410856E+00
          2   -1    0    0  502    0  0.00000000000E+00  0.00000000000E+00  0.37404323097E+03  0.37404323097E+03  0.00000000000E+00 0.  1.
          1   -1    0    0  501    0 -0.00000000000E+00 -0.00000000000E+00 -0.61750201750E+02  0.61750201750E+02  0.00000000000E+00 0.  1.
          2    1    1    2  501    0  0.69677726742E+01  0.30237116755E+02  0.36945325981E+03  0.37075402124E+03  0.00000000000E+00 0.  1.
          1    1    1    2  502    0 -0.69677726742E+01 -0.30237116755E+02 -0.57160230582E+02  0.65039411482E+02  0.00000000000E+00 0.  1.
</event>
<event>
 4    1  0.7181337E+003  0.2519387E+02  0.7546771E-02  0.1466646E+00
          2   -1    0    0  502    0  0.00000000000E+00  0.00000000000E+00  0.70548642906E+03  0.70548642906E+03  0.00000000000E+00 0.  1.
          1   -1    0    0  501    0 -0.00000000000E+00 -0.00000000000E+00 -0.23867174715E+02  0.23867174715E+02  0.00000000000E+00 0. -1.
          2    1    1    2  501    0  0.21937954030E+02 -0.12387777516E+02  0.69854689977E+03  0.69900107442E+03  0.00000000000E+00 0.  1.
          1    1    1    2  502    0 -0.21937954030E+02  0.12387777516E+02 -0.16927645424E+02  0.30352529358E+02  0.00000000000E+00 0. -1.
</event>
<event>
 4    1  0.7181337E+003  0.4148055E+02  0.7546771E-02  0.1340022E+00
          2   -1    0    0  502    0  0.00000000000E+00  0.00000000000E+00  0.88525469250E+03  0.88525469250E+03  0.00000000000E+00 0. -1.
          1   -1    0    0  501    0 -0.00000000000E+00 -0.00000000000E+00 -0.41290795533E+02  0.41290795533E+02  0.00000000000E+00 0. -1.
          2    1    1    2  501    0 -0.41468109701E+02  0.10157510047E+01  0.87421955559E+03  0.87520310057E+03  0.00000000000E+00 0. -1.
          1    1    1    2  502    0  0.41468109701E+02 -0.10157510047E+01 -0.30255658620E+02  0.51342387467E+02  0.00000000000E+00 0. -1.
</event>
<event>
 4    1  0.7181337E+003  0.2580539E+02  0.7546771E-02  0.1459992E+00
          2   -1    0    0  502    0  0.00000000000E+00  0.00000000000E+00  0.58515029163E+03  0.58515029163E+03  0.00000000000E+00 0.  1.
          1   -1    0    0  501    0 -0.00000000000E+00 -0.00000000000E+00 -0.28417913326E+02  0.28417913326E+02  0.00000000000E+00 0.  1.
          2    1    1    2  501    0 -0.21998394507E+02 -0.13490330527E+02  0.57894476000E+03  0.57951958855E+03  0.00000000000E+00 0.  1.
          1    1    1    2  502    0  0.21998394507E+02  0.13490330527E+02 -0.22212381698E+02  0.34048616408E+02  0.00000000000E+00 0.  1.
</event>
<event>
 4    1  0.7181337E+003  0.3171322E+02  0.7546771E-02  0.1405271E+00
          2   -1    0    0  502    0  0.00000000000E+00  0.00000000000E+00  0.15826832211E+02  0.15826832211E+02  0.00000000000E+00 0.  1.
          1   -1    0    0  501    0 -0.00000000000E+00 -0.00000000000E+00 -0.85517809880E+02  0.85517809880E+02  0.00000000000E+00 0.  1.
          2    1    1    2  501    0  0.29980945153E+02  0.10337866503E+02 -0.91606110145E+01  0.33009776586E+02  0.00000000000E+00 0.  1.
          1    1    1    2  502    0 -0.29980945153E+02 -0.10337866503E+02 -0.60530366655E+02  0.68334865504E+02  0.00000000000E+00 0.  1.
</event>
<event>
 4    1  0.7181337E+003  0.2615938E+02  0.7546771E-02  0.1456240E+00
          2   -1    0    0  502    0  0.00000000000E+00  0.00000000000E+00  0.18385154068E+02  0.18385154068E+02  0.00000000000E+00 0. -1.
          1   -1    0    0  501    0 -0.00000000000E+00 -0.00000000000E+00 -0.64436489616E+03  0.64436489616E+03  0.00000000000E+00 0. -1.
          2    1    1    2  501    0  0.14328282383E+02  0.21886379678E+02  0.86720594935E+01  0.27559352447E+02  0.00000000000E+00 0. -1.
          1    1    1    2  502    0 -0.14328282383E+02 -0.21886379678E+02 -0.63465180158E+03  0.63519069778E+03  0.00000000000E+00 0. -1.
</event>
<event>
 4    1  0.7181337E+003  0.4434198E+02  0.7546771E-02  0.1324763E+00
          2   -1    0    0  502    0  0.00000000000E+00  0.00000000000E+00  0.33186512501E+04  0.33186512501E+04  0.00000000000E+00 0. -1.
          1   -1    0    0  501    0 -0.00000000000E+00 -0.00000000000E+00 -0.28819108852E+01  0.28819108852E+01  0.00000000000E+00 0.  1.
          2    1    1    2  501    0  0.35503575327E+02  0.26565149101E+02  0.31381268077E+04  0.31384400699E+04  0.00000000000E+00 0. -1.
          1    1    1    2  502    0 -0.35503575327E+02 -0.26565149101E+02  0.17764253145E+03  0.18309309105E+03  0.00000000000E+00 0.  1.
</event>
<event>
 4    1  0.7181337E+003  0.2098395E+02  0.7546771E-02  0.1519494E+00
          2   -1    0    0  502    0  0.00000000000E+00  0.00000000000E+00  0.13826202579E+03  0.13826202579E+03  0.00000000000E+00 0. -1.
          1   -1    0    0  501    0 -0.00000000000E+00 -0.00000000000E+00 -0.25888442305E+02  0.25888442305E+02  0.00000000000E+00 0.  1.
          2    1    1    2  501    0 -0.89228684430E+01 -0.18992333938E+02  0.13304808171E+03  0.13469268123E+03  0.00000000000E+00 0. -1.
          1    1    1    2  502    0  0.89228684430E+01  0.18992333938E+02 -0.20674498231E+02  0.29457786862E+02  0.00000000000E+00 0.  1.
</event>
<event>
 4    1  0.7181337E+003  0.1021030E+03  0.7546771E-02  0.1160213E+00
          2   -1    0    0  502    0  0.00000000000E+00  0.00000000000E+00  0.12371660638E+04  0.12371660638E+04  0.00000000000E+00 0. -1.
          1   -1    0    0  501    0 -0.00000000000E+00 -0.00000000000E+00 -0.37800476161E+02  0.37800476161E+02  0.00000000000E+00 0. -1.
          2    1    1    2  501    0  0.82159077007E+01  0.10177190831E+03  0.11616374458E+04  0.11661160225E+04  0.00000000000E+00 0. -1.
          1    1    1    2  502    0 -0.82159077007E+01 -0.10177190831E+03  0.37728141811E+02  0.10885051743E+03  0.00000000000E+00 0. -1.
</event>
<event>
 4    1  0.7181337E+003  0.2701668E+02  0.7546771E-02  0.1447441E+00
          2   -1    0    0  502    0  0.00000000000E+00  0.00000000000E+00  0.22697407968E+03  0.22697407968E+03  0.00000000000E+00 0. -1.
          1   -1    0    0  501    0 -0.00000000000E+00 -0.00000000000E+00 -0.32206614028E+01  0.32206614028E+01  0.00000000000E+00 0.  1.
          2    1    1    2  501    0 -0.14770174846E+02 -0.22621723610E+02  0.10739932590E+03  0.11074527370E+03  0.00000000000E+00 0. -1.
          1    1    1    2  502    0  0.14770174846E+02  0.22621723610E+02  0.11635409238E+03  0.11944946738E+03  0.00000000000E+00 0.  1.
</event>
<event>
 4    1  0.7181337E+003  0.2718875E+02  0.7546771E-02  0.1445721E+00
          2   -1    0    0  502    0  0.00000000000E+00  0.00000000000E+00  0.18052631937E+03  0.18052631937E+03  0.00000000000E+00 0.  1.
          1   -1    0    0  501    0 -0.00000000000E+00 -0.00000000000E+00 -0.94721976909E+01  0.94721976909E+01  0.00000000000E+00 0. -1.
          2    1    1    2  501    0 -0.12987530519E+02 -0.23886238763E+02  0.15710494621E+03  0.15944024735E+03  0.00000000000E+00 0.  1.
          1    1    1    2  502    0  0.12987530519E+02  0.23886238763E+02  0.13949175462E+02  0.30558269704E+02  0.00000000000E+00 0. -1.
</event>
<event>
 4    1  0.7181337E+003  0.2191217E+02  0.7546771E-02  0.1506629E+00
          2   -1    0    0  502    0  0.00000000000E+00  0.00000000000E+00  0.35569850558E+02  0.35569850558E+02  0.00000000000E+00 0.  1.
          1   -1    0    0  501    0 -0.00000000000E+00 -0.00000000000E+00 -0.11496234201E+04  0.11496234201E+04  0.00000000000E+00 0. -1.
          2    1    1    2  501    0 -0.47806568947E+01 -0.21384302338E+02  0.32080515293E+02  0.38849742963E+02  0.00000000000E+00 0.  1.
          1    1    1    2  502    0  0.47806568947E+01  0.21384302338E+02 -0.11461340849E+04  0.11463435277E+04  0.00000000000E+00 0. -1.
</event>
<event>
 4    1  0.7181337E+003  0.2143795E+02  0.7546771E-02  0.1513103E+00
          2   -1    0    0  502    0  0.00000000000E+00  0.00000000000E+00  0.21015599606E+02  0.21015599606E+02  0.00000000000E+00 0.  1.
          1   -1    0    0  501    0 -0.00000000000E+00 -0.00000000000E+00 -0.13827527806E+04  0.13827527806E+04  0.00000000000E+00 0. -1.
          2    1    1    2  501    0  0.12339867333E+02 -0.17530355357E+02  0.15443189892E+02  0.26421161950E+02  0.00000000000E+00 0.  1.
          1    1    1    2  502    0 -0.12339867333E+02  0.17530355357E+02 -0.13771803709E+04  0.13773472183E+04  0.00000000000E+00 0. -1.
</event>
<event>
 4    1  0.7181337E+003  0.2223771E+02  0.7546771E-02  0.1502299E+00
          2   -1    0    0  502    0  0.00000000000E+00  0.00000000000E+00  0.11735902196E+04  0.11735902196E+04  0.00000000000E+00 0. -1.
          1   -1    0    0  501    0 -0.00000000000E+00 -0.00000000000E+00 -0.36152152297E+01  0.36152152297E+01  0.00000000000E+00 0.  1.
          2    1    1    2  501    0  0.14805435623E+02 -0.16592614958E+02  0.11382256420E+04  0.11384428523E+04  0.00000000000E+00 0. -1.
          1    1    1    2  502    0 -0.14805435623E+02  0.16592614958E+02  0.31749362365E+02  0.38762582547E+02  0.00000000000E+00 0.  1.
</event>
<event>
 4    1  0.7181337E+003  0.3353958E+02  0.7546771E-02  0.1391132E+00
          2   -1    0    0  502    0  0.00000000000E+00  0.00000000000E+00  0.47066985545E+03  0.47066985545E+03  0.00000000000E+00 0.  1.
          1   -1    0    0  501    0 -0.00000000000E+00 -0.00000000000E+00 -0.26132148922E+03  0.26132148922E+03  0.00000000000E+00 0. -1.
          2    1    1    2  501    0  0.21802091097E+02  0.25486710482E+02  0.46899234139E+03  0.47019008909E+03  0.00000000000E+00 0.  1.
          1    1    1    2  502    0 -0.21802091097E+02 -0.25486710482E+02 -0.25964397516E+03  0.26180125558E+03  0.00000000000E+00 0. -1.
</event>
<event>
 4    1  0.7181337E+003  0.2640073E+02  0.7546771E-02  0.1453723E+00
          2   -1    0    0  502    0  0.00000000000E+00  0.00000000000E+00  0.18857078508E+02  0.18857078508E+02  0.00000000000E+00 0. -1.
          1   -1    0    0  501    0 -0.00000000000E+00 -0.00000000000E+00 -0.13535780301E+03  0.13535780301E+03  0.00000000000E+00 0. -1.
          2    1    1    2  501    0  0.19089212862E+02 -0.18237330800E+02  0.74915879187E+01  0.27443071474E+02  0.00000000000E+00 0. -1.
          1    1    1    2  502    0 -0.19089212862E+02  0.18237330800E+02 -0.12399231242E+03  0.12677181005E+03  0.00000000000E+00 0. -1.
</event>
<event>
 4    1  0.7181337E+003  0.2461692E+02  0.7546771E-02  0.1473135E+00
          2   -1    0    0  502    0  0.00000000000E+00  0.00000000000E+00  0.11891971147E+01  0.11891971147E+01  0.00000000000E+00 0.  1.
          1   -1    0    0  501    0 -0.00000000000E+00 -0.00000000000E+00 -0.15078912699E+04  0.15078912699E+04  0.00000000000E+00 0.  1.
          2    1    1    2  501    0  0.19218105945E+02 -0.15383666912E+02 -0.13940520098E+03  0.14156201067E+03  0.00000000000E+00 0.  1.
          1    1    1    2  502    0 -0.19218105945E+02  0.15383666912E+02 -0.13672968718E+04  0.13675184564E+04  0.00000000000E+00 0.  1.
</event>
<event>
 4    1  0.7181337E+003  0.3335196E+02  0.7546771E-02  0.1392535E+00
          2   -1    0    0  502    0  0.00000000000E+00  0.00000000000E+00  0.29770498370E+01  0.29770498370E+01  0.00000000000E+00 0. -1.
          1   -1    0    0  501    0 -0.00000000000E+00 -0.00000000000E+00 -0.38409379411E+03  0.38409379411E+03  0.00000000000E+00 0. -1.
          2    1    1    2  501    0 -0.20507078161E+02 -0.26302316128E+02 -0.22248320522E+03  0.22496917276E+03  0.00000000000E+00 0. -1.
          1    1    1    2  502    0  0.20507078161E+02  0.26302316128E+02 -0.15863353905E+03  0.16210167118E+03  0.00000000000E+00 0. -1.
</event>
<event>
 4    1  0.7181337E+003  0.4541778E+02  0.7546771E-02  0.1319363E+00
          2   -1    0    0  502    0  0.00000000000E+00  0.00000000000E+00  0.11027655429E+02  0.11027655429E+02  0.00000000000E+00 0. -1.
          1   -1    0    0  501    0 -0.00000000000E+00 -0.00000000000E+00 -0.63422464909E+03  0.63422464909E+03  0.00000000000E+00 0.  1.
          2    1    1    2  501    0 -0.33636357308E+02 -0.30518358351E+02 -0.40695183072E+02  0.60982560250E+02  0.00000000000E+00 0. -1.
          1    1    1    2  502    0  0.33636357308E+02  0.30518358351E+02 -0.58250181059E+03  0.58426974427E+03  0.00000000000E+00 0.  1.
</event>
<event>
 4    1  0.7181337E+003  0.2134105E+02  0.7546771E-02  0.1514451E+00
          2   -1    0    0  502    0  0.00000000000E+00  0.00000000000E+00  0.38084490447E+02  0.38084490447E+02  0.00000000000E+00 0. -1.
          1   -1    0    0  501    0 -0.00000000000E+00 -0.00000000000E+00 -0.45770358918E+03  0.45770358918E+03  0.00000000000E+00 0. -1.
          2    1    1    2  501    0  0.20549075771E+02  0.57598663302E+01  0.34824620214E+02  0.40843539859E+02  0.00000000000E+00 0. -1.
          1    1    1    2  502    0 -0.20549075771E+02 -0.57598663302E+01 -0.45444371894E+03  0.45494453976E+03  0.00000000000E+00 0. -1.
</event>
<event>
 4    1  0.7181337E+003  0.6640954E+02  0.7546771E-02  0.1239484E+00
          2   -1    0    0  502    0  0.00000000000E+00  0.00000000000E+00  0.10299872801E+04  0.10299872801E+04  0.00000000000E+00 0.  1.
          1   -1    0    0  501    0 -0.00000000000E+00 -0.00000000000E+00 -0.85960667119E+01  0.85960667119E+01  0.00000000000E+00 0.  1.
          2    1    1    2  501    0  0.31222639704E+02 -0.58612062595E+02  0.87858190902E+03  0.88108818967E+03  0.00000000000E+00 0.  1.
          1    1    1    2  502    0 -0.31222639704E+02  0.58612062595E+02  0.14280930442E+03  0.15749515719E+03  0.00000000000E+00 0.  1.
</event>
<event>
 4    1  0.7181337E+003  0.2599405E+02  0.7546771E-02  0.1457983E+00
          2   -1    0    0  502    0  0.00000000000E+00  0.00000000000E+00  0.10147773007E+02  0.10147773007E+02  0.00000000000E+00 0.  1.
          1   -1    0    0  501    0 -0.00000000000E+00 -0.00000000000E+00 -0.31491834749E+03  0.31491834749E+03  0.00000000000E+00 0.  1.
          2    1    1    2  501    0  0.61793334889E+01  0.25248893644E+02 -0.80541154206E+01  0.27213224135E+02  0.00000000000E+00 0.  1.
          1    1    1    2  502    0 -0.61793334889E+01 -0.25248893644E+02 -0.29671645907E+03  0.29785289637E+03  0.00000000000E+00 0.  1.
</event>
<event>
 4    1  0.7181337E+003  0.2185622E+02  0.7546771E-02  0.1507383E+00
          2   -1    0    0  502    0  0.00000000000E+00  0.00000000000E+00  0.13970587734E+04  0.13970587734E+04  0.00000000000E+00 0. -1.
          1   -1    0    0  501    0 -0.00000000000E+00 -0.00000000000E+00 -0.82695997336E+02  0.82695997336E+02  0.00000000000E+00 0.  1.
          2    1    1    2  501    0 -0.21603290943E+02 -0.33154660855E+01  0.13955275785E+04  0.13956987200E+04  0.00000000000E+00 0. -1.
          1    1    1    2  502    0  0.21603290943E+02  0.33154660855E+01 -0.81164802514E+02  0.84056050717E+02  0.00000000000E+00 0.  1.
</event>
<event>
 4    1  0.7181337E+003  0.3877298E+02  0.7546771E-02  0.1355830E+00
          2   -1    0    0  502    0  0.00000000000E+00  0.00000000000E+00  0.99718637130E+03  0.99718637130E+03  0.00000000000E+00 0. -1.
          1   -1    0    0  501    0 -0.00000000000E+00 -0.00000000000E+00 -0.54806812458E+01  0.54806812458E+01  0.00000000000E+00 0.  1.
          2    1    1    2  501    0  0.32910630034E+02  0.20499619844E+02  0.92270155895E+03  0.92351584225E+03  0.00000000000E+00 0. -1.
          1    1    1    2  502    0 -0.32910630034E+02 -0.20499619844E+02  0.69004131099E+02  0.79151210298E+02  0.00000000000E+00 0.  1.
</event>
<event>
 4    1  0.9126704E+003  0.3058115E+02  0.7546771E-02  0.1414612E+00
          2   -1    0    0  502    0  0.00000000000E+00  0.00000000000E+00  0.57584881167E+03  0.57584881167E+03  0.00000000000E+00 0. -1.
          1   -1    0    0  501    0 -0.00000000000E+00 -0.00000000000E+00 -0.46447239631E+03  0.46447239631E+03  0.00000000000E+00 0.  1.
          2    1    1    2  501    0 -0.22301930594E+01  0.30499717623E+02  0.57493863281E+03  0.57575136825E+03  0.00000000000E+00 0. -1.
          1    1    1    2  502    0  0.22301930594E+01 -0.30499717623E+02 -0.46356221746E+03  0.46456983974E+03  0.00000000000E+00 0.  1.
</event>
<event>
 4    1  0.7181337E+003  0.2076758E+02  0.7546771E-02  0.1522609E+00
          2   -1    0    0  502    0  0.00000000000E+00  0.00000000000E+00  0.14494200250E+03  0.14494200250E+03  0.00000000000E+00 0.  1.
          1   -1    0    0  501    0 -0.00000000000E+00 -0.00000000000E+00 -0.49237520025E+01  0.49237520025E+01  0.00000000000E+00 0. -1.
          2    1    1    2  501    0  0.19256836423E+02 -0.77760327734E+01  0.11714303076E+03  0.11896966878E+03  0.00000000000E+00 0.  1.
          1    1    1    2  502    0 -0.19256836423E+02  0.77760327734E+01  0.22875219736E+02  0.30896085718E+02  0.00000000000E+00 0. -1.
</event>
<event>
 4    1  0.7181337E+003  0.2102217E+02  0.7546771E-02  0.1518948E+00
          2   -1    0    0  502    0  0.00000000000E+00  0.00000000000E+00  0.84202086115E+03  0.84202086115E+03  0.00000000000E+00 0.  1.
          1   -1    0    0  501    0 -0.00000000000E+00 -0.00000000000E+00 -0.44585795156E+03  0.44585795156E+03  0.00000000000E+00 0.  1.
          2    1    1    2  501    0 -0.29916020375E+01 -0.20808219070E+02  0.84164173947E+03  0.84190423997E+03  0.00000000000E+00 0.  1.
          1    1    1    2  502    0  0.29916020375E+01  0.20808219070E+02 -0.44547882988E+03  0.44597457274E+03  0.00000000000E+00 0.  1.
</event>
<event>
 4    1  0.7181337E+003  0.2408248E+02  0.7546771E-02  0.1479335E+00
          2   -1    0    0  502    0  0.00000000000E+00  0.00000000000E+00  0.53949836185E+03  0.53949836185E+03  0.00000000000E+00 0. -1.
          1   -1    0    0  501    0 -0.00000000000E+00 -0.00000000000E+00 -0.57438941653E+01  0.57438941653E+01  0.00000000000E+00 0.  1.
          2    1    1    2  501    0 -0.17576680964E+02 -0.16462874280E+02  0.51266647112E+03  0.51323179612E+03  0.00000000000E+00 0. -1.
          1    1    1    2  502    0  0.17576680964E+02  0.16462874280E+02  0.21087996564E+02  0.32010459890E+02  0.00000000000E+00 0.  1.
</event>
<event>
 4    1  0.7181337E+003  0.2607777E+02  0.7546771E-02  0.1457099E+00
          2   -1    0    0  502    0  0.00000000000E+00  0.00000000000E+00  0.24422266113E+04  0.24422266113E+04  0.00000000000E+00 0. -1.
          1   -1    0    0  501    0 -0.00000000000E+00 -0.00000000000E+00 -0.33354742617E+00  0.33354742617E+00  0.00000000000E+00 0.  1.
          2    1    1    2  501    0 -0.25341705948E+02 -0.61520957404E+01  0.17172898888E+04  0.17174878784E+04  0.00000000000E+00 0. -1.
          1    1    1    2  502    0  0.25341705948E+02  0.61520957404E+01  0.72460317503E+03  0.72507228026E+03  0.00000000000E+00 0.  1.
</event>
<event>
 4    1  0.7181337E+003  0.2709938E+02  0.7546771E-02  0.1446612E+00
          2   -1    0    0  502    0  0.00000000000E+00  0.00000000000E+00  0.18701923076E+04  0.18701923076E+04  0.00000000000E+00 0. -1.
          1   -1    0    0  501    0 -0.00000000000E+00 -0.00000000000E+00 -0.41049921393E+00  0.41049921393E+00  0.00000000000E+00 0. -1.
          2    1    1    2  501    0 -0.32388254944E+01  0.26905135882E+02  0.11297900675E+04  0.11301150265E+04  0.00000000000E+00 0. -1.
          1    1    1    2  502    0  0.32388254944E+01 -0.26905135882E+02  0.73999174087E+03  0.74048778038E+03  0.00000000000E+00 0. -1.
</event>
<event>
 4    1  0.7181337E+003  0.3168847E+02  0.7546771E-02  0.1405470E+00
          2   -1    0    0  502    0  0.00000000000E+00  0.00000000000E+00  0.67750445717E+03  0.67750445717E+03  0.00000000000E+00 0. -1.
          1   -1    0    0  501    0 -0.00000000000E+00 -0.00000000000E+00 -0.29674235779E+01  0.29674235779E+01  0.00000000000E+00 0. -1.
          2    1    1    2  501    0 -0.29484099982E+02  0.11612357557E+02  0.57797875188E+03  0.57884678165E+03  0.00000000000E+00 0. -1.
          1    1    1    2  502    0  0.29484099982E+02 -0.11612357557E+02  0.96558281707E+02  0.10162509909E+03  0.00000000000E+00 0. -1.
</event>
<event>
 4    1  0.7181337E+003  0.2091010E+02  0.7546771E-02  0.1520552E+00
          2   -1    0    0  502    0  0.00000000000E+00  0.00000000000E+00  0.99373263468E+02  0.99373263468E+02  0.00000000000E+00 0.  1.
          1   -1    0    0  501    0 -0.00000000000E+00 -0.00000000000E+00 -0.22150517170E+02  0.22150517170E+02  0.00000000000E+00 0.  1.
          2    1    1    2  501    0 -0.20562293566E+02 -0.37979569802E+01  0.93004756494E+02  0.95326371610E+02  0.00000000000E+00 0.  1.
          1    1    1    2  502    0  0.20562293566E+02  0.37979569802E+01 -0.15782010195E+02  0.26197409027E+02  0.00000000000E+00 0.  1.
</event>
<event>
 4    1  0.7181337E+003  0.3773925E+02  0.7546771E-02  0.1362268E+00
          2   -1    0    0  502    0  0.00000000000E+00  0.00000000000E+00  0.56887392493E+03  0.56887392493E+03  0.00000000000E+00 0.  1.
          1   -1    0    0  501    0 -0.00000000000E+00 -0.00000000000E+00 -0.63984923709E+03  0.63984923709E+03  0.00000000000E+00 0.  1.
          2    1    1    2  501    0 -0.19976253490E+02 -0.32018753758E+02  0.56769037864E+03  0.56894342188E+03  0.00000000000E+00 0.  1.
          1    1    1    2  502    0  0.19976253490E+02  0.32018753758E+02 -0.63866569080E+03  0.63977974015E+03  0.00000000000E+00 0.  1.
</event>
<event>
 4    1  0.7181337E+003  0.2118450E+02  0.7546771E-02  0.1516647E+00
          2   -1    0    0  502    0  0.00000000000E+00  0.00000000000E+00  0.21816488321E+04  0.21816488321E+04  0.00000000000E+00 0.  1.
          1   -1    0    0  501    0 -0.00000000000E+00 -0.00000000000E+00 -0.23592991216E+00  0.23592991216E+00  0.00000000000E+00 0. -1.
          2    1    1    2  501    0  0.17736910783E+02 -0.11583821012E+02  0.14811608384E+04  0.14813123277E+04  0.00000000000E+00 0.  1.
          1    1    1    2  502    0 -0.17736910783E+02  0.11583821012E+02  0.70025206375E+03  0.70057243430E+03  0.00000000000E+00 0. -1.
</event>
<event>
 4    1  0.7181337E+003  0.4895442E+02  0.7546771E-02  0.1302770E+00
          2   -1    0    0  502    0  0.00000000000E+00  0.00000000000E+00  0.34855043553E+03  0.34855043553E+03  0.00000000000E+00 0. -1.
          1   -1    0    0  501    0 -0.00000000000E+00 -0.00000000000E+00 -0.48484175351E+02  0.48484175351E+02  0.00000000000E+00 0. -1.
          2    1    1    2  501    0  0.29676073125E+02 -0.38934122278E+02  0.33393627747E+03  0.33750551493E+03  0.00000000000E+00 0. -1.
          1    1    1    2  502    0 -0.29676073125E+02  0.38934122278E+02 -0.33870017293E+02  0.59529095954E+02  0.00000000000E+00 0. -1.
</event>
<event>
 4    1  0.7181337E+003  0.3173590E+02  0.7546771E-02  0.1405088E+00
          2   -1    0    0  502    0  0.00000000000E+00  0.00000000000E+00  0.76060343043E+03  0.76060343043E+03  0.00000000000E+00 0.  1.
          1   -1    0    0  501    0 -0.00000000000E+00 -0.00000000000E+00 -0.13499196371E+01  0.13499196371E+01  0.00000000000E+00 0.  1.
          2    1    1    2  501    0 -0.73156619737E+01  0.30881195200E+02  0.43224572926E+03  0.43340920340E+03  0.00000000000E+00 0.  1.
          1    1    1    2  502    0  0.73156619737E+01 -0.30881195200E+02  0.32700778154E+03  0.32854414667E+03  0.00000000000E+00 0.  1.
</event>
<event>
 4    1  0.7181337E+003  0.4742231E+02  0.7546771E-02  0.1309753E+00
          2   -1    0    0  502    0  0.00000000000E+00  0.00000000000E+00  0.24021144935E+04  0.24021144935E+04  0.00000000000E+00 0.  1.
          1   -1    0    0  501    0 -0.00000000000E+00 -0.00000000000E+00 -0.41461767373E+01  0.41461767373E+01  0.00000000000E+00 0. -1.
          2    1    1    2  501    0 -0.41944334115E+01 -0.47236448734E+02  0.22576021484E+04  0.22581001607E+04  0.00000000000E+00 0.  1.
          1    1    1    2  502    0  0.41944334115E+01  0.47236448734E+02  0.14036616834E+03  0.14816050950E+03  0.00000000000E+00 0. -1.
</event>
<event>
 4    1  0.7181337E+003  0.4505182E+02  0.7546771E-02  0.1321180E+00
          2   -1    0    0  502    0  0.00000000000E+00  0.00000000000E+00  0.21084588804E+02  0.21084588804E+02  0.00000000000E+00 0. -1.
          1   -1    0    0  501    0 -0.00000000000E+00 -0.00000000000E+00 -0.39837536359E+03  0.39837536359E+03  0.00000000000E+00 0. -1.
          2    1    1    2  501    0  0.44355395937E+02 -0.78908467920E+01 -0.60042967783E+01  0.45450172625E+02  0.00000000000E+00 0. -1.
          1    1    1    2  502    0 -0.44355395937E+02  0.78908467920E+01 -0.37128647800E+03  0.37400977977E+03  0.00000000000E+00 0. -1.
</event>
<event>
 4    1  0.7181337E+003  0.2072129E+02  0.7546771E-02  0.1523282E+00
          2   -1    0    0  502    0  0.00000000000E+00  0.00000000000E+00  0.78267150372E+03  0.78267150372E+03  0.00000000000E+00 0. -1.
          1   -1    0    0  501    0 -0.00000000000E+00 -0.00000000000E+00 -0.61951469035E+01  0.61951469035E+01  0.00000000000E+00 0. -1.
          2    1    1    2  501    0 -0.63467394929E+01  0.19725379837E+02  0.76480266395E+03  0.76508331997E+03  0.00000000000E+00 0. -1.
          1    1    1    2  502    0  0.63467394929E+01 -0.19725379837E+02  0.11673692870E+02  0.23783330657E+02  0.00000000000E+00 0. -1.
</event>
<event>
 4    1  0.7181337E+003  0.3085414E+02  0.7546771E-02  0.1412316E+00
          2   -1    0    0  502    0  0.00000000000E+00  0.00000000000E+00  0.22538012751E+04  0.22538012751E+04  0.00000000000E+00 0.  1.
          1   -1    0    0  501    0 -0.00000000000E+00 -0.00000000000E+00 -0.81631522004E+00  0.81631522004E+00  0.00000000000E+00 0.  1.
          2    1    1    2  501    0  0.29812428762E+02  0.79496744311E+01  0.19096011588E+04  0.19098504036E+04  0.00000000000E+00 0.  1.
          1    1    1    2  502    0 -0.29812428762E+02 -0.79496744311E+01  0.34338380104E+03  0.34476718673E+03  0.00000000000E+00 0.  1.
</event>
<event>
 4    1  0.7181337E+003  0.3481835E+02  0.7546771E-02  0.1381845E+00
          2   -1    0    0  502    0  0.00000000000E+00  0.00000000000E+00  0.36001453263E+02  0.36001453263E+02  0.00000000000E+00 0. -1.
          1   -1    0    0  501    0 -0.00000000000E+00 -0.00000000000E+00 -0.69819459600E+02  0.69819459600E+02  0.00000000000E+00 0. -1.
          2    1    1    2  501    0  0.21883336465E+02  0.27082040492E+02  0.21160692821E+02  0.40744229686E+02  0.00000000000E+00 0. -1.
          1    1    1    2  502    0 -0.21883336465E+02 -0.27082040492E+02 -0.54978699159E+02  0.65076683176E+02  0.00000000000E+00 0. -1.
</event>
<event>
 4    1  0.7181337E+003  0.1135806E+03  0.7546771E-02  0.1142153E+00
          2   -1    0    0  502    0  0.00000000000E+00  0.00000000000E+00  0.57673985412E+01  0.57673985412E+01  0.00000000000E+00 0. -1.
          1   -1    0    0  501    0 -0.00000000000E+00 -0.00000000000E+00 -0.30233817633E+04  0.30233817633E+04  0.00000000000E+00 0. -1.
          2    1    1    2  501    0 -0.39846706583E+02  0.10636163354E+03 -0.73627925504E+03  0.74498838817E+03  0.00000000000E+00 0. -1.
          1    1    1    2  502    0  0.39846706583E+02 -0.10636163354E+03 -0.22813351097E+04  0.22841607737E+04  0.00000000000E+00 0. -1.
</event>
<event>
 4    1  0.7181337E+003  0.2716328E+02  0.7546771E-02  0.1445975E+00
          2   -1    0    0  502    0  0.00000000000E+00  0.00000000000E+00  0.11602105171E+03  0.11602105171E+03  0.00000000000E+00 0.  1.
          1   -1    0    0  501    0 -0.00000000000E+00 -0.00000000000E+00 -0.42899153951E+02  0.42899153951E+02  0.00000000000E+00 0. -1.
          2    1    1    2  501    0 -0.15022961943E+02  0.22630831081E+02  0.10989514966E+03  0.11320241967E+03  0.00000000000E+00 0.  1.
          1    1    1    2  502    0  0.15022961943E+02 -0.22630831081E+02 -0.36773251897E+02  0.45717785992E+02  0.00000000000E+00 0. -1.
</event>
<event>
 4    1  0.7181337E+003  0.3314731E+02  0.7546771E-02  0.1394078E+00
          2   -1    0    0  502    0  0.00000000000E+00  0.00000000000E+00  0.16936021997E+04  0.16936021997E+04  0.00000000000E+00 0. -1.
          1   -1    0    0  501    0 -0.00000000000E+00 -0.00000000000E+00 -0.11925333894E+02  0.11925333894E+02  0.00000000000E+00 0. -1.
          2    1    1    2  501    0 -0.27006359137E+02 -0.19219794891E+02  0.16700818281E+04  0.16704107449E+04  0.00000000000E+00 0. -1.
          1    1    1    2  502    0  0.27006359137E+02  0.19219794891E+02  0.11595037641E+02  0.35116788683E+02  0.00000000000E+00 0. -1.
</event>
<event>
 4    1  0.7181337E+003  0.2287349E+02  0.7546771E-02  0.1494093E+00
          2   -1    0    0  502    0  0.00000000000E+00  0.00000000000E+00  0.29094169912E+03  0.29094169912E+03  0.00000000000E+00 0. -1.
          1   -1    0    0  501    0 -0.00000000000E+00 -0.00000000000E+00 -0.57687292582E+02  0.57687292582E+02  0.00000000000E+00 0.  1.
          2    1    1    2  501    0 -0.44550632290E+01 -0.22435440099E+02  0.28820323476E+03  0.28910949671E+03  0.00000000000E+00 0. -1.
          1    1    1    2  502    0  0.44550632290E+01  0.22435440099E+02 -0.54948828225E+02  0.59519494992E+02  0.00000000000E+00 0.  1.
</event>
<event>
 4    1  0.7181337E+003  0.3102759E+02  0.7546771E-02  0.1410872E+00
          2   -1    0    0  502    0  0.00000000000E+00  0.00000000000E+00  0.12262469251E+03  0.12262469251E+03  0.00000000000E+00 0.  1.
          1   -1    0    0  501    0 -0.00000000000E+00 -0.00000000000E+00 -0.12025603312E+03  0.12025603312E+03  0.00000000000E+00 0.  1.
          2    1    1    2  501    0 -0.21524740713E+02 -0.22347192532E+02  0.11859369335E+03  0.12258538077E+03  0.00000000000E+00 0.  1.
          1    1    1    2  502    0  0.21524740713E+02  0.22347192532E+02 -0.11622503395E+03  0.12029534486E+03  0.00000000000E+00 0.  1.
</event>
<event>
 4    1  0.7181337E+003  0.2388423E+02  0.7546771E-02  0.1481684E+00
          2   -1    0    0  502    0  0.00000000000E+00  0.00000000000E+00  0.51931242919E+01  0.51931242919E+01  0.00000000000E+00 0.  1.
          1   -1    0    0  501    0 -0.00000000000E+00 -0.00000000000E+00 -0.17932935773E+03  0.17932935773E+03  0.00000000000E+00 0. -1.
          2    1    1    2  501    0  0.21017494282E+02 -0.11345551027E+02 -0.29639762099E+02  0.38065366034E+02  0.00000000000E+00 0.  1.
          1    1    1    2  502    0 -0.21017494282E+02  0.11345551027E+02 -0.14449647134E+03  0.14645711598E+03  0.00000000000E+00 0. -1.
</event>
<event>
 4    1  0.7181337E+003  0.2352165E+02  0.7546771E-02  0.1486050E+00
          2   -1    0    0  502    0  0.00000000000E+00  0.00000000000E+00  0.20073480770E+03  0.20073480770E+03  0.00000000000E+00 0. -1.
          1   -1    0    0  501    0 -0.00000000000E+00 -0.00000000000E+00 -0.25233460143E+03  0.25233460143E+03  0.00000000000E+00 0. -1.
          2    1    1    2  501    0 -0.20758394852E+02  0.11061503626E+02  0.19949420853E+03  0.20087609877E+03  0.00000000000E+00 0. -1.
          1    1    1    2  502    0  0.20758394852E+02 -0.11061503626E+02 -0.25109400226E+03  0.25219331036E+03  0.00000000000E+00 0. -1.
</event>
<event>
 4    1  0.7181337E+003  0.2638715E+02  0.7546771E-02  0.1453863E+00
          2   -1    0    0  502    0  0.00000000000E+00  0.00000000000E+00  0.41285159867E+03  0.41285159867E+03  0.00000000000E+00 0. -1.
          1   -1    0    0  501    0 -0.00000000000E+00 -0.00000000000E+00 -0.39454547809E+02  0.39454547809E+02  0.00000000000E+00 0.  1.
          2    1    1    2  501    0 -0.13784772114E+02 -0.22500260506E+02  0.40796525847E+03  0.40881772685E+03  0.00000000000E+00 0. -1.
          1    1    1    2  502    0  0.13784772114E+02  0.22500260506E+02 -0.34568207607E+02  0.43488419634E+02  0.00000000000E+00 0.  1.
</event>
<event>
 4    1  0.7181337E+003  0.2017657E+02  0.7546771E-02  0.1531353E+00
          2   -1    0    0  502    0  0.00000000000E+00  0.00000000000E+00  0.26074126766E+02  0.26074126766E+02  0.00000000000E+00 0.  1.
          1   -1    0    0  501    0 -0.00000000000E+00 -0.00000000000E+00 -0.81243743800E+03  0.81243743800E+03  0.00000000000E+00 0.  1.
          2    1    1    2  501    0 -0.20161016378E+02 -0.79210524597E+00  0.22026077560E+02  0.29870421906E+02  0.00000000000E+00 0.  1.
          1    1    1    2  502    0  0.20161016378E+02  0.79210524597E+00 -0.80838938879E+03  0.80864114286E+03  0.00000000000E+00 0.  1.
</event>
<event>
 4    1  0.7181337E+003  0.2649136E+02  0.7546771E-02  0.1452786E+00
          2   -1    0    0  502    0  0.00000000000E+00  0.00000000000E+00  0.68838094569E+00  0.68838094569E+00  0.00000000000E+00 0. -1.
          1   -1    0    0  501    0 -0.00000000000E+00 -0.00000000000E+00 -0.15085104178E+04  0.15085104178E+04  0.00000000000E+00 0. -1.
          2    1    1    2  501    0 -0.19834059356E+02  0.17561379631E+02 -0.32426641761E+03  0.32534674050E+03  0.00000000000E+00 0. -1.
          1    1    1    2  502    0  0.19834059356E+02 -0.17561379631E+02 -0.11835556193E+04  0.11838520583E+04  0.00000000000E+00 0. -1.
</event>
<event>
 4    1  0.7181337E+003  0.2023766E+02  0.7546771E-02  0.1530433E+00
          2   -1    0    0  502    0  0.00000000000E+00  0.00000000000E+00  0.49127827210E+03  0.49127827210E+03  0.00000000000E+00 0.  1.
          1   -1    0    0  501    0 -0.00000000000E+00 -0.00000000000E+00 -0.20095955427E+01  0.20095955427E+01  0.00000000000E+00 0.  1.
          2    1    1    2  501    0 -0.19441603488E+02  0.56202327343E+01  0.43330587860E+03  0.43377822374E+03  0.00000000000E+00 0.  1.
          1    1    1    2  502    0  0.19441603488E+02 -0.56202327343E+01  0.55962797958E+02  0.59509643903E+02  0.00000000000E+00 0.  1.
</event>
<event>
 4    1  0.7181337E+003  0.2009378E+02  0.7546771E-02  0.1532607E+00
          2   -1    0    0  502    0  0.00000000000E+00  0.00000000000E+00  0.68121594469E+01  0.68121594469E+01  0.00000000000E+00 0.  1.
          1   -1    0    0  501    0 -0.00000000000E+00 -0.00000000000E+00 -0.71899667801E+02  0.71899667801E+02  0.00000000000E+00 0. -1.
          2    1    1    2  501    0 -0.41884764756E+01  0.19652392075E+02 -0.16049429191E+02  0.25716609941E+02  0.00000000000E+00 0.  1.
          1    1    1    2  502    0  0.41884764756E+01 -0.19652392075E+02 -0.49038079163E+02  0.52995217307E+02  0.00000000000E+00 0. -1.
</event>
<event>
 4    1  0.7181337E+003  0.2391902E+02  0.7546771E-02  0.1481270E+00
          2   -1    0    0  502    0  0.00000000000E+00  0.00000000000E+00  0.10487023493E+04  0.10487023493E+04  0.00000000000E+00 0. -1.
          1   -1    0    0  501    0 -0.00000000000E+00 -0.00000000000E+00 -0.75854375494E+00  0.75854375494E+00  0.00000000000E+00 0.  1.
          2    1    1    2  501    0  0.18249409951E+02 -0.15462163633E+02  0.80202611372E+03  0.80238270579E+03  0.00000000000E+00 0. -1.
          1    1    1    2  502    0 -0.18249409951E+02  0.15462163633E+02  0.24591769181E+03  0.24707818725E+03  0.00000000000E+00 0.  1.
</event>
<event>
 4    1  0.7181337E+003  0.2913894E+02  0.7546771E-02  0.1427229E+00
          2   -1    0    0  502    0  0.00000000000E+00  0.00000000000E+00  0.85104312574E+02  0.85104312574E+02  0.00000000000E+00 0. -1.
          1   -1    0    0  501    0 -0.00000000000E+00 -0.00000000000E+00 -0.17284211834E+04  0.17284211834E+04  0.00000000000E+00 0.  1.
          2    1    1    2  501    0 -0.92095979670E+01  0.27645274724E+02  0.82483486839E+02  0.87479160435E+02  0.00000000000E+00 0. -1.
          1    1    1    2  502    0  0.92095979670E+01 -0.27645274724E+02 -0.17258003577E+04  0.17260463356E+04  0.00000000000E+00 0.  1.
</event>
<event>
 4    1  0.7181337E+003  0.2878272E+02  0.7546771E-02  0.1430478E+00
          2   -1    0    0  502    0  0.00000000000E+00  0.00000000000E+00  0.29604018912E+03  0.29604018912E+03  0.00000000000E+00 0. -1.
          1   -1    0    0  501    0 -0.00000000000E+00 -0.00000000000E+00 -0.18458735874E+02  0.18458735874E+02  0.00000000000E+00 0.  1.
          2    1    1    2  501    0  0.14605501578E+01 -0.28745640676E+02  0.28363070045E+03  0.28508738888E+03  0.00000000000E+00 0. -1.
          1    1    1    2  502    0 -0.14605501578E+01  0.28745640676E+02 -0.60492472012E+01  0.29411536110E+02  0.00000000000E+00 0.  1.
</event>
<event>
 4    1  0.7181337E+003  0.3302431E+02  0.7546771E-02  0.1395011E+00
          2   -1    0    0  502    0  0.00000000000E+00  0.00000000000E+00  0.11663819382E+02  0.11663819382E+02  0.00000000000E+00 0.  1.
          1   -1    0    0  501    0 -0.00000000000E+00 -0.00000000000E+00 -0.70575351763E+03  0.70575351763E+03  0.00000000000E+00 0. -1.
          2    1    1    2  501    0  0.18466967459E+02 -0.27378390436E+02 -0.12942265518E+02  0.35469809511E+02  0.00000000000E+00 0.  1.
          1    1    1    2  502    0 -0.18466967459E+02  0.27378390436E+02 -0.68114743273E+03  0.68194752751E+03  0.00000000000E+00 0. -1.
</event>
<event>
 4    1  0.7181337E+003  0.2616887E+02  0.7546771E-02  0.1456140E+00
          2   -1    0    0  502    0  0.00000000000E+00  0.00000000000E+00  0.12191430706E+04  0.12191430706E+04  0.00000000000E+00 0. -1.
          1   -1    0    0  501    0 -0.00000000000E+00 -0.00000000000E+00 -0.23008815870E+01  0.23008815870E+01  0.00000000000E+00 0. -1.
          2    1    1    2  501    0 -0.25571616943E+02  0.55589691160E+01  0.11393876052E+04  0.11396880821E+04  0.00000000000E+00 0. -1.
          1    1    1    2  502    0  0.25571616943E+02 -0.55589691160E+01  0.77454583839E+02  0.81755870055E+02  0.00000000000E+00 0. -1.
</event>
<event>
 4    1  0.7181337E+003  0.2115878E+02  0.7546771E-02  0.1517010E+00
          2   -1    0    0  502    0  0.00000000000E+00  0.00000000000E+00  0.13232374134E+03  0.13232374134E+03  0.00000000000E+00 0.  1.
          1   -1    0    0  501    0 -0.00000000000E+00 -0.00000000000E+00 -0.11326807012E+02  0.11326807012E+02  0.00000000000E+00 0. -1.
          2    1    1    2  501    0  0.11591437171E+02  0.17701201320E+02  0.12064755667E+03  0.12248888470E+03  0.00000000000E+00 0.  1.
          1    1    1    2  502    0 -0.11591437171E+02 -0.17701201320E+02  0.34937765692E+00  0.21161663654E+02  0.00000000000E+00 0. -1.
</event>
<event>
 4    1  0.7181337E+003  0.2878788E+02  0.7546771E-02  0.1430430E+00
          2   -1    0    0  502    0  0.00000000000E+00  0.00000000000E+00  0.27804054288E+01  0.27804054288E+01  0.00000000000E+00 0.  1.
          1   -1    0    0  501    0 -0.00000000000E+00 -0.00000000000E+00 -0.32395258486E+03  0.32395258486E+03  0.00000000000E+00 0.  1.
          2    1    1    2  501    0 -0.28713583681E+02  0.20669662670E+01 -0.11440481211E+03  0.11797119679E+03  0.00000000000E+00 0.  1.
          1    1    1    2  502    0  0.28713583681E+02 -0.20669662670E+01 -0.20676736732E+03  0.20876179350E+03  0.00000000000E+00 0.  1.
</event>
<event>
 4    1  0.7181337E+003  0.2420285E+02  0.7546771E-02  0.1477922E+00
          2   -1    0    0  502    0  0.00000000000E+00  0.00000000000E+00  0.33706327088E+03  0.33706327088E+03  0.00000000000E+00 0.  1.
          1   -1    0    0  501    0 -0.00000000000E+00 -0.00000000000E+00 -0.23721512996E+01  0.23721512996E+01  0.00000000000E+00 0.  1.
          2    1    1    2  501    0  0.23005452249E+02  0.75184397549E+01  0.25510446881E+03  0.25625001029E+03  0.00000000000E+00 0.  1.
          1    1    1    2  502    0 -0.23005452249E+02 -0.75184397549E+01  0.79586650774E+02  0.83185411888E+02  0.00000000000E+00 0.  1.
</event>
<event>
 4    1  0.7181337E+003  0.4029025E+02  0.7546771E-02  0.1346793E+00
          2   -1    0    0  502    0  0.00000000000E+00  0.00000000000E+00  0.75837463872E+03  0.75837463872E+03  0.00000000000E+00 0.  1.
          1   -1    0    0  501    0 -0.00000000000E+00 -0.00000000000E+00 -0.15272757591E+02  0.15272757591E+02  0.00000000000E+00 0. -1.
          2    1    1    2  501    0  0.33613662418E+02  0.22213187737E+02  0.73024482498E+03  0.73135545969E+03  0.00000000000E+00 0.  1.
          1    1    1    2  502    0 -0.33613662418E+02 -0.22213187737E+02  0.12857056154E+02  0.42291936625E+02  0.00000000000E+00 0. -1.
</event>
<event>
 4    1  0.7181337E+003  0.2534355E+02  0.7546771E-02  0.1464997E+00
          2   -1    0    0  502    0  0.00000000000E+00  0.00000000000E+00  0.22736197023E+03  0.22736197023E+03  0.00000000000E+00 0. -1.
          1   -1    0    0  501    0 -0.00000000000E+00 -0.00000000000E+00 -0.29752874969E+01  0.29752874969E+01  0.00000000000E+00 0. -1.
          2    1    1    2  501    0  0.74728842222E+01 -0.24216764878E+02  0.13807803400E+03  0.14038461159E+03  0.00000000000E+00 0. -1.
          1    1    1    2  502    0 -0.74728842222E+01  0.24216764878E+02  0.86308648736E+02  0.89952646133E+02  0.00000000000E+00 0. -1.
</event>
<event>
 4    1  0.7181337E+003  0.2905814E+02  0.7546771E-02  0.1427961E+00
          2   -1    0    0  502    0  0.00000000000E+00  0.00000000000E+00  0.77045655850E+03  0.77045655850E+03  0.00000000000E+00 0.  1.
          1   -1    0    0  501    0 -0.00000000000E+00 -0.00000000000E+00 -0.11180675564E+01  0.11180675564E+01  0.00000000000E+00 0.  1.
          2    1    1    2  501    0  0.12922129668E+02  0.26026800030E+02  0.43893931020E+03  0.43990009525E+03  0.00000000000E+00 0.  1.
          1    1    1    2  502    0 -0.12922129668E+02 -0.26026800030E+02  0.33039918074E+03  0.33167453081E+03  0.00000000000E+00 0.  1.
</event>
<event>
 4    1  0.7181337E+003  0.3282957E+02  0.7546771E-02  0.1396500E+00
          2   -1    0    0  502    0  0.00000000000E+00  0.00000000000E+00  0.62248390553E+02  0.62248390553E+02  0.00000000000E+00 0. -1.
          1   -1    0    0  501    0 -0.00000000000E+00 -0.00000000000E+00 -0.46725105592E+02  0.46725105592E+02  0.00000000000E+00 0. -1.
          2    1    1    2  501    0  0.25813970313E+02  0.20283479677E+02  0.50990125709E+02  0.60644649648E+02  0.00000000000E+00 0. -1.
          1    1    1    2  502    0 -0.25813970313E+02 -0.20283479677E+02 -0.35466840747E+02  0.48328846497E+02  0.00000000000E+00 0. -1.
</event>
<event>
 4    1  0.7181337E+003  0.4181342E+02  0.7546771E-02  0.1338175E+00
          2   -1    0    0  502    0  0.00000000000E+00  0.00000000000E+00  0.53919801587E+03  0.53919801587E+03  0.00000000000E+00 0. -1.
          1   -1    0    0  501    0 -0.00000000000E+00 -0.00000000000E+00 -0.11728297506E+03  0.11728297506E+03  0.00000000000E+00 0. -1.
          2    1    1    2  501    0  0.36615436387E+02 -0.20190890470E+02  0.53462877906E+03  0.53626140421E+03  0.00000000000E+00 0. -1.
          1    1    1    2  502    0 -0.36615436387E+02  0.20190890470E+02 -0.11271373826E+03  0.12021958672E+03  0.00000000000E+00 0. -1.
</event>
<event>
 4    1  0.7181337E+003  0.2816895E+02  0.7546771E-02  0.1436206E+00
          2   -1    0    0  502    0  0.00000000000E+00  0.00000000000E+00  0.35015360686E+01  0.35015360686E+01  0.00000000000E+00 0.  1.
          1   -1    0    0  501    0 -0.00000000000E+00 -0.00000000000E+00 -0.23297879938E+03  0.23297879938E+03  0.00000000000E+00 0.  1.
          2    1    1    2  501    0  0.18691535708E+02 -0.21074069566E+02 -0.95192125706E+02  0.99272507331E+02  0.00000000000E+00 0.  1.
          1    1    1    2  502    0 -0.18691535708E+02  0.21074069566E+02 -0.13428513760E+03  0.13720782812E+03  0.00000000000E+00 0.  1.
</event>
<event>
 4    1  0.7181337E+003  0.2277984E+02  0.7546771E-02  0.1495281E+00
          2   -1    0    0  502    0  0.00000000000E+00  0.00000000000E+00  0.16065191254E+03  0.16065191254E+03  0.00000000000E+00 0. -1.
          1   -1    0    0  501    0 -0.00000000000E+00 -0.00000000000E+00 -0.43230088777E+01  0.43230088777E+01  0.00000000000E+00 0. -1.
          2    1    1    2  501    0 -0.15874457136E+02  0.16337771153E+02  0.11963956444E+03  0.12178894258E+03  0.00000000000E+00 0. -1.
          1    1    1    2  502    0  0.15874457136E+02 -0.16337771153E+02  0.36689339230E+02  0.43185978844E+02  0.00000000000E+00 0. -1.
</event>
<event>
 4    1  0.7181337E+003  0.2027514E+02  0.7546771E-02  0.1529870E+00
          2   -1    0    0  502    0  0.00000000000E+00  0.00000000000E+00  0.65653667053E+02  0.65653667053E+02  0.00000000000E+00 0.  1.
          1   -1    0    0  501    0 -0.00000000000E+00 -0.00000000000E+00 -0.15498923562E+02  0.15498923562E+02  0.00000000000E+00 0.  1.
          2    1    1    2  501    0 -0.55863710115E+01  0.19490350754E+02  0.56403038215E+02  0.59936500010E+02  0.00000000000E+00 0.  1.
          1    1    1    2  502    0  0.55863710115E+01 -0.19490350754E+02 -0.62482947245E+01  0.21216090605E+02  0.00000000000E+00 0.  1.
</event>
<event>
 4    1  0.7181337E+003  0.2383004E+02  0.7546771E-02  0.1482330E+00
          2   -1    0    0  502    0  0.00000000000E+00  0.00000000000E+00  0.19703698293E+03  0.19703698293E+03  0.00000000000E+00 0.  1.
          1   -1    0    0  501    0 -0.00000000000E+00 -0.00000000000E+00 -0.54061159615E+02  0.54061159615E+02  0.00000000000E+00 0.  1.
          2    1    1    2  501    0 -0.79841655683E+01 -0.22452701388E+02  0.19364458108E+03  0.19510534201E+03  0.00000000000E+00 0.  1.
          1    1    1    2  502    0  0.79841655683E+01  0.22452701388E+02 -0.50668757759E+02  0.55992800540E+02  0.00000000000E+00 0.  1.
</event>
<event>
 4    1  0.7181337E+003  0.2043288E+02  0.7546771E-02  0.1527518E+00
          2   -1    0    0  502    0  0.00000000000E+00  0.00000000000E+00  0.57214954956E+03  0.57214954956E+03  0.00000000000E+00 0.  1.
          1   -1    0    0  501    0 -0.00000000000E+00 -0.00000000000E+00 -0.68254793722E+02  0.68254793722E+02  0.00000000000E+00 0.  1.
          2    1    1    2  501    0 -0.13037944060E+02  0.15732597180E+02  0.57043331683E+03  0.57079915168E+03  0.00000000000E+00 0.  1.
          1    1    1    2  502    0  0.13037944060E+02 -0.15732597180E+02 -0.66538560995E+02  0.69605191607E+02  0.00000000000E+00 0.  1.
</event>
<event>
 4    1  0.7181337E+003  0.2697952E+02  0.7546771E-02  0.1447814E+00
          2   -1    0    0  502    0  0.00000000000E+00  0.00000000000E+00  0.20894556977E+03  0.20894556977E+03  0.00000000000E+00 0.  1.
          1   -1    0    0  501    0 -0.00000000000E+00 -0.00000000000E+00 -0.16148525993E+03  0.16148525993E+03  0.00000000000E+00 0.  1.
          2    1    1    2  501    0 -0.25738796103E+02 -0.80875592718E+01  0.20693688978E+03  0.20868821383E+03  0.00000000000E+00 0.  1.
          1    1    1    2  502    0  0.25738796103E+02  0.80875592718E+01 -0.15947657994E+03  0.16174261587E+03  0.00000000000E+00 0.  1.
</event>
<event>
 4    1  0.7181337E+003  0.2064402E+02  0.7546771E-02  0.1524409E+00
          2   -1    0    0  502    0  0.00000000000E+00  0.00000000000E+00  0.16999956825E+03  0.16999956825E+03  0.00000000000E+00 0. -1.
          1   -1    0    0  501    0 -0.00000000000E+00 -0.00000000000E+00 -0.30928372588E+03  0.30928372588E+03  0.00000000000E+00 0.  1.
          2    1    1    2  501    0 -0.64844545484E+01  0.19599165569E+02  0.16902637616E+03  0.17028238687E+03  0.00000000000E+00 0. -1.
          1    1    1    2  502    0  0.64844545484E+01 -0.19599165569E+02 -0.30831053379E+03  0.30900090726E+03  0.00000000000E+00 0.  1.
</event>
<event>
 4    1  0.7181337E+003  0.3695956E+02  0.7546771E-02  0.1367287E+00
          2   -1    0    0  502    0  0.00000000000E+00  0.00000000000E+00  0.97909934934E+03  0.97909934934E+03  0.00000000000E+00 0.  1.
          1   -1    0    0  501    0 -0.00000000000E+00 -0.00000000000E+00 -0.35770639021E+01  0.35770639021E+01  0.00000000000E+00 0. -1.
          2    1    1    2  501    0 -0.30679297475E+02  0.20610429010E+02  0.87149851652E+03  0.87228187725E+03  0.00000000000E+00 0.  1.
          1    1    1    2  502    0  0.30679297475E+02 -0.20610429010E+02  0.10402376891E+03  0.11039453599E+03  0.00000000000E+00 0. -1.
</event>
<event>
 4    1  0.7181337E+003  0.2916994E+02  0.7546771E-02  0.1426949E+00
          2   -1    0    0  502    0  0.00000000000E+00  0.00000000000E+00  0.84427037410E+02  0.84427037410E+02  0.00000000000E+00 0.  1.
          1   -1    0    0  501    0 -0.00000000000E+00 -0.00000000000E+00 -0.46947113354E+02  0.46947113354E+02  0.00000000000E+00 0.  1.
          2    1    1    2  501    0 -0.27284335522E+02 -0.10317495338E+02  0.76950918273E+02  0.82294164422E+02  0.00000000000E+00 0.  1.
          1    1    1    2  502    0  0.27284335522E+02  0.10317495338E+02 -0.39470994216E+02  0.49079986343E+02  0.00000000000E+00 0.  1.
</event>
<event>
 4    1  0.7181337E+003  0.2286286E+02  0.7546771E-02  0.1494227E+00
          2   -1    0    0  502    0  0.00000000000E+00  0.00000000000E+00  0.99925157108E+03  0.99925157108E+03  0.00000000000E+00 0.  1.
          1   -1    0    0  501    0 -0.00000000000E+00 -0.00000000000E+00 -0.59680790166E+00  0.59680790166E+00  0.00000000000E+00 0. -1.
          2    1    1    2  501    0  0.16500621549E+02  0.15825295587E+02  0.67501372776E+03  0.67540080186E+03  0.00000000000E+00 0.  1.
          1    1    1    2  502    0 -0.16500621549E+02 -0.15825295587E+02  0.32364103542E+03  0.32444757712E+03  0.00000000000E+00 0. -1.
</event>
<event>
 4    1  0.7181337E+003  0.2359940E+02  0.7546771E-02  0.1485106E+00
          2   -1    0    0  502    0  0.00000000000E+00  0.00000000000E+00  0.12996228438E+03  0.12996228438E+03  0.00000000000E+00 0. -1.
          1   -1    0    0  501    0 -0.00000000000E+00 -0.00000000000E+00 -0.68248340528E+01  0.68248340528E+01  0.00000000000E+00 0.  1.
          2    1    1    2  501    0 -0.64806476580E+01 -0.22692135384E+02  0.10328862586E+03  0.10595032815E+03  0.00000000000E+00 0. -1.
          1    1    1    2  502    0  0.64806476580E+01  0.22692135384E+02  0.19848824465E+02  0.30836790284E+02  0.00000000000E+00 0.  1.
</event>
<event>
 4    1  0.7181337E+003  0.2759172E+02  0.7546771E-02  0.1441753E+00
          2   -1    0    0  502    0  0.00000000000E+00  0.00000000000E+00  0.90527278662E+03  0.90527278662E+03  0.00000000000E+00 0. -1.
          1   -1    0    0  501    0 -0.00000000000E+00 -0.00000000000E+00 -0.15723299852E+01  0.15723299852E+01  0.00000000000E+00 0. -1.
          2    1    1    2  501    0 -0.54228996971E+01  0.27053559093E+02  0.76109210516E+03  0.76159207942E+03  0.00000000000E+00 0. -1.
          1    1    1    2  502    0  0.54228996971E+01 -0.27053559093E+02  0.14260835147E+03  0.14525303718E+03  0.00000000000E+00 0. -1.
</event>
<event>
 4    1  0.7181337E+003  0.2352289E+02  0.7546771E-02  0.1486035E+00
          2   -1    0    0  502    0  0.00000000000E+00  0.00000000000E+00  0.22001676168E+02  0.22001676168E+02  0.00000000000E+00 0. -1.
          1   -1    0    0  501    0 -0.00000000000E+00 -0.00000000000E+00 -0.85502561350E+03  0.85502561350E+03  0.00000000000E+00 0. -1.
          2    1    1    2  501    0 -0.44215138942E+01  0.23103604186E+02  0.15504436537E+02  0.28172927854E+02  0.00000000000E+00 0. -1.
          1    1    1    2  502    0  0.44215138942E+01 -0.23103604186E+02 -0.84852837387E+03  0.84885436182E+03  0.00000000000E+00 0. -1.
</event>
<event>
 4    1  0.7181337E+003  0.3219529E+02  0.7546771E-02  0.1401432E+00
          2   -1    0    0  502    0  0.00000000000E+00  0.00000000000E+00  0.17972685213E+04  0.17972685213E+04  0.00000000000E+00 0. -1.
          1   -1    0    0  501    0 -0.00000000000E+00 -0.00000000000E+00 -0.33280747834E+01  0.33280747834E+01  0.00000000000E+00 0. -1.
          2    1    1    2  501    0 -0.20148013467E+01  0.32132182563E+02  0.17155527902E+04  0.17158548635E+04  0.00000000000E+00 0. -1.
          1    1    1    2  502    0  0.20148013467E+01 -0.32132182563E+02  0.78387656294E+02  0.84741732576E+02  0.00000000000E+00 0. -1.
</event>
<event>
 4    1  0.7181337E+003  0.2231895E+02  0.7546771E-02  0.1501232E+00
          2   -1    0    0  502    0  0.00000000000E+00  0.00000000000E+00  0.48208270850E+01  0.48208270850E+01  0.00000000000E+00 0.  1.
          1   -1    0    0  501    0 -0.00000000000E+00 -0.00000000000E+00 -0.83684688385E+03  0.83684688385E+03  0.00000000000E+00 0. -1.
          2    1    1    2  501    0  0.18172863814E+02  0.12956953205E+02 -0.22016174367E+02  0.31350399508E+02  0.00000000000E+00 0.  1.
          1    1    1    2  502    0 -0.18172863814E+02 -0.12956953205E+02 -0.81000988240E+03  0.81031731142E+03  0.00000000000E+00 0. -1.
</event>
<event>
 4    1  0.7181337E+003  0.2092764E+02  0.7546771E-02  0.1520300E+00
          2   -1    0    0  502    0  0.00000000000E+00  0.00000000000E+00  0.55118700245E+02  0.55118700245E+02  0.00000000000E+00 0. -1.
          1   -1    0    0  501    0 -0.00000000000E+00 -0.00000000000E+00 -0.88968086274E+01  0.88968086274E+01  0.00000000000E+00 0. -1.
          2    1    1    2  501    0  0.12418435545E+02 -0.16844838615E+02  0.33575335427E+02  0.39563484154E+02  0.00000000000E+00 0. -1.
          1    1    1    2  502    0 -0.12418435545E+02  0.16844838615E+02  0.12646556190E+02  0.24452024718E+02  0.00000000000E+00 0. -1.
</event>
<event>
 4    1  0.7181337E+003  0.8926385E+02  0.7546771E-02  0.1183836E+00
          2   -1    0    0  502    0  0.00000000000E+00  0.00000000000E+00  0.12526225664E+04  0.12526225664E+04  0.00000000000E+00 0. -1.
          1   -1    0    0  501    0 -0.00000000000E+00 -0.00000000000E+00 -0.13926036400E+03  0.13926036400E+03  0.00000000000E+00 0. -1.
          2    1    1    2  501    0 -0.45616650451E+02  0.76727802097E+02  0.12365423193E+04  0.12397600340E+04  0.00000000000E+00 0. -1.
          1    1    1    2  502    0  0.45616650451E+02 -0.76727802097E+02 -0.12318011690E+03  0.15212289641E+03  0.00000000000E+00 0. -1.
</event>
<event>
 4    1  0.7181337E+003  0.6601980E+02  0.7546771E-02  0.1240646E+00
          2   -1    0    0  502    0  0.00000000000E+00  0.00000000000E+00  0.22847674312E+03  0.22847674312E+03  0.00000000000E+00 0.  1.
          1   -1    0    0  501    0 -0.00000000000E+00 -0.00000000000E+00 -0.43547694571E+02  0.43547694571E+02  0.00000000000E+00 0. -1.
          2    1    1    2  501    0  0.17839386334E+02  0.63563910709E+02  0.19442219438E+03  0.20532560512E+03  0.00000000000E+00 0.  1.
          1    1    1    2  502    0 -0.17839386334E+02 -0.63563910709E+02 -0.94931458284E+01  0.66698832576E+02  0.00000000000E+00 0. -1.
</event>
<event>
 4    1  0.7181337E+003  0.8933706E+02  0.7546771E-02  0.1183689E+00
          2   -1    0    0  502    0  0.00000000000E+00  0.00000000000E+00  0.27460273692E+03  0.27460273692E+03  0.00000000000E+00 0. -1.
          1   -1    0    0  501    0 -0.00000000000E+00 -0.00000000000E+00 -0.29562062883E+02  0.29562062883E+02  0.00000000000E+00 0.  1.
          2    1    1    2  501    0  0.80877173578E+02  0.37947238243E+02  0.14225658122E+03  0.16798227584E+03  0.00000000000E+00 0. -1.
          1    1    1    2  502    0 -0.80877173578E+02 -0.37947238243E+02  0.10278409281E+03  0.13618252396E+03  0.00000000000E+00 0.  1.
</event>
<event>
 4    1  0.7181337E+003  0.2183458E+02  0.7546771E-02  0.1507675E+00
          2   -1    0    0  502    0  0.00000000000E+00  0.00000000000E+00  0.57860422739E+00  0.57860422739E+00  0.00000000000E+00 0.  1.
          1   -1    0    0  501    0 -0.00000000000E+00 -0.00000000000E+00 -0.14797705111E+04  0.14797705111E+04  0.00000000000E+00 0. -1.
          2    1    1    2  501    0  0.19922344998E+02  0.89358268100E+01 -0.24684785371E+03  0.24781164563E+03  0.00000000000E+00 0.  1.
          1    1    1    2  502    0 -0.19922344998E+02 -0.89358268100E+01 -0.12323440532E+04  0.12325374697E+04  0.00000000000E+00 0. -1.
</event>
<event>
 4    1  0.7181337E+003  0.2867273E+02  0.7546771E-02  0.1431492E+00
          2   -1    0    0  502    0  0.00000000000E+00  0.00000000000E+00  0.73360467173E+03  0.73360467173E+03  0.00000000000E+00 0.  1.
          1   -1    0    0  501    0 -0.00000000000E+00 -0.00000000000E+00 -0.12058563316E+01  0.12058563316E+01  0.00000000000E+00 0.  1.
          2    1    1    2  501    0 -0.97503958665E+00 -0.28656146387E+02  0.46385431742E+03  0.46473966176E+03  0.00000000000E+00 0.  1.
          1    1    1    2  502    0  0.97503958665E+00  0.28656146387E+02  0.26854449798E+03  0.27007086630E+03  0.00000000000E+00 0.  1.
</event>
<event>
 4    1  0.7181337E+003  0.3971910E+02  0.7546771E-02  0.1350140E+00
          2   -1    0    0  502    0  0.00000000000E+00  0.00000000000E+00  0.56144119131E+03  0.56144119131E+03  0.00000000000E+00 0. -1.
          1   -1    0    0  501    0 -0.00000000000E+00 -0.00000000000E+00 -0.91464380985E+02  0.91464380985E+02  0.00000000000E+00 0. -1.
          2    1    1    2  501    0 -0.34488434205E+02  0.19701649620E+02  0.55638751288E+03  0.55780343453E+03  0.00000000000E+00 0. -1.
          1    1    1    2  502    0  0.34488434205E+02 -0.19701649620E+02 -0.86410702551E+02  0.95102137762E+02  0.00000000000E+00 0. -1.
</event>
<event>
 4    1  0.7181337E+003  0.2583344E+02  0.7546771E-02  0.1459692E+00
          2   -1    0    0  502    0  0.00000000000E+00  0.00000000000E+00  0.87434295890E+03  0.87434295890E+03  0.00000000000E+00 0.  1.
          1   -1    0    0  501    0 -0.00000000000E+00 -0.00000000000E+00 -0.36054974163E+01  0.36054974163E+01  0.00000000000E+00 0.  1.
          2    1    1    2  501    0 -0.19773108462E+02  0.16625011028E+02  0.82511792395E+03  0.82552223182E+03  0.00000000000E+00 0.  1.
          1    1    1    2  502    0  0.19773108462E+02 -0.16625011028E+02  0.45619537539E+02  0.52426224499E+02  0.00000000000E+00 0.  1.
</event>
<event>
 4    1  0.7181337E+003  0.1263606E+03  0.7546771E-02  0.1124652E+00
          2   -1    0    0  502    0  0.00000000000E+00  0.00000000000E+00  0.21924496120E+03  0.21924496120E+03  0.00000000000E+00 0. -1.
          1   -1    0    0  501    0 -0.00000000000E+00 -0.00000000000E+00 -0.13751644456E+03  0.13751644456E+03  0.00000000000E+00 0. -1.
          2    1    1    2  501    0  0.87325675627E+02  0.91330308115E+02  0.16320935256E+03  0.20640807050E+03  0.00000000000E+00 0. -1.
          1    1    1    2  502    0 -0.87325675627E+02 -0.91330308115E+02 -0.81480835915E+02  0.15035333527E+03  0.00000000000E+00 0. -1.
</event>
<event>
 4    1  0.7181337E+003  0.2394415E+02  0.7546771E-02  0.1480971E+00
          2   -1    0    0  502    0  0.00000000000E+00  0.00000000000E+00  0.80503505464E+01  0.80503505464E+01  0.00000000000E+00 0.  1.
          1   -1    0    0  501    0 -0.00000000000E+00 -0.00000000000E+00 -0.68127865636E+03  0.68127865636E+03  0.00000000000E+00 0.  1.
          2    1    1    2  501    0  0.23576830578E+02  0.41779673748E+01 -0.10461430668E+02  0.26129750920E+02  0.00000000000E+00 0.  1.
          1    1    1    2  502    0 -0.23576830578E+02 -0.41779673748E+01 -0.66276687514E+03  0.66319925598E+03  0.00000000000E+00 0.  1.
</event>
<event>
 4    1  0.7181337E+003  0.2336924E+02  0.7546771E-02  0.1487913E+00
          2   -1    0    0  502    0  0.00000000000E+00  0.00000000000E+00  0.18434409071E+03  0.18434409071E+03  0.00000000000E+00 0.  1.
          1   -1    0    0  501    0 -0.00000000000E+00 -0.00000000000E+00 -0.39317757343E+03  0.39317757343E+03  0.00000000000E+00 0. -1.
          2    1    1    2  501    0  0.15480538882E+02  0.17506405913E+02  0.18325415754E+03  0.18473821366E+03  0.00000000000E+00 0.  1.
          1    1    1    2  502    0 -0.15480538882E+02 -0.17506405913E+02 -0.39208764026E+03  0.39278345048E+03  0.00000000000E+00 0. -1.
</event>
<event>
 4    1  0.7181337E+003  0.2639550E+02  0.7546771E-02  0.1453777E+00
          2   -1    0    0  502    0  0.00000000000E+00  0.00000000000E+00  0.65371094768E+02  0.65371094768E+02  0.00000000000E+00 0. -1.
          1   -1    0    0  501    0 -0.00000000000E+00 -0.00000000000E+00 -0.67212900371E+03  0.67212900371E+03  0.00000000000E+00 0. -1.
          2    1    1    2  501    0 -0.13241865306E+02  0.22833644186E+02  0.62435775185E+02  0.67786048170E+02  0.00000000000E+00 0. -1.
          1    1    1    2  502    0  0.13241865306E+02 -0.22833644186E+02 -0.66919368413E+03  0.66971405031E+03  0.00000000000E+00 0. -1.
</event>
<event>
 4    1  0.7181337E+003  0.4334720E+02  0.7546771E-02  0.1329914E+00
          2   -1    0    0  502    0  0.00000000000E+00  0.00000000000E+00  0.18358250525E+04  0.18358250525E+04  0.00000000000E+00 0. -1.
          1   -1    0    0  501    0 -0.00000000000E+00 -0.00000000000E+00 -0.33902195629E+02  0.33902195629E+02  0.00000000000E+00 0.  1.
          2    1    1    2  501    0  0.38339446923E+02 -0.20225399076E+02  0.18216051415E+04  0.18221208170E+04  0.00000000000E+00 0. -1.
          1    1    1    2  502    0 -0.38339446923E+02  0.20225399076E+02 -0.19682284665E+02  0.47606431160E+02  0.00000000000E+00 0.  1.
</event>
<event>
 4    1  0.7181337E+003  0.5309043E+02  0.7546771E-02  0.1285302E+00
          2   -1    0    0  502    0  0.00000000000E+00  0.00000000000E+00  0.22323713831E+03  0.22323713831E+03  0.00000000000E+00 0.  1.
          1   -1    0    0  501    0 -0.00000000000E+00 -0.00000000000E+00 -0.13650820184E+03  0.13650820184E+03  0.00000000000E+00 0.  1.
          2    1    1    2  501    0  0.30627210345E+02  0.43365511464E+02  0.21471689312E+03  0.22118304137E+03  0.00000000000E+00 0.  1.
          1    1    1    2  502    0 -0.30627210345E+02 -0.43365511464E+02 -0.12798795665E+03  0.13856229879E+03  0.00000000000E+00 0.  1.
</event>
<event>
 4    1  0.7181337E+003  0.2265718E+02  0.7546771E-02  0.1496848E+00
          2   -1    0    0  502    0  0.00000000000E+00  0.00000000000E+00  0.46283258468E+03  0.46283258468E+03  0.00000000000E+00 0. -1.
          1   -1    0    0  501    0 -0.00000000000E+00 -0.00000000000E+00 -0.12930384592E+02  0.12930384592E+02  0.00000000000E+00 0.  1.
          2    1    1    2  501    0 -0.18996215209E+02 -0.12348753547E+02  0.45240136673E+03  0.45296837034E+03  0.00000000000E+00 0. -1.
          1    1    1    2  502    0  0.18996215209E+02  0.12348753547E+02 -0.24991666481E+01  0.22794598930E+02  0.00000000000E+00 0.  1.
</event>
<event>
 4    1  0.7181337E+003  0.2770468E+02  0.7546771E-02  0.1440655E+00
          2   -1    0    0  502    0  0.00000000000E+00  0.00000000000E+00  0.16821131452E+04  0.16821131452E+04  0.00000000000E+00 0.  1.
          1   -1    0    0  501    0 -0.00000000000E+00 -0.00000000000E+00 -0.17964186084E+01  0.17964186084E+01  0.00000000000E+00 0.  1.
          2    1    1    2  501    0  0.20412022897E+02  0.18732291485E+02  0.15673627651E+04  0.15676075998E+04  0.00000000000E+00 0.  1.
          1    1    1    2  502    0 -0.20412022897E+02 -0.18732291485E+02  0.11295396144E+03  0.11630196399E+03  0.00000000000E+00 0.  1.
</event>
<event>
 4    1  0.7181337E+003  0.5854106E+02  0.7546771E-02  0.1264872E+00
          2   -1    0    0  502    0  0.00000000000E+00  0.00000000000E+00  0.56331231013E+02  0.56331231013E+02  0.00000000000E+00 0. -1.
          1   -1    0    0  501    0 -0.00000000000E+00 -0.00000000000E+00 -0.70224853542E+02  0.70224853542E+02  0.00000000000E+00 0.  1.
          2    1    1    2  501    0  0.58531901900E+02 -0.10356185685E+01  0.16188600736E+02  0.60738182716E+02  0.00000000000E+00 0. -1.
          1    1    1    2  502    0 -0.58531901900E+02  0.10356185685E+01 -0.30082223265E+02  0.65817901839E+02  0.00000000000E+00 0.  1.
</event>
<event>
 4    1  0.7181337E+003  0.2966036E+02  0.7546771E-02  0.1422571E+00
          2   -1    0    0  502    0  0.00000000000E+00  0.00000000000E+00  0.11099137703E+04  0.11099137703E+04  0.00000000000E+00 0.  1.
          1   -1    0    0  501    0 -0.00000000000E+00 -0.00000000000E+00 -0.57121614274E+03  0.57121614274E+03  0.00000000000E+00 0.  1.
          2    1    1    2  501    0 -0.25745346655E+02  0.14728003924E+02  0.11093303854E+04  0.11097268317E+04  0.00000000000E+00 0.  1.
          1    1    1    2  502    0  0.25745346655E+02 -0.14728003924E+02 -0.57063275788E+03  0.57140308132E+03  0.00000000000E+00 0.  1.
</event>
<event>
 4    1  0.7181337E+003  0.2842621E+02  0.7546771E-02  0.1433785E+00
          2   -1    0    0  502    0  0.00000000000E+00  0.00000000000E+00  0.11909253686E+04  0.11909253686E+04  0.00000000000E+00 0.  1.
          1   -1    0    0  501    0 -0.00000000000E+00 -0.00000000000E+00 -0.32837251029E+01  0.32837251029E+01  0.00000000000E+00 0. -1.
          2    1    1    2  501    0 -0.15193009111E+02  0.24025444241E+02  0.11256707985E+04  0.11260296604E+04  0.00000000000E+00 0.  1.
          1    1    1    2  502    0  0.15193009111E+02 -0.24025444241E+02  0.61970845035E+02  0.68179433344E+02  0.00000000000E+00 0. -1.
</event>
<event>
 4    1  0.7181337E+003  0.3048228E+02  0.7546771E-02  0.1415451E+00
          2   -1    0    0  502    0  0.00000000000E+00  0.00000000000E+00  0.21892028081E+03  0.21892028081E+03  0.00000000000E+00 0. -1.
          1   -1    0    0  501    0 -0.00000000000E+00 -0.00000000000E+00 -0.52335255864E+02  0.52335255864E+02  0.00000000000E+00 0. -1.
          2    1    1    2  501    0 -0.82873426789E+01  0.29334094861E+02  0.21330438833E+03  0.21547141632E+03  0.00000000000E+00 0. -1.
          1    1    1    2  502    0  0.82873426789E+01 -0.29334094861E+02 -0.46719363378E+02  0.55784120361E+02  0.00000000000E+00 0. -1.
</event>
<event>
 4    1  0.7181337E+003  0.2791292E+02  0.7546771E-02  0.1438647E+00
          2   -1    0    0  502    0  0.00000000000E+00  0.00000000000E+00  0.24663571340E+04  0.24663571340E+04  0.00000000000E+00 0.  1.
          1   -1    0    0  501    0 -0.00000000000E+00 -0.00000000000E+00 -0.36162211351E+00  0.36162211351E+00  0.00000000000E+00 0.  1.
          2    1    1    2  501    0 -0.53271668516E+01 -0.27399862807E+02  0.16715365580E+04  0.16717696001E+04  0.00000000000E+00 0.  1.
          1    1    1    2  502    0  0.53271668516E+01  0.27399862807E+02  0.79445895397E+03  0.79494915607E+03  0.00000000000E+00 0.  1.
</event>
<event>
 4    1  0.7181337E+003  0.2047524E+02  0.7546771E-02  0.1526891E+00
          2   -1    0    0  502    0  0.00000000000E+00  0.00000000000E+00  0.54638973081E+01  0.54638973081E+01  0.00000000000E+00 0.  1.
          1   -1    0    0  501    0 -0.00000000000E+00 -0.00000000000E+00 -0.23892269800E+03  0.23892269800E+03  0.00000000000E+00 0. -1.
          2    1    1    2  501    0  0.20213050805E+02  0.32662120744E+01 -0.16050931450E+02  0.26016686272E+02  0.00000000000E+00 0.  1.
          1    1    1    2  502    0 -0.20213050805E+02 -0.32662120744E+01 -0.21740786924E+03  0.21836990903E+03  0.00000000000E+00 0. -1.
</event>
<event>
 4    1  0.7181337E+003  0.2073969E+02  0.7546771E-02  0.1523014E+00
          2   -1    0    0  502    0  0.00000000000E+00  0.00000000000E+00  0.81669256252E+01  0.81669256252E+01  0.00000000000E+00 0.  1.
          1   -1    0    0  501    0 -0.00000000000E+00 -0.00000000000E+00 -0.85224082307E+02  0.85224082307E+02  0.00000000000E+00 0.  1.
          2    1    1    2  501    0 -0.20106555632E+02 -0.50854026609E+01 -0.96676316362E+01  0.22882263897E+02  0.00000000000E+00 0.  1.
          1    1    1    2  502    0  0.20106555632E+02  0.50854026609E+01 -0.67389525046E+02  0.70508744036E+02  0.00000000000E+00 0.  1.
</event>
<event>
 4    1  0.7181337E+003  0.3149413E+02  0.7546771E-02  0.1407042E+00
          2   -1    0    0  502    0  0.00000000000E+00  0.00000000000E+00  0.12636713457E+04  0.12636713457E+04  0.00000000000E+00 0. -1.
          1   -1    0    0  501    0 -0.00000000000E+00 -0.00000000000E+00 -0.19170236253E+01  0.19170236253E+01  0.00000000000E+00 0.  1.
          2    1    1    2  501    0 -0.15832862070E+02  0.27224996280E+02  0.11171634049E+04  0.11176072446E+04  0.00000000000E+00 0. -1.
          1    1    1    2  502    0  0.15832862070E+02 -0.27224996280E+02  0.14459091709E+03  0.14798112464E+03  0.00000000000E+00 0.  1.
</event>
<event>
 4    1  0.7181337E+003  0.3224589E+02  0.7546771E-02  0.1401033E+00
          2   -1    0    0  502    0  0.00000000000E+00  0.00000000000E+00  0.18213649551E+01  0.18213649551E+01  0.00000000000E+00 0. -1.
          1   -1    0    0  501    0 -0.00000000000E+00 -0.00000000000E+00 -0.10338003190E+04  0.10338003190E+04  0.00000000000E+00 0. -1.
          2    1    1    2  501    0 -0.17605100339E+01  0.32197793991E+02 -0.16949072171E+03  0.17253087283E+03  0.00000000000E+00 0. -1.
          1    1    1    2  502    0  0.17605100339E+01 -0.32197793991E+02 -0.86248823231E+03  0.86309081110E+03  0.00000000000E+00 0. -1.
</event>
<event>
 4    1  0.7181337E+003  0.2077957E+02  0.7546771E-02  0.1522435E+00
          2   -1    0    0  502    0  0.00000000000E+00  0.00000000000E+00  0.45204771237E+02  0.45204771237E+02  0.00000000000E+00 0. -1.
          1   -1    0    0  501    0 -0.00000000000E+00 -0.00000000000E+00 -0.10004080148E+02  0.10004080148E+02  0.00000000000E+00 0.  1.
          2    1    1    2  501    0  0.14987765819E+02 -0.14392962414E+02  0.23469237464E+02  0.31346380946E+02  0.00000000000E+00 0. -1.
          1    1    1    2  502    0 -0.14987765819E+02  0.14392962414E+02  0.11731453626E+02  0.23862470439E+02  0.00000000000E+00 0.  1.
</event>
<event>
 4    1  0.7181337E+003  0.2278210E+02  0.7546771E-02  0.1495253E+00
          2   -1    0    0  502    0  0.00000000000E+00  0.00000000000E+00  0.37546182906E+02  0.37546182906E+02  0.00000000000E+00 0.  1.
          1   -1    0    0  501    0 -0.00000000000E+00 -0.00000000000E+00 -0.73110403301E+02  0.73110403301E+02  0.00000000000E+00 0. -1.
          2    1    1    2  501    0  0.20761039045E+02 -0.93810118909E+01  0.32041664850E+02  0.39315294895E+02  0.00000000000E+00 0.  1.
          1    1    1    2  502    0 -0.20761039045E+02  0.93810118909E+01 -0.67605885245E+02  0.71341291312E+02  0.00000000000E+00 0. -1.
</event>
<event>
 4    1  0.7181337E+003  0.3064001E+02  0.7546771E-02  0.1414115E+00
          2   -1    0    0  502    0  0.00000000000E+00  0.00000000000E+00  0.10564899197E+03  0.10564899197E+03  0.00000000000E+00 0. -1.
          1   -1    0    0  501    0 -0.00000000000E+00 -0.00000000000E+00 -0.55733674556E+03  0.55733674556E+03  0.00000000000E+00 0.  1.
          2    1    1    2  501    0 -0.76340435151E+01 -0.29673749029E+02  0.10299572838E+03  0.10745664273E+03  0.00000000000E+00 0. -1.
          1    1    1    2  502    0  0.76340435151E+01  0.29673749029E+02 -0.55468348197E+03  0.55552909480E+03  0.00000000000E+00 0.  1.
</event>
<event>
 4    1  0.7181337E+003  0.2105947E+02  0.7546771E-02  0.1518417E+00
          2   -1    0    0  502    0  0.00000000000E+00  0.00000000000E+00  0.30267740522E+03  0.30267740522E+03  0.00000000000E+00 0.  1.
          1   -1    0    0  501    0 -0.00000000000E+00 -0.00000000000E+00 -0.73723376088E+01  0.73723376088E+01  0.00000000000E+00 0. -1.
          2    1    1    2  501    0  0.15769857032E+02 -0.13957533187E+02  0.28641918482E+03  0.28719235811E+03  0.00000000000E+00 0.  1.
          1    1    1    2  502    0 -0.15769857032E+02  0.13957533187E+02  0.88858827994E+01  0.22857384728E+02  0.00000000000E+00 0. -1.
</event>
<event>
 4    1  0.7181337E+003  0.3671815E+02  0.7546771E-02  0.1368870E+00
          2   -1    0    0  502    0  0.00000000000E+00  0.00000000000E+00  0.15522484853E+04  0.15522484853E+04  0.00000000000E+00 0. -1.
          1   -1    0    0  501    0 -0.00000000000E+00 -0.00000000000E+00 -0.13443835824E+01  0.13443835824E+01  0.00000000000E+00 0. -1.
          2    1    1    2  501    0 -0.92958732139E+01 -0.35521951113E+02  0.12375863630E+04  0.12381309415E+04  0.00000000000E+00 0. -1.
          1    1    1    2  502    0  0.92958732139E+01  0.35521951113E+02  0.31331773863E+03  0.31546192736E+03  0.00000000000E+00 0. -1.
</event>
<event>
 4    1  0.7181337E+003  0.2403030E+02  0.7546771E-02  0.1479951E+00
          2   -1    0    0  502    0  0.00000000000E+00  0.00000000000E+00  0.21372127500E+03  0.21372127500E+03  0.00000000000E+00 0. -1.
          1   -1    0    0  501    0 -0.00000000000E+00 -0.00000000000E+00 -0.23439023688E+02  0.23439023688E+02  0.00000000000E+00 0.  1.
          2    1    1    2  501    0  0.34877718971E+01 -0.23775845096E+02  0.20667746903E+03  0.20806977572E+03  0.00000000000E+00 0. -1.
          1    1    1    2  502    0 -0.34877718971E+01  0.23775845096E+02 -0.16395217716E+02  0.29090522972E+02  0.00000000000E+00 0.  1.
</event>
<event>
 4    1  0.7181337E+003  0.2288164E+02  0.7546771E-02  0.1493990E+00
          2   -1    0    0  502    0  0.00000000000E+00  0.00000000000E+00  0.30444084314E+03  0.30444084314E+03  0.00000000000E+00 0.  1.
          1   -1    0    0  501    0 -0.00000000000E+00 -0.00000000000E+00 -0.47836652836E+01  0.47836652836E+01  0.00000000000E+00 0.  1.
          2    1    1    2  501    0 -0.18667579785E+02 -0.13232198723E+02  0.27356575228E+03  0.27452102003E+03  0.00000000000E+00 0.  1.
          1    1    1    2  502    0  0.18667579785E+02  0.13232198723E+02  0.26091425580E+02  0.34703488397E+02  0.00000000000E+00 0.  1.
</event>
<event>
 4    1  0.7181337E+003  0.3040655E+02  0.7546771E-02  0.1416096E+00
          2   -1    0    0  502    0  0.00000000000E+00  0.00000000000E+00  0.93425741537E+01  0.93425741537E+01  0.00000000000E+00 0. -1.
          1   -1    0    0  501    0 -0.00000000000E+00 -0.00000000000E+00 -0.11545688017E+04  0.11545688017E+04  0.00000000000E+00 0. -1.
          2    1    1    2  501    0 -0.20789256756E+02 -0.22189294493E+02 -0.16156717739E+02  0.34432506656E+02  0.00000000000E+00 0. -1.
          1    1    1    2  502    0  0.20789256756E+02  0.22189294493E+02 -0.11290695098E+04  0.11294788692E+04  0.00000000000E+00 0. -1.
</event>
<event>
 4    1  0.7181337E+003  0.5663237E+02  0.7546771E-02  0.1271725E+00
          2   -1    0    0  502    0  0.00000000000E+00  0.00000000000E+00  0.37086777831E+04  0.37086777831E+04  0.00000000000E+00 0.  1.
          1   -1    0    0  501    0 -0.00000000000E+00 -0.00000000000E+00 -0.12337520331E+01  0.12337520331E+01  0.00000000000E+00 0.  1.
          2    1    1    2  501    0  0.56214208456E+02  0.68693299118E+01  0.28681257958E+04  0.28686848564E+04  0.00000000000E+00 0.  1.
          1    1    1    2  502    0 -0.56214208456E+02 -0.68693299118E+01  0.83931823532E+03  0.84122667876E+03  0.00000000000E+00 0.  1.
</event>
<event>
 4    1  0.7181337E+003  0.3685435E+02  0.7546771E-02  0.1367975E+00
          2   -1    0    0  502    0  0.00000000000E+00  0.00000000000E+00  0.95959394039E+02  0.95959394039E+02  0.00000000000E+00 0.  1.
          1   -1    0    0  501    0 -0.00000000000E+00 -0.00000000000E+00 -0.29254243458E+03  0.29254243458E+03  0.00000000000E+00 0.  1.
          2    1    1    2  501    0 -0.81397664084E+00  0.36845358159E+02  0.91201822208E+02  0.98366739043E+02  0.00000000000E+00 0.  1.
          1    1    1    2  502    0  0.81397664084E+00 -0.36845358159E+02 -0.28778486275E+03  0.29013508958E+03  0.00000000000E+00 0.  1.
</event>
<event>
 4    1  0.1374257E+004  0.2762833E+02  0.7546771E-02  0.1441397E+00
          2   -1    0    0  502    0  0.00000000000E+00  0.00000000000E+00  0.69495969083E+03  0.69495969083E+03  0.00000000000E+00 0. -1.
          1   -1    0    0  501    0 -0.00000000000E+00 -0.00000000000E+00 -0.85857880582E+03  0.85857880582E+03  0.00000000000E+00 0. -1.
          2    1    1    2  501    0 -0.27499958888E+02  0.26602247239E+01  0.69446267475E+03  0.69501203670E+03  0.00000000000E+00 0. -1.
          1    1    1    2  502    0  0.27499958888E+02 -0.26602247239E+01 -0.85808178975E+03  0.85852645995E+03  0.00000000000E+00 0. -1.
</event>
<event>
 4    1  0.7181337E+003  0.3202654E+02  0.7546771E-02  0.1402766E+00
          2   -1    0    0  502    0  0.00000000000E+00  0.00000000000E+00  0.20638641287E+02  0.20638641287E+02  0.00000000000E+00 0. -1.
          1   -1    0    0  501    0 -0.00000000000E+00 -0.00000000000E+00 -0.61003609356E+02  0.61003609356E+02  0.00000000000E+00 0.  1.
          2    1    1    2  501    0  0.67548583448E+01  0.31306083272E+02 -0.26091399687E+01  0.32132640297E+02  0.00000000000E+00 0. -1.
          1    1    1    2  502    0 -0.67548583448E+01 -0.31306083272E+02 -0.37755828100E+02  0.49509610346E+02  0.00000000000E+00 0.  1.
</event>
<event>
 4    1  0.7181337E+003  0.2817068E+02  0.7546771E-02  0.1436190E+00
          2   -1    0    0  502    0  0.00000000000E+00  0.00000000000E+00  0.33745320876E+03  0.33745320876E+03  0.00000000000E+00 0.  1.
          1   -1    0    0  501    0 -0.00000000000E+00 -0.00000000000E+00 -0.28061526781E+02  0.28061526781E+02  0.00000000000E+00 0.  1.
          2    1    1    2  501    0  0.28163107216E+02 -0.65304652407E+00  0.32962768018E+03  0.33082925297E+03  0.00000000000E+00 0.  1.
          1    1    1    2  502    0 -0.28163107216E+02  0.65304652407E+00 -0.20235998205E+02  0.34685482571E+02  0.00000000000E+00 0.  1.
</event>
<event>
 4    1  0.7181337E+003  0.2546223E+02  0.7546771E-02  0.1463698E+00
          2   -1    0    0  502    0  0.00000000000E+00  0.00000000000E+00  0.19400169925E+03  0.19400169925E+03  0.00000000000E+00 0.  1.
          1   -1    0    0  501    0 -0.00000000000E+00 -0.00000000000E+00 -0.30109108417E+02  0.30109108417E+02  0.00000000000E+00 0. -1.
          2    1    1    2  501    0 -0.10424832087E+02 -0.23230325256E+02  0.18760025554E+03  0.18932031326E+03  0.00000000000E+00 0.  1.
          1    1    1    2  502    0  0.10424832087E+02  0.23230325256E+02 -0.23707664702E+02  0.34790494408E+02  0.00000000000E+00 0. -1.
</event>
<event>
 4    1  0.7181337E+003  0.3173930E+02  0.7546771E-02  0.1405061E+00
          2   -1    0    0  502    0  0.00000000000E+00  0.00000000000E+00  0.91459394916E+03  0.91459394916E+03  0.00000000000E+00 0. -1.
          1   -1    0    0  501    0 -0.00000000000E+00 -0.00000000000E+00 -0.10360717026E+03  0.10360717026E+03  0.00000000000E+00 0. -1.
          2    1    1    2  501    0  0.28623934009E+02  0.13713254144E+02  0.91188057981E+03  0.91243277823E+03  0.00000000000E+00 0. -1.
          1    1    1    2  502    0 -0.28623934009E+02 -0.13713254144E+02 -0.10089380091E+03  0.10576834119E+03  0.00000000000E+00 0. -1.
</event>
<event>
 4    1  0.7181337E+003  0.3208386E+02  0.7546771E-02  0.1402312E+00
          2   -1    0    0  502    0  0.00000000000E+00  0.00000000000E+00  0.51974273223E+03  0.51974273223E+03  0.00000000000E+00 0.  1.
          1   -1    0    0  501    0 -0.00000000000E+00 -0.00000000000E+00 -0.22156409167E+01  0.22156409167E+01  0.00000000000E+00 0.  1.
          2    1    1    2  501    0 -0.96386103830E+01  0.30601822096E+02  0.34377509225E+03  0.34526900871E+03  0.00000000000E+00 0.  1.
          1    1    1    2  502    0  0.96386103830E+01 -0.30601822096E+02  0.17375199906E+03  0.17668936443E+03  0.00000000000E+00 0.  1.
</event>
<event>
 4    1  0.7181337E+003  0.2312504E+02  0.7546771E-02  0.1490934E+00
          2   -1    0    0  502    0  0.00000000000E+00  0.00000000000E+00  0.11103886636E+04  0.11103886636E+04  0.00000000000E+00 0.  1.
          1   -1    0    0  501    0 -0.00000000000E+00 -0.00000000000E+00 -0.47008067349E+01  0.47008067349E+01  0.00000000000E+00 0.  1.
          2    1    1    2  501    0 -0.10142099482E+02 -0.20782328609E+02  0.10810564959E+04  0.10813038032E+04  0.00000000000E+00 0.  1.
          1    1    1    2  502    0  0.10142099482E+02  0.20782328609E+02  0.24631360950E+02  0.33785667177E+02  0.00000000000E+00 0.  1.
</event>
<event>
 4    1  0.7181337E+003  0.2840843E+02  0.7546771E-02  0.1433951E+00
          2   -1    0    0  502    0  0.00000000000E+00  0.00000000000E+00  0.87603124992E+02  0.87603124992E+02  0.00000000000E+00 0.  1.
          1   -1    0    0  501    0 -0.00000000000E+00 -0.00000000000E+00 -0.24467175424E+02  0.24467175424E+02  0.00000000000E+00 0.  1.
          2    1    1    2  501    0  0.19580505955E+02  0.20582586008E+02  0.75813655054E+02  0.80961406564E+02  0.00000000000E+00 0.  1.
          1    1    1    2  502    0 -0.19580505955E+02 -0.20582586008E+02 -0.12677705486E+02  0.31108893851E+02  0.00000000000E+00 0.  1.
</event>
<event>
 4    1  0.7181337E+003  0.3394789E+02  0.7546771E-02  0.1388114E+00
          2   -1    0    0  502    0  0.00000000000E+00  0.00000000000E+00  0.63145187948E+03  0.63145187948E+03  0.00000000000E+00 0.  1.
          1   -1    0    0  501    0 -0.00000000000E+00 -0.00000000000E+00 -0.69968712390E+01  0.69968712390E+01  0.00000000000E+00 0.  1.
          2    1    1    2  501    0 -0.48161237249E+01 -0.33604530050E+02  0.58667797496E+03  0.58765934502E+03  0.00000000000E+00 0.  1.
          1    1    1    2  502    0  0.48161237249E+01  0.33604530050E+02  0.37777033280E+02  0.50789405697E+02  0.00000000000E+00 0.  1.
</event>
<event>
 4    1  0.7181337E+003  0.3169033E+02  0.7546771E-02  0.1405455E+00
          2   -1    0    0  502    0  0.00000000000E+00  0.00000000000E+00  0.20057714978E+03  0.20057714978E+03  0.00000000000E+00 0.  1.
          1   -1    0    0  501    0 -0.00000000000E+00 -0.00000000000E+00 -0.60298766151E+02  0.60298766151E+02  0.00000000000E+00 0.  1.
          2    1    1    2  501    0  0.28948580554E+02 -0.12894053254E+02  0.19504431774E+03  0.19760203139E+03  0.00000000000E+00 0.  1.
          1    1    1    2  502    0 -0.28948580554E+02  0.12894053254E+02 -0.54765934115E+02  0.63273884541E+02  0.00000000000E+00 0.  1.
</event>
<event>
 4    1  0.7181337E+003  0.5217140E+02  0.7546771E-02  0.1289023E+00
          2   -1    0    0  502    0  0.00000000000E+00  0.00000000000E+00  0.10355043162E+04  0.10355043162E+04  0.00000000000E+00 0. -1.
          1   -1    0    0  501    0 -0.00000000000E+00 -0.00000000000E+00 -0.27444812104E+01  0.27444812104E+01  0.00000000000E+00 0. -1.
          2    1    1    2  501    0 -0.34822477368E+02 -0.38849034806E+02  0.40967558027E+03  0.41298418070E+03  0.00000000000E+00 0. -1.
          1    1    1    2  502    0  0.34822477368E+02  0.38849034806E+02  0.62308425467E+03  0.62526461667E+03  0.00000000000E+00 0. -1.
</event>
<event>
 4    1  0.7181337E+003  0.2029304E+02  0.7546771E-02  0.1529602E+00
          2   -1    0    0  502    0  0.00000000000E+00  0.00000000000E+00  0.53284254203E+03  0.53284254203E+03  0.00000000000E+00 0.  1.
          1   -1    0    0  501    0 -0.00000000000E+00 -0.00000000000E+00 -0.88628061583E+00  0.88628061583E+00  0.00000000000E+00 0.  1.
          2    1    1    2  501    0  0.20158785437E+02  0.23304054134E+01  0.36144879859E+03  0.36201801257E+03  0.00000000000E+00 0.  1.
          1    1    1    2  502    0 -0.20158785437E+02 -0.23304054134E+01  0.17050746282E+03  0.17171081007E+03  0.00000000000E+00 0.  1.
</event>
<event>
 4    1  0.7181337E+003  0.2128109E+02  0.7546771E-02  0.1515289E+00
          2   -1    0    0  502    0  0.00000000000E+00  0.00000000000E+00  0.86284189843E+03  0.86284189843E+03  0.00000000000E+00 0.  1.
          1   -1    0    0  501    0 -0.00000000000E+00 -0.00000000000E+00 -0.28573761888E+01  0.28573761888E+01  0.00000000000E+00 0.  1.
          2    1    1    2  501    0  0.16537958937E+02  0.13393300887E+02  0.82107102635E+03  0.82134676898E+03  0.00000000000E+00 0.  1.
          1    1    1    2  502    0 -0.16537958937E+02 -0.13393300887E+02  0.38913495893E+02  0.44352505646E+02  0.00000000000E+00 0.  1.
</event>
<event>
 4    1  0.7181337E+003  0.2446600E+02  0.7546771E-02  0.1474867E+00
          2   -1    0    0  502    0  0.00000000000E+00  0.00000000000E+00  0.29727264491E+01  0.29727264491E+01  0.00000000000E+00 0.  1.
          1   -1    0    0  501    0 -0.00000000000E+00 -0.00000000000E+00 -0.11859376992E+04  0.11859376992E+04  0.00000000000E+00 0. -1.
          2    1    1    2  501    0 -0.66843496749E+01  0.23535177489E+02 -0.49839119786E+02  0.55520473440E+02  0.00000000000E+00 0.  1.
          1    1    1    2  502    0  0.66843496749E+01 -0.23535177489E+02 -0.11331258529E+04  0.11333899522E+04  0.00000000000E+00 0. -1.
</event>
<event>
 4    1  0.7181337E+003  0.2268783E+02  0.7546771E-02  0.1496456E+00
          2   -1    0    0  502    0  0.00000000000E+00  0.00000000000E+00  0.50466108137E+03  0.50466108137E+03  0.00000000000E+00 0. -1.
          1   -1    0    0  501    0 -0.00000000000E+00 -0.00000000000E+00 -0.22913142027E+03  0.22913142027E+03  0.00000000000E+00 0. -1.
          2    1    1    2  501    0 -0.15766519664E+02  0.16314237700E+02  0.50384356070E+03  0.50435411286E+03  0.00000000000E+00 0. -1.
          1    1    1    2  502    0  0.15766519664E+02 -0.16314237700E+02 -0.22831389961E+03  0.22943838878E+03  0.00000000000E+00 0. -1.
</event>
<event>
 4    1  0.7181337E+003  0.2287901E+02  0.7546771E-02  0.1494023E+00
          2   -1    0    0  502    0  0.00000000000E+00  0.00000000000E+00  0.11387410792E+04  0.11387410792E+04  0.00000000000E+00 0.  1.
          1   -1    0    0  501    0 -0.00000000000E+00 -0.00000000000E+00 -0.34985437597E+02  0.34985437597E+02  0.00000000000E+00 0. -1.
          2    1    1    2  501    0 -0.55806598509E+01 -0.22187953174E+02  0.11348729350E+04  0.11351035317E+04  0.00000000000E+00 0.  1.
          1    1    1    2  502    0  0.55806598509E+01  0.22187953174E+02 -0.31117293403E+02  0.38622985114E+02  0.00000000000E+00 0. -1.
</event>
<event>
 4    1  0.7181337E+003  0.3428033E+02  0.7546771E-02  0.1385694E+00
          2   -1    0    0  502    0  0.00000000000E+00  0.00000000000E+00  0.24401289880E+03  0.24401289880E+03  0.00000000000E+00 0.  1.
          1   -1    0    0  501    0 -0.00000000000E+00 -0.00000000000E+00 -0.42156776250E+02  0.42156776250E+02  0.00000000000E+00 0.  1.
          2    1    1    2  501    0 -0.20184814202E+02  0.27707654728E+02  0.23559227244E+03  0.23807322338E+03  0.00000000000E+00 0.  1.
          1    1    1    2  502    0  0.20184814202E+02 -0.27707654728E+02 -0.33736149886E+02  0.48096451678E+02  0.00000000000E+00 0.  1.
</event>
<event>
 4    1  0.7181337E+003  0.2552311E+02  0.7546771E-02  0.1463036E+00
          2   -1    0    0  502    0  0.00000000000E+00  0.00000000000E+00  0.72457579835E+00  0.72457579835E+00  0.00000000000E+00 0. -1.
          1   -1    0    0  501    0 -0.00000000000E+00 -0.00000000000E+00 -0.16390997539E+04  0.16390997539E+04  0.00000000000E+00 0. -1.
          2    1    1    2  501    0 -0.20029982825E+02  0.15818629245E+02 -0.26825894725E+03  0.26947039174E+03  0.00000000000E+00 0. -1.
          1    1    1    2  502    0  0.20029982825E+02 -0.15818629245E+02 -0.13701162309E+04  0.13703539380E+04  0.00000000000E+00 0. -1.
</event>
<event>
 4    1  0.7181337E+003  0.2612855E+02  0.7546771E-02  0.1456564E+00
          2   -1    0    0  502    0  0.00000000000E+00  0.00000000000E+00  0.68353639993E+03  0.68353639993E+03  0.00000000000E+00 0.  1.
          1   -1    0    0  501    0 -0.00000000000E+00 -0.00000000000E+00 -0.10601184272E+03  0.10601184272E+03  0.00000000000E+00 0.  1.
          2    1    1    2  501    0  0.24204413446E+02  0.98411229229E+01  0.68167233968E+03  0.68217291064E+03  0.00000000000E+00 0.  1.
          1    1    1    2  502    0 -0.24204413446E+02 -0.98411229229E+01 -0.10414778247E+03  0.10737533201E+03  0.00000000000E+00 0.  1.
</event>
<event>
 4    1  0.7181337E+003  0.2833551E+02  0.7546771E-02  0.1434635E+00
          2   -1    0    0  502    0  0.00000000000E+00  0.00000000000E+00  0.12250842094E+04  0.12250842094E+04  0.00000000000E+00 0.  1.
          1   -1    0    0  501    0 -0.00000000000E+00 -0.00000000000E+00 -0.67278108236E+00  0.67278108236E+00  0.00000000000E+00 0. -1.
          2    1    1    2  501    0 -0.21331990106E+01 -0.28255097140E+02  0.71075897333E+03  0.71132356858E+03  0.00000000000E+00 0.  1.
          1    1    1    2  502    0  0.21331990106E+01  0.28255097140E+02  0.51365245502E+03  0.51443342193E+03  0.00000000000E+00 0. -1.
</event>
<event>
 4    1  0.7181337E+003  0.3567052E+02  0.7546771E-02  0.1375910E+00
          2   -1    0    0  502    0  0.00000000000E+00  0.00000000000E+00  0.27685265787E+01  0.27685265787E+01  0.00000000000E+00 0. -1.
          1   -1    0    0  501    0 -0.00000000000E+00 -0.00000000000E+00 -0.76406712891E+03  0.76406712891E+03  0.00000000000E+00 0. -1.
          2    1    1    2  501    0 -0.32210427273E+01 -0.35524792906E+02 -0.13861096084E+03  0.14312716196E+03  0.00000000000E+00 0. -1.
          1    1    1    2  502    0  0.32210427273E+01  0.35524792906E+02 -0.62268764149E+03  0.62370849352E+03  0.00000000000E+00 0. -1.
</event>
<event>
 4    1  0.7181337E+003  0.3052135E+02  0.7546771E-02  0.1415119E+00
          2   -1    0    0  502    0  0.00000000000E+00  0.00000000000E+00  0.89129654216E+03  0.89129654216E+03  0.00000000000E+00 0. -1.
          1   -1    0    0  501    0 -0.00000000000E+00 -0.00000000000E+00 -0.12419910012E+01  0.12419910012E+01  0.00000000000E+00 0.  1.
          2    1    1    2  501    0  0.71889547352E+00  0.30512882640E+02  0.62268247226E+03  0.62343003944E+03  0.00000000000E+00 0. -1.
          1    1    1    2  502    0 -0.71889547352E+00 -0.30512882640E+02  0.26737207890E+03  0.26910849372E+03  0.00000000000E+00 0.  1.
</event>
<event>
 4    1  0.7181337E+003  0.2158663E+02  0.7546771E-02  0.1511052E+00
          2   -1    0    0  502    0  0.00000000000E+00  0.00000000000E+00  0.11935321077E+01  0.11935321077E+01  0.00000000000E+00 0. -1.
          1   -1    0    0  501    0 -0.00000000000E+00 -0.00000000000E+00 -0.98303443342E+03  0.98303443342E+03  0.00000000000E+00 0.  1.
          2    1    1    2  501    0 -0.11714166094E+02  0.18131770509E+02 -0.10882995998E+03  0.11095018242E+03  0.00000000000E+00 0. -1.
          1    1    1    2  502    0  0.11714166094E+02 -0.18131770509E+02 -0.87301094134E+03  0.87327778311E+03  0.00000000000E+00 0.  1.
</event>
<event>
 4    1  0.7181337E+003  0.2520370E+02  0.7546771E-02  0.1466537E+00
          2   -1    0    0  502    0  0.00000000000E+00  0.00000000000E+00  0.33485770758E+03  0.33485770758E+03  0.00000000000E+00 0. -1.
          1   -1    0    0  501    0 -0.00000000000E+00 -0.00000000000E+00 -0.43453121574E+01  0.43453121574E+01  0.00000000000E+00 0. -1.
          2    1    1    2  501    0  0.20214711295E+02  0.15052964765E+02  0.29256320026E+03  0.29364681583E+03  0.00000000000E+00 0. -1.
          1    1    1    2  502    0 -0.20214711295E+02 -0.15052964765E+02  0.37949195165E+02  0.45556203909E+02  0.00000000000E+00 0. -1.
</event>
<event>
 4    1  0.7181337E+003  0.2847810E+02  0.7546771E-02  0.1433300E+00
          2   -1    0    0  502    0  0.00000000000E+00  0.00000000000E+00  0.53085362763E+03  0.53085362763E+03  0.00000000000E+00 0. -1.
          1   -1    0    0  501    0 -0.00000000000E+00 -0.00000000000E+00 -0.52780695787E+03  0.52780695787E+03  0.00000000000E+00 0.  1.
          2    1    1    2  501    0  0.13937541799E+02 -0.24834391320E+02  0.53008700185E+03  0.53085142139E+03  0.00000000000E+00 0. -1.
          1    1    1    2  502    0 -0.13937541799E+02  0.24834391320E+02 -0.52704033209E+03  0.52780916411E+03  0.00000000000E+00 0.  1.
</event>
<event>
 4    1  0.7181337E+003  0.2926110E+02  0.7546771E-02  0.1426128E+00
          2   -1    0    0  502    0  0.00000000000E+00  0.00000000000E+00  0.12495460115E+02  0.12495460115E+02  0.00000000000E+00 0.  1.
          1   -1    0    0  501    0 -0.00000000000E+00 -0.00000000000E+00 -0.77057287616E+02  0.77057287616E+02  0.00000000000E+00 0.  1.
          2    1    1    2  501    0 -0.26425544481E+02  0.12565894943E+02 -0.47183335302E+02  0.55520070669E+02  0.00000000000E+00 0.  1.
          1    1    1    2  502    0  0.26425544481E+02 -0.12565894943E+02 -0.17378492199E+02  0.34032677062E+02  0.00000000000E+00 0.  1.
</event>
<event>
 4    1  0.7181337E+003  0.2414048E+02  0.7546771E-02  0.1478653E+00
          2   -1    0    0  502    0  0.00000000000E+00  0.00000000000E+00  0.19289989288E+03  0.19289989288E+03  0.00000000000E+00 0. -1.
          1   -1    0    0  501    0 -0.00000000000E+00 -0.00000000000E+00 -0.45300087892E+02  0.45300087892E+02  0.00000000000E+00 0.  1.
          2    1    1    2  501    0 -0.23585869891E+02  0.51448498787E+01  0.18885998603E+03  0.19039657839E+03  0.00000000000E+00 0. -1.
          1    1    1    2  502    0  0.23585869891E+02 -0.51448498787E+01 -0.41260181048E+02  0.47803402378E+02  0.00000000000E+00 0.  1.
</event>
<event>
 4    1  0.7181337E+003  0.2375802E+02  0.7546771E-02  0.1483193E+00
          2   -1    0    0  502    0  0.00000000000E+00  0.00000000000E+00  0.69525669151E+01  0.69525669151E+01  0.00000000000E+00 0. -1.
          1   -1    0    0  501    0 -0.00000000000E+00 -0.00000000000E+00 -0.25872761606E+03  0.25872761606E+03  0.00000000000E+00 0.  1.
          2    1    1    2  501    0  0.17911773715E+02 -0.15608068421E+02 -0.15845339749E+02  0.28557279794E+02  0.00000000000E+00 0. -1.
          1    1    1    2  502    0 -0.17911773715E+02  0.15608068421E+02 -0.23592970940E+03  0.23712290319E+03  0.00000000000E+00 0.  1.
</event>
<event>
 4    1  0.1099357E+004  0.2435052E+02  0.7546771E-02  0.1476202E+00
          2   -1    0    0  502    0  0.00000000000E+00  0.00000000000E+00  0.14069960304E+04  0.14069960304E+04  0.00000000000E+00 0. -1.
          1   -1    0    0  501    0 -0.00000000000E+00 -0.00000000000E+00 -0.93332838686E+03  0.93332838686E+03  0.00000000000E+00 0. -1.
          2    1    1    2  501    0  0.23809657463E+02 -0.51037218298E+01  0.14067318174E+04  0.14069425553E+04  0.00000000000E+00 0. -1.
          1    1    1    2  502    0 -0.23809657463E+02  0.51037218298E+01 -0.93306417385E+03  0.93338186199E+03  0.00000000000E+00 0. -1.
</event>
<event>
 4    1  0.7181337E+003  0.2047411E+02  0.7546771E-02  0.1526907E+00
          2   -1    0    0  502    0  0.00000000000E+00  0.00000000000E+00  0.92310150441E+02  0.92310150441E+02  0.00000000000E+00 0. -1.
          1   -1    0    0  501    0 -0.00000000000E+00 -0.00000000000E+00 -0.14071187139E+02  0.14071187139E+02  0.00000000000E+00 0.  1.
          2    1    1    2  501    0  0.18863340826E+02  0.79601230487E+01  0.82893722734E+02  0.85384767112E+02  0.00000000000E+00 0. -1.
          1    1    1    2  502    0 -0.18863340826E+02 -0.79601230487E+01 -0.46547594317E+01  0.20996570468E+02  0.00000000000E+00 0.  1.
</event>
<event>
 4    1  0.7181337E+003  0.2459502E+02  0.7546771E-02  0.1473385E+00
          2   -1    0    0  502    0  0.00000000000E+00  0.00000000000E+00  0.41556094602E+02  0.41556094602E+02  0.00000000000E+00 0. -1.
          1   -1    0    0  501    0 -0.00000000000E+00 -0.00000000000E+00 -0.12229668789E+04  0.12229668789E+04  0.00000000000E+00 0. -1.
          2    1    1    2  501    0  0.12506692090E+02  0.21177761391E+02  0.37782026482E+02  0.45082107866E+02  0.00000000000E+00 0. -1.
          1    1    1    2  502    0 -0.12506692090E+02 -0.21177761391E+02 -0.12191928108E+04  0.12194408656E+04  0.00000000000E+00 0. -1.
</event>
<event>
 4    1  0.7181337E+003  0.3683878E+02  0.7546771E-02  0.1368077E+00
          2   -1    0    0  502    0  0.00000000000E+00  0.00000000000E+00  0.52831363836E+03  0.52831363836E+03  0.00000000000E+00 0.  1.
          1   -1    0    0  501    0 -0.00000000000E+00 -0.00000000000E+00 -0.38637038207E+01  0.38637038207E+01  0.00000000000E+00 0. -1.
          2    1    1    2  501    0  0.12820889539E+02  0.34535785156E+02  0.41627251298E+03  0.41789939067E+03  0.00000000000E+00 0.  1.
          1    1    1    2  502    0 -0.12820889539E+02 -0.34535785156E+02  0.10817742157E+03  0.11427795151E+03  0.00000000000E+00 0. -1.
</event>
<event>
 4    1  0.7181337E+003  0.2688960E+02  0.7546771E-02  0.1448720E+00
          2   -1    0    0  502    0  0.00000000000E+00  0.00000000000E+00  0.66941279016E+01  0.66941279016E+01  0.00000000000E+00 0.  1.
          1   -1    0    0  501    0 -0.00000000000E+00 -0.00000000000E+00 -0.10892102676E+03  0.10892102676E+03  0.00000000000E+00 0.  1.
          2    1    1    2  501    0  0.26747669924E+02  0.27590722245E+01 -0.45834251804E+02  0.53139711745E+02  0.00000000000E+00 0.  1.
          1    1    1    2  502    0 -0.26747669924E+02 -0.27590722245E+01 -0.56392647059E+02  0.62475442922E+02  0.00000000000E+00 0.  1.
</event>
<event>
 4    1  0.7181337E+003  0.2458128E+02  0.7546771E-02  0.1473542E+00
          2   -1    0    0  502    0  0.00000000000E+00  0.00000000000E+00  0.24047773399E+03  0.24047773399E+03  0.00000000000E+00 0. -1.
          1   -1    0    0  501    0 -0.00000000000E+00 -0.00000000000E+00 -0.95659283254E+01  0.95659283254E+01  0.00000000000E+00 0.  1.
          2    1    1    2  501    0  0.21426856233E+02 -0.12046953485E+02  0.22280970652E+03  0.22416155910E+03  0.00000000000E+00 0. -1.
          1    1    1    2  502    0 -0.21426856233E+02  0.12046953485E+02  0.81020991360E+01  0.25882103212E+02  0.00000000000E+00 0.  1.
</event>
<event>
 4    1  0.7181337E+003  0.2195301E+02  0.7546771E-02  0.1506081E+00
          2   -1    0    0  502    0  0.00000000000E+00  0.00000000000E+00  0.10386995023E+02  0.10386995023E+02  0.00000000000E+00 0. -1.
          1   -1    0    0  501    0 -0.00000000000E+00 -0.00000000000E+00 -0.89814989604E+03  0.89814989604E+03  0.00000000000E+00 0. -1.
          2    1    1    2  501    0 -0.21795788099E+02  0.26226587673E+01 -0.15022088671E+01  0.22004348419E+02  0.00000000000E+00 0. -1.
          1    1    1    2  502    0  0.21795788099E+02 -0.26226587673E+01 -0.88626069215E+03  0.88653254265E+03  0.00000000000E+00 0. -1.
</event>
<event>
 4    1  0.7181337E+003  0.2311290E+02  0.7546771E-02  0.1491085E+00
          2   -1    0    0  502    0  0.00000000000E+00  0.00000000000E+00  0.56839887228E+02  0.56839887228E+02  0.00000000000E+00 0.  1.
          1   -1    0    0  501    0 -0.00000000000E+00 -0.00000000000E+00 -0.30432337942E+02  0.30432337942E+02  0.00000000000E+00 0. -1.
          2    1    1    2  501    0 -0.20225083546E+02 -0.11187143929E+02  0.49481353063E+02  0.54613281303E+02  0.00000000000E+00 0.  1.
          1    1    1    2  502    0  0.20225083546E+02  0.11187143929E+02 -0.23073803778E+02  0.32658943867E+02  0.00000000000E+00 0. -1.
</event>
<event>
 4    1  0.7181337E+003  0.2126834E+02  0.7546771E-02  0.1515468E+00
          2   -1    0    0  502    0  0.00000000000E+00  0.00000000000E+00  0.83049520492E+02  0.83049520492E+02  0.00000000000E+00 0.  1.
          1   -1    0    0  501    0 -0.00000000000E+00 -0.00000000000E+00 -0.11977140337E+03  0.11977140337E+03  0.00000000000E+00 0.  1.
          2    1    1    2  501    0  0.11812871976E+02 -0.17686105147E+02  0.80716849513E+02  0.83471863852E+02  0.00000000000E+00 0.  1.
          1    1    1    2  502    0 -0.11812871976E+02  0.17686105147E+02 -0.11743873239E+03  0.11934906001E+03  0.00000000000E+00 0.  1.
</event>
<event>
 4    1  0.7181337E+003  0.2037092E+02  0.7546771E-02  0.1528439E+00
          2   -1    0    0  502    0  0.00000000000E+00  0.00000000000E+00  0.69096703015E+00  0.69096703015E+00  0.00000000000E+00 0. -1.
          1   -1    0    0  501    0 -0.00000000000E+00 -0.00000000000E+00 -0.76466082030E+03  0.76466082030E+03  0.00000000000E+00 0. -1.
          2    1    1    2  501    0 -0.20243791646E+02  0.22722024292E+01 -0.55925644065E+03  0.55962732279E+03  0.00000000000E+00 0. -1.
          1    1    1    2  502    0  0.20243791646E+02 -0.22722024292E+01 -0.20471341263E+03  0.20572446455E+03  0.00000000000E+00 0. -1.
</event>
<event>
 4    1  0.7181337E+003  0.2112318E+02  0.7546771E-02  0.1517513E+00
          2   -1    0    0  502    0  0.00000000000E+00  0.00000000000E+00  0.11495486866E+04  0.11495486866E+04  0.00000000000E+00 0.  1.
          1   -1    0    0  501    0 -0.00000000000E+00 -0.00000000000E+00 -0.44249361699E+01  0.44249361699E+01  0.00000000000E+00 0.  1.
          2    1    1    2  501    0 -0.92881448906E+01 -0.18971537173E+02  0.11236621782E+04  0.11238607029E+04  0.00000000000E+00 0.  1.
          1    1    1    2  502    0  0.92881448906E+01  0.18971537173E+02  0.21461572180E+02  0.30112919796E+02  0.00000000000E+00 0.  1.
</event>
<event>
 4    1  0.7181337E+003  0.5529281E+02  0.7546771E-02  0.1276723E+00
          2   -1    0    0  502    0  0.00000000000E+00  0.00000000000E+00  0.14447803985E+04  0.14447803985E+04  0.00000000000E+00 0.  1.
          1   -1    0    0  501    0 -0.00000000000E+00 -0.00000000000E+00 -0.11713094885E+02  0.11713094885E+02  0.00000000000E+00 0.  1.
          2    1    1    2  501    0 -0.55262396297E+02 -0.18337415020E+01  0.13757233757E+04  0.13768340864E+04  0.00000000000E+00 0.  1.
          1    1    1    2  502    0  0.55262396297E+02  0.18337415020E+01  0.57343927944E+02  0.79659407005E+02  0.00000000000E+00 0.  1.
</event>
<event>
 4    1  0.7181337E+003  0.2099033E+02  0.7546771E-02  0.1519403E+00
          2   -1    0    0  502    0  0.00000000000E+00  0.00000000000E+00  0.26446260000E+03  0.26446260000E+03  0.00000000000E+00 0.  1.
          1   -1    0    0  501    0 -0.00000000000E+00 -0.00000000000E+00 -0.14239635868E+02  0.14239635868E+02  0.00000000000E+00 0.  1.
          2    1    1    2  501    0  0.20636244498E+02  0.38391805217E+01  0.25605726204E+03  0.25691616403E+03  0.00000000000E+00 0.  1.
          1    1    1    2  502    0 -0.20636244498E+02 -0.38391805217E+01 -0.58342979112E+01  0.21786071839E+02  0.00000000000E+00 0.  1.
</event>
<event>
 4    1  0.7181337E+003  0.2149490E+02  0.7546771E-02  0.1512315E+00
          2   -1    0    0  502    0  0.00000000000E+00  0.00000000000E+00  0.17196915066E+03  0.17196915066E+03  0.00000000000E+00 0. -1.
          1   -1    0    0  501    0 -0.00000000000E+00 -0.00000000000E+00 -0.34191452265E+03  0.34191452265E+03  0.00000000000E+00 0. -1.
          2    1    1    2  501    0  0.17539891631E+02  0.12425099542E+02  0.17095765638E+03  0.17230365977E+03  0.00000000000E+00 0. -1.
          1    1    1    2  502    0 -0.17539891631E+02 -0.12425099542E+02 -0.34090302836E+03  0.34158001353E+03  0.00000000000E+00 0. -1.
</event>
<event>
 4    1  0.7181337E+003  0.2869369E+02  0.7546771E-02  0.1431298E+00
          2   -1    0    0  502    0  0.00000000000E+00  0.00000000000E+00  0.49113198685E+03  0.49113198685E+03  0.00000000000E+00 0.  1.
          1   -1    0    0  501    0 -0.00000000000E+00 -0.00000000000E+00 -0.45280510852E+02  0.45280510852E+02  0.00000000000E+00 0. -1.
          2    1    1    2  501    0 -0.28630635848E+02  0.19011922638E+01  0.48612035932E+03  0.48696645838E+03  0.00000000000E+00 0.  1.
          1    1    1    2  502    0  0.28630635848E+02 -0.19011922638E+01 -0.40268883320E+02  0.49446039325E+02  0.00000000000E+00 0. -1.
</event>
<event>
 4    1  0.7181337E+003  0.2138665E+02  0.7546771E-02  0.1513816E+00
          2   -1    0    0  502    0  0.00000000000E+00  0.00000000000E+00  0.75009693081E+00  0.75009693081E+00  0.00000000000E+00 0.  1.
          1   -1    0    0  501    0 -0.00000000000E+00 -0.00000000000E+00 -0.80199146248E+03  0.80199146248E+03  0.00000000000E+00 0.  1.
          2    1    1    2  501    0 -0.21385674085E+02  0.20432892652E+00 -0.20412251575E+03  0.20523983591E+03  0.00000000000E+00 0.  1.
          1    1    1    2  502    0  0.21385674085E+02 -0.20432892652E+00 -0.59711884979E+03  0.59750172350E+03  0.00000000000E+00 0.  1.
</event>
<event>
 4    1  0.7181337E+003  0.2059123E+02  0.7546771E-02  0.1525182E+00
          2   -1    0    0  502    0  0.00000000000E+00  0.00000000000E+00  0.36086192334E+02  0.36086192334E+02  0.00000000000E+00 0. -1.
          1   -1    0    0  501    0 -0.00000000000E+00 -0.00000000000E+00 -0.25720986885E+03  0.25720986885E+03  0.00000000000E+00 0.  1.
          2    1    1    2  501    0 -0.18879326346E+02  0.82200754380E+01  0.32697525152E+02  0.38640998364E+02  0.00000000000E+00 0. -1.
          1    1    1    2  502    0  0.18879326346E+02 -0.82200754380E+01 -0.25382120167E+03  0.25465506282E+03  0.00000000000E+00 0.  1.
</event>
<event>
 4    1  0.7181337E+003  0.3271386E+02  0.7546771E-02  0.1397389E+00
          2   -1    0    0  502    0  0.00000000000E+00  0.00000000000E+00  0.15856177351E+03  0.15856177351E+03  0.00000000000E+00 0. -1.
          1   -1    0    0  501    0 -0.00000000000E+00 -0.00000000000E+00 -0.12489102839E+02  0.12489102839E+02  0.00000000000E+00 0.  1.
          2    1    1    2  501    0 -0.32704432460E+02 -0.78553149336E+00  0.13101582129E+03  0.13503829972E+03  0.00000000000E+00 0. -1.
          1    1    1    2  502    0  0.32704432460E+02  0.78553149336E+00  0.15056849379E+02  0.36012576629E+02  0.00000000000E+00 0.  1.
</event>
<event>
 4    1  0.7181337E+003  0.3085734E+02  0.7546771E-02  0.1412289E+00
          2   -1    0    0  502    0  0.00000000000E+00  0.00000000000E+00  0.20796182116E+04  0.20796182116E+04  0.00000000000E+00 0.  1.
          1   -1    0    0  501    0 -0.00000000000E+00 -0.00000000000E+00 -0.18689941102E+02  0.18689941102E+02  0.00000000000E+00 0.  1.
          2    1    1    2  501    0 -0.25663848231E+02  0.17133085215E+02  0.20666875898E+04  0.20669179397E+04  0.00000000000E+00 0.  1.
          1    1    1    2  502    0  0.25663848231E+02 -0.17133085215E+02 -0.57593192615E+01  0.31390213019E+02  0.00000000000E+00 0.  1.
</event>
<event>
 4    1  0.7181337E+003  0.2049120E+02  0.7546771E-02  0.1526655E+00
          2   -1    0    0  502    0  0.00000000000E+00  0.00000000000E+00  0.19857991386E+04  0.19857991386E+04  0.00000000000E+00 0. -1.
          1   -1    0    0  501    0 -0.00000000000E+00 -0.00000000000E+00 -0.22172788812E+00  0.22172788812E+00  0.00000000000E+00 0. -1.
          2    1    1    2  501    0 -0.26000788619E+01 -0.20325569598E+02  0.12066248420E+04  0.12067988227E+04  0.00000000000E+00 0. -1.
          1    1    1    2  502    0  0.26000788619E+01  0.20325569598E+02  0.77895256874E+03  0.77922204379E+03  0.00000000000E+00 0. -1.
</event>
<event>
 4    1  0.7181337E+003  0.2064350E+02  0.7546771E-02  0.1524416E+00
          2   -1    0    0  502    0  0.00000000000E+00  0.00000000000E+00  0.29907920901E+02  0.29907920901E+02  0.00000000000E+00 0. -1.
          1   -1    0    0  501    0 -0.00000000000E+00 -0.00000000000E+00 -0.96908834591E+03  0.96908834591E+03  0.00000000000E+00 0.  1.
          2    1    1    2  501    0 -0.17389029483E+02 -0.11125457694E+02  0.26222167449E+02  0.33372986396E+02  0.00000000000E+00 0. -1.
          1    1    1    2  502    0  0.17389029483E+02  0.11125457694E+02 -0.96540259245E+03  0.96562328041E+03  0.00000000000E+00 0.  1.
</event>
<event>
 4    1  0.7181337E+003  0.2572531E+02  0.7546771E-02  0.1460851E+00
          2   -1    0    0  502    0  0.00000000000E+00  0.00000000000E+00  0.13213378815E+04  0.13213378815E+04  0.00000000000E+00 0. -1.
          1   -1    0    0  501    0 -0.00000000000E+00 -0.00000000000E+00 -0.96350845862E+02  0.96350845862E+02  0.00000000000E+00 0. -1.
          2    1    1    2  501    0 -0.17578555286E+02 -0.18782597833E+02  0.13194931286E+04  0.13197438797E+04  0.00000000000E+00 0. -1.
          1    1    1    2  502    0  0.17578555286E+02  0.18782597833E+02 -0.94506092934E+02  0.97944847689E+02  0.00000000000E+00 0. -1.
</event>
<event>
 4    1  0.7181337E+003  0.2312626E+02  0.7546771E-02  0.1490919E+00
          2   -1    0    0  502    0  0.00000000000E+00  0.00000000000E+00  0.12618160582E+03  0.12618160582E+03  0.00000000000E+00 0. -1.
          1   -1    0    0  501    0 -0.00000000000E+00 -0.00000000000E+00 -0.65895153464E+01  0.65895153464E+01  0.00000000000E+00 0. -1.
          2    1    1    2  501    0 -0.68474848091E+01  0.22089271734E+02  0.99448698468E+02  0.10210224092E+03  0.00000000000E+00 0. -1.
          1    1    1    2  502    0  0.68474848091E+01 -0.22089271734E+02  0.20143392001E+02  0.30668880241E+02  0.00000000000E+00 0. -1.
</event>
<event>
 4    1  0.7181337E+003  0.4193546E+02  0.7546771E-02  0.1337503E+00
          2   -1    0    0  502    0  0.00000000000E+00  0.00000000000E+00  0.27509207145E+03  0.27509207145E+03  0.00000000000E+00 0. -1.
          1   -1    0    0  501    0 -0.00000000000E+00 -0.00000000000E+00 -0.24325226479E+03  0.24325226479E+03  0.00000000000E+00 0.  1.
          2    1    1    2  501    0  0.41835159205E+02  0.28986535601E+01  0.27166385626E+03  0.27488148999E+03  0.00000000000E+00 0. -1.
          1    1    1    2  502    0 -0.41835159205E+02 -0.28986535601E+01 -0.23982404961E+03  0.24346284626E+03  0.00000000000E+00 0.  1.
</event>
<event>
 4    1  0.7181337E+003  0.2199383E+02  0.7546771E-02  0.1505534E+00
          2   -1    0    0  502    0  0.00000000000E+00  0.00000000000E+00  0.29410121694E+02  0.29410121694E+02  0.00000000000E+00 0. -1.
          1   -1    0    0  501    0 -0.00000000000E+00 -0.00000000000E+00 -0.23912763487E+02  0.23912763487E+02  0.00000000000E+00 0.  1.
          2    1    1    2  501    0  0.16123693074E+02  0.14958443590E+02  0.17645234460E+02  0.28197212843E+02  0.00000000000E+00 0. -1.
          1    1    1    2  502    0 -0.16123693074E+02 -0.14958443590E+02 -0.12147876253E+02  0.25125672338E+02  0.00000000000E+00 0.  1.
</event>
<event>
 4    1  0.7181337E+003  0.2282079E+02  0.7546771E-02  0.1494761E+00
          2   -1    0    0  502    0  0.00000000000E+00  0.00000000000E+00  0.16400690390E+04  0.16400690390E+04  0.00000000000E+00 0. -1.
          1   -1    0    0  501    0 -0.00000000000E+00 -0.00000000000E+00 -0.37048120177E+00  0.37048120177E+00  0.00000000000E+00 0. -1.
          2    1    1    2  501    0  0.91028121213E+01 -0.20926715020E+02  0.11299061555E+04  0.11301365885E+04  0.00000000000E+00 0. -1.
          1    1    1    2  502    0 -0.91028121213E+01  0.20926715020E+02  0.50979240235E+03  0.51030293169E+03  0.00000000000E+00 0. -1.
</event>
<event>
 4    1  0.7181337E+003  0.3822803E+02  0.7546771E-02  0.1359194E+00
          2   -1    0    0  502    0  0.00000000000E+00  0.00000000000E+00  0.38458667899E+02  0.38458667899E+02  0.00000000000E+00 0. -1.
          1   -1    0    0  501    0 -0.00000000000E+00 -0.00000000000E+00 -0.43677998242E+03  0.43677998242E+03  0.00000000000E+00 0.  1.
          2    1    1    2  501    0 -0.86184868881E+01  0.37243842485E+02  0.27887373232E+02  0.47318999409E+02  0.00000000000E+00 0. -1.
          1    1    1    2  502    0  0.86184868881E+01 -0.37243842485E+02 -0.42620868775E+03  0.42791965091E+03  0.00000000000E+00 0.  1.
</event>
<event>
 4    1  0.7181337E+003  0.2042788E+02  0.7546771E-02  0.1527592E+00
          2   -1    0    0  502    0  0.00000000000E+00  0.00000000000E+00  0.11512513577E+04  0.11512513577E+04  0.00000000000E+00 0.  1.
          1   -1    0    0  501    0 -0.00000000000E+00 -0.00000000000E+00 -0.11022003028E+03  0.11022003028E+03  0.00000000000E+00 0.  1.
          2    1    1    2  501    0 -0.20046108512E+02 -0.39308948159E+01  0.11502133730E+04  0.11503947591E+04  0.00000000000E+00 0.  1.
          1    1    1    2  502    0  0.20046108512E+02  0.39308948159E+01 -0.10918204558E+03  0.11107662885E+03  0.00000000000E+00 0.  1.
</event>
<event>
 4    1  0.7181337E+003  0.2116419E+02  0.7546771E-02  0.1516933E+00
          2   -1    0    0  502    0  0.00000000000E+00  0.00000000000E+00  0.21727082877E+03  0.21727082877E+03  0.00000000000E+00 0. -1.
          1   -1    0    0  501    0 -0.00000000000E+00 -0.00000000000E+00 -0.20981450340E+01  0.20981450340E+01  0.00000000000E+00 0. -1.
          2    1    1    2  501    0  0.19160322166E+02 -0.89891366371E+01  0.93107822562E+02  0.95482925935E+02  0.00000000000E+00 0. -1.
          1    1    1    2  502    0 -0.19160322166E+02  0.89891366371E+01  0.12206486117E+03  0.12388604787E+03  0.00000000000E+00 0. -1.
</event>
<event>
 4    1  0.7181337E+003  0.2296460E+02  0.7546771E-02  0.1492943E+00
          2   -1    0    0  502    0  0.00000000000E+00  0.00000000000E+00  0.98824098228E+03  0.98824098228E+03  0.00000000000E+00 0. -1.
          1   -1    0    0  501    0 -0.00000000000E+00 -0.00000000000E+00 -0.43524849577E+01  0.43524849577E+01  0.00000000000E+00 0.  1.
          2    1    1    2  501    0  0.11290846745E+02 -0.19997241777E+02  0.95682153959E+03  0.95709708573E+03  0.00000000000E+00 0. -1.
          1    1    1    2  502    0 -0.11290846745E+02  0.19997241777E+02  0.27066957731E+02  0.35496381502E+02  0.00000000000E+00 0.  1.
</event>
<event>
 4    1  0.7181337E+003  0.2875981E+02  0.7546771E-02  0.1430689E+00
          2   -1    0    0  502    0  0.00000000000E+00  0.00000000000E+00  0.51723723297E+02  0.51723723297E+02  0.00000000000E+00 0. -1.
          1   -1    0    0  501    0 -0.00000000000E+00 -0.00000000000E+00 -0.66900309059E+02  0.66900309059E+02  0.00000000000E+00 0.  1.
          2    1    1    2  501    0  0.12634732120E+01 -0.28732041026E+02  0.44151680005E+02  0.52692479476E+02  0.00000000000E+00 0. -1.
          1    1    1    2  502    0 -0.12634732120E+01  0.28732041026E+02 -0.59328265768E+02  0.65931552879E+02  0.00000000000E+00 0.  1.
</event>
<event>
 4    1  0.7181337E+003  0.2167577E+02  0.7546771E-02  0.1509831E+00
          2   -1    0    0  502    0  0.00000000000E+00  0.00000000000E+00  0.36194846993E+02  0.36194846993E+02  0.00000000000E+00 0.  1.
          1   -1    0    0  501    0 -0.00000000000E+00 -0.00000000000E+00 -0.94278764827E+02  0.94278764827E+02  0.00000000000E+00 0. -1.
          2    1    1    2  501    0 -0.13410917351E+02 -0.17028988670E+02  0.31537515857E+02  0.38268186079E+02  0.00000000000E+00 0.  1.
          1    1    1    2  502    0  0.13410917351E+02  0.17028988670E+02 -0.89621433691E+02  0.92205425742E+02  0.00000000000E+00 0. -1.
</event>
<event>
 4    1  0.7181337E+003  0.2814559E+02  0.7546771E-02  0.1436428E+00
          2   -1    0    0  502    0  0.00000000000E+00  0.00000000000E+00  0.73977561892E+01  0.73977561892E+01  0.00000000000E+00 0. -1.
          1   -1    0    0  501    0 -0.00000000000E+00 -0.00000000000E+00 -0.15410569211E+03  0.15410569211E+03  0.00000000000E+00 0. -1.
          2    1    1    2  501    0  0.21258803731E+02  0.18445534668E+02 -0.28747703048E+02  0.40231889289E+02  0.00000000000E+00 0. -1.
          1    1    1    2  502    0 -0.21258803731E+02 -0.18445534668E+02 -0.11796023287E+03  0.12127155901E+03  0.00000000000E+00 0. -1.
</event>
<event>
 4    1  0.7181337E+003  0.4364235E+02  0.7546771E-02  0.1328369E+00
          2   -1    0    0  502    0  0.00000000000E+00  0.00000000000E+00  0.14548583633E+03  0.14548583633E+03  0.00000000000E+00 0. -1.
          1   -1    0    0  501    0 -0.00000000000E+00 -0.00000000000E+00 -0.11299329116E+03  0.11299329116E+03  0.00000000000E+00 0.  1.
          2    1    1    2  501    0 -0.22535060868E+02  0.37374130252E+02  0.13776840782E+03  0.14451570425E+03  0.00000000000E+00 0. -1.
          1    1    1    2  502    0  0.22535060868E+02 -0.37374130252E+02 -0.10527586265E+03  0.11396342325E+03  0.00000000000E+00 0.  1.
</event>
<event>
 4    1  0.7181337E+003  0.2895996E+02  0.7546771E-02  0.1428855E+00
          2   -1    0    0  502    0  0.00000000000E+00  0.00000000000E+00  0.73912854793E+03  0.73912854793E+03  0.00000000000E+00 0. -1.
          1   -1    0    0  501    0 -0.00000000000E+00 -0.00000000000E+00 -0.36109566864E+01  0.36109566864E+01  0.00000000000E+00 0.  1.
          2    1    1    2  501    0 -0.12565390888E+02  0.26091954282E+02  0.67529369697E+03  0.67591438533E+03  0.00000000000E+00 0. -1.
          1    1    1    2  502    0  0.12565390888E+02 -0.26091954282E+02  0.60223894276E+02  0.66825119291E+02  0.00000000000E+00 0.  1.
</event>
<event>
 4    1  0.7181337E+003  0.2197939E+02  0.7546771E-02  0.1505728E+00
          2   -1    0    0  502    0  0.00000000000E+00  0.00000000000E+00  0.19256796389E+02  0.19256796389E+02  0.00000000000E+00 0. -1.
          1   -1    0    0  501    0 -0.00000000000E+00 -0.00000000000E+00 -0.29892429253E+03  0.29892429253E+03  0.00000000000E+00 0.  1.
          2    1    1    2  501    0  0.10499435043E+02 -0.19309469350E+02  0.12434770093E+02  0.25253064172E+02  0.00000000000E+00 0. -1.
          1    1    1    2  502    0 -0.10499435043E+02  0.19309469350E+02 -0.29210226624E+03  0.29292802475E+03  0.00000000000E+00 0.  1.
</event>
<event>
 4    1  0.7181337E+003  0.2135900E+02  0.7546771E-02  0.1514201E+00
          2   -1    0    0  502    0  0.00000000000E+00  0.00000000000E+00  0.56944403276E+03  0.56944403276E+03  0.00000000000E+00 0. -1.
          1   -1    0    0  501    0 -0.00000000000E+00 -0.00000000000E+00 -0.26913369071E+02  0.26913369071E+02  0.00000000000E+00 0. -1.
          2    1    1    2  501    0 -0.86510318511E+01  0.19528603802E+02  0.56497248535E+03  0.56537608361E+03  0.00000000000E+00 0. -1.
          1    1    1    2  502    0  0.86510318511E+01 -0.19528603802E+02 -0.22441821666E+02  0.30981318213E+02  0.00000000000E+00 0. -1.
</event>
<event>
 4    1  0.7181337E+003  0.2634951E+02  0.7546771E-02  0.1454254E+00
          2   -1    0    0  502    0  0.00000000000E+00  0.00000000000E+00  0.16544822560E+04  0.16544822560E+04  0.00000000000E+00 0. -1.
          1   -1    0    0  501    0 -0.00000000000E+00 -0.00000000000E+00 -0.34763810090E+01  0.34763810090E+01  0.00000000000E+00 0. -1.
          2    1    1    2  501    0  0.42922766580E+01 -0.25997557602E+02  0.16028391795E+04  0.16030557482E+04  0.00000000000E+00 0. -1.
          1    1    1    2  502    0 -0.42922766580E+01  0.25997557602E+02  0.48166695495E+02  0.54902888768E+02  0.00000000000E+00 0. -1.
</event>
<event>
 4    1  0.7181337E+003  0.3242444E+02  0.7546771E-02  0.1399634E+00
          2   -1    0    0  502    0  0.00000000000E+00  0.00000000000E+00  0.21456027846E+03  0.21456027846E+03  0.00000000000E+00 0. -1.
          1   -1    0    0  501    0 -0.00000000000E+00 -0.00000000000E+00 -0.24322446087E+02  0.24322446087E+02  0.00000000000E+00 0. -1.
          2    1    1    2  501    0  0.31224806525E+02  0.87381639093E+01  0.20185300676E+03  0.20444065249E+03  0.00000000000E+00 0. -1.
          1    1    1    2  502    0 -0.31224806525E+02 -0.87381639093E+01 -0.11615174395E+02  0.34442072052E+02  0.00000000000E+00 0. -1.
</event>
<event>
 4    1  0.7181337E+003  0.2593175E+02  0.7546771E-02  0.1458644E+00
          2   -1    0    0  502    0  0.00000000000E+00  0.00000000000E+00  0.89270936988E+01  0.89270936988E+01  0.00000000000E+00 0.  1.
          1   -1    0    0  501    0 -0.00000000000E+00 -0.00000000000E+00 -0.11612435068E+04  0.11612435068E+04  0.00000000000E+00 0. -1.
          2    1    1    2  501    0 -0.25563912345E+02  0.43522429020E+01 -0.10367700806E+02  0.27927492774E+02  0.00000000000E+00 0.  1.
          1    1    1    2  502    0  0.25563912345E+02 -0.43522429020E+01 -0.11419487123E+04  0.11422431078E+04  0.00000000000E+00 0. -1.
</event>
<event>
 4    1  0.7181337E+003  0.2325890E+02  0.7546771E-02  0.1489272E+00
          2   -1    0    0  502    0  0.00000000000E+00  0.00000000000E+00  0.76074532152E+03  0.76074532152E+03  0.00000000000E+00 0.  1.
          1   -1    0    0  501    0 -0.00000000000E+00 -0.00000000000E+00 -0.11945644727E+01  0.11945644727E+01  0.00000000000E+00 0. -1.
          2    1    1    2  501    0 -0.14517791584E+02 -0.18171690279E+02  0.62213593388E+03  0.62257055570E+03  0.00000000000E+00 0.  1.
          1    1    1    2  502    0  0.14517791584E+02  0.18171690279E+02  0.13741482317E+03  0.13936933029E+03  0.00000000000E+00 0. -1.
</event>
<event>
 4    1  0.7181337E+003  0.2336766E+02  0.7546771E-02  0.1487932E+00
          2   -1    0    0  502    0  0.00000000000E+00  0.00000000000E+00  0.41892359557E+02  0.41892359557E+02  0.00000000000E+00 0. -1.
          1   -1    0    0  501    0 -0.00000000000E+00 -0.00000000000E+00 -0.16315435202E+02  0.16315435202E+02  0.00000000000E+00 0.  1.
          2    1    1    2  501    0  0.15482697870E+02 -0.17502394766E+02  0.25839582974E+02  0.34838653880E+02  0.00000000000E+00 0. -1.
          1    1    1    2  502    0 -0.15482697870E+02  0.17502394766E+02 -0.26265861940E+00  0.23369140879E+02  0.00000000000E+00 0.  1.
</event>
<event>
 4    1  0.7181337E+003  0.2287642E+02  0.7546771E-02  0.1494056E+00
          2   -1    0    0  502    0  0.00000000000E+00  0.00000000000E+00  0.13765330515E+02  0.13765330515E+02  0.00000000000E+00 0. -1.
          1   -1    0    0  501    0 -0.00000000000E+00 -0.00000000000E+00 -0.22237935914E+03  0.22237935914E+03  0.00000000000E+00 0. -1.
          2    1    1    2  501    0  0.20245681828E+02  0.10650961003E+02  0.31997717209E+01  0.23099115611E+02  0.00000000000E+00 0. -1.
          1    1    1    2  502    0 -0.20245681828E+02 -0.10650961003E+02 -0.21181380034E+03  0.21304557404E+03  0.00000000000E+00 0. -1.
</event>
<event>
 4    1  0.7181337E+003  0.2069022E+02  0.7546771E-02  0.1523734E+00
          2   -1    0    0  502    0  0.00000000000E+00  0.00000000000E+00  0.19260662323E+03  0.19260662323E+03  0.00000000000E+00 0.  1.
          1   -1    0    0  501    0 -0.00000000000E+00 -0.00000000000E+00 -0.30981873104E+02  0.30981873104E+02  0.00000000000E+00 0. -1.
          2    1    1    2  501    0 -0.19935453977E+02  0.55374053794E+01  0.18852203797E+03  0.18965401126E+03  0.00000000000E+00 0.  1.
          1    1    1    2  502    0  0.19935453977E+02 -0.55374053794E+01 -0.26897287850E+02  0.33934485075E+02  0.00000000000E+00 0. -1.
</event>
<event>
 4    1  0.7181337E+003  0.3406707E+02  0.7546771E-02  0.1387243E+00
          2   -1    0    0  502    0  0.00000000000E+00  0.00000000000E+00  0.70958730009E+02  0.70958730009E+02  0.00000000000E+00 0.  1.
          1   -1    0    0  501    0 -0.00000000000E+00 -0.00000000000E+00 -0.36008830206E+03  0.36008830206E+03  0.00000000000E+00 0.  1.
          2    1    1    2  501    0 -0.32205456104E+02 -0.11107391247E+02  0.66007225527E+02  0.74280006495E+02  0.00000000000E+00 0.  1.
          1    1    1    2  502    0  0.32205456104E+02  0.11107391247E+02 -0.35513679758E+03  0.35676702558E+03  0.00000000000E+00 0.  1.
</event>
<event>
 4    1  0.7181337E+003  0.4100503E+02  0.7546771E-02  0.1342695E+00
          2   -1    0    0  502    0  0.00000000000E+00  0.00000000000E+00  0.37888758760E+03  0.37888758760E+03  0.00000000000E+00 0. -1.
          1   -1    0    0  501    0 -0.00000000000E+00 -0.00000000000E+00 -0.52270339444E+01  0.52270339444E+01  0.00000000000E+00 0. -1.
          2    1    1    2  501    0  0.39251118180E+02 -0.11864316693E+02  0.26146088620E+03  0.26465677264E+03  0.00000000000E+00 0. -1.
          1    1    1    2  502    0 -0.39251118180E+02  0.11864316693E+02  0.11219966745E+03  0.11945784891E+03  0.00000000000E+00 0. -1.
</event>
<event>
 4    1  0.7181337E+003  0.2478044E+02  0.7546771E-02  0.1471275E+00
          2   -1    0    0  502    0  0.00000000000E+00  0.00000000000E+00  0.11068903606E+03  0.11068903606E+03  0.00000000000E+00 0. -1.
          1   -1    0    0  501    0 -0.00000000000E+00 -0.00000000000E+00 -0.14251020694E+02  0.14251020694E+02  0.00000000000E+00 0.  1.
          2    1    1    2  501    0  0.24679816570E+02  0.22308781240E+01  0.97038254665E+02  0.10015234911E+03  0.00000000000E+00 0. -1.
          1    1    1    2  502    0 -0.24679816570E+02 -0.22308781240E+01 -0.60023930007E+00  0.24787707646E+02  0.00000000000E+00 0.  1.
</event>
<event>
 4    1  0.7181337E+003  0.2390971E+02  0.7546771E-02  0.1481380E+00
          2   -1    0    0  502    0  0.00000000000E+00  0.00000000000E+00  0.14160615524E+02  0.14160615524E+02  0.00000000000E+00 0. -1.
          1   -1    0    0  501    0 -0.00000000000E+00 -0.00000000000E+00 -0.72311160233E+03  0.72311160233E+03  0.00000000000E+00 0.  1.
          2    1    1    2  501    0 -0.23819042832E+02 -0.20802407727E+01  0.37225125439E+01  0.24197754085E+02  0.00000000000E+00 0. -1.
          1    1    1    2  502    0  0.23819042832E+02  0.20802407727E+01 -0.71267349936E+03  0.71307446377E+03  0.00000000000E+00 0.  1.
</event>
<event>
 4    1  0.7181337E+003  0.2029043E+02  0.7546771E-02  0.1529641E+00
          2   -1    0    0  502    0  0.00000000000E+00  0.00000000000E+00  0.20657046262E+03  0.20657046262E+03  0.00000000000E+00 0. -1.
          1   -1    0    0  501    0 -0.00000000000E+00 -0.00000000000E+00 -0.28791478840E+01  0.28791478840E+01  0.00000000000E+00 0.  1.
          2    1    1    2  501    0  0.19622870128E+02 -0.51618431060E+01  0.15994386050E+03  0.16122574288E+03  0.00000000000E+00 0. -1.
          1    1    1    2  502    0 -0.19622870128E+02  0.51618431060E+01  0.43747454241E+02  0.48223867627E+02  0.00000000000E+00 0.  1.
</event>
<event>
 4    1  0.7181337E+003  0.2000708E+02  0.7546771E-02  0.1533927E+00
          2   -1    0    0  502    0  0.00000000000E+00  0.00000000000E+00  0.11658726148E+04  0.11658726148E+04  0.00000000000E+00 0. -1.
          1   -1    0    0  501    0 -0.00000000000E+00 -0.00000000000E+00 -0.41054693413E+02  0.41054693413E+02  0.00000000000E+00 0. -1.
          2    1    1    2  501    0  0.42283017380E+01 -0.19555169835E+02  0.11633439840E+04  0.11635160112E+04  0.00000000000E+00 0. -1.
          1    1    1    2  502    0 -0.42283017380E+01  0.19555169835E+02 -0.38526062646E+02  0.43411296984E+02  0.00000000000E+00 0. -1.
</event>
<event>
 4    1  0.7181337E+003  0.2887239E+02  0.7546771E-02  0.1429655E+00
          2   -1    0    0  502    0  0.00000000000E+00  0.00000000000E+00  0.20898756287E+03  0.20898756287E+03  0.00000000000E+00 0.  1.
          1   -1    0    0  501    0 -0.00000000000E+00 -0.00000000000E+00 -0.11806707312E+02  0.11806707312E+02  0.00000000000E+00 0.  1.
          2    1    1    2  501    0  0.71698549362E+00  0.28863483558E+02  0.18842385678E+03  0.19062309555E+03  0.00000000000E+00 0.  1.
          1    1    1    2  502    0 -0.71698549362E+00 -0.28863483558E+02  0.87569987749E+01  0.30171174635E+02  0.00000000000E+00 0.  1.
</event>
<event>
 4    1  0.7181337E+003  0.2468568E+02  0.7546771E-02  0.1472351E+00
          2   -1    0    0  502    0  0.00000000000E+00  0.00000000000E+00  0.12626949102E+01  0.12626949102E+01  0.00000000000E+00 0. -1.
          1   -1    0    0  501    0 -0.00000000000E+00 -0.00000000000E+00 -0.60934779486E+03  0.60934779486E+03  0.00000000000E+00 0. -1.
          2    1    1    2  501    0  0.68919249652E+01 -0.23704095419E+02 -0.16480273762E+03  0.16664130669E+03  0.00000000000E+00 0. -1.
          1    1    1    2  502    0 -0.68919249652E+01  0.23704095419E+02 -0.44328236234E+03  0.44396918308E+03  0.00000000000E+00 0. -1.
</event>
<event>
 4    1  0.7181337E+003  0.2052390E+02  0.7546771E-02  0.1526172E+00
          2   -1    0    0  502    0  0.00000000000E+00  0.00000000000E+00  0.33834845179E+03  0.33834845179E+03  0.00000000000E+00 0.  1.
          1   -1    0    0  501    0 -0.00000000000E+00 -0.00000000000E+00 -0.40391500733E+01  0.40391500733E+01  0.00000000000E+00 0. -1.
          2    1    1    2  501    0  0.20058835250E+02  0.43443971582E+01  0.30954184353E+03  0.31022150724E+03  0.00000000000E+00 0.  1.
          1    1    1    2  502    0 -0.20058835250E+02 -0.43443971582E+01  0.24767458185E+02  0.32166094622E+02  0.00000000000E+00 0. -1.
</event>
<event>
 4    1  0.7181337E+003  0.2269444E+02  0.7546771E-02  0.1496371E+00
          2   -1    0    0  502    0  0.00000000000E+00  0.00000000000E+00  0.17467248096E+03  0.17467248096E+03  0.00000000000E+00 0. -1.
          1   -1    0    0  501    0 -0.00000000000E+00 -0.00000000000E+00 -0.75442268309E+02  0.75442268309E+02  0.00000000000E+00 0.  1.
          2    1    1    2  501    0 -0.56624090998E+01 -0.21976687776E+02  0.17220424787E+03  0.17369323726E+03  0.00000000000E+00 0. -1.
          1    1    1    2  502    0  0.56624090998E+01  0.21976687776E+02 -0.72974035220E+02  0.76421512016E+02  0.00000000000E+00 0.  1.
</event>
<event>
 4    1  0.7181337E+003  0.2618886E+02  0.7546771E-02  0.1455931E+00
          2   -1    0    0  502    0  0.00000000000E+00  0.00000000000E+00  0.52384668694E+03  0.52384668694E+03  0.00000000000E+00 0. -1.
          1   -1    0    0  501    0 -0.00000000000E+00 -0.00000000000E+00 -0.32059601337E+01  0.32059601337E+01  0.00000000000E+00 0. -1.
          2    1    1    2  501    0 -0.20560415726E+02 -0.16221155604E+02  0.46301542773E+03  0.46375547749E+03  0.00000000000E+00 0. -1.
          1    1    1    2  502    0  0.20560415726E+02  0.16221155604E+02  0.57625299078E+02  0.63297169588E+02  0.00000000000E+00 0. -1.
</event>
<event>
 4    1  0.7181337E+003  0.2218546E+02  0.7546771E-02  0.1502988E+00
          2   -1    0    0  502    0  0.00000000000E+00  0.00000000000E+00  0.25860841897E+03  0.25860841897E+03  0.00000000000E+00 0. -1.
          1   -1    0    0  501    0 -0.00000000000E+00 -0.00000000000E+00 -0.45664400953E+02  0.45664400953E+02  0.00000000000E+00 0. -1.
          2    1    1    2  501    0  0.22159569012E+02  0.10714094865E+01  0.25540423777E+03  0.25636598661E+03  0.00000000000E+00 0. -1.
          1    1    1    2  502    0 -0.22159569012E+02 -0.10714094865E+01 -0.42460219753E+02  0.47906833318E+02  0.00000000000E+00 0. -1.
</event>
<event>
 4    1  0.7181337E+003  0.2853340E+02  0.7546771E-02  0.1432784E+00
          2   -1    0    0  502    0  0.00000000000E+00  0.00000000000E+00  0.20411196106E+02  0.20411196106E+02  0.00000000000E+00 0.  1.
          1   -1    0    0  501    0 -0.00000000000E+00 -0.00000000000E+00 -0.10818187616E+04  0.10818187616E+04  0.00000000000E+00 0.  1.
          2    1    1    2  501    0  0.27327723626E+02 -0.82067304663E+01  0.10155715424E+02  0.30286852912E+02  0.00000000000E+00 0.  1.
          1    1    1    2  502    0 -0.27327723626E+02  0.82067304663E+01 -0.10715632810E+04  0.10719431048E+04  0.00000000000E+00 0.  1.
</event>
<event>
 4    1  0.7181337E+003  0.4526187E+02  0.7546771E-02  0.1320135E+00
          2   -1    0    0  502    0  0.00000000000E+00  0.00000000000E+00  0.50991442979E+02  0.50991442979E+02  0.00000000000E+00 0. -1.
          1   -1    0    0  501    0 -0.00000000000E+00 -0.00000000000E+00 -0.25552293269E+03  0.25552293269E+03  0.00000000000E+00 0.  1.
          2    1    1    2  501    0 -0.18738129960E+02 -0.41200960759E+02  0.38428122437E+02  0.59374719164E+02  0.00000000000E+00 0. -1.
          1    1    1    2  502    0  0.18738129960E+02  0.41200960759E+02 -0.24295961215E+03  0.24713965651E+03  0.00000000000E+00 0.  1.
</event>
<event>
 4    1  0.7181337E+003  0.3105106E+02  0.7546771E-02  0.1410677E+00
          2   -1    0    0  502    0  0.00000000000E+00  0.00000000000E+00  0.35414491772E+03  0.35414491772E+03  0.00000000000E+00 0. -1.
          1   -1    0    0  501    0 -0.00000000000E+00 -0.00000000000E+00 -0.17639466577E+02  0.17639466577E+02  0.00000000000E+00 0.  1.
          2    1    1    2  501    0 -0.22812084286E+02  0.21066017356E+02  0.33919848193E+03  0.34061676181E+03  0.00000000000E+00 0. -1.
          1    1    1    2  502    0  0.22812084286E+02 -0.21066017356E+02 -0.26930307929E+01  0.31167622488E+02  0.00000000000E+00 0.  1.
</event>
<event>
 4    1  0.7181337E+003  0.6010437E+02  0.7546771E-02  0.1259478E+00
          2   -1    0    0  502    0  0.00000000000E+00  0.00000000000E+00  0.50186782958E+03  0.50186782958E+03  0.00000000000E+00 0.  1.
          1   -1    0    0  501    0 -0.00000000000E+00 -0.00000000000E+00 -0.18613063303E+03  0.18613063303E+03  0.00000000000E+00 0.  1.
          2    1    1    2  501    0  0.56935592228E+02  0.19258093846E+02  0.49515054877E+03  0.49878512587E+03  0.00000000000E+00 0.  1.
          1    1    1    2  502    0 -0.56935592228E+02 -0.19258093846E+02 -0.17941335223E+03  0.18921333674E+03  0.00000000000E+00 0.  1.
</event>
<event>
 4    1  0.7181337E+003  0.2825029E+02  0.7546771E-02  0.1435437E+00
          2   -1    0    0  502    0  0.00000000000E+00  0.00000000000E+00  0.33773776252E+03  0.33773776252E+03  0.00000000000E+00 0. -1.
          1   -1    0    0  501    0 -0.00000000000E+00 -0.00000000000E+00 -0.47321115472E+02  0.47321115472E+02  0.00000000000E+00 0.  1.
          2    1    1    2  501    0  0.82035902571E+01 -0.27032939695E+02  0.33286915882E+03  0.33406579534E+03  0.00000000000E+00 0. -1.
          1    1    1    2  502    0 -0.82035902571E+01  0.27032939695E+02 -0.42452511778E+02  0.50993082648E+02  0.00000000000E+00 0.  1.
</event>
<event>
 4    1  0.7181337E+003  0.3787497E+02  0.7546771E-02  0.1361409E+00
          2   -1    0    0  502    0  0.00000000000E+00  0.00000000000E+00  0.29251069910E+02  0.29251069910E+02  0.00000000000E+00 0.  1.
          1   -1    0    0  501    0 -0.00000000000E+00 -0.00000000000E+00 -0.51190061205E+02  0.51190061205E+02  0.00000000000E+00 0.  1.
          2    1    1    2  501    0  0.22542779492E+01  0.37807822115E+02 -0.27292503284E+01  0.37973174604E+02  0.00000000000E+00 0.  1.
          1    1    1    2  502    0 -0.22542779492E+01 -0.37807822115E+02 -0.19209740966E+02  0.42467956510E+02  0.00000000000E+00 0.  1.
</event>
<event>
 4    1  0.7181337E+003  0.2053590E+02  0.7546771E-02  0.1525995E+00
          2   -1    0    0  502    0  0.00000000000E+00  0.00000000000E+00  0.38902924058E+03  0.38902924058E+03  0.00000000000E+00 0. -1.
          1   -1    0    0  501    0 -0.00000000000E+00 -0.00000000000E+00 -0.44907461113E+01  0.44907461113E+01  0.00000000000E+00 0.  1.
          2    1    1    2  501    0 -0.20534040654E+02 -0.27598144122E+00  0.36364324440E+03  0.36422264096E+03  0.00000000000E+00 0. -1.
          1    1    1    2  502    0  0.20534040654E+02  0.27598144122E+00  0.20895250067E+02  0.29297345728E+02  0.00000000000E+00 0.  1.
</event>
<event>
 4    1  0.7181337E+003  0.2963821E+02  0.7546771E-02  0.1422767E+00
          2   -1    0    0  502    0  0.00000000000E+00  0.00000000000E+00  0.50390028584E+03  0.50390028584E+03  0.00000000000E+00 0.  1.
          1   -1    0    0  501    0 -0.00000000000E+00 -0.00000000000E+00 -0.23667790364E+02  0.23667790364E+02  0.00000000000E+00 0. -1.
          2    1    1    2  501    0  0.80003202363E+01  0.28538011693E+02  0.49400000829E+03  0.49488830197E+03  0.00000000000E+00 0.  1.
          1    1    1    2  502    0 -0.80003202363E+01 -0.28538011693E+02 -0.13767512810E+02  0.32679774238E+02  0.00000000000E+00 0. -1.
</event>
<event>
 4    1  0.7181337E+003  0.2519439E+02  0.7546771E-02  0.1466640E+00
          2   -1    0    0  502    0  0.00000000000E+00  0.00000000000E+00  0.34822405791E+01  0.34822405791E+01  0.00000000000E+00 0. -1.
          1   -1    0    0  501    0 -0.00000000000E+00 -0.00000000000E+00 -0.24667514815E+03  0.24667514815E+03  0.00000000000E+00 0.  1.
          2    1    1    2  501    0  0.19073608465E+02 -0.16460709219E+02 -0.57691724080E+02  0.62953097741E+02  0.00000000000E+00 0. -1.
          1    1    1    2  502    0 -0.19073608465E+02  0.16460709219E+02 -0.18550118349E+03  0.18720429099E+03  0.00000000000E+00 0.  1.
</event>
<event>
 4    1  0.7181337E+003  0.2890298E+02  0.7546771E-02  0.1429375E+00
          2   -1    0    0  502    0  0.00000000000E+00  0.00000000000E+00  0.18308917122E+04  0.18308917122E+04  0.00000000000E+00 0. -1.
          1   -1    0    0  501    0 -0.00000000000E+00 -0.00000000000E+00 -0.63346350487E+00  0.63346350487E+00  0.00000000000E+00 0. -1.
          2    1    1    2  501    0 -0.13636004273E+02 -0.25484147859E+02  0.13994632062E+04  0.13997616397E+04  0.00000000000E+00 0. -1.
          1    1    1    2  502    0  0.13636004273E+02  0.25484147859E+02  0.43079504252E+03  0.43176353605E+03  0.00000000000E+00 0. -1.
</event>
<event>
 4    1  0.8095352E+003  0.2058768E+02  0.7546771E-02  0.1525234E+00
          2   -1    0    0  502    0  0.00000000000E+00  0.00000000000E+00  0.11326107681E+04  0.11326107681E+04  0.00000000000E+00 0.  1.
          1   -1    0    0  501    0 -0.00000000000E+00 -0.00000000000E+00 -0.12262624548E+04  0.12262624548E+04  0.00000000000E+00 0. -1.
          2    1    1    2  501    0 -0.14585297912E+02 -0.14530030532E+02  0.11324307863E+04  0.11326179138E+04  0.00000000000E+00 0.  1.
          1    1    1    2  502    0  0.14585297912E+02  0.14530030532E+02 -0.12260824730E+04  0.12262553091E+04  0.00000000000E+00 0. -1.
</event>
<event>
 4    1  0.7181337E+003  0.2026940E+02  0.7546771E-02  0.1529956E+00
          2   -1    0    0  502    0  0.00000000000E+00  0.00000000000E+00  0.51108562254E+03  0.51108562254E+03  0.00000000000E+00 0. -1.
          1   -1    0    0  501    0 -0.00000000000E+00 -0.00000000000E+00 -0.96257757645E+03  0.96257757645E+03  0.00000000000E+00 0. -1.
          2    1    1    2  501    0  0.19654158540E+02 -0.49560847631E+01  0.51077788428E+03  0.51117990551E+03  0.00000000000E+00 0. -1.
          1    1    1    2  502    0 -0.19654158540E+02  0.49560847631E+01 -0.96226983819E+03  0.96248329347E+03  0.00000000000E+00 0. -1.
</event>
<event>
 4    1  0.7181337E+003  0.2053397E+02  0.7546771E-02  0.1526024E+00
          2   -1    0    0  502    0  0.00000000000E+00  0.00000000000E+00  0.26446103657E+02  0.26446103657E+02  0.00000000000E+00 0. -1.
          1   -1    0    0  501    0 -0.00000000000E+00 -0.00000000000E+00 -0.16527580378E+02  0.16527580378E+02  0.00000000000E+00 0. -1.
          2    1    1    2  501    0 -0.27041657783E+01 -0.20355117398E+02  0.91996095498E+00  0.20554552902E+02  0.00000000000E+00 0. -1.
          1    1    1    2  502    0  0.27041657783E+01  0.20355117398E+02  0.89985623235E+01  0.22419131133E+02  0.00000000000E+00 0. -1.
</event>
<event>
 4    1  0.7181337E+003  0.2418140E+02  0.7546771E-02  0.1478173E+00
          2   -1    0    0  502    0  0.00000000000E+00  0.00000000000E+00  0.33969010652E+02  0.33969010652E+02  0.00000000000E+00 0.  1.
          1   -1    0    0  501    0 -0.00000000000E+00 -0.00000000000E+00 -0.46779080974E+02  0.46779080974E+02  0.00000000000E+00 0.  1.
          2    1    1    2  501    0  0.18692418833E+02 -0.15340584576E+02  0.25692117224E+02  0.35282076815E+02  0.00000000000E+00 0.  1.
          1    1    1    2  502    0 -0.18692418833E+02  0.15340584576E+02 -0.38502187546E+02  0.45466014811E+02  0.00000000000E+00 0.  1.
</event>
<event>
 4    1  0.7181337E+003  0.3685284E+02  0.7546771E-02  0.1367985E+00
          2   -1    0    0  502    0  0.00000000000E+00  0.00000000000E+00  0.63982185624E+03  0.63982185624E+03  0.00000000000E+00 0. -1.
          1   -1    0    0  501    0 -0.00000000000E+00 -0.00000000000E+00 -0.42833240278E+01  0.42833240278E+01  0.00000000000E+00 0. -1.
          2    1    1    2  501    0 -0.36374610380E+02  0.59177607857E+01  0.54650220479E+03  0.54774336328E+03  0.00000000000E+00 0. -1.
          1    1    1    2  502    0  0.36374610380E+02 -0.59177607857E+01  0.89036327419E+02  0.96361816989E+02  0.00000000000E+00 0. -1.
</event>
<event>
 4    1  0.7181337E+003  0.3541207E+02  0.7546771E-02  0.1377689E+00
          2   -1    0    0  502    0  0.00000000000E+00  0.00000000000E+00  0.15967211892E+03  0.15967211892E+03  0.00000000000E+00 0.  1.
          1   -1    0    0  501    0 -0.00000000000E+00 -0.00000000000E+00 -0.84480380171E+01  0.84480380171E+01  0.00000000000E+00 0.  1.
          2    1    1    2  501    0  0.82956526403E+01 -0.34426690725E+02  0.97908364585E+02  0.10411562199E+03  0.00000000000E+00 0.  1.
          1    1    1    2  502    0 -0.82956526403E+01  0.34426690725E+02  0.53315716314E+02  0.64004534942E+02  0.00000000000E+00 0.  1.
</event>
<event>
 4    1  0.7181337E+003  0.3326173E+02  0.7546771E-02  0.1393214E+00
          2   -1    0    0  502    0  0.00000000000E+00  0.00000000000E+00  0.10355942796E+03  0.10355942796E+03  0.00000000000E+00 0.  1.
          1   -1    0    0  501    0 -0.00000000000E+00 -0.00000000000E+00 -0.12433153981E+02  0.12433153981E+02  0.00000000000E+00 0.  1.
          2    1    1    2  501    0 -0.10087776693E+02  0.31695101909E+02  0.67321534189E+02  0.75090157072E+02  0.00000000000E+00 0.  1.
          1    1    1    2  502    0  0.10087776693E+02 -0.31695101909E+02  0.23804739792E+02  0.40902424870E+02  0.00000000000E+00 0.  1.
</event>
<event>
 4    1  0.7181337E+003  0.3460388E+02  0.7546771E-02  0.1383370E+00
          2   -1    0    0  502    0  0.00000000000E+00  0.00000000000E+00  0.11937579275E+03  0.11937579275E+03  0.00000000000E+00 0. -1.
          1   -1    0    0  501    0 -0.00000000000E+00 -0.00000000000E+00 -0.17232786711E+02  0.17232786711E+02  0.00000000000E+00 0. -1.
          2    1    1    2  501    0 -0.34596816667E+02 -0.69902069135E+00  0.95228342829E+02  0.10132060813E+03  0.00000000000E+00 0. -1.
          1    1    1    2  502    0  0.34596816667E+02  0.69902069135E+00  0.69146632083E+01  0.35287971332E+02  0.00000000000E+00 0. -1.
</event>
<event>
 4    1  0.7181337E+003  0.2487484E+02  0.7546771E-02  0.1470208E+00
          2   -1    0    0  502    0  0.00000000000E+00  0.00000000000E+00  0.23048473012E+03  0.23048473012E+03  0.00000000000E+00 0. -1.
          1   -1    0    0  501    0 -0.00000000000E+00 -0.00000000000E+00 -0.79822153207E+01  0.79822153207E+01  0.00000000000E+00 0.  1.
          2    1    1    2  501    0 -0.73622805017E+01 -0.23760356515E+02  0.20838653068E+03  0.20986591882E+03  0.00000000000E+00 0. -1.
          1    1    1    2  502    0  0.73622805017E+01  0.23760356515E+02  0.14115984126E+02  0.28601026621E+02  0.00000000000E+00 0.  1.
</event>
<event>
 4    1  0.7181337E+003  0.2084983E+02  0.7546771E-02  0.1521420E+00
          2   -1    0    0  502    0  0.00000000000E+00  0.00000000000E+00  0.19757023317E+01  0.19757023317E+01  0.00000000000E+00 0.  1.
          1   -1    0    0  501    0 -0.00000000000E+00 -0.00000000000E+00 -0.52677553418E+03  0.52677553418E+03  0.00000000000E+00 0. -1.
          2    1    1    2  501    0 -0.13493900211E+02  0.15894341432E+02 -0.60657537801E+02  0.64140878732E+02  0.00000000000E+00 0.  1.
          1    1    1    2  502    0  0.13493900211E+02 -0.15894341432E+02 -0.46414229405E+03  0.46461035778E+03  0.00000000000E+00 0. -1.
</event>
<event>
 4    1  0.7181337E+003  0.4826153E+02  0.7546771E-02  0.1305891E+00
          2   -1    0    0  502    0  0.00000000000E+00  0.00000000000E+00  0.15019583208E+04  0.15019583208E+04  0.00000000000E+00 0.  1.
          1   -1    0    0  501    0 -0.00000000000E+00 -0.00000000000E+00 -0.63976098192E+01  0.63976098192E+01  0.00000000000E+00 0.  1.
          2    1    1    2  501    0 -0.42005951560E+02 -0.23762904908E+02  0.14042199737E+04  0.14050490775E+04  0.00000000000E+00 0.  1.
          1    1    1    2  502    0  0.42005951560E+02  0.23762904908E+02  0.91340737261E+02  0.10330685311E+03  0.00000000000E+00 0.  1.
</event>
<event>
 4    1  0.7181337E+003  0.2951822E+02  0.7546771E-02  0.1423830E+00
          2   -1    0    0  502    0  0.00000000000E+00  0.00000000000E+00  0.72159808134E+02  0.72159808134E+02  0.00000000000E+00 0.  1.
          1   -1    0    0  501    0 -0.00000000000E+00 -0.00000000000E+00 -0.16967059548E+02  0.16967059548E+02  0.00000000000E+00 0. -1.
          2    1    1    2  501    0 -0.49970047195E+01 -0.29092184454E+02  0.51525341191E+02  0.59381697831E+02  0.00000000000E+00 0.  1.
          1    1    1    2  502    0  0.49970047195E+01  0.29092184454E+02  0.36674073952E+01  0.29745169851E+02  0.00000000000E+00 0. -1.
</event>
<event>
 4    1  0.7181337E+003  0.3506338E+02  0.7546771E-02  0.1380118E+00
          2   -1    0    0  502    0  0.00000000000E+00  0.00000000000E+00  0.22613395571E+02  0.22613395571E+02  0.00000000000E+00 0. -1.
          1   -1    0    0  501    0 -0.00000000000E+00 -0.00000000000E+00 -0.12571943891E+04  0.12571943891E+04  0.00000000000E+00 0. -1.
          2    1    1    2  501    0 -0.27570645456E+02 -0.21663342102E+02  0.86240459600E+01  0.36108379230E+02  0.00000000000E+00 0. -1.
          1    1    1    2  502    0  0.27570645456E+02  0.21663342102E+02 -0.12432050395E+04  0.12436994054E+04  0.00000000000E+00 0. -1.
</event>
<event>
 4    1  0.7181337E+003  0.3467954E+02  0.7546771E-02  0.1382830E+00
          2   -1    0    0  502    0  0.00000000000E+00  0.00000000000E+00  0.81839294142E+02  0.81839294142E+02  0.00000000000E+00 0. -1.
          1   -1    0    0  501    0 -0.00000000000E+00 -0.00000000000E+00 -0.83372352544E+02  0.83372352544E+02  0.00000000000E+00 0.  1.
          2    1    1    2  501    0 -0.33589699353E+02 -0.86256893125E+01  0.74206453031E+02  0.81910122025E+02  0.00000000000E+00 0. -1.
          1    1    1    2  502    0  0.33589699353E+02  0.86256893125E+01 -0.75739511433E+02  0.83301524661E+02  0.00000000000E+00 0.  1.
</event>
<event>
 4    1  0.8891683E+003  0.4296344E+02  0.7546771E-02  0.1331944E+00
          2   -1    0    0  502    0  0.00000000000E+00  0.00000000000E+00  0.87852606515E+03  0.87852606515E+03  0.00000000000E+00 0.  1.
          1   -1    0    0  501    0 -0.00000000000E+00 -0.00000000000E+00 -0.66928895382E+03  0.66928895382E+03  0.00000000000E+00 0. -1.
          2    1    1    2  501    0  0.27600039299E+02  0.32925602387E+02  0.87731035466E+03  0.87836172267E+03  0.00000000000E+00 0.  1.
          1    1    1    2  502    0 -0.27600039299E+02 -0.32925602387E+02 -0.66807324333E+03  0.66945329629E+03  0.00000000000E+00 0. -1.
</event>
<event>
 4    1  0.7181337E+003  0.2348721E+02  0.7546771E-02  0.1486469E+00
          2   -1    0    0  502    0  0.00000000000E+00  0.00000000000E+00  0.14197087342E+03  0.14197087342E+03  0.00000000000E+00 0.  1.
          1   -1    0    0  501    0 -0.00000000000E+00 -0.00000000000E+00 -0.36575804224E+03  0.36575804224E+03  0.00000000000E+00 0.  1.
          2    1    1    2  501    0 -0.21258156827E+02  0.99869773372E+01  0.14061880203E+03  0.14256681392E+03  0.00000000000E+00 0.  1.
          1    1    1    2  502    0  0.21258156827E+02 -0.99869773372E+01 -0.36440597086E+03  0.36516210173E+03  0.00000000000E+00 0.  1.
</event>
<event>
 4    1  0.7181337E+003  0.2045079E+02  0.7546771E-02  0.1527253E+00
          2   -1    0    0  502    0  0.00000000000E+00  0.00000000000E+00  0.13929375952E+02  0.13929375952E+02  0.00000000000E+00 0.  1.
          1   -1    0    0  501    0 -0.00000000000E+00 -0.00000000000E+00 -0.64235959609E+02  0.64235959609E+02  0.00000000000E+00 0. -1.
          2    1    1    2  501    0 -0.15026565556E+02 -0.13872164761E+02  0.33684070382E+01  0.20726330923E+02  0.00000000000E+00 0.  1.
          1    1    1    2  502    0  0.15026565556E+02  0.13872164761E+02 -0.53674990696E+02  0.57439004638E+02  0.00000000000E+00 0. -1.
</event>
<event>
 4    1  0.7181337E+003  0.4273496E+02  0.7546771E-02  0.1333164E+00
          2   -1    0    0  502    0  0.00000000000E+00  0.00000000000E+00  0.42073877116E+03  0.42073877116E+03  0.00000000000E+00 0.  1.
          1   -1    0    0  501    0 -0.00000000000E+00 -0.00000000000E+00 -0.87615801081E+02  0.87615801081E+02  0.00000000000E+00 0.  1.
          2    1    1    2  501    0  0.14896652698E+02 -0.40054540882E+02  0.41436259938E+03  0.41656048813E+03  0.00000000000E+00 0.  1.
          1    1    1    2  502    0 -0.14896652698E+02  0.40054540882E+02 -0.81239629306E+02  0.91794084105E+02  0.00000000000E+00 0.  1.
</event>
<event>
 4    1  0.7181337E+003  0.2614221E+02  0.7546771E-02  0.1456420E+00
          2   -1    0    0  502    0  0.00000000000E+00  0.00000000000E+00  0.35356145433E+03  0.35356145433E+03  0.00000000000E+00 0. -1.
          1   -1    0    0  501    0 -0.00000000000E+00 -0.00000000000E+00 -0.38500613772E+01  0.38500613772E+01  0.00000000000E+00 0.  1.
          2    1    1    2  501    0  0.25253236636E+02 -0.67593905469E+01  0.30095967983E+03  0.30209293968E+03  0.00000000000E+00 0. -1.
          1    1    1    2  502    0 -0.25253236636E+02  0.67593905469E+01  0.48751713114E+02  0.55318576018E+02  0.00000000000E+00 0.  1.
</event>
<event>
 4    1  0.7181337E+003  0.2126419E+02  0.7546771E-02  0.1515526E+00
          2   -1    0    0  502    0  0.00000000000E+00  0.00000000000E+00  0.14274860068E+04  0.14274860068E+04  0.00000000000E+00 0. -1.
          1   -1    0    0  501    0 -0.00000000000E+00 -0.00000000000E+00 -0.32006095816E+00  0.32006095816E+00  0.00000000000E+00 0. -1.
          2    1    1    2  501    0 -0.17667284860E+02 -0.11833550336E+02  0.78611916452E+03  0.78640670566E+03  0.00000000000E+00 0. -1.
          1    1    1    2  502    0  0.17667284860E+02  0.11833550336E+02  0.64104678136E+03  0.64139936214E+03  0.00000000000E+00 0. -1.
</event>
<event>
 4    1  0.7181337E+003  0.2121427E+02  0.7546771E-02  0.1516227E+00
          2   -1    0    0  502    0  0.00000000000E+00  0.00000000000E+00  0.25907620571E+03  0.25907620571E+03  0.00000000000E+00 0.  1.
          1   -1    0    0  501    0 -0.00000000000E+00 -0.00000000000E+00 -0.48083809793E+01  0.48083809793E+01  0.00000000000E+00 0. -1.
          2    1    1    2  501    0  0.37588108450E+01  0.20878618055E+02  0.23258310440E+03  0.23354859410E+03  0.00000000000E+00 0.  1.
          1    1    1    2  502    0 -0.37588108450E+01 -0.20878618055E+02  0.21684720326E+02  0.30335992591E+02  0.00000000000E+00 0. -1.
</event>
<event>
 4    1  0.7181337E+003  0.3770232E+02  0.7546771E-02  0.1362503E+00
          2   -1    0    0  502    0  0.00000000000E+00  0.00000000000E+00  0.23848412200E+02  0.23848412200E+02  0.00000000000E+00 0. -1.
          1   -1    0    0  501    0 -0.00000000000E+00 -0.00000000000E+00 -0.16065736354E+04  0.16065736354E+04  0.00000000000E+00 0. -1.
          2    1    1    2  501    0  0.11464466116E+02 -0.35916996278E+02  0.85832536865E+01  0.38666999480E+02  0.00000000000E+00 0. -1.
          1    1    1    2  502    0 -0.11464466116E+02  0.35916996278E+02 -0.15913084769E+04  0.15917550481E+04  0.00000000000E+00 0. -1.
</event>
<event>
 4    1  0.7181337E+003  0.2191453E+02  0.7546771E-02  0.1506598E+00
          2   -1    0    0  502    0  0.00000000000E+00  0.00000000000E+00  0.60803582996E+03  0.60803582996E+03  0.00000000000E+00 0.  1.
          1   -1    0    0  501    0 -0.00000000000E+00 -0.00000000000E+00 -0.86644506018E+00  0.86644506018E+00  0.00000000000E+00 0.  1.
          2    1    1    2  501    0  0.12707193463E+02 -0.17854241783E+02  0.39411539319E+03  0.39472419468E+03  0.00000000000E+00 0.  1.
          1    1    1    2  502    0 -0.12707193463E+02  0.17854241783E+02  0.21305399172E+03  0.21417808035E+03  0.00000000000E+00 0.  1.
</event>
<event>
 4    1  0.9853048E+003  0.2716367E+02  0.7546771E-02  0.1445971E+00
          2   -1    0    0  502    0  0.00000000000E+00  0.00000000000E+00  0.16190801321E+04  0.16190801321E+04  0.00000000000E+00 0. -1.
          1   -1    0    0  501    0 -0.00000000000E+00 -0.00000000000E+00 -0.68270052677E+03  0.68270052677E+03  0.00000000000E+00 0. -1.
          2    1    1    2  501    0  0.20648932912E+02 -0.17648985045E+02  0.16186959343E+04  0.16189238379E+04  0.00000000000E+00 0. -1.
          1    1    1    2  502    0 -0.20648932912E+02  0.17648985045E+02 -0.68231632901E+03  0.68285682096E+03  0.00000000000E+00 0. -1.
</event>
<event>
 4    1  0.7181337E+003  0.2127327E+02  0.7546771E-02  0.1515399E+00
          2   -1    0    0  502    0  0.00000000000E+00  0.00000000000E+00  0.93646242913E+00  0.93646242913E+00  0.00000000000E+00 0.  1.
          1   -1    0    0  501    0 -0.00000000000E+00 -0.00000000000E+00 -0.51294080796E+03  0.51294080796E+03  0.00000000000E+00 0.  1.
          2    1    1    2  501    0 -0.14272856064E+02  0.15774591354E+02 -0.19419276391E+03  0.19535450266E+03  0.00000000000E+00 0.  1.
          1    1    1    2  502    0  0.14272856064E+02 -0.15774591354E+02 -0.31781158162E+03  0.31852276773E+03  0.00000000000E+00 0.  1.
</event>
<event>
 4    1  0.7181337E+003  0.2388200E+02  0.7546771E-02  0.1481710E+00
          2   -1    0    0  502    0  0.00000000000E+00  0.00000000000E+00  0.13602356917E+01  0.13602356917E+01  0.00000000000E+00 0.  1.
          1   -1    0    0  501    0 -0.00000000000E+00 -0.00000000000E+00 -0.10530601528E+04  0.10530601528E+04  0.00000000000E+00 0. -1.
          2    1    1    2  501    0 -0.89632802139E+00 -0.23865173940E+02 -0.11685411727E+03  0.11926958813E+03  0.00000000000E+00 0.  1.
          1    1    1    2  502    0  0.89632802139E+00  0.23865173940E+02 -0.93484579981E+03  0.93515080033E+03  0.00000000000E+00 0. -1.
</event>
<event>
 4    1  0.7181337E+003  0.2590220E+02  0.7546771E-02  0.1458959E+00
          2   -1    0    0  502    0  0.00000000000E+00  0.00000000000E+00  0.79888742348E+03  0.79888742348E+03  0.00000000000E+00 0. -1.
          1   -1    0    0  501    0 -0.00000000000E+00 -0.00000000000E+00 -0.28845099812E+02  0.28845099812E+02  0.00000000000E+00 0.  1.
          2    1    1    2  501    0 -0.17275503943E+01 -0.25844529010E+02  0.79281807613E+03  0.79324108942E+03  0.00000000000E+00 0. -1.
          1    1    1    2  502    0  0.17275503943E+01  0.25844529010E+02 -0.22775752463E+02  0.34491433869E+02  0.00000000000E+00 0.  1.
</event>
<event>
 4    1  0.7181337E+003  0.2040950E+02  0.7546771E-02  0.1527865E+00
          2   -1    0    0  502    0  0.00000000000E+00  0.00000000000E+00  0.82260711100E+03  0.82260711100E+03  0.00000000000E+00 0. -1.
          1   -1    0    0  501    0 -0.00000000000E+00 -0.00000000000E+00 -0.29330682195E+01  0.29330682195E+01  0.00000000000E+00 0. -1.
          2    1    1    2  501    0 -0.12676769674E+02 -0.15995225366E+02  0.78528914979E+03  0.78555432435E+03  0.00000000000E+00 0. -1.
          1    1    1    2  502    0  0.12676769674E+02  0.15995225366E+02  0.34384892994E+02  0.39985854875E+02  0.00000000000E+00 0. -1.
</event>
<event>
 4    1  0.7181337E+003  0.2094165E+02  0.7546771E-02  0.1520100E+00
          2   -1    0    0  502    0  0.00000000000E+00  0.00000000000E+00  0.17481115198E+04  0.17481115198E+04  0.00000000000E+00 0.  1.
          1   -1    0    0  501    0 -0.00000000000E+00 -0.00000000000E+00 -0.25404930912E+00  0.25404930912E+00  0.00000000000E+00 0.  1.
          2    1    1    2  501    0  0.19364695450E+02 -0.79725239730E+01  0.97168843772E+03  0.97191407674E+03  0.00000000000E+00 0.  1.
          1    1    1    2  502    0 -0.19364695450E+02  0.79725239730E+01  0.77616903282E+03  0.77645149241E+03  0.00000000000E+00 0.  1.
</event>
<event>
 4    1  0.7181337E+003  0.2316755E+02  0.7546771E-02  0.1490405E+00
          2   -1    0    0  502    0  0.00000000000E+00  0.00000000000E+00  0.12283900342E+03  0.12283900342E+03  0.00000000000E+00 0. -1.
          1   -1    0    0  501    0 -0.00000000000E+00 -0.00000000000E+00 -0.15333306712E+04  0.15333306712E+04  0.00000000000E+00 0. -1.
          2    1    1    2  501    0 -0.11108087734E+02 -0.20330906883E+02  0.12165829494E+03  0.12384456433E+03  0.00000000000E+00 0. -1.
          1    1    1    2  502    0  0.11108087734E+02  0.20330906883E+02 -0.15321499628E+04  0.15323251103E+04  0.00000000000E+00 0. -1.
</event>
<event>
 4    1  0.7181337E+003  0.2703641E+02  0.7546771E-02  0.1447243E+00
          2   -1    0    0  502    0  0.00000000000E+00  0.00000000000E+00  0.19964073593E+03  0.19964073593E+03  0.00000000000E+00 0.  1.
          1   -1    0    0  501    0 -0.00000000000E+00 -0.00000000000E+00 -0.10351614188E+02  0.10351614188E+02  0.00000000000E+00 0.  1.
          2    1    1    2  501    0  0.12511024229E+02  0.23967515444E+02  0.17905360336E+03  0.18108329686E+03  0.00000000000E+00 0.  1.
          1    1    1    2  502    0 -0.12511024229E+02 -0.23967515444E+02  0.10235518377E+02  0.28909053258E+02  0.00000000000E+00 0.  1.
</event>
<event>
 4    1  0.7181337E+003  0.2282334E+02  0.7546771E-02  0.1494728E+00
          2   -1    0    0  502    0  0.00000000000E+00  0.00000000000E+00  0.12689196173E+04  0.12689196173E+04  0.00000000000E+00 0. -1.
          1   -1    0    0  501    0 -0.00000000000E+00 -0.00000000000E+00 -0.13912191331E+02  0.13912191331E+02  0.00000000000E+00 0. -1.
          2    1    1    2  501    0  0.22162707436E+02 -0.54515400416E+01  0.12593855489E+04  0.12595923411E+04  0.00000000000E+00 0. -1.
          1    1    1    2  502    0 -0.22162707436E+02  0.54515400416E+01 -0.43781229798E+01  0.23239467518E+02  0.00000000000E+00 0. -1.
</event>
<event>
 4    1  0.7181337E+003  0.2318063E+02  0.7546771E-02  0.1490242E+00
          2   -1    0    0  502    0  0.00000000000E+00  0.00000000000E+00  0.38119380096E+03  0.38119380096E+03  0.00000000000E+00 0.  1.
          1   -1    0    0  501    0 -0.00000000000E+00 -0.00000000000E+00 -0.14394467296E+01  0.14394467296E+01  0.00000000000E+00 0.  1.
          2    1    1    2  501    0  0.19710152961E+02 -0.12200475869E+02  0.21741274362E+03  0.21864501556E+03  0.00000000000E+00 0.  1.
          1    1    1    2  502    0 -0.19710152961E+02  0.12200475869E+02  0.16234161061E+03  0.16398823213E+03  0.00000000000E+00 0.  1.
</event>
<event>
 4    1  0.7181337E+003  0.2230612E+02  0.7546771E-02  0.1501400E+00
          2   -1    0    0  502    0  0.00000000000E+00  0.00000000000E+00  0.12683735953E+04  0.12683735953E+04  0.00000000000E+00 0. -1.
          1   -1    0    0  501    0 -0.00000000000E+00 -0.00000000000E+00 -0.28203508689E+01  0.28203508689E+01  0.00000000000E+00 0.  1.
          2    1    1    2  501    0  0.18251587865E+02  0.12823520113E+02  0.12225165593E+04  0.12227200419E+04  0.00000000000E+00 0. -1.
          1    1    1    2  502    0 -0.18251587865E+02 -0.12823520113E+02  0.43036685197E+02  0.48473904324E+02  0.00000000000E+00 0.  1.
</event>
<event>
 4    1  0.7181337E+003  0.3547629E+02  0.7546771E-02  0.1377245E+00
          2   -1    0    0  502    0  0.00000000000E+00  0.00000000000E+00  0.11104385694E+04  0.11104385694E+04  0.00000000000E+00 0. -1.
          1   -1    0    0  501    0 -0.00000000000E+00 -0.00000000000E+00 -0.53803730067E+02  0.53803730067E+02  0.00000000000E+00 0.  1.
          2    1    1    2  501    0  0.32962381454E+02 -0.13116733529E+02  0.11042746305E+04  0.11048443450E+04  0.00000000000E+00 0. -1.
          1    1    1    2  502    0 -0.32962381454E+02  0.13116733529E+02 -0.47639791136E+02  0.59397954418E+02  0.00000000000E+00 0.  1.
</event>
<event>
 4    1  0.7181337E+003  0.9417166E+02  0.7546771E-02  0.1174309E+00
          2   -1    0    0  502    0  0.00000000000E+00  0.00000000000E+00  0.98693839782E+03  0.98693839782E+03  0.00000000000E+00 0. -1.
          1   -1    0    0  501    0 -0.00000000000E+00 -0.00000000000E+00 -0.79959794624E+02  0.79959794624E+02  0.00000000000E+00 0.  1.
          2    1    1    2  501    0 -0.51545397249E+02  0.78812269304E+02  0.95607158381E+03  0.96069827476E+03  0.00000000000E+00 0. -1.
          1    1    1    2  502    0  0.51545397249E+02 -0.78812269304E+02 -0.49092980609E+02  0.10619991768E+03  0.00000000000E+00 0.  1.
</event>
<event>
 4    1  0.7181337E+003  0.2036462E+02  0.7546771E-02  0.1528533E+00
          2   -1    0    0  502    0  0.00000000000E+00  0.00000000000E+00  0.12773179653E+04  0.12773179653E+04  0.00000000000E+00 0. -1.
          1   -1    0    0  501    0 -0.00000000000E+00 -0.00000000000E+00 -0.33690764380E+01  0.33690764380E+01  0.00000000000E+00 0. -1.
          2    1    1    2  501    0 -0.19352347546E+02  0.63407035869E+01  0.12456814303E+04  0.12458478814E+04  0.00000000000E+00 0. -1.
          1    1    1    2  502    0  0.19352347546E+02 -0.63407035869E+01  0.28267458589E+02  0.34839160332E+02  0.00000000000E+00 0. -1.
</event>
<event>
 4    1  0.7181337E+003  0.2787522E+02  0.7546771E-02  0.1439009E+00
          2   -1    0    0  502    0  0.00000000000E+00  0.00000000000E+00  0.49476108847E+02  0.49476108847E+02  0.00000000000E+00 0.  1.
          1   -1    0    0  501    0 -0.00000000000E+00 -0.00000000000E+00 -0.20420615178E+03  0.20420615178E+03  0.00000000000E+00 0. -1.
          2    1    1    2  501    0  0.10524511475E+02  0.25812064240E+02  0.44500980611E+02  0.52510620616E+02  0.00000000000E+00 0.  1.
          1    1    1    2  502    0 -0.10524511475E+02 -0.25812064240E+02 -0.19923102354E+03  0.20117164001E+03  0.00000000000E+00 0. -1.
</event>
<event>
 4    1  0.7181337E+003  0.2379653E+02  0.7546771E-02  0.1482731E+00
          2   -1    0    0  502    0  0.00000000000E+00  0.00000000000E+00  0.31823502413E+02  0.31823502413E+02  0.00000000000E+00 0.  1.
          1   -1    0    0  501    0 -0.00000000000E+00 -0.00000000000E+00 -0.72251627905E+03  0.72251627905E+03  0.00000000000E+00 0. -1.
          2    1    1    2  501    0 -0.18048175252E+02 -0.15509299379E+02  0.27150050254E+02  0.36102634612E+02  0.00000000000E+00 0.  1.
          1    1    1    2  502    0  0.18048175252E+02  0.15509299379E+02 -0.71784282689E+03  0.71823714685E+03  0.00000000000E+00 0. -1.
</event>
<event>
 4    1  0.7181337E+003  0.2194114E+02  0.7546771E-02  0.1506240E+00
          2   -1    0    0  502    0  0.00000000000E+00  0.00000000000E+00  0.84934075581E+03  0.84934075581E+03  0.00000000000E+00 0.  1.
          1   -1    0    0  501    0 -0.00000000000E+00 -0.00000000000E+00 -0.97552249013E+01  0.97552249013E+01  0.00000000000E+00 0.  1.
          2    1    1    2  501    0 -0.17752703211E+02  0.12893998667E+02  0.83667499173E+03  0.83696263684E+03  0.00000000000E+00 0.  1.
          1    1    1    2  502    0  0.17752703211E+02 -0.12893998667E+02  0.29105391817E+01  0.22133343878E+02  0.00000000000E+00 0.  1.
</event>
<event>
 4    1  0.7181337E+003  0.3518415E+02  0.7546771E-02  0.1379273E+00
          2   -1    0    0  502    0  0.00000000000E+00  0.00000000000E+00  0.16866693218E+02  0.16866693218E+02  0.00000000000E+00 0.  1.
          1   -1    0    0  501    0 -0.00000000000E+00 -0.00000000000E+00 -0.43210483356E+03  0.43210483356E+03  0.00000000000E+00 0.  1.
          2    1    1    2  501    0  0.34694511748E+02 -0.58493701069E+01 -0.30847826390E+01  0.35319118902E+02  0.00000000000E+00 0.  1.
          1    1    1    2  502    0 -0.34694511748E+02  0.58493701069E+01 -0.41215335770E+03  0.41365240788E+03  0.00000000000E+00 0.  1.
</event>
<event>
 4    1  0.7181337E+003  0.2036894E+02  0.7546771E-02  0.1528469E+00
          2   -1    0    0  502    0  0.00000000000E+00  0.00000000000E+00  0.22663030435E+03  0.22663030435E+03  0.00000000000E+00 0.  1.
          1   -1    0    0  501    0 -0.00000000000E+00 -0.00000000000E+00 -0.37230344537E+03  0.37230344537E+03  0.00000000000E+00 0.  1.
          2    1    1    2  501    0 -0.81429823643E+01  0.18670442191E+02  0.22589312131E+03  0.22680960260E+03  0.00000000000E+00 0.  1.
          1    1    1    2  502    0  0.81429823643E+01 -0.18670442191E+02 -0.37156626233E+03  0.37212414713E+03  0.00000000000E+00 0.  1.
</event>
<event>
 4    1  0.7181337E+003  0.2282356E+02  0.7546771E-02  0.1494726E+00
          2   -1    0    0  502    0  0.00000000000E+00  0.00000000000E+00  0.71949575892E+00  0.71949575892E+00  0.00000000000E+00 0.  1.
          1   -1    0    0  501    0 -0.00000000000E+00 -0.00000000000E+00 -0.96581152179E+03  0.96581152179E+03  0.00000000000E+00 0.  1.
          2    1    1    2  501    0  0.15652670550E+02  0.16610497909E+02 -0.24073373660E+03  0.24181324751E+03  0.00000000000E+00 0.  1.
          1    1    1    2  502    0 -0.15652670550E+02 -0.16610497909E+02 -0.72435828944E+03  0.72471777004E+03  0.00000000000E+00 0.  1.
</event>
<event>
 4    1  0.7181337E+003  0.2923827E+02  0.7546771E-02  0.1426333E+00
          2   -1    0    0  502    0  0.00000000000E+00  0.00000000000E+00  0.64282970828E+02  0.64282970828E+02  0.00000000000E+00 0.  1.
          1   -1    0    0  501    0 -0.00000000000E+00 -0.00000000000E+00 -0.59731661718E+03  0.59731661718E+03  0.00000000000E+00 0.  1.
          2    1    1    2  501    0  0.20703997935E+02 -0.20645121888E+02  0.60579782161E+02  0.67266533989E+02  0.00000000000E+00 0.  1.
          1    1    1    2  502    0 -0.20703997935E+02  0.20645121888E+02 -0.59361342852E+03  0.59433305402E+03  0.00000000000E+00 0.  1.
</event>
<event>
 4    1  0.7181337E+003  0.2140317E+02  0.7546771E-02  0.1513586E+00
          2   -1    0    0  502    0  0.00000000000E+00  0.00000000000E+00  0.37839040312E+03  0.37839040312E+03  0.00000000000E+00 0. -1.
          1   -1    0    0  501    0 -0.00000000000E+00 -0.00000000000E+00 -0.78301892972E+02  0.78301892972E+02  0.00000000000E+00 0.  1.
          2    1    1    2  501    0  0.28815609320E+01 -0.21208307457E+02  0.37661827127E+03  0.37722595079E+03  0.00000000000E+00 0. -1.
          1    1    1    2  502    0 -0.28815609320E+01  0.21208307457E+02 -0.76529761118E+02  0.79466345301E+02  0.00000000000E+00 0.  1.
</event>
<event>
 4    1  0.7181337E+003  0.2121679E+02  0.7546771E-02  0.1516192E+00
          2   -1    0    0  502    0  0.00000000000E+00  0.00000000000E+00  0.31356843507E+01  0.31356843507E+01  0.00000000000E+00 0. -1.
          1   -1    0    0  501    0 -0.00000000000E+00 -0.00000000000E+00 -0.22948312090E+03  0.22948312090E+03  0.00000000000E+00 0.  1.
          2    1    1    2  501    0  0.20339773558E+02  0.60370366554E+01 -0.42003249103E+02  0.47057678812E+02  0.00000000000E+00 0. -1.
          1    1    1    2  502    0 -0.20339773558E+02 -0.60370366554E+01 -0.18434418745E+03  0.18556112644E+03  0.00000000000E+00 0.  1.
</event>
<event>
 4    1  0.7181337E+003  0.2730334E+02  0.7546771E-02  0.1444585E+00
          2   -1    0    0  502    0  0.00000000000E+00  0.00000000000E+00  0.21578014642E+03  0.21578014642E+03  0.00000000000E+00 0. -1.
          1   -1    0    0  501    0 -0.00000000000E+00 -0.00000000000E+00 -0.16440571595E+02  0.16440571595E+02  0.00000000000E+00 0.  1.
          2    1    1    2  501    0  0.20794798912E+02 -0.17693177890E+02  0.20286196624E+03  0.20469110765E+03  0.00000000000E+00 0. -1.
          1    1    1    2  502    0 -0.20794798912E+02  0.17693177890E+02 -0.35223914111E+01  0.27529610366E+02  0.00000000000E+00 0.  1.
</event>
<event>
 4    1  0.7181337E+003  0.2142244E+02  0.7546771E-02  0.1513318E+00
          2   -1    0    0  502    0  0.00000000000E+00  0.00000000000E+00  0.10602356640E+02  0.10602356640E+02  0.00000000000E+00 0. -1.
          1   -1    0    0  501    0 -0.00000000000E+00 -0.00000000000E+00 -0.68034138864E+02  0.68034138864E+02  0.00000000000E+00 0.  1.
          2    1    1    2  501    0 -0.20492296829E+02 -0.62439323777E+01 -0.50014725132E+01  0.21998537409E+02  0.00000000000E+00 0. -1.
          1    1    1    2  502    0  0.20492296829E+02  0.62439323777E+01 -0.52430309710E+02  0.56637958095E+02  0.00000000000E+00 0.  1.
</event>
<event>
 4    1  0.7181337E+003  0.2902939E+02  0.7546771E-02  0.1428223E+00
          2   -1    0    0  502    0  0.00000000000E+00  0.00000000000E+00  0.19572387102E+01  0.19572387102E+01  0.00000000000E+00 0. -1.
          1   -1    0    0  501    0 -0.00000000000E+00 -0.00000000000E+00 -0.48046956850E+03  0.48046956850E+03  0.00000000000E+00 0.  1.
          2    1    1    2  501    0  0.95774504291E+01 -0.27403976367E+02 -0.16151204301E+03  0.16410010821E+03  0.00000000000E+00 0. -1.
          1    1    1    2  502    0 -0.95774504291E+01  0.27403976367E+02 -0.31700028678E+03  0.31832669900E+03  0.00000000000E+00 0.  1.
</event>
<event>
 4    1  0.7181337E+003  0.3081494E+02  0.7546771E-02  0.1412644E+00
          2   -1    0    0  502    0  0.00000000000E+00  0.00000000000E+00  0.68316661991E+00  0.68316661991E+00  0.00000000000E+00 0. -1.
          1   -1    0    0  501    0 -0.00000000000E+00 -0.00000000000E+00 -0.14041624112E+04  0.14041624112E+04  0.00000000000E+00 0. -1.
          2    1    1    2  501    0  0.30587545196E+02 -0.37365203839E+01 -0.77243666576E+03  0.77305107342E+03  0.00000000000E+00 0. -1.
          1    1    1    2  502    0 -0.30587545196E+02  0.37365203839E+01 -0.63104257879E+03  0.63179450437E+03  0.00000000000E+00 0. -1.
</event>
<event>
 4    1  0.7181337E+003  0.2247737E+02  0.7546771E-02  0.1499167E+00
          2   -1    0    0  502    0  0.00000000000E+00  0.00000000000E+00  0.58617160662E+03  0.58617160662E+03  0.00000000000E+00 0. -1.
          1   -1    0    0  501    0 -0.00000000000E+00 -0.00000000000E+00 -0.11561150275E+02  0.11561150275E+02  0.00000000000E+00 0. -1.
          2    1    1    2  501    0 -0.19568745813E+02  0.11058759196E+02  0.57481515361E+03  0.57525445917E+03  0.00000000000E+00 0. -1.
          1    1    1    2  502    0  0.19568745813E+02 -0.11058759196E+02 -0.20469727257E+00  0.22478297725E+02  0.00000000000E+00 0. -1.
</event>
<event>
 4    1  0.7181337E+003  0.3443202E+02  0.7546771E-02  0.1384601E+00
          2   -1    0    0  502    0  0.00000000000E+00  0.00000000000E+00  0.43451911317E+03  0.43451911317E+03  0.00000000000E+00 0. -1.
          1   -1    0    0  501    0 -0.00000000000E+00 -0.00000000000E+00 -0.83030505971E+01  0.83030505971E+01  0.00000000000E+00 0.  1.
          2    1    1    2  501    0 -0.20823925261E+02 -0.27421309225E+02  0.39452894733E+03  0.39602860294E+03  0.00000000000E+00 0. -1.
          1    1    1    2  502    0  0.20823925261E+02  0.27421309225E+02  0.31687115249E+02  0.46793560836E+02  0.00000000000E+00 0.  1.
</event>
<event>
 4    1  0.7181337E+003  0.2090301E+02  0.7546771E-02  0.1520654E+00
          2   -1    0    0  502    0  0.00000000000E+00  0.00000000000E+00  0.49311068335E+03  0.49311068335E+03  0.00000000000E+00 0.  1.
          1   -1    0    0  501    0 -0.00000000000E+00 -0.00000000000E+00 -0.57813546472E+01  0.57813546472E+01  0.00000000000E+00 0. -1.
          2    1    1    2  501    0 -0.10966177597E+02 -0.17795465610E+02  0.47320039052E+03  0.47366184693E+03  0.00000000000E+00 0.  1.
          1    1    1    2  502    0  0.10966177597E+02  0.17795465610E+02  0.14128938191E+02  0.25230191077E+02  0.00000000000E+00 0. -1.
</event>
<event>
 4    1  0.7181337E+003  0.2739179E+02  0.7546771E-02  0.1443712E+00
          2   -1    0    0  502    0  0.00000000000E+00  0.00000000000E+00  0.11868761205E+04  0.11868761205E+04  0.00000000000E+00 0. -1.
          1   -1    0    0  501    0 -0.00000000000E+00 -0.00000000000E+00 -0.77274486651E+00  0.77274486651E+00  0.00000000000E+00 0.  1.
          2    1    1    2  501    0  0.13720820393E+02 -0.23707576326E+02  0.84632558941E+03  0.84676874846E+03  0.00000000000E+00 0. -1.
          1    1    1    2  502    0 -0.13720820393E+02  0.23707576326E+02  0.33977778620E+03  0.34088011687E+03  0.00000000000E+00 0.  1.
</event>
<event>
 4    1  0.7181337E+003  0.3085574E+02  0.7546771E-02  0.1412303E+00
          2   -1    0    0  502    0  0.00000000000E+00  0.00000000000E+00  0.20680031888E+04  0.20680031888E+04  0.00000000000E+00 0.  1.
          1   -1    0    0  501    0 -0.00000000000E+00 -0.00000000000E+00 -0.83799145215E+00  0.83799145215E+00  0.00000000000E+00 0.  1.
          2    1    1    2  501    0 -0.25177543527E+02 -0.17837264327E+02  0.17279628009E+04  0.17282382701E+04  0.00000000000E+00 0.  1.
          1    1    1    2  502    0  0.25177543527E+02  0.17837264327E+02  0.33920239639E+03  0.34060291017E+03  0.00000000000E+00 0.  1.
</event>
<event>
 4    1  0.7181337E+003  0.2913474E+02  0.7546771E-02  0.1427267E+00
          2   -1    0    0  502    0  0.00000000000E+00  0.00000000000E+00  0.35747263920E+03  0.35747263920E+03  0.00000000000E+00 0. -1.
          1   -1    0    0  501    0 -0.00000000000E+00 -0.00000000000E+00 -0.55203348118E+01  0.55203348118E+01  0.00000000000E+00 0. -1.
          2    1    1    2  501    0 -0.28480296429E+02 -0.61405253739E+01  0.31298564560E+03  0.31433874671E+03  0.00000000000E+00 0. -1.
          1    1    1    2  502    0  0.28480296429E+02  0.61405253739E+01  0.38966658793E+02  0.48654227298E+02  0.00000000000E+00 0. -1.
</event>
<event>
 4    1  0.7181337E+003  0.2317606E+02  0.7546771E-02  0.1490299E+00
          2   -1    0    0  502    0  0.00000000000E+00  0.00000000000E+00  0.12372335599E+03  0.12372335599E+03  0.00000000000E+00 0. -1.
          1   -1    0    0  501    0 -0.00000000000E+00 -0.00000000000E+00 -0.81472042282E+02  0.81472042282E+02  0.00000000000E+00 0. -1.
          2    1    1    2  501    0 -0.15287535688E+02  0.17418978602E+02  0.12095239078E+03  0.12315279290E+03  0.00000000000E+00 0. -1.
          1    1    1    2  502    0  0.15287535688E+02 -0.17418978602E+02 -0.78701077077E+02  0.82042605371E+02  0.00000000000E+00 0. -1.
</event>
<event>
 4    1  0.7181337E+003  0.2050157E+02  0.7546771E-02  0.1526501E+00
          2   -1    0    0  502    0  0.00000000000E+00  0.00000000000E+00  0.91475482846E+03  0.91475482846E+03  0.00000000000E+00 0.  1.
          1   -1    0    0  501    0 -0.00000000000E+00 -0.00000000000E+00 -0.26763755842E+01  0.26763755842E+01  0.00000000000E+00 0. -1.
          2    1    1    2  501    0  0.19103322793E+02 -0.74416121673E+01  0.87352557759E+03  0.87376612960E+03  0.00000000000E+00 0.  1.
          1    1    1    2  502    0 -0.19103322793E+02  0.74416121673E+01  0.38552875288E+02  0.43665074446E+02  0.00000000000E+00 0. -1.
</event>
<event>
 4    1  0.7181337E+003  0.3443946E+02  0.7546771E-02  0.1384547E+00
          2   -1    0    0  502    0  0.00000000000E+00  0.00000000000E+00  0.20328399619E+02  0.20328399619E+02  0.00000000000E+00 0. -1.
          1   -1    0    0  501    0 -0.00000000000E+00 -0.00000000000E+00 -0.18322458399E+03  0.18322458399E+03  0.00000000000E+00 0. -1.
          2    1    1    2  501    0 -0.22697145088E+02  0.25902047204E+02  0.25752515415E+01  0.34535610101E+02  0.00000000000E+00 0. -1.
          1    1    1    2  502    0  0.22697145088E+02 -0.25902047204E+02 -0.16547143591E+03  0.16901737351E+03  0.00000000000E+00 0. -1.
</event>
<event>
 4    1  0.7181337E+003  0.2150972E+02  0.7546771E-02  0.1512110E+00
          2   -1    0    0  502    0  0.00000000000E+00  0.00000000000E+00  0.52810638913E+02  0.52810638913E+02  0.00000000000E+00 0. -1.
          1   -1    0    0  501    0 -0.00000000000E+00 -0.00000000000E+00 -0.70280541970E+03  0.70280541970E+03  0.00000000000E+00 0.  1.
          2    1    1    2  501    0 -0.20870987636E+02 -0.52028799728E+01  0.50448453341E+02  0.54842634231E+02  0.00000000000E+00 0. -1.
          1    1    1    2  502    0  0.20870987636E+02  0.52028799728E+01 -0.70044323413E+03  0.70077342438E+03  0.00000000000E+00 0.  1.
</event>
<event>
 4    1  0.7181337E+003  0.2910513E+02  0.7546771E-02  0.1427535E+00
          2   -1    0    0  502    0  0.00000000000E+00  0.00000000000E+00  0.13550025430E+03  0.13550025430E+03  0.00000000000E+00 0. -1.
          1   -1    0    0  501    0 -0.00000000000E+00 -0.00000000000E+00 -0.16913796827E+02  0.16913796827E+02  0.00000000000E+00 0.  1.
          2    1    1    2  501    0 -0.20283110308E+02 -0.20873531088E+02  0.11979881568E+03  0.12328367735E+03  0.00000000000E+00 0. -1.
          1    1    1    2  502    0  0.20283110308E+02  0.20873531088E+02 -0.12123582047E+01  0.29130373775E+02  0.00000000000E+00 0.  1.
</event>
<event>
 4    1  0.7181337E+003  0.2616006E+02  0.7546771E-02  0.1456233E+00
          2   -1    0    0  502    0  0.00000000000E+00  0.00000000000E+00  0.24031713492E+04  0.24031713492E+04  0.00000000000E+00 0. -1.
          1   -1    0    0  501    0 -0.00000000000E+00 -0.00000000000E+00 -0.29227010081E+00  0.29227010081E+00  0.00000000000E+00 0.  1.
          2    1    1    2  501    0 -0.87340501702E+01  0.24658966207E+02  0.10089162177E+04  0.10092553109E+04  0.00000000000E+00 0. -1.
          1    1    1    2  502    0  0.87340501702E+01 -0.24658966207E+02  0.13939628614E+04  0.13942083084E+04  0.00000000000E+00 0.  1.
</event>
<event>
 4    1  0.7181337E+003  0.2834618E+02  0.7546771E-02  0.1434535E+00
          2   -1    0    0  502    0  0.00000000000E+00  0.00000000000E+00  0.87125945080E+03  0.87125945080E+03  0.00000000000E+00 0. -1.
          1   -1    0    0  501    0 -0.00000000000E+00 -0.00000000000E+00 -0.19332351136E+03  0.19332351136E+03  0.00000000000E+00 0.  1.
          2    1    1    2  501    0  0.20946403379E+02  0.19098542838E+02  0.86998830484E+03  0.87044997369E+03  0.00000000000E+00 0. -1.
          1    1    1    2  502    0 -0.20946403379E+02 -0.19098542838E+02 -0.19205236540E+03  0.19413298846E+03  0.00000000000E+00 0.  1.
</event>
<event>
 4    1  0.7181337E+003  0.2177100E+02  0.7546771E-02  0.1508535E+00
          2   -1    0    0  502    0  0.00000000000E+00  0.00000000000E+00  0.60973565563E+02  0.60973565563E+02  0.00000000000E+00 0. -1.
          1   -1    0    0  501    0 -0.00000000000E+00 -0.00000000000E+00 -0.21725989920E+03  0.21725989920E+03  0.00000000000E+00 0.  1.
          2    1    1    2  501    0 -0.19118583052E+02  0.10414240665E+02  0.58462124219E+02  0.62384265603E+02  0.00000000000E+00 0. -1.
          1    1    1    2  502    0  0.19118583052E+02 -0.10414240665E+02 -0.21474845786E+03  0.21584919916E+03  0.00000000000E+00 0.  1.
</event>
<event>
 4    1  0.7181337E+003  0.2244669E+02  0.7546771E-02  0.1499565E+00
          2   -1    0    0  502    0  0.00000000000E+00  0.00000000000E+00  0.46281906250E+03  0.46281906250E+03  0.00000000000E+00 0. -1.
          1   -1    0    0  501    0 -0.00000000000E+00 -0.00000000000E+00 -0.28782222225E+01  0.28782222225E+01  0.00000000000E+00 0. -1.
          2    1    1    2  501    0  0.21122282911E+02 -0.75962530436E+01  0.41357546549E+03  0.41418416139E+03  0.00000000000E+00 0. -1.
          1    1    1    2  502    0 -0.21122282911E+02  0.75962530436E+01  0.46365374785E+02  0.51513123325E+02  0.00000000000E+00 0. -1.
</event>
<event>
 4    1  0.7181337E+003  0.2763580E+02  0.7546771E-02  0.1441324E+00
          2   -1    0    0  502    0  0.00000000000E+00  0.00000000000E+00  0.91431304413E+01  0.91431304413E+01  0.00000000000E+00 0. -1.
          1   -1    0    0  501    0 -0.00000000000E+00 -0.00000000000E+00 -0.13044250922E+04  0.13044250922E+04  0.00000000000E+00 0.  1.
          2    1    1    2  501    0  0.58939637889E+01  0.26999974423E+02 -0.12233956953E+02  0.30222626138E+02  0.00000000000E+00 0. -1.
          1    1    1    2  502    0 -0.58939637889E+01 -0.26999974423E+02 -0.12830480048E+04  0.12833455965E+04  0.00000000000E+00 0.  1.
</event>
<event>
 4    1  0.7181337E+003  0.3834219E+02  0.7546771E-02  0.1358484E+00
          2   -1    0    0  502    0  0.00000000000E+00  0.00000000000E+00  0.20064059136E+04  0.20064059136E+04  0.00000000000E+00 0. -1.
          1   -1    0    0  501    0 -0.00000000000E+00 -0.00000000000E+00 -0.16396051612E+01  0.16396051612E+01  0.00000000000E+00 0.  1.
          2    1    1    2  501    0 -0.44628989572E+01  0.38081566448E+02  0.17490920559E+04  0.17495122586E+04  0.00000000000E+00 0. -1.
          1    1    1    2  502    0  0.44628989572E+01 -0.38081566448E+02  0.25567425257E+03  0.25853326014E+03  0.00000000000E+00 0.  1.
</event>
<event>
 4    1  0.7585081E+003  0.2531810E+02  0.7546771E-02  0.1465276E+00
          2   -1    0    0  502    0  0.00000000000E+00  0.00000000000E+00  0.14182593422E+04  0.14182593422E+04  0.00000000000E+00 0. -1.
          1   -1    0    0  501    0 -0.00000000000E+00 -0.00000000000E+00 -0.17865670317E+03  0.17865670317E+03  0.00000000000E+00 0.  1.
          2    1    1    2  501    0  0.22796874065E+02  0.11014030012E+02  0.14172487304E+04  0.14174748569E+04  0.00000000000E+00 0. -1.
          1    1    1    2  502    0 -0.22796874065E+02 -0.11014030012E+02 -0.17764609136E+03  0.17944118842E+03  0.00000000000E+00 0.  1.
</event>
<event>
 4    1  0.7181337E+003  0.2134538E+02  0.7546771E-02  0.1514390E+00
          2   -1    0    0  502    0  0.00000000000E+00  0.00000000000E+00  0.12715505400E+03  0.12715505400E+03  0.00000000000E+00 0. -1.
          1   -1    0    0  501    0 -0.00000000000E+00 -0.00000000000E+00 -0.14034329700E+02  0.14034329700E+02  0.00000000000E+00 0. -1.
          2    1    1    2  501    0  0.19407116662E+02  0.88875899052E+01  0.11747999337E+03  0.11940340981E+03  0.00000000000E+00 0. -1.
          1    1    1    2  502    0 -0.19407116662E+02 -0.88875899052E+01 -0.43592690724E+01  0.21785973890E+02  0.00000000000E+00 0. -1.
</event>
<event>
 4    1  0.7181337E+003  0.2239162E+02  0.7546771E-02  0.1500282E+00
          2   -1    0    0  502    0  0.00000000000E+00  0.00000000000E+00  0.80262083384E+03  0.80262083384E+03  0.00000000000E+00 0. -1.
          1   -1    0    0  501    0 -0.00000000000E+00 -0.00000000000E+00 -0.18661397343E+01  0.18661397343E+01  0.00000000000E+00 0.  1.
          2    1    1    2  501    0 -0.18818691560E+02  0.12134314926E+02  0.72845940619E+03  0.72880346543E+03  0.00000000000E+00 0. -1.
          1    1    1    2  502    0  0.18818691560E+02 -0.12134314926E+02  0.72295287914E+02  0.75683508146E+02  0.00000000000E+00 0.  1.
</event>
<event>
 4    1  0.7181337E+003  0.6127985E+02  0.7546771E-02  0.1255545E+00
          2   -1    0    0  502    0  0.00000000000E+00  0.00000000000E+00  0.18671045582E+04  0.18671045582E+04  0.00000000000E+00 0.  1.
          1   -1    0    0  501    0 -0.00000000000E+00 -0.00000000000E+00 -0.22999105834E+03  0.22999105834E+03  0.00000000000E+00 0.  1.
          2    1    1    2  501    0  0.59682682368E+02 -0.13899562485E+02  0.18625097575E+04  0.18635175924E+04  0.00000000000E+00 0.  1.
          1    1    1    2  502    0 -0.59682682368E+02  0.13899562485E+02 -0.22539625763E+03  0.23357802415E+03  0.00000000000E+00 0.  1.
</event>
<event>
 4    1  0.7181337E+003  0.2165284E+02  0.7546771E-02  0.1510145E+00
          2   -1    0    0  502    0  0.00000000000E+00  0.00000000000E+00  0.36904583843E+02  0.36904583843E+02  0.00000000000E+00 0.  1.
          1   -1    0    0  501    0 -0.00000000000E+00 -0.00000000000E+00 -0.13949144549E+03  0.13949144549E+03  0.00000000000E+00 0.  1.
          2    1    1    2  501    0 -0.20441471617E+02 -0.71408465158E+01  0.32792377121E+02  0.39296125103E+02  0.00000000000E+00 0.  1.
          1    1    1    2  502    0  0.20441471617E+02  0.71408465158E+01 -0.13537923877E+03  0.13709990423E+03  0.00000000000E+00 0.  1.
</event>
<event>
 4    1  0.7181337E+003  0.2467421E+02  0.7546771E-02  0.1472481E+00
          2   -1    0    0  502    0  0.00000000000E+00  0.00000000000E+00  0.12584387795E+04  0.12584387795E+04  0.00000000000E+00 0.  1.
          1   -1    0    0  501    0 -0.00000000000E+00 -0.00000000000E+00 -0.61621625897E+01  0.61621625897E+01  0.00000000000E+00 0.  1.
          2    1    1    2  501    0 -0.63208167082E+01  0.23850866232E+02  0.12331107589E+04  0.12333575963E+04  0.00000000000E+00 0.  1.
          1    1    1    2  502    0  0.63208167082E+01 -0.23850866232E+02  0.19165857955E+02  0.31243345772E+02  0.00000000000E+00 0.  1.
</event>
<event>
 4    1  0.7181337E+003  0.2309397E+02  0.7546771E-02  0.1491322E+00
          2   -1    0    0  502    0  0.00000000000E+00  0.00000000000E+00  0.30950083681E+03  0.30950083681E+03  0.00000000000E+00 0.  1.
          1   -1    0    0  501    0 -0.00000000000E+00 -0.00000000000E+00 -0.44438807402E+03  0.44438807402E+03  0.00000000000E+00 0. -1.
          2    1    1    2  501    0 -0.78220085564E+01 -0.21728954228E+02  0.30876929051E+03  0.30963172646E+03  0.00000000000E+00 0.  1.
          1    1    1    2  502    0  0.78220085564E+01  0.21728954228E+02 -0.44365652772E+03  0.44425718437E+03  0.00000000000E+00 0. -1.
</event>
<event>
 4    1  0.7181337E+003  0.2000208E+02  0.7546771E-02  0.1534004E+00
          2   -1    0    0  502    0  0.00000000000E+00  0.00000000000E+00  0.22859400333E+03  0.22859400333E+03  0.00000000000E+00 0.  1.
          1   -1    0    0  501    0 -0.00000000000E+00 -0.00000000000E+00 -0.37408748198E+01  0.37408748198E+01  0.00000000000E+00 0.  1.
          2    1    1    2  501    0  0.18911787025E+02  0.65136545909E+01  0.19716859499E+03  0.19818056977E+03  0.00000000000E+00 0.  1.
          1    1    1    2  502    0 -0.18911787025E+02 -0.65136545909E+01  0.27684533524E+02  0.34154308382E+02  0.00000000000E+00 0.  1.
</event>
