<event>
 4    1  0.5843276E+002  0.2487884E+02  0.7546771E-02  0.1470163E+00
          2   -1    0    0  503    0  0.00000000000E+00  0.00000000000E+00  0.12251063200E+04  0.12251063200E+04  0.00000000000E+00 0.  1.
         -2   -1    0    0    0  501 -0.00000000000E+00 -0.00000000000E+00 -0.66523649758E+00  0.66523649758E+00  0.00000000000E+00 0. -1.
         21    1    1    2  502  501  0.22426547647E+02 -0.10770639884E+02  0.31163750649E+03  0.31262900086E+03  0.00000000000E+00 0. -1.
         21    1    1    2  503  502 -0.22426547647E+02  0.10770639884E+02  0.91280357704E+03  0.91314255567E+03  0.00000000000E+00 0.  1.
</event>
<event>
 4    1  0.5843276E+002  0.2248536E+02  0.7546771E-02  0.1499064E+00
          2   -1    0    0  502    0  0.00000000000E+00  0.00000000000E+00  0.19467302081E+02  0.19467302081E+02  0.00000000000E+00 0.  1.
         -2   -1    0    0    0  501 -0.00000000000E+00 -0.00000000000E+00 -0.12874069443E+03  0.12874069443E+03  0.00000000000E+00 0. -1.
         21    1    1    2  502  503  0.21523500593E+02  0.65061667002E+01  0.11572086145E+02  0.25288425428E+02  0.00000000000E+00 0.  1.
         21    1    1    2  503  501 -0.21523500593E+02 -0.65061667002E+01 -0.12084547849E+03  0.12291957108E+03  0.00000000000E+00 0. -1.
</event>
<event>
 4    1  0.5843276E+002  0.2856999E+02  0.7546771E-02  0.1432444E+00
          2   -1    0    0  502    0  0.00000000000E+00  0.00000000000E+00  0.45571896151E+03  0.45571896151E+03  0.00000000000E+00 0.  1.
         -2   -1    0    0    0  501 -0.00000000000E+00 -0.00000000000E+00 -0.24537705239E+02  0.24537705239E+02  0.00000000000E+00 0. -1.
         21    1    1    2  502  503 -0.28085696889E+02  0.52381374399E+01  0.44678890825E+03  0.44770143286E+03  0.00000000000E+00 0.  1.
         21    1    1    2  503  501  0.28085696889E+02 -0.52381374399E+01 -0.15607651974E+02  0.32555233891E+02  0.00000000000E+00 0. -1.
</event>
<event>
 4    1  0.5843276E+002  0.3062923E+02  0.7546771E-02  0.1414206E+00
          2   -1    0    0  503    0  0.00000000000E+00  0.00000000000E+00  0.79770263452E+03  0.79770263452E+03  0.00000000000E+00 0.  1.
         -2   -1    0    0    0  501 -0.00000000000E+00 -0.00000000000E+00 -0.12417009268E+01  0.12417009268E+01  0.00000000000E+00 0. -1.
         21    1    1    2  502  501  0.14478436039E+02 -0.26991193990E+02  0.49007447931E+03  0.49103069653E+03  0.00000000000E+00 0. -1.
         21    1    1    2  503  502 -0.14478436039E+02  0.26991193990E+02  0.30638645429E+03  0.30791363892E+03  0.00000000000E+00 0.  1.
</event>
<event>
 4    1  0.5843276E+002  0.2500388E+02  0.7546771E-02  0.1468760E+00
          2   -1    0    0  503    0  0.00000000000E+00  0.00000000000E+00  0.37714118377E+02  0.37714118377E+02  0.00000000000E+00 0.  1.
         -2   -1    0    0    0  501 -0.00000000000E+00 -0.00000000000E+00 -0.77303428985E+02  0.77303428985E+02  0.00000000000E+00 0. -1.
         21    1    1    2  502  501 -0.20879738794E+02  0.13756110094E+02 -0.70765628340E+02  0.75053102610E+02  0.00000000000E+00 0. -1.
         21    1    1    2  503  502  0.20879738794E+02 -0.13756110094E+02  0.31176317731E+02  0.39964444752E+02  0.00000000000E+00 0.  1.
</event>
<event>
 4    1  0.5843276E+002  0.2100449E+02  0.7546771E-02  0.1519201E+00
          2   -1    0    0  503    0  0.00000000000E+00  0.00000000000E+00  0.27164238124E+02  0.27164238124E+02  0.00000000000E+00 0. -1.
         -2   -1    0    0    0  501 -0.00000000000E+00 -0.00000000000E+00 -0.28321880296E+02  0.28321880296E+02  0.00000000000E+00 0.  1.
         21    1    1    2  502  501 -0.30821952676E+01  0.20777121756E+02 -0.18697774945E+02  0.28121086466E+02  0.00000000000E+00 0.  1.
         21    1    1    2  503  502  0.30821952676E+01 -0.20777121756E+02  0.17540132773E+02  0.27365031954E+02  0.00000000000E+00 0. -1.
</event>
<event>
 4    1  0.5843276E+002  0.2593386E+02  0.7546771E-02  0.1458622E+00
          2   -1    0    0  503    0  0.00000000000E+00  0.00000000000E+00  0.73003975324E+03  0.73003975324E+03  0.00000000000E+00 0. -1.
         -2   -1    0    0    0  501 -0.00000000000E+00 -0.00000000000E+00 -0.71208955417E+01  0.71208955417E+01  0.00000000000E+00 0.  1.
         21    1    1    2  502  501  0.10077461342E+02  0.23895809899E+02  0.17547285645E+02  0.31312492577E+02  0.00000000000E+00 0.  1.
         21    1    1    2  503  502 -0.10077461342E+02 -0.23895809899E+02  0.70537157205E+03  0.70584815621E+03  0.00000000000E+00 0. -1.
</event>
<event>
 4    1  0.5843276E+002  0.2720009E+02  0.7546771E-02  0.1445608E+00
          2   -1    0    0  502    0  0.00000000000E+00  0.00000000000E+00  0.28872460451E+03  0.28872460451E+03  0.00000000000E+00 0. -1.
         -2   -1    0    0    0  501 -0.00000000000E+00 -0.00000000000E+00 -0.26082658880E+01  0.26082658880E+01  0.00000000000E+00 0.  1.
         21    1    1    2  502  503 -0.14928875114E+02 -0.22737049074E+02  0.16236242391E+03  0.16462503276E+03  0.00000000000E+00 0. -1.
         21    1    1    2  503  501  0.14928875114E+02  0.22737049074E+02  0.12375391471E+03  0.12670783763E+03  0.00000000000E+00 0.  1.
</event>
<event>
 4    1  0.5843276E+002  0.2378374E+02  0.7546771E-02  0.1482884E+00
          2   -1    0    0  503    0  0.00000000000E+00  0.00000000000E+00  0.12046293993E+04  0.12046293993E+04  0.00000000000E+00 0. -1.
         -2   -1    0    0    0  501 -0.00000000000E+00 -0.00000000000E+00 -0.80466007396E+00  0.80466007396E+00  0.00000000000E+00 0.  1.
         21    1    1    2  502  501  0.53063970922E+01  0.23184229771E+02  0.21297163744E+03  0.21429555458E+03  0.00000000000E+00 0.  1.
         21    1    1    2  503  502 -0.53063970922E+01 -0.23184229771E+02  0.99085310179E+03  0.99113850479E+03  0.00000000000E+00 0. -1.
</event>
<event>
 4    1  0.5843276E+002  0.3606487E+02  0.7546771E-02  0.1373228E+00
          2   -1    0    0  502    0  0.00000000000E+00  0.00000000000E+00  0.47401090235E+03  0.47401090235E+03  0.00000000000E+00 0. -1.
         -2   -1    0    0    0  501 -0.00000000000E+00 -0.00000000000E+00 -0.37144827617E+01  0.37144827617E+01  0.00000000000E+00 0.  1.
         21    1    1    2  502  503  0.79896020628E+01 -0.35168752819E+02  0.35724331548E+03  0.35905913353E+03  0.00000000000E+00 0. -1.
         21    1    1    2  503  501 -0.79896020628E+01  0.35168752819E+02  0.11305310410E+03  0.11866625158E+03  0.00000000000E+00 0.  1.
</event>
<event>
 4    1  0.5843276E+002  0.4082196E+02  0.7546771E-02  0.1343735E+00
          2   -1    0    0  503    0  0.00000000000E+00  0.00000000000E+00  0.12984099454E+04  0.12984099454E+04  0.00000000000E+00 0.  1.
         -2   -1    0    0    0  501 -0.00000000000E+00 -0.00000000000E+00 -0.72093153364E+01  0.72093153364E+01  0.00000000000E+00 0. -1.
         21    1    1    2  502  501 -0.40798502196E+02  0.13837373247E+01  0.53744714237E+02  0.67490197947E+02  0.00000000000E+00 0. -1.
         21    1    1    2  503  502  0.40798502196E+02 -0.13837373247E+01  0.12374559158E+04  0.12381290628E+04  0.00000000000E+00 0.  1.
</event>
<event>
 4    1  0.5843276E+002  0.3719879E+02  0.7546771E-02  0.1365732E+00
          2   -1    0    0  502    0  0.00000000000E+00  0.00000000000E+00  0.30001401268E+02  0.30001401268E+02  0.00000000000E+00 0. -1.
         -2   -1    0    0    0  501 -0.00000000000E+00 -0.00000000000E+00 -0.46686385078E+02  0.46686385078E+02  0.00000000000E+00 0.  1.
         21    1    1    2  502  503 -0.60831265106E+01 -0.36698035666E+02 -0.41297968251E+01  0.37427335888E+02  0.00000000000E+00 0. -1.
         21    1    1    2  503  501  0.60831265106E+01  0.36698035666E+02 -0.12555186986E+02  0.39260450457E+02  0.00000000000E+00 0.  1.
</event>
<event>
 4    1  0.5843276E+002  0.2077271E+02  0.7546771E-02  0.1522535E+00
          2   -1    0    0  502    0  0.00000000000E+00  0.00000000000E+00  0.18101825285E+04  0.18101825285E+04  0.00000000000E+00 0. -1.
         -2   -1    0    0    0  501 -0.00000000000E+00 -0.00000000000E+00 -0.36249312898E+00  0.36249312898E+00  0.00000000000E+00 0.  1.
         21    1    1    2  502  503  0.75023445238E+01  0.19370604163E+02  0.14346270564E+04  0.14347774380E+04  0.00000000000E+00 0. -1.
         21    1    1    2  503  501 -0.75023445238E+01 -0.19370604163E+02  0.37519297889E+03  0.37576758360E+03  0.00000000000E+00 0.  1.
</event>
<event>
 4    1  0.5843276E+002  0.3074551E+02  0.7546771E-02  0.1413226E+00
          2   -1    0    0  502    0  0.00000000000E+00  0.00000000000E+00  0.45898131905E+03  0.45898131905E+03  0.00000000000E+00 0.  1.
         -2   -1    0    0    0  501 -0.00000000000E+00 -0.00000000000E+00 -0.22192800259E+01  0.22192800259E+01  0.00000000000E+00 0. -1.
         21    1    1    2  502  503 -0.83202794425E+01  0.29598300001E+02  0.29024992832E+03  0.29187378659E+03  0.00000000000E+00 0.  1.
         21    1    1    2  503  501  0.83202794425E+01 -0.29598300001E+02  0.16651211070E+03  0.16932681248E+03  0.00000000000E+00 0. -1.
</event>
<event>
 4    1  0.5843276E+002  0.3470249E+02  0.7546771E-02  0.1382667E+00
          2   -1    0    0  503    0  0.00000000000E+00  0.00000000000E+00  0.48051365707E+02  0.48051365707E+02  0.00000000000E+00 0.  1.
         -2   -1    0    0    0  501 -0.00000000000E+00 -0.00000000000E+00 -0.28421618112E+02  0.28421618112E+02  0.00000000000E+00 0. -1.
         21    1    1    2  502  501  0.14055699471E+02 -0.31728538587E+02 -0.33312961198E+01  0.34862019195E+02  0.00000000000E+00 0.  1.
         21    1    1    2  503  502 -0.14055699471E+02  0.31728538587E+02  0.22961043715E+02  0.41610964625E+02  0.00000000000E+00 0. -1.
</event>
<event>
 4    1  0.5843276E+002  0.2126694E+02  0.7546771E-02  0.1515488E+00
          2   -1    0    0  503    0  0.00000000000E+00  0.00000000000E+00  0.58562691367E+01  0.58562691367E+01  0.00000000000E+00 0. -1.
         -2   -1    0    0    0  501 -0.00000000000E+00 -0.00000000000E+00 -0.14485212532E+03  0.14485212532E+03  0.00000000000E+00 0.  1.
         21    1    1    2  502  501  0.12529614334E+02 -0.17184053555E+02 -0.12098374745E+03  0.12283871572E+03  0.00000000000E+00 0.  1.
         21    1    1    2  503  502 -0.12529614334E+02  0.17184053555E+02 -0.18012108728E+02  0.27869678734E+02  0.00000000000E+00 0. -1.
</event>
<event>
 4    1  0.5843276E+002  0.2684164E+02  0.7546771E-02  0.1449205E+00
          2   -1    0    0  502    0  0.00000000000E+00  0.00000000000E+00  0.25074399726E+01  0.25074399726E+01  0.00000000000E+00 0.  1.
         -2   -1    0    0    0  501 -0.00000000000E+00 -0.00000000000E+00 -0.14133965255E+04  0.14133965255E+04  0.00000000000E+00 0. -1.
         21    1    1    2  502  503  0.15839120744E+02 -0.21670164303E+02 -0.73537831432E+02  0.78283372555E+02  0.00000000000E+00 0.  1.
         21    1    1    2  503  501 -0.15839120744E+02  0.21670164303E+02 -0.13373512541E+04  0.13376205929E+04  0.00000000000E+00 0. -1.
</event>
<event>
 4    1  0.5843276E+002  0.2667425E+02  0.7546771E-02  0.1450908E+00
          2   -1    0    0  502    0  0.00000000000E+00  0.00000000000E+00  0.87861286245E+02  0.87861286245E+02  0.00000000000E+00 0.  1.
         -2   -1    0    0    0  501 -0.00000000000E+00 -0.00000000000E+00 -0.85687889070E+01  0.85687889070E+01  0.00000000000E+00 0. -1.
         21    1    1    2  502  503  0.24056778232E+02  0.11523317581E+02  0.50945731116E+02  0.57506373090E+02  0.00000000000E+00 0.  1.
         21    1    1    2  503  501 -0.24056778232E+02 -0.11523317581E+02  0.28346766221E+02  0.38923702062E+02  0.00000000000E+00 0. -1.
</event>
<event>
 4    1  0.5843276E+002  0.3604322E+02  0.7546771E-02  0.1373374E+00
          2   -1    0    0  503    0  0.00000000000E+00  0.00000000000E+00  0.30818092471E+03  0.30818092471E+03  0.00000000000E+00 0. -1.
         -2   -1    0    0    0  501 -0.00000000000E+00 -0.00000000000E+00 -0.44573974512E+01  0.44573974512E+01  0.00000000000E+00 0.  1.
         21    1    1    2  502  501  0.10060484506E+02  0.34610694285E+02  0.11544052654E+03  0.12093646545E+03  0.00000000000E+00 0.  1.
         21    1    1    2  503  502 -0.10060484506E+02 -0.34610694285E+02  0.18828300071E+03  0.19170185671E+03  0.00000000000E+00 0. -1.
</event>
<event>
 4    1  0.5843276E+002  0.3382758E+02  0.7546771E-02  0.1388998E+00
          2   -1    0    0  502    0  0.00000000000E+00  0.00000000000E+00  0.25416962489E+02  0.25416962489E+02  0.00000000000E+00 0. -1.
         -2   -1    0    0    0  501 -0.00000000000E+00 -0.00000000000E+00 -0.79840124887E+02  0.79840124887E+02  0.00000000000E+00 0.  1.
         21    1    1    2  502  503  0.12392777075E+02  0.31475773580E+02  0.75434488300E+01  0.34658460242E+02  0.00000000000E+00 0. -1.
         21    1    1    2  503  501 -0.12392777075E+02 -0.31475773580E+02 -0.61966611228E+02  0.70598627134E+02  0.00000000000E+00 0.  1.
</event>
<event>
 4    1  0.5843276E+002  0.2799918E+02  0.7546771E-02  0.1437821E+00
          2   -1    0    0  503    0  0.00000000000E+00  0.00000000000E+00  0.24781584009E+02  0.24781584009E+02  0.00000000000E+00 0.  1.
         -2   -1    0    0    0  501 -0.00000000000E+00 -0.00000000000E+00 -0.37548764088E+02  0.37548764088E+02  0.00000000000E+00 0. -1.
         21    1    1    2  502  501  0.26652380275E+02  0.85793247568E+01 -0.18752184748E+02  0.33698644193E+02  0.00000000000E+00 0. -1.
         21    1    1    2  503  502 -0.26652380275E+02 -0.85793247568E+01  0.59850046684E+01  0.28631703905E+02  0.00000000000E+00 0.  1.
</event>
<event>
 4    1  0.5843276E+002  0.2129905E+02  0.7546771E-02  0.1515038E+00
          2   -1    0    0  502    0  0.00000000000E+00  0.00000000000E+00  0.62950721307E+01  0.62950721307E+01  0.00000000000E+00 0.  1.
         -2   -1    0    0    0  501 -0.00000000000E+00 -0.00000000000E+00 -0.13185645253E+03  0.13185645253E+03  0.00000000000E+00 0. -1.
         21    1    1    2  502  503  0.12806241013E+01 -0.21260513578E+02 -0.16265222356E+02  0.26799382343E+02  0.00000000000E+00 0.  1.
         21    1    1    2  503  501 -0.12806241013E+01  0.21260513578E+02 -0.10929615804E+03  0.11135214231E+03  0.00000000000E+00 0. -1.
</event>
<event>
 4    1  0.5843276E+002  0.2126950E+02  0.7546771E-02  0.1515452E+00
          2   -1    0    0  502    0  0.00000000000E+00  0.00000000000E+00  0.10486001790E+04  0.10486001790E+04  0.00000000000E+00 0. -1.
         -2   -1    0    0    0  501 -0.00000000000E+00 -0.00000000000E+00 -0.51245360984E+00  0.51245360984E+00  0.00000000000E+00 0.  1.
         21    1    1    2  502  503  0.16980717996E+02  0.12808071396E+02  0.73263037543E+03  0.73293905510E+03  0.00000000000E+00 0. -1.
         21    1    1    2  503  501 -0.16980717996E+02 -0.12808071396E+02  0.31545735000E+03  0.31617357756E+03  0.00000000000E+00 0.  1.
</event>
<event>
 4    1  0.5843276E+002  0.2517719E+02  0.7546771E-02  0.1466831E+00
          2   -1    0    0  502    0  0.00000000000E+00  0.00000000000E+00  0.32600433509E+03  0.32600433509E+03  0.00000000000E+00 0.  1.
         -2   -1    0    0    0  501 -0.00000000000E+00 -0.00000000000E+00 -0.67463771473E+01  0.67463771473E+01  0.00000000000E+00 0. -1.
         21    1    1    2  502  503  0.12094204027E+02 -0.22082141523E+02  0.29999520920E+03  0.30104985682E+03  0.00000000000E+00 0.  1.
         21    1    1    2  503  501 -0.12094204027E+02  0.22082141523E+02  0.19262748739E+02  0.31700855418E+02  0.00000000000E+00 0. -1.
</event>
<event>
 4    1  0.5843276E+002  0.2730174E+02  0.7546771E-02  0.1444600E+00
          2   -1    0    0  502    0  0.00000000000E+00  0.00000000000E+00  0.21006929704E+03  0.21006929704E+03  0.00000000000E+00 0. -1.
         -2   -1    0    0    0  501 -0.00000000000E+00 -0.00000000000E+00 -0.70498276336E+01  0.70498276336E+01  0.00000000000E+00 0.  1.
         21    1    1    2  502  503 -0.13129316072E+02  0.23937540781E+02  0.17801808192E+03  0.18009947887E+03  0.00000000000E+00 0. -1.
         21    1    1    2  503  501  0.13129316072E+02 -0.23937540781E+02  0.25001387489E+02  0.37019645805E+02  0.00000000000E+00 0.  1.
</event>
<event>
 4    1  0.5843276E+002  0.4167242E+02  0.7546771E-02  0.1338955E+00
          2   -1    0    0  503    0  0.00000000000E+00  0.00000000000E+00  0.14480139835E+04  0.14480139835E+04  0.00000000000E+00 0. -1.
         -2   -1    0    0    0  501 -0.00000000000E+00 -0.00000000000E+00 -0.13177866989E+01  0.13177866989E+01  0.00000000000E+00 0.  1.
         21    1    1    2  502  501  0.21097269573E+02 -0.35937388682E+02  0.50604503255E+03  0.50775797941E+03  0.00000000000E+00 0. -1.
         21    1    1    2  503  502 -0.21097269573E+02  0.35937388682E+02  0.94065116422E+03  0.94157379076E+03  0.00000000000E+00 0.  1.
</event>
<event>
 4    1  0.5843276E+002  0.2048297E+02  0.7546771E-02  0.1526776E+00
          2   -1    0    0  503    0  0.00000000000E+00  0.00000000000E+00  0.25861179661E+02  0.25861179661E+02  0.00000000000E+00 0. -1.
         -2   -1    0    0    0  501 -0.00000000000E+00 -0.00000000000E+00 -0.26978945814E+02  0.26978945814E+02  0.00000000000E+00 0.  1.
         21    1    1    2  502  501 -0.20482195072E+02 -0.17781577162E+00 -0.17240608294E+02  0.26772943577E+02  0.00000000000E+00 0.  1.
         21    1    1    2  503  502  0.20482195072E+02  0.17781577162E+00  0.16122842141E+02  0.26067181898E+02  0.00000000000E+00 0. -1.
</event>
<event>
 4    1  0.5843276E+002  0.3284823E+02  0.7546771E-02  0.1396356E+00
          2   -1    0    0  503    0  0.00000000000E+00  0.00000000000E+00  0.40210062284E+03  0.40210062284E+03  0.00000000000E+00 0.  1.
         -2   -1    0    0    0  501 -0.00000000000E+00 -0.00000000000E+00 -0.28985038028E+01  0.28985038028E+01  0.00000000000E+00 0. -1.
         21    1    1    2  502  501 -0.19227839836E+02 -0.26632624162E+02  0.14443945551E+03  0.14812752209E+03  0.00000000000E+00 0.  1.
         21    1    1    2  503  502  0.19227839836E+02  0.26632624162E+02  0.25476266353E+03  0.25687160455E+03  0.00000000000E+00 0. -1.
</event>
<event>
 4    1  0.5843276E+002  0.2064000E+02  0.7546771E-02  0.1524467E+00
          2   -1    0    0  503    0  0.00000000000E+00  0.00000000000E+00  0.86308049956E+03  0.86308049956E+03  0.00000000000E+00 0.  1.
         -2   -1    0    0    0  501 -0.00000000000E+00 -0.00000000000E+00 -0.58087804428E+00  0.58087804428E+00  0.00000000000E+00 0. -1.
         21    1    1    2  502  501 -0.11977362274E+02  0.16809299936E+02  0.26385460306E+03  0.26466065315E+03  0.00000000000E+00 0. -1.
         21    1    1    2  503  502  0.11977362274E+02 -0.16809299936E+02  0.59864501846E+03  0.59900072446E+03  0.00000000000E+00 0.  1.
</event>
<event>
 4    1  0.5843276E+002  0.3476481E+02  0.7546771E-02  0.1382224E+00
          2   -1    0    0  502    0  0.00000000000E+00  0.00000000000E+00  0.58784218848E+03  0.58784218848E+03  0.00000000000E+00 0. -1.
         -2   -1    0    0    0  501 -0.00000000000E+00 -0.00000000000E+00 -0.41835704299E+01  0.41835704299E+01  0.00000000000E+00 0.  1.
         21    1    1    2  502  503  0.30680596641E+02  0.16349100297E+02  0.50292580565E+03  0.50412593474E+03  0.00000000000E+00 0. -1.
         21    1    1    2  503  501 -0.30680596641E+02 -0.16349100297E+02  0.80732812401E+02  0.87899824169E+02  0.00000000000E+00 0.  1.
</event>
<event>
 4    1  0.5843276E+002  0.2122453E+02  0.7546771E-02  0.1516083E+00
          2   -1    0    0  503    0  0.00000000000E+00  0.00000000000E+00  0.33355749268E+02  0.33355749268E+02  0.00000000000E+00 0.  1.
         -2   -1    0    0    0  501 -0.00000000000E+00 -0.00000000000E+00 -0.37582282693E+02  0.37582282693E+02  0.00000000000E+00 0. -1.
         21    1    1    2  502  501  0.19906106840E+02 -0.73639451847E+01 -0.30502797864E+02  0.37160482448E+02  0.00000000000E+00 0. -1.
         21    1    1    2  503  502 -0.19906106840E+02  0.73639451847E+01  0.26276264439E+02  0.33777549513E+02  0.00000000000E+00 0.  1.
</event>
<event>
 4    1  0.5843276E+002  0.2445047E+02  0.7546771E-02  0.1475046E+00
          2   -1    0    0  502    0  0.00000000000E+00  0.00000000000E+00  0.50101694052E+02  0.50101694052E+02  0.00000000000E+00 0.  1.
         -2   -1    0    0    0  501 -0.00000000000E+00 -0.00000000000E+00 -0.12753887193E+02  0.12753887193E+02  0.00000000000E+00 0. -1.
         21    1    1    2  502  503 -0.10480064543E+02 -0.22090576183E+02  0.10696970630E+02  0.26688021462E+02  0.00000000000E+00 0.  1.
         21    1    1    2  503  501  0.10480064543E+02  0.22090576183E+02  0.26650836229E+02  0.36167559782E+02  0.00000000000E+00 0. -1.
</event>
<event>
 4    1  0.5843276E+002  0.6057433E+02  0.7546771E-02  0.1257894E+00
          2   -1    0    0  503    0  0.00000000000E+00  0.00000000000E+00  0.19182308826E+04  0.19182308826E+04  0.00000000000E+00 0. -1.
         -2   -1    0    0    0  501 -0.00000000000E+00 -0.00000000000E+00 -0.21273082329E+01  0.21273082329E+01  0.00000000000E+00 0.  1.
         21    1    1    2  502  501 -0.48778015347E+02  0.35915940486E+02  0.65317198327E+03  0.65597476269E+03  0.00000000000E+00 0. -1.
         21    1    1    2  503  502  0.48778015347E+02 -0.35915940486E+02  0.12629315911E+04  0.12643834281E+04  0.00000000000E+00 0.  1.
</event>
<event>
 4    1  0.5843276E+002  0.2067424E+02  0.7546771E-02  0.1523967E+00
          2   -1    0    0  503    0  0.00000000000E+00  0.00000000000E+00  0.42440769584E+03  0.42440769584E+03  0.00000000000E+00 0.  1.
         -2   -1    0    0    0  501 -0.00000000000E+00 -0.00000000000E+00 -0.33479533722E+01  0.33479533722E+01  0.00000000000E+00 0. -1.
         21    1    1    2  502  501  0.13427013872E+02  0.15720677530E+02  0.31690795292E+02  0.37838220224E+02  0.00000000000E+00 0. -1.
         21    1    1    2  503  502 -0.13427013872E+02 -0.15720677530E+02  0.38936894718E+03  0.38991742899E+03  0.00000000000E+00 0.  1.
</event>
<event>
 4    1  0.5843276E+002  0.2303723E+02  0.7546771E-02  0.1492031E+00
          2   -1    0    0  502    0  0.00000000000E+00  0.00000000000E+00  0.25974022744E+02  0.25974022744E+02  0.00000000000E+00 0.  1.
         -2   -1    0    0    0  501 -0.00000000000E+00 -0.00000000000E+00 -0.33172048749E+02  0.33172048749E+02  0.00000000000E+00 0. -1.
         21    1    1    2  502  503 -0.22577632718E+02  0.45786847298E+01  0.14727803180E+02  0.27342677988E+02  0.00000000000E+00 0.  1.
         21    1    1    2  503  501  0.22577632718E+02 -0.45786847298E+01 -0.21925829185E+02  0.31803393506E+02  0.00000000000E+00 0. -1.
</event>
<event>
 4    1  0.5843276E+002  0.2558611E+02  0.7546771E-02  0.1462352E+00
          2   -1    0    0  502    0  0.00000000000E+00  0.00000000000E+00  0.10129932750E+02  0.10129932750E+02  0.00000000000E+00 0.  1.
         -2   -1    0    0    0  501 -0.00000000000E+00 -0.00000000000E+00 -0.29694269116E+03  0.29694269116E+03  0.00000000000E+00 0. -1.
         21    1    1    2  502  503  0.46007202814E+01 -0.25169079369E+02 -0.76013931165E+01  0.26691391135E+02  0.00000000000E+00 0.  1.
         21    1    1    2  503  501 -0.46007202814E+01  0.25169079369E+02 -0.27921136529E+03  0.28038123277E+03  0.00000000000E+00 0. -1.
</event>
<event>
 4    1  0.5843276E+002  0.3688792E+02  0.7546771E-02  0.1367755E+00
          2   -1    0    0  503    0  0.00000000000E+00  0.00000000000E+00  0.16187932447E+04  0.16187932447E+04  0.00000000000E+00 0.  1.
         -2   -1    0    0    0  501 -0.00000000000E+00 -0.00000000000E+00 -0.23288825351E+01  0.23288825351E+01  0.00000000000E+00 0. -1.
         21    1    1    2  502  501 -0.14614293562E+02  0.33869475903E+02  0.16025737531E+03  0.16444800185E+03  0.00000000000E+00 0. -1.
         21    1    1    2  503  502  0.14614293562E+02 -0.33869475903E+02  0.14562069869E+04  0.14566741254E+04  0.00000000000E+00 0.  1.
</event>
<event>
 4    1  0.5843276E+002  0.2538560E+02  0.7546771E-02  0.1464536E+00
          2   -1    0    0  503    0  0.00000000000E+00  0.00000000000E+00  0.12069687105E+03  0.12069687105E+03  0.00000000000E+00 0. -1.
         -2   -1    0    0    0  501 -0.00000000000E+00 -0.00000000000E+00 -0.19865856569E+02  0.19865856569E+02  0.00000000000E+00 0.  1.
         21    1    1    2  502  501  0.14299684164E+02 -0.20974929844E+02 -0.96837192406E+01  0.27169892666E+02  0.00000000000E+00 0.  1.
         21    1    1    2  503  502 -0.14299684164E+02  0.20974929844E+02  0.11051473372E+03  0.11339283495E+03  0.00000000000E+00 0. -1.
</event>
<event>
 4    1  0.5843276E+002  0.3306942E+02  0.7546771E-02  0.1394668E+00
          2   -1    0    0  503    0  0.00000000000E+00  0.00000000000E+00  0.59768637766E+02  0.59768637766E+02  0.00000000000E+00 0. -1.
         -2   -1    0    0    0  501 -0.00000000000E+00 -0.00000000000E+00 -0.25879035946E+02  0.25879035946E+02  0.00000000000E+00 0.  1.
         21    1    1    2  502  501  0.33022649727E+02  0.17582448374E+01 -0.62347182304E+01  0.33652021207E+02  0.00000000000E+00 0. -1.
         21    1    1    2  503  502 -0.33022649727E+02 -0.17582448374E+01  0.40124320050E+02  0.51995652505E+02  0.00000000000E+00 0.  1.
</event>
<event>
 4    1  0.5843276E+002  0.3295995E+02  0.7546771E-02  0.1395502E+00
          2   -1    0    0  503    0  0.00000000000E+00  0.00000000000E+00  0.20611512710E+03  0.20611512710E+03  0.00000000000E+00 0. -1.
         -2   -1    0    0    0  501 -0.00000000000E+00 -0.00000000000E+00 -0.66962156342E+01  0.66962156342E+01  0.00000000000E+00 0.  1.
         21    1    1    2  502  501 -0.30118355758E+02  0.13388173091E+02  0.14880536048E+03  0.15241192158E+03  0.00000000000E+00 0. -1.
         21    1    1    2  503  502  0.30118355758E+02 -0.13388173091E+02  0.50613550984E+02  0.60399421152E+02  0.00000000000E+00 0.  1.
</event>
<event>
 4    1  0.5843276E+002  0.5961810E+02  0.7546771E-02  0.1261136E+00
          2   -1    0    0  503    0  0.00000000000E+00  0.00000000000E+00  0.25535660280E+04  0.25535660280E+04  0.00000000000E+00 0.  1.
         -2   -1    0    0    0  501 -0.00000000000E+00 -0.00000000000E+00 -0.45355720796E+01  0.45355720796E+01  0.00000000000E+00 0. -1.
         21    1    1    2  502  501 -0.59243347130E+02 -0.66741300954E+01  0.20966110839E+03  0.21797270142E+03  0.00000000000E+00 0. -1.
         21    1    1    2  503  502  0.59243347130E+02  0.66741300954E+01  0.23393693475E+04  0.23401288987E+04  0.00000000000E+00 0.  1.
</event>
<event>
 4    1  0.5843276E+002  0.3932853E+02  0.7546771E-02  0.1352466E+00
          2   -1    0    0  503    0  0.00000000000E+00  0.00000000000E+00  0.92276909608E+01  0.92276909608E+01  0.00000000000E+00 0.  1.
         -2   -1    0    0    0  501 -0.00000000000E+00 -0.00000000000E+00 -0.22104204003E+03  0.22104204003E+03  0.00000000000E+00 0. -1.
         21    1    1    2  502  501  0.26978025167E+02  0.28616763748E+02 -0.16250961806E+03  0.16720080434E+03  0.00000000000E+00 0. -1.
         21    1    1    2  503  502 -0.26978025167E+02 -0.28616763748E+02 -0.49304731013E+02  0.63068926656E+02  0.00000000000E+00 0.  1.
</event>
<event>
 4    1  0.5843276E+002  0.2666215E+02  0.7546771E-02  0.1451032E+00
          2   -1    0    0  502    0  0.00000000000E+00  0.00000000000E+00  0.14137878154E+04  0.14137878154E+04  0.00000000000E+00 0. -1.
         -2   -1    0    0    0  501 -0.00000000000E+00 -0.00000000000E+00 -0.35437193580E+01  0.35437193580E+01  0.00000000000E+00 0.  1.
         21    1    1    2  502  503  0.25887462902E+02  0.63804097202E+01  0.13615897199E+04  0.13618507392E+04  0.00000000000E+00 0. -1.
         21    1    1    2  503  501 -0.25887462902E+02 -0.63804097202E+01  0.48654376087E+02  0.55480795561E+02  0.00000000000E+00 0.  1.
</event>
<event>
 4    1  0.5843276E+002  0.2051806E+02  0.7546771E-02  0.1526258E+00
          2   -1    0    0  502    0  0.00000000000E+00  0.00000000000E+00  0.55013611902E+03  0.55013611902E+03  0.00000000000E+00 0.  1.
         -2   -1    0    0    0  501 -0.00000000000E+00 -0.00000000000E+00 -0.97618110070E+00  0.97618110070E+00  0.00000000000E+00 0. -1.
         21    1    1    2  502  503 -0.14952285142E+02 -0.14050617825E+02  0.40267050428E+03  0.40319291376E+03  0.00000000000E+00 0.  1.
         21    1    1    2  503  501  0.14952285142E+02  0.14050617825E+02  0.14648943364E+03  0.14791938635E+03  0.00000000000E+00 0. -1.
</event>
<event>
 4    1  0.5843276E+002  0.3068492E+02  0.7546771E-02  0.1413736E+00
          2   -1    0    0  503    0  0.00000000000E+00  0.00000000000E+00  0.16397446317E+03  0.16397446317E+03  0.00000000000E+00 0. -1.
         -2   -1    0    0    0  501 -0.00000000000E+00 -0.00000000000E+00 -0.59646885242E+01  0.59646885242E+01  0.00000000000E+00 0.  1.
         21    1    1    2  502  501  0.27699913374E+02 -0.13201490658E+02  0.95417606567E+02  0.10023015614E+03  0.00000000000E+00 0. -1.
         21    1    1    2  503  502 -0.27699913374E+02  0.13201490658E+02  0.62592168074E+02  0.69708995551E+02  0.00000000000E+00 0.  1.
</event>
<event>
 4    1  0.5843276E+002  0.2844352E+02  0.7546771E-02  0.1433623E+00
          2   -1    0    0  503    0  0.00000000000E+00  0.00000000000E+00  0.87692365231E+02  0.87692365231E+02  0.00000000000E+00 0.  1.
         -2   -1    0    0    0  501 -0.00000000000E+00 -0.00000000000E+00 -0.93752979077E+01  0.93752979077E+01  0.00000000000E+00 0. -1.
         21    1    1    2  502  501 -0.28294806714E+02 -0.29047993784E+01  0.45286848262E+02  0.53478337408E+02  0.00000000000E+00 0.  1.
         21    1    1    2  503  502  0.28294806714E+02  0.29047993784E+01  0.33030219062E+02  0.43589325731E+02  0.00000000000E+00 0. -1.
</event>
<event>
 4    1  0.5843276E+002  0.4696115E+02  0.7546771E-02  0.1311914E+00
          2   -1    0    0  502    0  0.00000000000E+00  0.00000000000E+00  0.19195440116E+03  0.19195440116E+03  0.00000000000E+00 0.  1.
         -2   -1    0    0    0  501 -0.00000000000E+00 -0.00000000000E+00 -0.13976580738E+02  0.13976580738E+02  0.00000000000E+00 0. -1.
         21    1    1    2  502  503  0.64909406763E+01  0.46510396038E+02  0.45549234140E+02  0.65422335492E+02  0.00000000000E+00 0. -1.
         21    1    1    2  503  501 -0.64909406763E+01 -0.46510396038E+02  0.13242858628E+03  0.14050864641E+03  0.00000000000E+00 0.  1.
</event>
<event>
 4    1  0.5843276E+002  0.4128646E+02  0.7546771E-02  0.1341108E+00
          2   -1    0    0  502    0  0.00000000000E+00  0.00000000000E+00  0.62023343669E+03  0.62023343669E+03  0.00000000000E+00 0. -1.
         -2   -1    0    0    0  501 -0.00000000000E+00 -0.00000000000E+00 -0.91216968472E+01  0.91216968472E+01  0.00000000000E+00 0.  1.
         21    1    1    2  502  503 -0.41251150013E+02  0.17072723101E+01  0.56859132535E+03  0.57008829791E+03  0.00000000000E+00 0. -1.
         21    1    1    2  503  501  0.41251150013E+02 -0.17072723101E+01  0.42520414496E+02  0.59266835626E+02  0.00000000000E+00 0.  1.
</event>
<event>
 4    1  0.5843276E+002  0.2196751E+02  0.7546771E-02  0.1505887E+00
          2   -1    0    0  503    0  0.00000000000E+00  0.00000000000E+00  0.14951384979E+04  0.14951384979E+04  0.00000000000E+00 0. -1.
         -2   -1    0    0    0  501 -0.00000000000E+00 -0.00000000000E+00 -0.50632098190E+00  0.50632098190E+00  0.00000000000E+00 0.  1.
         21    1    1    2  502  501 -0.17195960081E+02  0.13670063650E+02  0.29704394438E+03  0.29785512683E+03  0.00000000000E+00 0.  1.
         21    1    1    2  503  502  0.17195960081E+02 -0.13670063650E+02  0.11975882326E+04  0.11977896921E+04  0.00000000000E+00 0. -1.
</event>
<event>
 4    1  0.5843276E+002  0.2301046E+02  0.7546771E-02  0.1492367E+00
          2   -1    0    0  503    0  0.00000000000E+00  0.00000000000E+00  0.24616919297E+03  0.24616919297E+03  0.00000000000E+00 0.  1.
         -2   -1    0    0    0  501 -0.00000000000E+00 -0.00000000000E+00 -0.33779514219E+01  0.33779514219E+01  0.00000000000E+00 0. -1.
         21    1    1    2  502  501  0.11414336951E+02  0.19979839189E+02  0.46193454785E+02  0.51607328230E+02  0.00000000000E+00 0. -1.
         21    1    1    2  503  502 -0.11414336951E+02 -0.19979839189E+02  0.19659778676E+03  0.19793981616E+03  0.00000000000E+00 0.  1.
</event>
<event>
 4    1  0.5843276E+002  0.2030230E+02  0.7546771E-02  0.1529464E+00
          2   -1    0    0  503    0  0.00000000000E+00  0.00000000000E+00  0.11395462407E+04  0.11395462407E+04  0.00000000000E+00 0. -1.
         -2   -1    0    0    0  501 -0.00000000000E+00 -0.00000000000E+00 -0.69163642823E+00  0.69163642823E+00  0.00000000000E+00 0.  1.
         21    1    1    2  502  501  0.45515290559E+01 -0.19785527471E+02  0.17566321378E+03  0.17683254279E+03  0.00000000000E+00 0.  1.
         21    1    1    2  503  502 -0.45515290559E+01  0.19785527471E+02  0.96319139047E+03  0.96340533431E+03  0.00000000000E+00 0. -1.
</event>
<event>
 4    1  0.5843276E+002  0.3838391E+02  0.7546771E-02  0.1358225E+00
          2   -1    0    0  503    0  0.00000000000E+00  0.00000000000E+00  0.22129073231E+04  0.22129073231E+04  0.00000000000E+00 0. -1.
         -2   -1    0    0    0  501 -0.00000000000E+00 -0.00000000000E+00 -0.79849746321E+00  0.79849746321E+00  0.00000000000E+00 0.  1.
         21    1    1    2  502  501  0.34584803819E+02  0.16649806868E+02  0.65481619604E+03  0.65594022237E+03  0.00000000000E+00 0.  1.
         21    1    1    2  503  502 -0.34584803819E+02 -0.16649806868E+02  0.15572926296E+04  0.15577655982E+04  0.00000000000E+00 0. -1.
</event>
<event>
 4    1  0.5843276E+002  0.3151450E+02  0.7546771E-02  0.1406877E+00
          2   -1    0    0  502    0  0.00000000000E+00  0.00000000000E+00  0.25444611368E+02  0.25444611368E+02  0.00000000000E+00 0. -1.
         -2   -1    0    0    0  501 -0.00000000000E+00 -0.00000000000E+00 -0.76500239676E+02  0.76500239676E+02  0.00000000000E+00 0.  1.
         21    1    1    2  502  503 -0.20676328503E+02  0.23783460192E+02  0.10144673009E+02  0.33107067667E+02  0.00000000000E+00 0. -1.
         21    1    1    2  503  501  0.20676328503E+02 -0.23783460192E+02 -0.61200301317E+02  0.68837783378E+02  0.00000000000E+00 0.  1.
</event>
<event>
 4    1  0.5843276E+002  0.4628680E+02  0.7546771E-02  0.1315127E+00
          2   -1    0    0  502    0  0.00000000000E+00  0.00000000000E+00  0.30435926621E+03  0.30435926621E+03  0.00000000000E+00 0.  1.
         -2   -1    0    0    0  501 -0.00000000000E+00 -0.00000000000E+00 -0.12777584106E+02  0.12777584106E+02  0.00000000000E+00 0. -1.
         21    1    1    2  502  503  0.37749346273E+02  0.26785351188E+02  0.25205439993E+03  0.25626917237E+03  0.00000000000E+00 0.  1.
         21    1    1    2  503  501 -0.37749346273E+02 -0.26785351188E+02  0.39527282168E+02  0.60867677941E+02  0.00000000000E+00 0. -1.
</event>
<event>
 4    1  0.5843276E+002  0.2343222E+02  0.7546771E-02  0.1487141E+00
          2   -1    0    0  502    0  0.00000000000E+00  0.00000000000E+00  0.15937430731E+01  0.15937430731E+01  0.00000000000E+00 0. -1.
         -2   -1    0    0    0  501 -0.00000000000E+00 -0.00000000000E+00 -0.52782094000E+03  0.52782094000E+03  0.00000000000E+00 0.  1.
         21    1    1    2  502  503 -0.10695509448E+02  0.20848866477E+02 -0.10711870488E+03  0.10965165795E+03  0.00000000000E+00 0. -1.
         21    1    1    2  503  501  0.10695509448E+02 -0.20848866477E+02 -0.41910849205E+03  0.41976302513E+03  0.00000000000E+00 0.  1.
</event>
<event>
 4    1  0.5843276E+002  0.2077229E+02  0.7546771E-02  0.1522541E+00
          2   -1    0    0  503    0  0.00000000000E+00  0.00000000000E+00  0.86682623241E+03  0.86682623241E+03  0.00000000000E+00 0. -1.
         -2   -1    0    0    0  501 -0.00000000000E+00 -0.00000000000E+00 -0.20484636235E+01  0.20484636235E+01  0.00000000000E+00 0.  1.
         21    1    1    2  502  501  0.20637337210E+02 -0.23639290229E+01  0.54403703218E+02  0.58234446604E+02  0.00000000000E+00 0.  1.
         21    1    1    2  503  502 -0.20637337210E+02  0.23639290229E+01  0.81037406557E+03  0.81064024943E+03  0.00000000000E+00 0. -1.
</event>
<event>
 4    1  0.5843276E+002  0.3829791E+02  0.7546771E-02  0.1358759E+00
          2   -1    0    0  503    0  0.00000000000E+00  0.00000000000E+00  0.40349562279E+03  0.40349562279E+03  0.00000000000E+00 0.  1.
         -2   -1    0    0    0  501 -0.00000000000E+00 -0.00000000000E+00 -0.11725119370E+02  0.11725119370E+02  0.00000000000E+00 0. -1.
         21    1    1    2  502  501  0.38017365501E+01 -0.38108743640E+02  0.23434001893E+02  0.44898574446E+02  0.00000000000E+00 0. -1.
         21    1    1    2  503  502 -0.38017365501E+01  0.38108743640E+02  0.36833650153E+03  0.37032216772E+03  0.00000000000E+00 0.  1.
</event>
<event>
 4    1  0.5843276E+002  0.2865157E+02  0.7546771E-02  0.1431688E+00
          2   -1    0    0  503    0  0.00000000000E+00  0.00000000000E+00  0.21584040295E+03  0.21584040295E+03  0.00000000000E+00 0. -1.
         -2   -1    0    0    0  501 -0.00000000000E+00 -0.00000000000E+00 -0.39394789391E+01  0.39394789391E+01  0.00000000000E+00 0.  1.
         21    1    1    2  502  501  0.27430005354E+02 -0.82768989374E+01  0.85521518803E+02  0.90193361330E+02  0.00000000000E+00 0.  1.
         21    1    1    2  503  502 -0.27430005354E+02  0.82768989374E+01  0.12637940521E+03  0.12958652056E+03  0.00000000000E+00 0. -1.
</event>
<event>
 4    1  0.5843276E+002  0.2035021E+02  0.7546771E-02  0.1528748E+00
          2   -1    0    0  503    0  0.00000000000E+00  0.00000000000E+00  0.11581472094E+02  0.11581472094E+02  0.00000000000E+00 0. -1.
         -2   -1    0    0    0  501 -0.00000000000E+00 -0.00000000000E+00 -0.70745281070E+02  0.70745281070E+02  0.00000000000E+00 0.  1.
         21    1    1    2  502  501  0.77617997331E+01 -0.18811850199E+02 -0.58529789208E+02  0.61966664165E+02  0.00000000000E+00 0.  1.
         21    1    1    2  503  502 -0.77617997331E+01  0.18811850199E+02 -0.63401976816E+00  0.20360088999E+02  0.00000000000E+00 0. -1.
</event>
<event>
 4    1  0.5843276E+002  0.2253617E+02  0.7546771E-02  0.1498406E+00
          2   -1    0    0  503    0  0.00000000000E+00  0.00000000000E+00  0.54367671728E+03  0.54367671728E+03  0.00000000000E+00 0. -1.
         -2   -1    0    0    0  501 -0.00000000000E+00 -0.00000000000E+00 -0.19197802822E+01  0.19197802822E+01  0.00000000000E+00 0.  1.
         21    1    1    2  502  501  0.11160957493E+02  0.19578355631E+02  0.75412360463E+02  0.78707706687E+02  0.00000000000E+00 0.  1.
         21    1    1    2  503  502 -0.11160957493E+02 -0.19578355631E+02  0.46634457654E+03  0.46688879088E+03  0.00000000000E+00 0. -1.
</event>
<event>
 4    1  0.5843276E+002  0.2035139E+02  0.7546771E-02  0.1528730E+00
          2   -1    0    0  503    0  0.00000000000E+00  0.00000000000E+00  0.10039728194E+04  0.10039728194E+04  0.00000000000E+00 0.  1.
         -2   -1    0    0    0  501 -0.00000000000E+00 -0.00000000000E+00 -0.79975692666E+00  0.79975692666E+00  0.00000000000E+00 0. -1.
         21    1    1    2  502  501 -0.94713620076E+00  0.20329339001E+02  0.15201515957E+03  0.15337140486E+03  0.00000000000E+00 0. -1.
         21    1    1    2  503  502  0.94713620076E+00 -0.20329339001E+02  0.85115790295E+03  0.85140117150E+03  0.00000000000E+00 0.  1.
</event>
<event>
 4    1  0.5843276E+002  0.2849948E+02  0.7546771E-02  0.1433100E+00
          2   -1    0    0  502    0  0.00000000000E+00  0.00000000000E+00  0.23209752755E+04  0.23209752755E+04  0.00000000000E+00 0. -1.
         -2   -1    0    0    0  501 -0.00000000000E+00 -0.00000000000E+00 -0.65918741272E+00  0.65918741272E+00  0.00000000000E+00 0.  1.
         21    1    1    2  502  503  0.12608326950E+02 -0.25558762714E+02  0.19552309114E+04  0.19554386048E+04  0.00000000000E+00 0. -1.
         21    1    1    2  503  501 -0.12608326950E+02  0.25558762714E+02  0.36508517672E+03  0.36619585814E+03  0.00000000000E+00 0.  1.
</event>
<event>
 4    1  0.5843276E+002  0.2187190E+02  0.7546771E-02  0.1507171E+00
          2   -1    0    0  502    0  0.00000000000E+00  0.00000000000E+00  0.24555589418E+01  0.24555589418E+01  0.00000000000E+00 0.  1.
         -2   -1    0    0    0  501 -0.00000000000E+00 -0.00000000000E+00 -0.14330937521E+04  0.14330937521E+04  0.00000000000E+00 0. -1.
         21    1    1    2  502  503  0.71769536826E+01  0.20660864672E+02 -0.48112995880E+02  0.52851115085E+02  0.00000000000E+00 0.  1.
         21    1    1    2  503  501 -0.71769536826E+01 -0.20660864672E+02 -0.13825251973E+04  0.13826981959E+04  0.00000000000E+00 0. -1.
</event>
<event>
 4    1  0.5843276E+002  0.2001793E+02  0.7546771E-02  0.1533762E+00
          2   -1    0    0  503    0  0.00000000000E+00  0.00000000000E+00  0.53444438332E+02  0.53444438332E+02  0.00000000000E+00 0. -1.
         -2   -1    0    0    0  501 -0.00000000000E+00 -0.00000000000E+00 -0.19129389825E+02  0.19129389825E+02  0.00000000000E+00 0.  1.
         21    1    1    2  502  501 -0.19258882033E+02 -0.54601372217E+01 -0.11138039058E+02  0.22907936391E+02  0.00000000000E+00 0.  1.
         21    1    1    2  503  502  0.19258882033E+02  0.54601372217E+01  0.45453087565E+02  0.49665891765E+02  0.00000000000E+00 0. -1.
</event>
<event>
 4    1  0.5843276E+002  0.2136934E+02  0.7546771E-02  0.1514056E+00
          2   -1    0    0  502    0  0.00000000000E+00  0.00000000000E+00  0.25537952260E+04  0.25537952260E+04  0.00000000000E+00 0. -1.
         -2   -1    0    0    0  501 -0.00000000000E+00 -0.00000000000E+00 -0.18292085092E+00  0.18292085092E+00  0.00000000000E+00 0.  1.
         21    1    1    2  502  503  0.21191939380E+02 -0.27477994712E+01  0.14681995028E+04  0.14683550077E+04  0.00000000000E+00 0. -1.
         21    1    1    2  503  501 -0.21191939380E+02  0.27477994712E+01  0.10854128024E+04  0.10856231391E+04  0.00000000000E+00 0.  1.
</event>
<event>
 4    1  0.5843276E+002  0.5271963E+02  0.7546771E-02  0.1286793E+00
          2   -1    0    0  503    0  0.00000000000E+00  0.00000000000E+00  0.65707573542E+03  0.65707573542E+03  0.00000000000E+00 0.  1.
         -2   -1    0    0    0  501 -0.00000000000E+00 -0.00000000000E+00 -0.17154347843E+02  0.17154347843E+02  0.00000000000E+00 0. -1.
         21    1    1    2  502  501 -0.37364671927E+02  0.37191937538E+02  0.27345299630E+02  0.59389597893E+02  0.00000000000E+00 0. -1.
         21    1    1    2  503  502  0.37364671927E+02 -0.37191937538E+02  0.61257608794E+03  0.61484048537E+03  0.00000000000E+00 0.  1.
</event>
<event>
 4    1  0.5843276E+002  0.2093507E+02  0.7546771E-02  0.1520194E+00
          2   -1    0    0  503    0  0.00000000000E+00  0.00000000000E+00  0.61079477422E+03  0.61079477422E+03  0.00000000000E+00 0.  1.
         -2   -1    0    0    0  501 -0.00000000000E+00 -0.00000000000E+00 -0.79443329538E+00  0.79443329538E+00  0.00000000000E+00 0. -1.
         21    1    1    2  502  501 -0.20304704792E+02 -0.50986276074E+01  0.20987152486E+03  0.21091309581E+03  0.00000000000E+00 0.  1.
         21    1    1    2  503  502  0.20304704792E+02  0.50986276074E+01  0.40012881606E+03  0.40067611170E+03  0.00000000000E+00 0. -1.
</event>
<event>
 4    1  0.5843276E+002  0.2643935E+02  0.7546771E-02  0.1453323E+00
          2   -1    0    0  503    0  0.00000000000E+00  0.00000000000E+00  0.15288431805E+03  0.15288431805E+03  0.00000000000E+00 0.  1.
         -2   -1    0    0    0  501 -0.00000000000E+00 -0.00000000000E+00 -0.62997018252E+01  0.62997018252E+01  0.00000000000E+00 0. -1.
         21    1    1    2  502  501 -0.25480859087E+02  0.70544360582E+01  0.31614871661E+02  0.41213339565E+02  0.00000000000E+00 0. -1.
         21    1    1    2  503  502  0.25480859087E+02 -0.70544360582E+01  0.11496974457E+03  0.11797068032E+03  0.00000000000E+00 0.  1.
</event>
<event>
 4    1  0.5843276E+002  0.2240733E+02  0.7546771E-02  0.1500078E+00
          2   -1    0    0  502    0  0.00000000000E+00  0.00000000000E+00  0.68337732851E+03  0.68337732851E+03  0.00000000000E+00 0.  1.
         -2   -1    0    0    0  501 -0.00000000000E+00 -0.00000000000E+00 -0.12522190392E+01  0.12522190392E+01  0.00000000000E+00 0. -1.
         21    1    1    2  502  503  0.20143363940E+02  0.98149469739E+01  0.56112296633E+03  0.56157018407E+03  0.00000000000E+00 0.  1.
         21    1    1    2  503  501 -0.20143363940E+02 -0.98149469739E+01  0.12100214314E+03  0.12305936348E+03  0.00000000000E+00 0. -1.
</event>
<event>
 4    1  0.5843276E+002  0.3991975E+02  0.7546771E-02  0.1348957E+00
          2   -1    0    0  503    0  0.00000000000E+00  0.00000000000E+00  0.73688227997E+03  0.73688227997E+03  0.00000000000E+00 0. -1.
         -2   -1    0    0    0  501 -0.00000000000E+00 -0.00000000000E+00 -0.24628553052E+01  0.24628553052E+01  0.00000000000E+00 0.  1.
         21    1    1    2  502  501 -0.78111648948E+00 -0.39912106965E+02  0.49628360342E+03  0.49788653471E+03  0.00000000000E+00 0. -1.
         21    1    1    2  503  502  0.78111648948E+00  0.39912106965E+02  0.23813582124E+03  0.24145860056E+03  0.00000000000E+00 0.  1.
</event>
<event>
 4    1  0.5843276E+002  0.2266813E+02  0.7546771E-02  0.1496708E+00
          2   -1    0    0  502    0  0.00000000000E+00  0.00000000000E+00  0.40811470985E+03  0.40811470985E+03  0.00000000000E+00 0. -1.
         -2   -1    0    0    0  501 -0.00000000000E+00 -0.00000000000E+00 -0.46433087751E+01  0.46433087751E+01  0.00000000000E+00 0.  1.
         21    1    1    2  502  503 -0.97666088308E+01 -0.20456236248E+02  0.37792614682E+03  0.37860535747E+03  0.00000000000E+00 0. -1.
         21    1    1    2  503  501  0.97666088308E+01  0.20456236248E+02  0.25545254254E+02  0.34152661161E+02  0.00000000000E+00 0.  1.
</event>
<event>
 4    1  0.5843276E+002  0.4094513E+02  0.7546771E-02  0.1343035E+00
          2   -1    0    0  502    0  0.00000000000E+00  0.00000000000E+00  0.77987317710E+02  0.77987317710E+02  0.00000000000E+00 0.  1.
         -2   -1    0    0    0  501 -0.00000000000E+00 -0.00000000000E+00 -0.22775184154E+02  0.22775184154E+02  0.00000000000E+00 0. -1.
         21    1    1    2  502  503 -0.25529563968E+02 -0.32011638370E+02  0.15671343226E+02  0.43841699625E+02  0.00000000000E+00 0. -1.
         21    1    1    2  503  501  0.25529563968E+02  0.32011638370E+02  0.39540790330E+02  0.56920802238E+02  0.00000000000E+00 0.  1.
</event>
<event>
 4    1  0.5843276E+002  0.2145164E+02  0.7546771E-02  0.1512913E+00
          2   -1    0    0  503    0  0.00000000000E+00  0.00000000000E+00  0.88570969642E+03  0.88570969642E+03  0.00000000000E+00 0.  1.
         -2   -1    0    0    0  501 -0.00000000000E+00 -0.00000000000E+00 -0.18406096492E+01  0.18406096492E+01  0.00000000000E+00 0. -1.
         21    1    1    2  502  501  0.13658104286E+01 -0.21408119492E+02  0.65973473708E+02  0.69373426119E+02  0.00000000000E+00 0. -1.
         21    1    1    2  503  502 -0.13658104286E+01  0.21408119492E+02  0.81789561306E+03  0.81817687995E+03  0.00000000000E+00 0.  1.
</event>
<event>
 4    1  0.5843276E+002  0.2227360E+02  0.7546771E-02  0.1501827E+00
          2   -1    0    0  503    0  0.00000000000E+00  0.00000000000E+00  0.29187458331E+02  0.29187458331E+02  0.00000000000E+00 0.  1.
         -2   -1    0    0    0  501 -0.00000000000E+00 -0.00000000000E+00 -0.17146261623E+02  0.17146261623E+02  0.00000000000E+00 0. -1.
         21    1    1    2  502  501 -0.15593101489E+02 -0.15904984845E+02  0.81785972064E+01  0.23727680233E+02  0.00000000000E+00 0.  1.
         21    1    1    2  503  502  0.15593101489E+02  0.15904984845E+02  0.38625995015E+01  0.22606039721E+02  0.00000000000E+00 0. -1.
</event>
<event>
 4    1  0.5843276E+002  0.2166454E+02  0.7546771E-02  0.1509985E+00
          2   -1    0    0  503    0  0.00000000000E+00  0.00000000000E+00  0.12442004961E+03  0.12442004961E+03  0.00000000000E+00 0. -1.
         -2   -1    0    0    0  501 -0.00000000000E+00 -0.00000000000E+00 -0.10790922935E+02  0.10790922935E+02  0.00000000000E+00 0.  1.
         21    1    1    2  502  501 -0.20968524317E+02  0.54473271337E+01  0.22917889695E+01  0.21785423605E+02  0.00000000000E+00 0.  1.
         21    1    1    2  503  502  0.20968524317E+02 -0.54473271337E+01  0.11133733771E+03  0.11342554894E+03  0.00000000000E+00 0. -1.
</event>
<event>
 4    1  0.5843276E+002  0.2210759E+02  0.7546771E-02  0.1504019E+00
          2   -1    0    0  503    0  0.00000000000E+00  0.00000000000E+00  0.13658303082E+03  0.13658303082E+03  0.00000000000E+00 0. -1.
         -2   -1    0    0    0  501 -0.00000000000E+00 -0.00000000000E+00 -0.61572361915E+01  0.61572361915E+01  0.00000000000E+00 0.  1.
         21    1    1    2  502  501 -0.17331695105E+02 -0.13724348354E+02  0.19024006811E+02  0.29166045808E+02  0.00000000000E+00 0.  1.
         21    1    1    2  503  502  0.17331695105E+02  0.13724348354E+02  0.11140178782E+03  0.11357422120E+03  0.00000000000E+00 0. -1.
</event>
<event>
 4    1  0.5843276E+002  0.6302211E+02  0.7546771E-02  0.1249896E+00
          2   -1    0    0  502    0  0.00000000000E+00  0.00000000000E+00  0.13296166576E+04  0.13296166576E+04  0.00000000000E+00 0.  1.
         -2   -1    0    0    0  501 -0.00000000000E+00 -0.00000000000E+00 -0.72058967222E+01  0.72058967222E+01  0.00000000000E+00 0. -1.
         21    1    1    2  502  503 -0.18120023845E+02 -0.60361002713E+02  0.11726406157E+04  0.11743329168E+04  0.00000000000E+00 0.  1.
         21    1    1    2  503  501  0.18120023845E+02  0.60361002713E+02  0.14977014519E+03  0.16248963752E+03  0.00000000000E+00 0. -1.
</event>
<event>
 4    1  0.5843276E+002  0.2896487E+02  0.7546771E-02  0.1428810E+00
          2   -1    0    0  503    0  0.00000000000E+00  0.00000000000E+00  0.52799761793E+03  0.52799761793E+03  0.00000000000E+00 0. -1.
         -2   -1    0    0    0  501 -0.00000000000E+00 -0.00000000000E+00 -0.20027621357E+01  0.20027621357E+01  0.00000000000E+00 0.  1.
         21    1    1    2  502  501  0.22689563805E+02 -0.18004095237E+02  0.14254066533E+03  0.14545378999E+03  0.00000000000E+00 0.  1.
         21    1    1    2  503  502 -0.22689563805E+02  0.18004095237E+02  0.38345419047E+03  0.38454659007E+03  0.00000000000E+00 0. -1.
</event>
<event>
 4    1  0.5843276E+002  0.2037885E+02  0.7546771E-02  0.1528321E+00
          2   -1    0    0  503    0  0.00000000000E+00  0.00000000000E+00  0.45163554185E+01  0.45163554185E+01  0.00000000000E+00 0. -1.
         -2   -1    0    0    0  501 -0.00000000000E+00 -0.00000000000E+00 -0.98158271513E+02  0.98158271513E+02  0.00000000000E+00 0.  1.
         21    1    1    2  502  501  0.10128532783E+02  0.17683612902E+02 -0.59727563073E+02  0.63108471161E+02  0.00000000000E+00 0. -1.
         21    1    1    2  503  502 -0.10128532783E+02 -0.17683612902E+02 -0.33914353021E+02  0.39566155770E+02  0.00000000000E+00 0.  1.
</event>
<event>
 4    1  0.5843276E+002  0.3641275E+02  0.7546771E-02  0.1370894E+00
          2   -1    0    0  503    0  0.00000000000E+00  0.00000000000E+00  0.13744938761E+03  0.13744938761E+03  0.00000000000E+00 0.  1.
         -2   -1    0    0    0  501 -0.00000000000E+00 -0.00000000000E+00 -0.25575780321E+02  0.25575780321E+02  0.00000000000E+00 0. -1.
         21    1    1    2  502  501  0.15164878931E+02  0.33104600886E+02 -0.83926723466E+01  0.37367433708E+02  0.00000000000E+00 0. -1.
         21    1    1    2  503  502 -0.15164878931E+02 -0.33104600886E+02  0.12026627964E+03  0.12565773423E+03  0.00000000000E+00 0.  1.
</event>
<event>
 4    1  0.5843276E+002  0.2364283E+02  0.7546771E-02  0.1484580E+00
          2   -1    0    0  502    0  0.00000000000E+00  0.00000000000E+00  0.23743394379E+02  0.23743394379E+02  0.00000000000E+00 0. -1.
         -2   -1    0    0    0  501 -0.00000000000E+00 -0.00000000000E+00 -0.27259818363E+02  0.27259818363E+02  0.00000000000E+00 0.  1.
         21    1    1    2  502  503  0.43626204382E+01  0.23236842608E+02  0.76587320732E+01  0.24852353781E+02  0.00000000000E+00 0. -1.
         21    1    1    2  503  501 -0.43626204382E+01 -0.23236842608E+02 -0.11175156057E+02  0.26150858961E+02  0.00000000000E+00 0.  1.
</event>
<event>
 4    1  0.5843276E+002  0.2493279E+02  0.7546771E-02  0.1469557E+00
          2   -1    0    0  502    0  0.00000000000E+00  0.00000000000E+00  0.23840866156E+03  0.23840866156E+03  0.00000000000E+00 0. -1.
         -2   -1    0    0    0  501 -0.00000000000E+00 -0.00000000000E+00 -0.26271815417E+01  0.26271815417E+01  0.00000000000E+00 0.  1.
         21    1    1    2  502  503  0.23907953057E+02 -0.70748852758E+01  0.10745242357E+03  0.11030715096E+03  0.00000000000E+00 0. -1.
         21    1    1    2  503  501 -0.23907953057E+02  0.70748852758E+01  0.12832905644E+03  0.13072869214E+03  0.00000000000E+00 0.  1.
</event>
<event>
 4    1  0.5843276E+002  0.2184201E+02  0.7546771E-02  0.1507574E+00
          2   -1    0    0  503    0  0.00000000000E+00  0.00000000000E+00  0.91195940883E+03  0.91195940883E+03  0.00000000000E+00 0.  1.
         -2   -1    0    0    0  501 -0.00000000000E+00 -0.00000000000E+00 -0.45745078016E+01  0.45745078016E+01  0.00000000000E+00 0. -1.
         21    1    1    2  502  501 -0.14566721438E+02 -0.16275256609E+02  0.22423959318E+02  0.31303471096E+02  0.00000000000E+00 0. -1.
         21    1    1    2  503  502  0.14566721438E+02  0.16275256609E+02  0.88496094171E+03  0.88523044554E+03  0.00000000000E+00 0.  1.
</event>
<event>
 4    1  0.5843276E+002  0.4157225E+02  0.7546771E-02  0.1339511E+00
          2   -1    0    0  502    0  0.00000000000E+00  0.00000000000E+00  0.12431865921E+03  0.12431865921E+03  0.00000000000E+00 0. -1.
         -2   -1    0    0    0  501 -0.00000000000E+00 -0.00000000000E+00 -0.14792594096E+02  0.14792594096E+02  0.00000000000E+00 0.  1.
         21    1    1    2  502  503 -0.40630410775E+02  0.87989604608E+01  0.71831755159E+02  0.82994295191E+02  0.00000000000E+00 0. -1.
         21    1    1    2  503  501  0.40630410775E+02 -0.87989604608E+01  0.37694309953E+02  0.56116958113E+02  0.00000000000E+00 0.  1.
</event>
<event>
 4    1  0.5843276E+002  0.2773417E+02  0.7546771E-02  0.1440369E+00
          2   -1    0    0  502    0  0.00000000000E+00  0.00000000000E+00  0.12300886639E+03  0.12300886639E+03  0.00000000000E+00 0.  1.
         -2   -1    0    0    0  501 -0.00000000000E+00 -0.00000000000E+00 -0.42801230076E+02  0.42801230076E+02  0.00000000000E+00 0. -1.
         21    1    1    2  502  503  0.22646127976E+02 -0.16010525160E+02  0.11671383594E+03  0.11996375922E+03  0.00000000000E+00 0.  1.
         21    1    1    2  503  501 -0.22646127976E+02  0.16010525160E+02 -0.36506199619E+02  0.45846337246E+02  0.00000000000E+00 0. -1.
</event>
<event>
 4    1  0.5843276E+002  0.3275863E+02  0.7546771E-02  0.1397045E+00
          2   -1    0    0  502    0  0.00000000000E+00  0.00000000000E+00  0.18438763132E+04  0.18438763132E+04  0.00000000000E+00 0. -1.
         -2   -1    0    0    0  501 -0.00000000000E+00 -0.00000000000E+00 -0.20462589883E+01  0.20462589883E+01  0.00000000000E+00 0.  1.
         21    1    1    2  502  503 -0.20158158971E+01  0.32696550600E+02  0.17016664490E+04  0.17019817365E+04  0.00000000000E+00 0. -1.
         21    1    1    2  503  501  0.20158158971E+01 -0.32696550600E+02  0.14016360518E+03  0.14394083560E+03  0.00000000000E+00 0.  1.
</event>
<event>
 4    1  0.5843276E+002  0.2183907E+02  0.7546771E-02  0.1507614E+00
          2   -1    0    0  503    0  0.00000000000E+00  0.00000000000E+00  0.35073987397E+03  0.35073987397E+03  0.00000000000E+00 0.  1.
         -2   -1    0    0    0  501 -0.00000000000E+00 -0.00000000000E+00 -0.33976081353E+01  0.33976081353E+01  0.00000000000E+00 0. -1.
         21    1    1    2  502  501  0.20603004422E+02  0.72430114444E+01  0.36540591797E+02  0.42569470925E+02  0.00000000000E+00 0. -1.
         21    1    1    2  503  502 -0.20603004422E+02 -0.72430114444E+01  0.31080167404E+03  0.31156801118E+03  0.00000000000E+00 0.  1.
</event>
<event>
 4    1  0.5843276E+002  0.2198888E+02  0.7546771E-02  0.1505601E+00
          2   -1    0    0  502    0  0.00000000000E+00  0.00000000000E+00  0.33305756414E+03  0.33305756414E+03  0.00000000000E+00 0. -1.
         -2   -1    0    0    0  501 -0.00000000000E+00 -0.00000000000E+00 -0.61345747506E+01  0.61345747506E+01  0.00000000000E+00 0.  1.
         21    1    1    2  502  503 -0.21916172918E+02 -0.17866968597E+01  0.31163762730E+03  0.31241242240E+03  0.00000000000E+00 0. -1.
         21    1    1    2  503  501  0.21916172918E+02  0.17866968597E+01  0.15285362087E+02  0.26779716488E+02  0.00000000000E+00 0.  1.
</event>
<event>
 4    1  0.5843276E+002  0.2169297E+02  0.7546771E-02  0.1509597E+00
          2   -1    0    0  502    0  0.00000000000E+00  0.00000000000E+00  0.15776525369E+04  0.15776525369E+04  0.00000000000E+00 0.  1.
         -2   -1    0    0    0  501 -0.00000000000E+00 -0.00000000000E+00 -0.30200984418E+00  0.30200984418E+00  0.00000000000E+00 0. -1.
         21    1    1    2  502  503  0.16551425911E+02  0.14022675948E+02  0.87633309138E+03  0.87660154699E+03  0.00000000000E+00 0. -1.
         21    1    1    2  503  501 -0.16551425911E+02 -0.14022675948E+02  0.70101743563E+03  0.70135299971E+03  0.00000000000E+00 0.  1.
</event>
<event>
 4    1  0.5843276E+002  0.2808659E+02  0.7546771E-02  0.1436988E+00
          2   -1    0    0  503    0  0.00000000000E+00  0.00000000000E+00  0.21222225424E+04  0.21222225424E+04  0.00000000000E+00 0. -1.
         -2   -1    0    0    0  501 -0.00000000000E+00 -0.00000000000E+00 -0.43014493863E+00  0.43014493863E+00  0.00000000000E+00 0.  1.
         21    1    1    2  502  501  0.15005379991E+02 -0.23742264321E+02  0.66972333286E+03  0.67031201624E+03  0.00000000000E+00 0. -1.
         21    1    1    2  503  502 -0.15005379991E+02  0.23742264321E+02  0.14520690646E+04  0.14523406711E+04  0.00000000000E+00 0.  1.
</event>
<event>
 4    1  0.5843276E+002  0.5027065E+02  0.7546771E-02  0.1297003E+00
          2   -1    0    0  502    0  0.00000000000E+00  0.00000000000E+00  0.43584547303E+03  0.43584547303E+03  0.00000000000E+00 0. -1.
         -2   -1    0    0    0  501 -0.00000000000E+00 -0.00000000000E+00 -0.58743286550E+01  0.58743286550E+01  0.00000000000E+00 0.  1.
         21    1    1    2  502  503  0.47322907928E+02 -0.16961136437E+02  0.24012124114E+03  0.24532702299E+03  0.00000000000E+00 0. -1.
         21    1    1    2  503  501 -0.47322907928E+02  0.16961136437E+02  0.18984990323E+03  0.19639277869E+03  0.00000000000E+00 0.  1.
</event>
<event>
 4    1  0.5843276E+002  0.3651850E+02  0.7546771E-02  0.1370191E+00
          2   -1    0    0  502    0  0.00000000000E+00  0.00000000000E+00  0.16817561330E+04  0.16817561330E+04  0.00000000000E+00 0.  1.
         -2   -1    0    0    0  501 -0.00000000000E+00 -0.00000000000E+00 -0.21739626039E+01  0.21739626039E+01  0.00000000000E+00 0. -1.
         21    1    1    2  502  503  0.10940497813E+02 -0.34841154215E+02  0.15108520677E+04  0.15112933438E+04  0.00000000000E+00 0.  1.
         21    1    1    2  503  501 -0.10940497813E+02  0.34841154215E+02  0.16873010263E+03  0.17263675174E+03  0.00000000000E+00 0. -1.
</event>
<event>
 4    1  0.5843276E+002  0.3312776E+02  0.7546771E-02  0.1394226E+00
          2   -1    0    0  503    0  0.00000000000E+00  0.00000000000E+00  0.29817518340E+03  0.29817518340E+03  0.00000000000E+00 0. -1.
         -2   -1    0    0    0  501 -0.00000000000E+00 -0.00000000000E+00 -0.96705707151E+01  0.96705707151E+01  0.00000000000E+00 0.  1.
         21    1    1    2  502  501  0.32855764668E+02 -0.42363809444E+01  0.23111254591E+02  0.40392799905E+02  0.00000000000E+00 0.  1.
         21    1    1    2  503  502 -0.32855764668E+02  0.42363809444E+01  0.26539335809E+03  0.26745295421E+03  0.00000000000E+00 0. -1.
</event>
<event>
 4    1  0.5843276E+002  0.2145803E+02  0.7546771E-02  0.1512825E+00
          2   -1    0    0  502    0  0.00000000000E+00  0.00000000000E+00  0.23559350530E+01  0.23559350530E+01  0.00000000000E+00 0.  1.
         -2   -1    0    0    0  501 -0.00000000000E+00 -0.00000000000E+00 -0.34432717531E+03  0.34432717531E+03  0.00000000000E+00 0. -1.
         21    1    1    2  502  503 -0.76570806592E+01 -0.20045347930E+02 -0.57001623175E+02  0.60906747594E+02  0.00000000000E+00 0.  1.
         21    1    1    2  503  501  0.76570806592E+01  0.20045347930E+02 -0.28496961708E+03  0.28577636277E+03  0.00000000000E+00 0. -1.
</event>
<event>
 4    1  0.5843276E+002  0.2054177E+02  0.7546771E-02  0.1525909E+00
          2   -1    0    0  502    0  0.00000000000E+00  0.00000000000E+00  0.33404971665E+02  0.33404971665E+02  0.00000000000E+00 0. -1.
         -2   -1    0    0    0  501 -0.00000000000E+00 -0.00000000000E+00 -0.16714976103E+02  0.16714976103E+02  0.00000000000E+00 0.  1.
         21    1    1    2  502  503  0.20305367080E+02  0.31074427601E+01 -0.40409157725E+01  0.20935451585E+02  0.00000000000E+00 0.  1.
         21    1    1    2  503  501 -0.20305367080E+02 -0.31074427601E+01  0.20730911334E+02  0.29184496184E+02  0.00000000000E+00 0. -1.
</event>
<event>
 4    1  0.5843276E+002  0.2207035E+02  0.7546771E-02  0.1504514E+00
          2   -1    0    0  503    0  0.00000000000E+00  0.00000000000E+00  0.56012872503E+03  0.56012872503E+03  0.00000000000E+00 0. -1.
         -2   -1    0    0    0  501 -0.00000000000E+00 -0.00000000000E+00 -0.17385035104E+01  0.17385035104E+01  0.00000000000E+00 0.  1.
         21    1    1    2  502  501  0.20546788484E+02 -0.80578979869E+01  0.80587352430E+02  0.83554901763E+02  0.00000000000E+00 0.  1.
         21    1    1    2  503  502 -0.20546788484E+02  0.80578979869E+01  0.47780286909E+03  0.47831232677E+03  0.00000000000E+00 0. -1.
</event>
<event>
 4    1  0.5843276E+002  0.2113201E+02  0.7546771E-02  0.1517388E+00
          2   -1    0    0  503    0  0.00000000000E+00  0.00000000000E+00  0.11134308911E+03  0.11134308911E+03  0.00000000000E+00 0. -1.
         -2   -1    0    0    0  501 -0.00000000000E+00 -0.00000000000E+00 -0.48227687449E+01  0.48227687449E+01  0.00000000000E+00 0.  1.
         21    1    1    2  502  501 -0.18323389634E+02  0.10526883852E+02  0.29425931780E+02  0.36227715252E+02  0.00000000000E+00 0.  1.
         21    1    1    2  503  502  0.18323389634E+02 -0.10526883852E+02  0.77094388583E+02  0.79938142600E+02  0.00000000000E+00 0. -1.
</event>
<event>
 4    1  0.5843276E+002  0.2940916E+02  0.7546771E-02  0.1424801E+00
          2   -1    0    0  502    0  0.00000000000E+00  0.00000000000E+00  0.85168475226E+03  0.85168475226E+03  0.00000000000E+00 0. -1.
         -2   -1    0    0    0  501 -0.00000000000E+00 -0.00000000000E+00 -0.11317194641E+01  0.11317194641E+01  0.00000000000E+00 0.  1.
         21    1    1    2  502  503  0.16893441672E+02 -0.24073015070E+02  0.56191343823E+03  0.56268251305E+03  0.00000000000E+00 0. -1.
         21    1    1    2  503  501 -0.16893441672E+02  0.24073015070E+02  0.28863959456E+03  0.29013395867E+03  0.00000000000E+00 0.  1.
</event>
<event>
 4    1  0.5843276E+002  0.3713013E+02  0.7546771E-02  0.1366177E+00
          2   -1    0    0  502    0  0.00000000000E+00  0.00000000000E+00  0.27073373903E+03  0.27073373903E+03  0.00000000000E+00 0. -1.
         -2   -1    0    0    0  501 -0.00000000000E+00 -0.00000000000E+00 -0.51992812130E+01  0.51992812130E+01  0.00000000000E+00 0.  1.
         21    1    1    2  502  503 -0.14706745995E+02 -0.34093379764E+02  0.11297318750E+03  0.11891840907E+03  0.00000000000E+00 0.  1.
         21    1    1    2  503  501  0.14706745995E+02  0.34093379764E+02  0.15256127032E+03  0.15701461118E+03  0.00000000000E+00 0. -1.
</event>
<event>
 4    1  0.5843276E+002  0.2477774E+02  0.7546771E-02  0.1471305E+00
          2   -1    0    0  503    0  0.00000000000E+00  0.00000000000E+00  0.18603488239E+02  0.18603488239E+02  0.00000000000E+00 0. -1.
         -2   -1    0    0    0  501 -0.00000000000E+00 -0.00000000000E+00 -0.84190082927E+03  0.84190082927E+03  0.00000000000E+00 0.  1.
         21    1    1    2  502  501  0.11612643180E+02 -0.21887965465E+02 -0.83338393859E+03  0.83375219676E+03  0.00000000000E+00 0.  1.
         21    1    1    2  503  502 -0.11612643180E+02  0.21887965465E+02  0.10086597560E+02  0.26752120742E+02  0.00000000000E+00 0. -1.
</event>
<event>
 4    1  0.5843276E+002  0.2036847E+02  0.7546771E-02  0.1528476E+00
          2   -1    0    0  502    0  0.00000000000E+00  0.00000000000E+00  0.55334995617E+02  0.55334995617E+02  0.00000000000E+00 0.  1.
         -2   -1    0    0    0  501 -0.00000000000E+00 -0.00000000000E+00 -0.15850903298E+02  0.15850903298E+02  0.00000000000E+00 0. -1.
         21    1    1    2  502  503  0.19141584930E+02 -0.69623366920E+01  0.45580621517E+02  0.49924617813E+02  0.00000000000E+00 0.  1.
         21    1    1    2  503  501 -0.19141584930E+02  0.69623366920E+01 -0.60965291983E+01  0.21261281102E+02  0.00000000000E+00 0. -1.
</event>
<event>
 4    1  0.5843276E+002  0.2080308E+02  0.7546771E-02  0.1522095E+00
          2   -1    0    0  502    0  0.00000000000E+00  0.00000000000E+00  0.13690062766E+03  0.13690062766E+03  0.00000000000E+00 0. -1.
         -2   -1    0    0    0  501 -0.00000000000E+00 -0.00000000000E+00 -0.66288194719E+01  0.66288194719E+01  0.00000000000E+00 0.  1.
         21    1    1    2  502  503  0.11276493758E+02 -0.17481666068E+02  0.11704096332E+03  0.11887537615E+03  0.00000000000E+00 0. -1.
         21    1    1    2  503  501 -0.11276493758E+02  0.17481666068E+02  0.13230844866E+02  0.24654070979E+02  0.00000000000E+00 0.  1.
</event>
<event>
 4    1  0.5843276E+002  0.2448488E+02  0.7546771E-02  0.1474649E+00
          2   -1    0    0  502    0  0.00000000000E+00  0.00000000000E+00  0.14678121529E+04  0.14678121529E+04  0.00000000000E+00 0.  1.
         -2   -1    0    0    0  501 -0.00000000000E+00 -0.00000000000E+00 -0.23032998541E+01  0.23032998541E+01  0.00000000000E+00 0. -1.
         21    1    1    2  502  503  0.34202189552E+01  0.24244824135E+02  0.13994614818E+04  0.13996756583E+04  0.00000000000E+00 0.  1.
         21    1    1    2  503  501 -0.34202189552E+01 -0.24244824135E+02  0.66047371336E+02  0.70439794544E+02  0.00000000000E+00 0. -1.
</event>
<event>
 4    1  0.5843276E+002  0.3174165E+02  0.7546771E-02  0.1405042E+00
          2   -1    0    0  502    0  0.00000000000E+00  0.00000000000E+00  0.17218119470E+04  0.17218119470E+04  0.00000000000E+00 0. -1.
         -2   -1    0    0    0  501 -0.00000000000E+00 -0.00000000000E+00 -0.68850659348E+01  0.68850659348E+01  0.00000000000E+00 0.  1.
         21    1    1    2  502  503 -0.27767648554E+02 -0.15378227607E+02  0.16842662285E+04  0.16845653032E+04  0.00000000000E+00 0. -1.
         21    1    1    2  503  501  0.27767648554E+02  0.15378227607E+02  0.30660652558E+02  0.44131709754E+02  0.00000000000E+00 0.  1.
</event>
<event>
 4    1  0.5843276E+002  0.2560407E+02  0.7546771E-02  0.1462158E+00
          2   -1    0    0  503    0  0.00000000000E+00  0.00000000000E+00  0.19628555649E+02  0.19628555649E+02  0.00000000000E+00 0. -1.
         -2   -1    0    0    0  501 -0.00000000000E+00 -0.00000000000E+00 -0.33409961121E+02  0.33409961121E+02  0.00000000000E+00 0.  1.
         21    1    1    2  502  501 -0.21819744164E+02  0.13396526557E+02 -0.64037406559E+01  0.26392727285E+02  0.00000000000E+00 0. -1.
         21    1    1    2  503  502  0.21819744164E+02 -0.13396526557E+02 -0.73776648167E+01  0.26645789485E+02  0.00000000000E+00 0.  1.
</event>
<event>
 4    1  0.5843276E+002  0.3945546E+02  0.7546771E-02  0.1351707E+00
          2   -1    0    0  503    0  0.00000000000E+00  0.00000000000E+00  0.34501638361E+02  0.34501638361E+02  0.00000000000E+00 0. -1.
         -2   -1    0    0    0  501 -0.00000000000E+00 -0.00000000000E+00 -0.63686479619E+02  0.63686479619E+02  0.00000000000E+00 0.  1.
         21    1    1    2  502  501 -0.27994672088E+02  0.27803453540E+02 -0.41099592790E+02  0.56972890234E+02  0.00000000000E+00 0.  1.
         21    1    1    2  503  502  0.27994672088E+02 -0.27803453540E+02  0.11914751532E+02  0.41215227746E+02  0.00000000000E+00 0. -1.
</event>
<event>
 4    1  0.5843276E+002  0.2478805E+02  0.7546771E-02  0.1471188E+00
          2   -1    0    0  503    0  0.00000000000E+00  0.00000000000E+00  0.11764049507E+03  0.11764049507E+03  0.00000000000E+00 0.  1.
         -2   -1    0    0    0  501 -0.00000000000E+00 -0.00000000000E+00 -0.60001881721E+01  0.60001881721E+01  0.00000000000E+00 0. -1.
         21    1    1    2  502  501  0.30598425743E+01  0.24598475656E+02  0.33572452773E+02  0.41731968878E+02  0.00000000000E+00 0.  1.
         21    1    1    2  503  502 -0.30598425743E+01 -0.24598475656E+02  0.78067854129E+02  0.81908714368E+02  0.00000000000E+00 0. -1.
</event>
<event>
 4    1  0.5843276E+002  0.2000635E+02  0.7546771E-02  0.1533938E+00
          2   -1    0    0  502    0  0.00000000000E+00  0.00000000000E+00  0.41347990091E+02  0.41347990091E+02  0.00000000000E+00 0.  1.
         -2   -1    0    0    0  501 -0.00000000000E+00 -0.00000000000E+00 -0.89973320144E+02  0.89973320144E+02  0.00000000000E+00 0. -1.
         21    1    1    2  502  503 -0.18528685637E+02 -0.75459892922E+01  0.37715320934E+02  0.42693085845E+02  0.00000000000E+00 0.  1.
         21    1    1    2  503  501  0.18528685637E+02  0.75459892922E+01 -0.86340650986E+02  0.88628224390E+02  0.00000000000E+00 0. -1.
</event>
<event>
 4    1  0.5843276E+002  0.2743740E+02  0.7546771E-02  0.1443263E+00
          2   -1    0    0  503    0  0.00000000000E+00  0.00000000000E+00  0.33010340364E+02  0.33010340364E+02  0.00000000000E+00 0.  1.
         -2   -1    0    0    0  501 -0.00000000000E+00 -0.00000000000E+00 -0.24868121605E+02  0.24868121605E+02  0.00000000000E+00 0. -1.
         21    1    1    2  502  501  0.27419709040E+02 -0.98500477927E+00 -0.42637148993E+01  0.27766705657E+02  0.00000000000E+00 0. -1.
         21    1    1    2  503  502 -0.27419709040E+02  0.98500477927E+00  0.12405933659E+02  0.30111756312E+02  0.00000000000E+00 0.  1.
</event>
<event>
 4    1  0.5843276E+002  0.6568330E+02  0.7546771E-02  0.1241656E+00
          2   -1    0    0  502    0  0.00000000000E+00  0.00000000000E+00  0.20691508237E+02  0.20691508237E+02  0.00000000000E+00 0.  1.
         -2   -1    0    0    0  501 -0.00000000000E+00 -0.00000000000E+00 -0.24897248723E+03  0.24897248723E+03  0.00000000000E+00 0. -1.
         21    1    1    2  502  503 -0.51095850631E+02  0.41273604387E+02 -0.59782057281E+02  0.88815487070E+02  0.00000000000E+00 0.  1.
         21    1    1    2  503  501  0.51095850631E+02 -0.41273604387E+02 -0.16849892171E+03  0.18084850839E+03  0.00000000000E+00 0. -1.
</event>
<event>
 4    1  0.5843276E+002  0.3667514E+02  0.7546771E-02  0.1369154E+00
          2   -1    0    0  503    0  0.00000000000E+00  0.00000000000E+00  0.44638442987E+01  0.44638442987E+01  0.00000000000E+00 0. -1.
         -2   -1    0    0    0  501 -0.00000000000E+00 -0.00000000000E+00 -0.30502859548E+03  0.30502859548E+03  0.00000000000E+00 0.  1.
         21    1    1    2  502  501  0.85353510727E+00 -0.36665209867E+02 -0.13323001595E+03  0.13818575645E+03  0.00000000000E+00 0. -1.
         21    1    1    2  503  502 -0.85353510727E+00  0.36665209867E+02 -0.16733473524E+03  0.17130668333E+03  0.00000000000E+00 0.  1.
</event>
<event>
 4    1  0.5843276E+002  0.2912535E+02  0.7546771E-02  0.1427352E+00
          2   -1    0    0  503    0  0.00000000000E+00  0.00000000000E+00  0.43192099886E+01  0.43192099886E+01  0.00000000000E+00 0. -1.
         -2   -1    0    0    0  501 -0.00000000000E+00 -0.00000000000E+00 -0.21733243944E+03  0.21733243944E+03  0.00000000000E+00 0.  1.
         21    1    1    2  502  501  0.12687337768E+01  0.29097704729E+02 -0.14090236550E+03  0.14388107141E+03  0.00000000000E+00 0.  1.
         21    1    1    2  503  502 -0.12687337768E+01 -0.29097704729E+02 -0.72110863951E+02  0.77770578021E+02  0.00000000000E+00 0. -1.
</event>
<event>
 4    1  0.5843276E+002  0.2188557E+02  0.7546771E-02  0.1506987E+00
          2   -1    0    0  503    0  0.00000000000E+00  0.00000000000E+00  0.88319938309E+02  0.88319938309E+02  0.00000000000E+00 0.  1.
         -2   -1    0    0    0  501 -0.00000000000E+00 -0.00000000000E+00 -0.76488153943E+01  0.76488153943E+01  0.00000000000E+00 0. -1.
         21    1    1    2  502  501  0.17672439990E+02 -0.12909807520E+02  0.14451877588E+02  0.26226609220E+02  0.00000000000E+00 0. -1.
         21    1    1    2  503  502 -0.17672439990E+02  0.12909807520E+02  0.66219245327E+02  0.69742144483E+02  0.00000000000E+00 0.  1.
</event>
<event>
 4    1  0.5843276E+002  0.2105726E+02  0.7546771E-02  0.1518449E+00
          2   -1    0    0  502    0  0.00000000000E+00  0.00000000000E+00  0.13030719021E+01  0.13030719021E+01  0.00000000000E+00 0. -1.
         -2   -1    0    0    0  501 -0.00000000000E+00 -0.00000000000E+00 -0.34329216114E+03  0.34329216114E+03  0.00000000000E+00 0.  1.
         21    1    1    2  502  503 -0.11587359647E+00  0.21056942338E+02 -0.15485300211E+03  0.15627815110E+03  0.00000000000E+00 0. -1.
         21    1    1    2  503  501  0.11587359647E+00 -0.21056942338E+02 -0.18713608712E+03  0.18831708194E+03  0.00000000000E+00 0.  1.
</event>
<event>
 4    1  0.5843276E+002  0.6913957E+02  0.7546771E-02  0.1231588E+00
          2   -1    0    0  503    0  0.00000000000E+00  0.00000000000E+00  0.31053389461E+04  0.31053389461E+04  0.00000000000E+00 0. -1.
         -2   -1    0    0    0  501 -0.00000000000E+00 -0.00000000000E+00 -0.63376520751E+01  0.63376520751E+01  0.00000000000E+00 0.  1.
         21    1    1    2  502  501 -0.54995482500E+02 -0.41901993762E+02  0.19573672294E+03  0.20758888429E+03  0.00000000000E+00 0.  1.
         21    1    1    2  503  502  0.54995482500E+02  0.41901993762E+02  0.29032645711E+04  0.29040877139E+04  0.00000000000E+00 0. -1.
</event>
<event>
 4    1  0.5843276E+002  0.2432304E+02  0.7546771E-02  0.1476521E+00
          2   -1    0    0  502    0  0.00000000000E+00  0.00000000000E+00  0.21853799601E+03  0.21853799601E+03  0.00000000000E+00 0. -1.
         -2   -1    0    0    0  501 -0.00000000000E+00 -0.00000000000E+00 -0.67910136417E+01  0.67910136417E+01  0.00000000000E+00 0.  1.
         21    1    1    2  502  503 -0.16243555306E+02  0.18104064168E+02  0.19324234158E+03  0.19476707321E+03  0.00000000000E+00 0. -1.
         21    1    1    2  503  501  0.16243555306E+02 -0.18104064168E+02  0.18504640794E+02  0.30561936445E+02  0.00000000000E+00 0.  1.
</event>
<event>
 4    1  0.5843276E+002  0.2957981E+02  0.7546771E-02  0.1423283E+00
          2   -1    0    0  502    0  0.00000000000E+00  0.00000000000E+00  0.54652420438E+03  0.54652420438E+03  0.00000000000E+00 0.  1.
         -2   -1    0    0    0  501 -0.00000000000E+00 -0.00000000000E+00 -0.43945727691E+01  0.43945727691E+01  0.00000000000E+00 0. -1.
         21    1    1    2  502  503  0.29514875823E+02  0.19589592945E+01  0.49068996241E+03  0.49158072036E+03  0.00000000000E+00 0.  1.
         21    1    1    2  503  501 -0.29514875823E+02 -0.19589592945E+01  0.51439669197E+02  0.59338056788E+02  0.00000000000E+00 0. -1.
</event>
<event>
 4    1  0.5843276E+002  0.2179586E+02  0.7546771E-02  0.1508199E+00
          2   -1    0    0  502    0  0.00000000000E+00  0.00000000000E+00  0.31747181906E+03  0.31747181906E+03  0.00000000000E+00 0.  1.
         -2   -1    0    0    0  501 -0.00000000000E+00 -0.00000000000E+00 -0.25747092528E+01  0.25747092528E+01  0.00000000000E+00 0. -1.
         21    1    1    2  502  503 -0.63997476087E+01 -0.20835127907E+02  0.26100906627E+03  0.26191752901E+03  0.00000000000E+00 0.  1.
         21    1    1    2  503  501  0.63997476087E+01  0.20835127907E+02  0.53888043534E+02  0.58128999306E+02  0.00000000000E+00 0. -1.
</event>
<event>
 4    1  0.5843276E+002  0.2063157E+02  0.7546771E-02  0.1524591E+00
          2   -1    0    0  502    0  0.00000000000E+00  0.00000000000E+00  0.81616785090E+01  0.81616785090E+01  0.00000000000E+00 0. -1.
         -2   -1    0    0    0  501 -0.00000000000E+00 -0.00000000000E+00 -0.69272661270E+02  0.69272661270E+02  0.00000000000E+00 0.  1.
         21    1    1    2  502  503  0.17858115019E+02  0.10331962020E+02 -0.11308564090E+02  0.23527544134E+02  0.00000000000E+00 0.  1.
         21    1    1    2  503  501 -0.17858115019E+02 -0.10331962020E+02 -0.49802418671E+02  0.53906795645E+02  0.00000000000E+00 0. -1.
</event>
<event>
 4    1  0.5843276E+002  0.4713494E+02  0.7546771E-02  0.1311096E+00
          2   -1    0    0  502    0  0.00000000000E+00  0.00000000000E+00  0.15549005557E+04  0.15549005557E+04  0.00000000000E+00 0.  1.
         -2   -1    0    0    0  501 -0.00000000000E+00 -0.00000000000E+00 -0.20879854405E+01  0.20879854405E+01  0.00000000000E+00 0. -1.
         21    1    1    2  502  503 -0.43838338248E+02  0.17317702157E+02  0.12138101447E+04  0.12147249771E+04  0.00000000000E+00 0.  1.
         21    1    1    2  503  501  0.43838338248E+02 -0.17317702157E+02  0.33900242562E+03  0.34226356407E+03  0.00000000000E+00 0. -1.
</event>
<event>
 4    1  0.5843276E+002  0.2101367E+02  0.7546771E-02  0.1519070E+00
          2   -1    0    0  503    0  0.00000000000E+00  0.00000000000E+00  0.18844850506E+04  0.18844850506E+04  0.00000000000E+00 0. -1.
         -2   -1    0    0    0  501 -0.00000000000E+00 -0.00000000000E+00 -0.40198445230E+00  0.40198445230E+00  0.00000000000E+00 0.  1.
         21    1    1    2  502  501  0.99257238749E+01  0.18521729166E+02  0.33338836197E+03  0.33404995786E+03  0.00000000000E+00 0.  1.
         21    1    1    2  503  502 -0.99257238749E+01 -0.18521729166E+02  0.15506947042E+04  0.15508370772E+04  0.00000000000E+00 0. -1.
</event>
<event>
 4    1  0.5843276E+002  0.2558859E+02  0.7546771E-02  0.1462325E+00
          2   -1    0    0  503    0  0.00000000000E+00  0.00000000000E+00  0.12564099929E+03  0.12564099929E+03  0.00000000000E+00 0.  1.
         -2   -1    0    0    0  501 -0.00000000000E+00 -0.00000000000E+00 -0.62482359942E+02  0.62482359942E+02  0.00000000000E+00 0. -1.
         21    1    1    2  502  501 -0.42431713522E+01  0.25234335211E+02 -0.58474248713E+02  0.63828002783E+02  0.00000000000E+00 0. -1.
         21    1    1    2  503  502  0.42431713522E+01 -0.25234335211E+02  0.12163288806E+03  0.12429535645E+03  0.00000000000E+00 0.  1.
</event>
<event>
 4    1  0.5843276E+002  0.9772185E+02  0.7546771E-02  0.1167815E+00
          2   -1    0    0  503    0  0.00000000000E+00  0.00000000000E+00  0.56655529608E+03  0.56655529608E+03  0.00000000000E+00 0.  1.
         -2   -1    0    0    0  501 -0.00000000000E+00 -0.00000000000E+00 -0.27435042713E+02  0.27435042713E+02  0.00000000000E+00 0. -1.
         21    1    1    2  502  501 -0.29644902475E+02  0.93116806869E+02  0.85130588751E+02  0.12960238079E+03  0.00000000000E+00 0. -1.
         21    1    1    2  503  502  0.29644902475E+02 -0.93116806869E+02  0.45398966462E+03  0.46438795801E+03  0.00000000000E+00 0.  1.
</event>
<event>
 4    1  0.5843276E+002  0.3992285E+02  0.7546771E-02  0.1348939E+00
          2   -1    0    0  502    0  0.00000000000E+00  0.00000000000E+00  0.56588740579E+02  0.56588740579E+02  0.00000000000E+00 0. -1.
         -2   -1    0    0    0  501 -0.00000000000E+00 -0.00000000000E+00 -0.58806696665E+02  0.58806696665E+02  0.00000000000E+00 0.  1.
         21    1    1    2  502  503  0.36355707433E+02  0.16495343564E+02  0.40539598032E+02  0.56897212857E+02  0.00000000000E+00 0. -1.
         21    1    1    2  503  501 -0.36355707433E+02 -0.16495343564E+02 -0.42757554119E+02  0.58498224387E+02  0.00000000000E+00 0.  1.
</event>
<event>
 4    1  0.5843276E+002  0.2161193E+02  0.7546771E-02  0.1510705E+00
          2   -1    0    0  503    0  0.00000000000E+00  0.00000000000E+00  0.79565333937E+02  0.79565333937E+02  0.00000000000E+00 0.  1.
         -2   -1    0    0    0  501 -0.00000000000E+00 -0.00000000000E+00 -0.71079927609E+01  0.71079927609E+01  0.00000000000E+00 0. -1.
         21    1    1    2  502  501  0.21231570177E+02 -0.40368214168E+01  0.18145210642E+02  0.28219216300E+02  0.00000000000E+00 0.  1.
         21    1    1    2  503  502 -0.21231570177E+02  0.40368214168E+01  0.54312130534E+02  0.58454110399E+02  0.00000000000E+00 0. -1.
</event>
<event>
 4    1  0.5843276E+002  0.3053482E+02  0.7546771E-02  0.1415005E+00
          2   -1    0    0  502    0  0.00000000000E+00  0.00000000000E+00  0.88315413902E+03  0.88315413902E+03  0.00000000000E+00 0.  1.
         -2   -1    0    0    0  501 -0.00000000000E+00 -0.00000000000E+00 -0.61505847577E+01  0.61505847577E+01  0.00000000000E+00 0. -1.
         21    1    1    2  502  503  0.21546199420E+02  0.21636456692E+02  0.84319709123E+03  0.84374979089E+03  0.00000000000E+00 0.  1.
         21    1    1    2  503  501 -0.21546199420E+02 -0.21636456692E+02  0.33806463031E+02  0.45554932887E+02  0.00000000000E+00 0. -1.
</event>
<event>
 4    1  0.5843276E+002  0.2867246E+02  0.7546771E-02  0.1431494E+00
          2   -1    0    0  503    0  0.00000000000E+00  0.00000000000E+00  0.63423800241E+03  0.63423800241E+03  0.00000000000E+00 0.  1.
         -2   -1    0    0    0  501 -0.00000000000E+00 -0.00000000000E+00 -0.28290416235E+01  0.28290416235E+01  0.00000000000E+00 0. -1.
         21    1    1    2  502  501 -0.26771422054E+02  0.10266505255E+02  0.81237500489E+02  0.86148950398E+02  0.00000000000E+00 0. -1.
         21    1    1    2  503  502  0.26771422054E+02 -0.10266505255E+02  0.55017146030E+03  0.55091809363E+03  0.00000000000E+00 0.  1.
</event>
<event>
 4    1  0.5843276E+002  0.3027911E+02  0.7546771E-02  0.1417186E+00
          2   -1    0    0  503    0  0.00000000000E+00  0.00000000000E+00  0.25991901670E+02  0.25991901670E+02  0.00000000000E+00 0.  1.
         -2   -1    0    0    0  501 -0.00000000000E+00 -0.00000000000E+00 -0.12895341984E+03  0.12895341984E+03  0.00000000000E+00 0. -1.
         21    1    1    2  502  501 -0.30795977157E+01 -0.30122095278E+02 -0.11751289814E+03  0.12135116718E+03  0.00000000000E+00 0. -1.
         21    1    1    2  503  502  0.30795977157E+01  0.30122095278E+02  0.14551379973E+02  0.33594154330E+02  0.00000000000E+00 0.  1.
</event>
<event>
 4    1  0.5843276E+002  0.3656210E+02  0.7546771E-02  0.1369902E+00
          2   -1    0    0  502    0  0.00000000000E+00  0.00000000000E+00  0.78202685091E+02  0.78202685091E+02  0.00000000000E+00 0. -1.
         -2   -1    0    0    0  501 -0.00000000000E+00 -0.00000000000E+00 -0.29084737058E+02  0.29084737058E+02  0.00000000000E+00 0.  1.
         21    1    1    2  502  503 -0.36560748617E+02  0.31449635941E+00 -0.98848508429E+01  0.37874761037E+02  0.00000000000E+00 0.  1.
         21    1    1    2  503  501  0.36560748617E+02 -0.31449635941E+00  0.59002798876E+02  0.69412661112E+02  0.00000000000E+00 0. -1.
</event>
<event>
 4    1  0.5843276E+002  0.2583828E+02  0.7546771E-02  0.1459640E+00
          2   -1    0    0  503    0  0.00000000000E+00  0.00000000000E+00  0.11701219205E+01  0.11701219205E+01  0.00000000000E+00 0. -1.
         -2   -1    0    0    0  501 -0.00000000000E+00 -0.00000000000E+00 -0.57575035122E+03  0.57575035122E+03  0.00000000000E+00 0.  1.
         21    1    1    2  502  501 -0.34432496103E+01  0.25607826676E+02 -0.31469660068E+03  0.31575554981E+03  0.00000000000E+00 0.  1.
         21    1    1    2  503  502  0.34432496103E+01 -0.25607826676E+02 -0.25988362861E+03  0.26116492333E+03  0.00000000000E+00 0. -1.
</event>
<event>
 4    1  0.5843276E+002  0.7642270E+02  0.7546771E-02  0.1212405E+00
          2   -1    0    0  503    0  0.00000000000E+00  0.00000000000E+00  0.65519912050E+03  0.65519912050E+03  0.00000000000E+00 0.  1.
         -2   -1    0    0    0  501 -0.00000000000E+00 -0.00000000000E+00 -0.89201549893E+01  0.89201549893E+01  0.00000000000E+00 0. -1.
         21    1    1    2  502  501  0.68776594674E+02  0.33319794215E+02  0.33187964294E+03  0.34056501004E+03  0.00000000000E+00 0. -1.
         21    1    1    2  503  502 -0.68776594674E+02 -0.33319794215E+02  0.31439932257E+03  0.32355426545E+03  0.00000000000E+00 0.  1.
</event>
<event>
 4    1  0.5843276E+002  0.2195301E+02  0.7546771E-02  0.1506081E+00
          2   -1    0    0  503    0  0.00000000000E+00  0.00000000000E+00  0.16675457849E+03  0.16675457849E+03  0.00000000000E+00 0. -1.
         -2   -1    0    0    0  501 -0.00000000000E+00 -0.00000000000E+00 -0.15721703538E+02  0.15721703538E+02  0.00000000000E+00 0.  1.
         21    1    1    2  502  501 -0.10005124156E+02 -0.19540529330E+02 -0.69101571834E+01  0.23014887968E+02  0.00000000000E+00 0.  1.
         21    1    1    2  503  502  0.10005124156E+02  0.19540529330E+02  0.15794303214E+03  0.15946139407E+03  0.00000000000E+00 0. -1.
</event>
<event>
 4    1  0.5843276E+002  0.4465222E+02  0.7546771E-02  0.1323188E+00
          2   -1    0    0  502    0  0.00000000000E+00  0.00000000000E+00  0.89453470076E+01  0.89453470076E+01  0.00000000000E+00 0. -1.
         -2   -1    0    0    0  501 -0.00000000000E+00 -0.00000000000E+00 -0.25608938419E+03  0.25608938419E+03  0.00000000000E+00 0.  1.
         21    1    1    2  502  503  0.20409164389E+02  0.39715074879E+02 -0.75857855925E+02  0.88024061876E+02  0.00000000000E+00 0. -1.
         21    1    1    2  503  501 -0.20409164389E+02 -0.39715074879E+02 -0.17128618126E+03  0.17701066933E+03  0.00000000000E+00 0.  1.
</event>
<event>
 4    1  0.5843276E+002  0.3278286E+02  0.7546771E-02  0.1396858E+00
          2   -1    0    0  503    0  0.00000000000E+00  0.00000000000E+00  0.43544583275E+03  0.43544583275E+03  0.00000000000E+00 0. -1.
         -2   -1    0    0    0  501 -0.00000000000E+00 -0.00000000000E+00 -0.30761686084E+01  0.30761686084E+01  0.00000000000E+00 0.  1.
         21    1    1    2  502  501 -0.29845761246E+02 -0.13562675359E+02  0.11869947943E+03  0.12314333942E+03  0.00000000000E+00 0.  1.
         21    1    1    2  503  502  0.29845761246E+02  0.13562675359E+02  0.31367018471E+03  0.31537866194E+03  0.00000000000E+00 0. -1.
</event>
<event>
 4    1  0.5843276E+002  0.2779096E+02  0.7546771E-02  0.1439821E+00
          2   -1    0    0  502    0  0.00000000000E+00  0.00000000000E+00  0.93147640834E+03  0.93147640834E+03  0.00000000000E+00 0. -1.
         -2   -1    0    0    0  501 -0.00000000000E+00 -0.00000000000E+00 -0.83530388768E+00  0.83530388768E+00  0.00000000000E+00 0.  1.
         21    1    1    2  502  503 -0.24089193424E+02 -0.13858154736E+02  0.50531788333E+03  0.50608151607E+03  0.00000000000E+00 0.  1.
         21    1    1    2  503  501  0.24089193424E+02  0.13858154736E+02  0.42532322112E+03  0.42623019616E+03  0.00000000000E+00 0. -1.
</event>
<event>
 4    1  0.5843276E+002  0.2635212E+02  0.7546771E-02  0.1454227E+00
          2   -1    0    0  502    0  0.00000000000E+00  0.00000000000E+00  0.21941743716E+03  0.21941743716E+03  0.00000000000E+00 0.  1.
         -2   -1    0    0    0  501 -0.00000000000E+00 -0.00000000000E+00 -0.34082744328E+01  0.34082744328E+01  0.00000000000E+00 0. -1.
         21    1    1    2  502  503  0.97302991477E+01 -0.24489905655E+02  0.13777642250E+03  0.14027393485E+03  0.00000000000E+00 0.  1.
         21    1    1    2  503  501 -0.97302991477E+01  0.24489905655E+02  0.78232740229E+02  0.82551776748E+02  0.00000000000E+00 0. -1.
</event>
<event>
 4    1  0.5843276E+002  0.1142219E+03  0.7546771E-02  0.1141215E+00
          2   -1    0    0  503    0  0.00000000000E+00  0.00000000000E+00  0.15384183389E+04  0.15384183389E+04  0.00000000000E+00 0.  1.
         -2   -1    0    0    0  501 -0.00000000000E+00 -0.00000000000E+00 -0.84834813385E+01  0.84834813385E+01  0.00000000000E+00 0. -1.
         21    1    1    2  502  501 -0.89757414489E+02  0.70641677247E+02  0.77933460557E+03  0.78766050266E+03  0.00000000000E+00 0. -1.
         21    1    1    2  503  502  0.89757414489E+02 -0.70641677247E+02  0.75060025197E+03  0.75924131756E+03  0.00000000000E+00 0.  1.
</event>
<event>
 4    1  0.5843276E+002  0.2373339E+02  0.7546771E-02  0.1483489E+00
          2   -1    0    0  503    0  0.00000000000E+00  0.00000000000E+00  0.49415044446E+01  0.49415044446E+01  0.00000000000E+00 0. -1.
         -2   -1    0    0    0  501 -0.00000000000E+00 -0.00000000000E+00 -0.23015421587E+03  0.23015421587E+03  0.00000000000E+00 0.  1.
         21    1    1    2  502  501 -0.15537565144E+02  0.17940398454E+02 -0.19611752591E+03  0.19754836825E+03  0.00000000000E+00 0.  1.
         21    1    1    2  503  502  0.15537565144E+02 -0.17940398454E+02 -0.29095185517E+02  0.37547352071E+02  0.00000000000E+00 0. -1.
</event>
<event>
 4    1  0.5843276E+002  0.3032913E+02  0.7546771E-02  0.1416757E+00
          2   -1    0    0  502    0  0.00000000000E+00  0.00000000000E+00  0.16253934427E+04  0.16253934427E+04  0.00000000000E+00 0.  1.
         -2   -1    0    0    0  501 -0.00000000000E+00 -0.00000000000E+00 -0.63454579119E+00  0.63454579119E+00  0.00000000000E+00 0. -1.
         21    1    1    2  502  503  0.16930083382E+02  0.25164024028E+02  0.10797321497E+04  0.10801580305E+04  0.00000000000E+00 0.  1.
         21    1    1    2  503  501 -0.16930083382E+02 -0.25164024028E+02  0.54502674724E+03  0.54586995799E+03  0.00000000000E+00 0. -1.
</event>
<event>
 4    1  0.5843276E+002  0.5217850E+02  0.7546771E-02  0.1288994E+00
          2   -1    0    0  502    0  0.00000000000E+00  0.00000000000E+00  0.78902666197E+03  0.78902666197E+03  0.00000000000E+00 0. -1.
         -2   -1    0    0    0  501 -0.00000000000E+00 -0.00000000000E+00 -0.38341963612E+01  0.38341963612E+01  0.00000000000E+00 0.  1.
         21    1    1    2  502  503 -0.51439376821E+02 -0.87513465858E+01  0.51799154005E+03  0.52061293791E+03  0.00000000000E+00 0. -1.
         21    1    1    2  503  501  0.51439376821E+02  0.87513465858E+01  0.26720092555E+03  0.27224792042E+03  0.00000000000E+00 0.  1.
</event>
<event>
 4    1  0.5843276E+002  0.2073252E+02  0.7546771E-02  0.1523118E+00
          2   -1    0    0  503    0  0.00000000000E+00  0.00000000000E+00  0.52529662452E+02  0.52529662452E+02  0.00000000000E+00 0. -1.
         -2   -1    0    0    0  501 -0.00000000000E+00 -0.00000000000E+00 -0.32957795711E+02  0.32957795711E+02  0.00000000000E+00 0.  1.
         21    1    1    2  502  501  0.15031344511E+02  0.14279215761E+02 -0.27273649307E+02  0.34259148662E+02  0.00000000000E+00 0.  1.
         21    1    1    2  503  502 -0.15031344511E+02 -0.14279215761E+02  0.46845516047E+02  0.51228309500E+02  0.00000000000E+00 0. -1.
</event>
<event>
 4    1  0.5843276E+002  0.2156305E+02  0.7546771E-02  0.1511376E+00
          2   -1    0    0  502    0  0.00000000000E+00  0.00000000000E+00  0.26325560223E+01  0.26325560223E+01  0.00000000000E+00 0. -1.
         -2   -1    0    0    0  501 -0.00000000000E+00 -0.00000000000E+00 -0.20145426251E+03  0.20145426251E+03  0.00000000000E+00 0.  1.
         21    1    1    2  502  503 -0.59828509248E+01 -0.20716438120E+02 -0.63583765656E+02  0.67140602980E+02  0.00000000000E+00 0. -1.
         21    1    1    2  503  501  0.59828509248E+01  0.20716438120E+02 -0.13523794083E+03  0.13694621555E+03  0.00000000000E+00 0.  1.
</event>
<event>
 4    1  0.5843276E+002  0.3863441E+02  0.7546771E-02  0.1356679E+00
          2   -1    0    0  502    0  0.00000000000E+00  0.00000000000E+00  0.93371205007E+03  0.93371205007E+03  0.00000000000E+00 0. -1.
         -2   -1    0    0    0  501 -0.00000000000E+00 -0.00000000000E+00 -0.16079121786E+01  0.16079121786E+01  0.00000000000E+00 0.  1.
         21    1    1    2  502  503  0.37697268399E+02 -0.84577437155E+01  0.43043245133E+03  0.43216283115E+03  0.00000000000E+00 0.  1.
         21    1    1    2  503  501 -0.37697268399E+02  0.84577437155E+01  0.50167168657E+03  0.50315713110E+03  0.00000000000E+00 0. -1.
</event>
<event>
 4    1  0.5843276E+002  0.5558179E+02  0.7546771E-02  0.1275631E+00
          2   -1    0    0  503    0  0.00000000000E+00  0.00000000000E+00  0.86047453606E+03  0.86047453606E+03  0.00000000000E+00 0. -1.
         -2   -1    0    0    0  501 -0.00000000000E+00 -0.00000000000E+00 -0.17182935931E+02  0.17182935931E+02  0.00000000000E+00 0.  1.
         21    1    1    2  502  501  0.52505341645E+02 -0.18235261300E+02  0.31345666459E+02  0.63811334900E+02  0.00000000000E+00 0.  1.
         21    1    1    2  503  502 -0.52505341645E+02  0.18235261300E+02  0.81194593367E+03  0.81384613709E+03  0.00000000000E+00 0. -1.
</event>
<event>
 4    1  0.5843276E+002  0.2757819E+02  0.7546771E-02  0.1441885E+00
          2   -1    0    0  502    0  0.00000000000E+00  0.00000000000E+00  0.86953941939E+03  0.86953941939E+03  0.00000000000E+00 0. -1.
         -2   -1    0    0    0  501 -0.00000000000E+00 -0.00000000000E+00 -0.12098107817E+01  0.12098107817E+01  0.00000000000E+00 0.  1.
         21    1    1    2  502  503  0.68881370693E+01  0.26704127119E+02  0.66331509188E+03  0.66388814416E+03  0.00000000000E+00 0. -1.
         21    1    1    2  503  501 -0.68881370693E+01 -0.26704127119E+02  0.20501451672E+03  0.20686108601E+03  0.00000000000E+00 0.  1.
</event>
<event>
 4    1  0.5843276E+002  0.2459174E+02  0.7546771E-02  0.1473423E+00
          2   -1    0    0  503    0  0.00000000000E+00  0.00000000000E+00  0.11398883344E+03  0.11398883344E+03  0.00000000000E+00 0. -1.
         -2   -1    0    0    0  501 -0.00000000000E+00 -0.00000000000E+00 -0.21272859551E+02  0.21272859551E+02  0.00000000000E+00 0.  1.
         21    1    1    2  502  501 -0.88644656741E+01 -0.22938507295E+02 -0.12235601471E+02  0.27467504655E+02  0.00000000000E+00 0.  1.
         21    1    1    2  503  502  0.88644656741E+01  0.22938507295E+02  0.10495157536E+03  0.10779418833E+03  0.00000000000E+00 0. -1.
</event>
<event>
 4    1  0.5843276E+002  0.3746850E+02  0.7546771E-02  0.1363995E+00
          2   -1    0    0  503    0  0.00000000000E+00  0.00000000000E+00  0.27254594517E+01  0.27254594517E+01  0.00000000000E+00 0.  1.
         -2   -1    0    0    0  501 -0.00000000000E+00 -0.00000000000E+00 -0.52160839255E+03  0.52160839255E+03  0.00000000000E+00 0. -1.
         21    1    1    2  502  501 -0.20594785544E+02 -0.31300854372E+02 -0.28872255653E+03  0.29114361289E+03  0.00000000000E+00 0.  1.
         21    1    1    2  503  502  0.20594785544E+02  0.31300854372E+02 -0.23016037657E+03  0.23319023912E+03  0.00000000000E+00 0. -1.
</event>
<event>
 4    1  0.5843276E+002  0.2423759E+02  0.7546771E-02  0.1477516E+00
          2   -1    0    0  502    0  0.00000000000E+00  0.00000000000E+00  0.49205613400E+02  0.49205613400E+02  0.00000000000E+00 0.  1.
         -2   -1    0    0    0  501 -0.00000000000E+00 -0.00000000000E+00 -0.21713660463E+02  0.21713660463E+02  0.00000000000E+00 0. -1.
         21    1    1    2  502  503 -0.12395124462E+02 -0.20828380683E+02  0.37537430283E+02  0.44682426350E+02  0.00000000000E+00 0.  1.
         21    1    1    2  503  501  0.12395124462E+02  0.20828380683E+02 -0.10045477346E+02  0.26236847513E+02  0.00000000000E+00 0. -1.
</event>
<event>
 4    1  0.5843276E+002  0.2389050E+02  0.7546771E-02  0.1481609E+00
          2   -1    0    0  503    0  0.00000000000E+00  0.00000000000E+00  0.15500051094E+03  0.15500051094E+03  0.00000000000E+00 0.  1.
         -2   -1    0    0    0  501 -0.00000000000E+00 -0.00000000000E+00 -0.39433838268E+01  0.39433838268E+01  0.00000000000E+00 0. -1.
         21    1    1    2  502  501  0.30236063358E+01  0.23698396072E+02  0.55079135229E+02  0.60037216035E+02  0.00000000000E+00 0. -1.
         21    1    1    2  503  502 -0.30236063358E+01 -0.23698396072E+02  0.95977991887E+02  0.98906678735E+02  0.00000000000E+00 0.  1.
</event>
<event>
 4    1  0.5843276E+002  0.2146029E+02  0.7546771E-02  0.1512794E+00
          2   -1    0    0  502    0  0.00000000000E+00  0.00000000000E+00  0.27177098551E+01  0.27177098551E+01  0.00000000000E+00 0. -1.
         -2   -1    0    0    0  501 -0.00000000000E+00 -0.00000000000E+00 -0.17081492474E+03  0.17081492474E+03  0.00000000000E+00 0.  1.
         21    1    1    2  502  503  0.21196698142E+02 -0.33532206484E+01 -0.91775191361E+02  0.94250887795E+02  0.00000000000E+00 0.  1.
         21    1    1    2  503  501 -0.21196698142E+02  0.33532206484E+01 -0.76322023522E+02  0.79281746798E+02  0.00000000000E+00 0. -1.
</event>
<event>
 4    1  0.5843276E+002  0.2224444E+02  0.7546771E-02  0.1502210E+00
          2   -1    0    0  503    0  0.00000000000E+00  0.00000000000E+00  0.15731030597E+04  0.15731030597E+04  0.00000000000E+00 0. -1.
         -2   -1    0    0    0  501 -0.00000000000E+00 -0.00000000000E+00 -0.77522117469E+00  0.77522117469E+00  0.00000000000E+00 0.  1.
         21    1    1    2  502  501 -0.19853184995E+02 -0.10033256898E+02  0.17953213466E+03  0.18090495454E+03  0.00000000000E+00 0.  1.
         21    1    1    2  503  502  0.19853184995E+02  0.10033256898E+02  0.13927957039E+04  0.13929733264E+04  0.00000000000E+00 0. -1.
</event>
<event>
 4    1  0.5843276E+002  0.2012986E+02  0.7546771E-02  0.1532060E+00
          2   -1    0    0  503    0  0.00000000000E+00  0.00000000000E+00  0.45055772563E+03  0.45055772563E+03  0.00000000000E+00 0.  1.
         -2   -1    0    0    0  501 -0.00000000000E+00 -0.00000000000E+00 -0.12550438864E+01  0.12550438864E+01  0.00000000000E+00 0. -1.
         21    1    1    2  502  501  0.93981936934E+01 -0.17801268069E+02  0.10438768397E+03  0.10631086376E+03  0.00000000000E+00 0. -1.
         21    1    1    2  503  502 -0.93981936934E+01  0.17801268069E+02  0.34491499777E+03  0.34550190575E+03  0.00000000000E+00 0.  1.
</event>
<event>
 4    1  0.5843276E+002  0.2214905E+02  0.7546771E-02  0.1503469E+00
          2   -1    0    0  502    0  0.00000000000E+00  0.00000000000E+00  0.10775720962E+03  0.10775720962E+03  0.00000000000E+00 0. -1.
         -2   -1    0    0    0  501 -0.00000000000E+00 -0.00000000000E+00 -0.71719903597E+01  0.71719903597E+01  0.00000000000E+00 0.  1.
         21    1    1    2  502  503 -0.52148359483E+01 -0.21526397255E+02  0.85020383384E+02  0.87858100841E+02  0.00000000000E+00 0. -1.
         21    1    1    2  503  501  0.52148359483E+01  0.21526397255E+02  0.15564835878E+02  0.27071099140E+02  0.00000000000E+00 0.  1.
</event>
<event>
 4    1  0.5843276E+002  0.2103002E+02  0.7546771E-02  0.1518837E+00
          2   -1    0    0  503    0  0.00000000000E+00  0.00000000000E+00  0.10955354772E+04  0.10955354772E+04  0.00000000000E+00 0. -1.
         -2   -1    0    0    0  501 -0.00000000000E+00 -0.00000000000E+00 -0.43859877174E+00  0.43859877174E+00  0.00000000000E+00 0.  1.
         21    1    1    2  502  501 -0.19915826817E+02  0.67543626645E+01  0.39296025694E+03  0.39352258526E+03  0.00000000000E+00 0.  1.
         21    1    1    2  503  502  0.19915826817E+02 -0.67543626645E+01  0.70213662147E+03  0.70245149069E+03  0.00000000000E+00 0. -1.
</event>
<event>
 4    1  0.5843276E+002  0.2357236E+02  0.7546771E-02  0.1485433E+00
          2   -1    0    0  502    0  0.00000000000E+00  0.00000000000E+00  0.82594250202E+02  0.82594250202E+02  0.00000000000E+00 0.  1.
         -2   -1    0    0    0  501 -0.00000000000E+00 -0.00000000000E+00 -0.12159346948E+02  0.12159346948E+02  0.00000000000E+00 0. -1.
         21    1    1    2  502  503  0.23082805732E+02  0.47791373616E+01  0.66882690707E+02  0.70915092827E+02  0.00000000000E+00 0.  1.
         21    1    1    2  503  501 -0.23082805732E+02 -0.47791373616E+01  0.35522125470E+01  0.23838504323E+02  0.00000000000E+00 0. -1.
</event>
<event>
 4    1  0.5843276E+002  0.2046400E+02  0.7546771E-02  0.1527057E+00
          2   -1    0    0  502    0  0.00000000000E+00  0.00000000000E+00  0.28750046348E+02  0.28750046348E+02  0.00000000000E+00 0. -1.
         -2   -1    0    0    0  501 -0.00000000000E+00 -0.00000000000E+00 -0.19274467727E+02  0.19274467727E+02  0.00000000000E+00 0.  1.
         21    1    1    2  502  503 -0.75632094185E+01  0.19015077851E+02  0.16605805805E+02  0.26353901207E+02  0.00000000000E+00 0. -1.
         21    1    1    2  503  501  0.75632094185E+01 -0.19015077851E+02 -0.71302271831E+01  0.21670612868E+02  0.00000000000E+00 0.  1.
</event>
<event>
 4    1  0.5843276E+002  0.2747579E+02  0.7546771E-02  0.1442886E+00
          2   -1    0    0  503    0  0.00000000000E+00  0.00000000000E+00  0.10870253442E+04  0.10870253442E+04  0.00000000000E+00 0.  1.
         -2   -1    0    0    0  501 -0.00000000000E+00 -0.00000000000E+00 -0.16239483300E+01  0.16239483300E+01  0.00000000000E+00 0. -1.
         21    1    1    2  502  501 -0.22480460507E+02 -0.15797091253E+02  0.13089836818E+03  0.13375089528E+03  0.00000000000E+00 0. -1.
         21    1    1    2  503  502  0.22480460507E+02  0.15797091253E+02  0.95450302767E+03  0.95489839723E+03  0.00000000000E+00 0.  1.
</event>
<event>
 4    1  0.5843276E+002  0.2106043E+02  0.7546771E-02  0.1518404E+00
          2   -1    0    0  502    0  0.00000000000E+00  0.00000000000E+00  0.64752123894E+02  0.64752123894E+02  0.00000000000E+00 0. -1.
         -2   -1    0    0    0  501 -0.00000000000E+00 -0.00000000000E+00 -0.71629889908E+01  0.71629889908E+01  0.00000000000E+00 0.  1.
         21    1    1    2  502  503 -0.15681779361E+02 -0.14057863799E+02  0.21276296038E+02  0.29936975659E+02  0.00000000000E+00 0.  1.
         21    1    1    2  503  501  0.15681779361E+02  0.14057863799E+02  0.36312838866E+02  0.41978137226E+02  0.00000000000E+00 0. -1.
</event>
<event>
 4    1  0.5843276E+002  0.2125040E+02  0.7546771E-02  0.1515720E+00
          2   -1    0    0  503    0  0.00000000000E+00  0.00000000000E+00  0.75104129327E+01  0.75104129327E+01  0.00000000000E+00 0.  1.
         -2   -1    0    0    0  501 -0.00000000000E+00 -0.00000000000E+00 -0.24908713627E+03  0.24908713627E+03  0.00000000000E+00 0. -1.
         21    1    1    2  502  501  0.16645347719E+02  0.13210296402E+02 -0.23253431694E+03  0.23350329353E+03  0.00000000000E+00 0. -1.
         21    1    1    2  503  502 -0.16645347719E+02 -0.13210296402E+02 -0.90424063901E+01  0.23094255672E+02  0.00000000000E+00 0.  1.
</event>
<event>
 4    1  0.5843276E+002  0.2618018E+02  0.7546771E-02  0.1456022E+00
          2   -1    0    0  503    0  0.00000000000E+00  0.00000000000E+00  0.83886825385E+02  0.83886825385E+02  0.00000000000E+00 0. -1.
         -2   -1    0    0    0  501 -0.00000000000E+00 -0.00000000000E+00 -0.90393579331E+01  0.90393579331E+01  0.00000000000E+00 0.  1.
         21    1    1    2  502  501  0.19843706172E+02 -0.17077150276E+02  0.23019156999E+02  0.34860914003E+02  0.00000000000E+00 0.  1.
         21    1    1    2  503  502 -0.19843706172E+02  0.17077150276E+02  0.51828310453E+02  0.58065269315E+02  0.00000000000E+00 0. -1.
</event>
<event>
 4    1  0.5843276E+002  0.2080267E+02  0.7546771E-02  0.1522101E+00
          2   -1    0    0  503    0  0.00000000000E+00  0.00000000000E+00  0.40284622085E+01  0.40284622085E+01  0.00000000000E+00 0.  1.
         -2   -1    0    0    0  501 -0.00000000000E+00 -0.00000000000E+00 -0.20000202427E+03  0.20000202427E+03  0.00000000000E+00 0. -1.
         21    1    1    2  502  501  0.63017888073E+01  0.19825196281E+02 -0.16739378961E+03  0.16868145052E+03  0.00000000000E+00 0. -1.
         21    1    1    2  503  502 -0.63017888073E+01 -0.19825196281E+02 -0.28579772451E+02  0.35349035957E+02  0.00000000000E+00 0.  1.
</event>
<event>
 4    1  0.5843276E+002  0.3280589E+02  0.7546771E-02  0.1396681E+00
          2   -1    0    0  502    0  0.00000000000E+00  0.00000000000E+00  0.18213653750E+03  0.18213653750E+03  0.00000000000E+00 0. -1.
         -2   -1    0    0    0  501 -0.00000000000E+00 -0.00000000000E+00 -0.13978517044E+02  0.13978517044E+02  0.00000000000E+00 0.  1.
         21    1    1    2  502  503  0.13847276629E+02 -0.29740192951E+02  0.95754691648E+01  0.34174782465E+02  0.00000000000E+00 0.  1.
         21    1    1    2  503  501 -0.13847276629E+02  0.29740192951E+02  0.15858255129E+03  0.16194027208E+03  0.00000000000E+00 0. -1.
</event>
<event>
 4    1  0.5843276E+002  0.2268987E+02  0.7546771E-02  0.1496430E+00
          2   -1    0    0  503    0  0.00000000000E+00  0.00000000000E+00  0.11446374502E+04  0.11446374502E+04  0.00000000000E+00 0. -1.
         -2   -1    0    0    0  501 -0.00000000000E+00 -0.00000000000E+00 -0.48800239604E+00  0.48800239604E+00  0.00000000000E+00 0.  1.
         21    1    1    2  502  501  0.56059794385E+01  0.21986435153E+02  0.41182608258E+03  0.41245066691E+03  0.00000000000E+00 0. -1.
         21    1    1    2  503  502 -0.56059794385E+01 -0.21986435153E+02  0.73232336525E+03  0.73267478572E+03  0.00000000000E+00 0.  1.
</event>
<event>
 4    1  0.5843276E+002  0.2631530E+02  0.7546771E-02  0.1454610E+00
          2   -1    0    0  503    0  0.00000000000E+00  0.00000000000E+00  0.24659096416E+02  0.24659096416E+02  0.00000000000E+00 0. -1.
         -2   -1    0    0    0  501 -0.00000000000E+00 -0.00000000000E+00 -0.77570032045E+02  0.77570032045E+02  0.00000000000E+00 0.  1.
         21    1    1    2  502  501  0.19314190752E+02  0.17873358317E+02 -0.67282192332E+02  0.72245334153E+02  0.00000000000E+00 0.  1.
         21    1    1    2  503  502 -0.19314190752E+02 -0.17873358317E+02  0.14371256702E+02  0.29983794308E+02  0.00000000000E+00 0. -1.
</event>
<event>
 4    1  0.5843276E+002  0.4608055E+02  0.7546771E-02  0.1316123E+00
          2   -1    0    0  502    0  0.00000000000E+00  0.00000000000E+00  0.60907012622E+03  0.60907012622E+03  0.00000000000E+00 0. -1.
         -2   -1    0    0    0  501 -0.00000000000E+00 -0.00000000000E+00 -0.71109222674E+01  0.71109222674E+01  0.00000000000E+00 0.  1.
         21    1    1    2  502  503  0.31650772874E+02 -0.33490981290E+02  0.52094034191E+03  0.52297443253E+03  0.00000000000E+00 0. -1.
         21    1    1    2  503  501 -0.31650772874E+02  0.33490981290E+02  0.81018862037E+02  0.93206615951E+02  0.00000000000E+00 0.  1.
</event>
<event>
 4    1  0.5843276E+002  0.2345438E+02  0.7546771E-02  0.1486870E+00
          2   -1    0    0  503    0  0.00000000000E+00  0.00000000000E+00  0.34830356980E+03  0.34830356980E+03  0.00000000000E+00 0. -1.
         -2   -1    0    0    0  501 -0.00000000000E+00 -0.00000000000E+00 -0.74450022140E+01  0.74450022140E+01  0.00000000000E+00 0.  1.
         21    1    1    2  502  501  0.13693147480E+02  0.19042212859E+02  0.12545573624E+02  0.26598864187E+02  0.00000000000E+00 0.  1.
         21    1    1    2  503  502 -0.13693147480E+02 -0.19042212859E+02  0.32831299396E+03  0.32914970782E+03  0.00000000000E+00 0. -1.
</event>
<event>
 4    1  0.5843276E+002  0.2133439E+02  0.7546771E-02  0.1514544E+00
          2   -1    0    0  503    0  0.00000000000E+00  0.00000000000E+00  0.42040320594E+01  0.42040320594E+01  0.00000000000E+00 0.  1.
         -2   -1    0    0    0  501 -0.00000000000E+00 -0.00000000000E+00 -0.13830889685E+03  0.13830889685E+03  0.00000000000E+00 0. -1.
         21    1    1    2  502  501  0.20830765015E+02 -0.46082033284E+01 -0.33842676061E+02  0.40006037445E+02  0.00000000000E+00 0.  1.
         21    1    1    2  503  502 -0.20830765015E+02  0.46082033284E+01 -0.10026218873E+03  0.10250689147E+03  0.00000000000E+00 0. -1.
</event>
<event>
 4    1  0.5843276E+002  0.2282551E+02  0.7546771E-02  0.1494701E+00
          2   -1    0    0  503    0  0.00000000000E+00  0.00000000000E+00  0.44108647979E+02  0.44108647979E+02  0.00000000000E+00 0. -1.
         -2   -1    0    0    0  501 -0.00000000000E+00 -0.00000000000E+00 -0.34881577726E+02  0.34881577726E+02  0.00000000000E+00 0.  1.
         21    1    1    2  502  501  0.17276804774E+02 -0.14916972388E+02 -0.27505809829E+02  0.35743161902E+02  0.00000000000E+00 0.  1.
         21    1    1    2  503  502 -0.17276804774E+02  0.14916972388E+02  0.36732880082E+02  0.43247063802E+02  0.00000000000E+00 0. -1.
</event>
<event>
 4    1  0.5843276E+002  0.2255399E+02  0.7546771E-02  0.1498176E+00
          2   -1    0    0  502    0  0.00000000000E+00  0.00000000000E+00  0.98808554563E+03  0.98808554563E+03  0.00000000000E+00 0. -1.
         -2   -1    0    0    0  501 -0.00000000000E+00 -0.00000000000E+00 -0.51731924999E+00  0.51731924999E+00  0.00000000000E+00 0.  1.
         21    1    1    2  502  503 -0.98896824568E+01 -0.20270091329E+02  0.45940066380E+03  0.45995396762E+03  0.00000000000E+00 0. -1.
         21    1    1    2  503  501  0.98896824568E+01  0.20270091329E+02  0.52816756258E+03  0.52864889727E+03  0.00000000000E+00 0.  1.
</event>
<event>
 4    1  0.5843276E+002  0.2745503E+02  0.7546771E-02  0.1443090E+00
          2   -1    0    0  503    0  0.00000000000E+00  0.00000000000E+00  0.14847762970E+03  0.14847762970E+03  0.00000000000E+00 0.  1.
         -2   -1    0    0    0  501 -0.00000000000E+00 -0.00000000000E+00 -0.11051349799E+02  0.11051349799E+02  0.00000000000E+00 0. -1.
         21    1    1    2  502  501  0.24965533633E+02  0.11423683864E+02  0.10064539009E+02  0.29241637575E+02  0.00000000000E+00 0. -1.
         21    1    1    2  503  502 -0.24965533633E+02 -0.11423683864E+02  0.12736174089E+03  0.13028734192E+03  0.00000000000E+00 0.  1.
</event>
<event>
 4    1  0.5843276E+002  0.2131312E+02  0.7546771E-02  0.1514841E+00
          2   -1    0    0  502    0  0.00000000000E+00  0.00000000000E+00  0.12383612184E+04  0.12383612184E+04  0.00000000000E+00 0.  1.
         -2   -1    0    0    0  501 -0.00000000000E+00 -0.00000000000E+00 -0.37670199100E+00  0.37670199100E+00  0.00000000000E+00 0. -1.
         21    1    1    2  502  503 -0.99211816273E+01 -0.18863167274E+02  0.51864806889E+03  0.51908580051E+03  0.00000000000E+00 0. -1.
         21    1    1    2  503  501  0.99211816273E+01  0.18863167274E+02  0.71933644751E+03  0.71965211988E+03  0.00000000000E+00 0.  1.
</event>
<event>
 4    1  0.5843276E+002  0.2233453E+02  0.7546771E-02  0.1501028E+00
          2   -1    0    0  502    0  0.00000000000E+00  0.00000000000E+00  0.79176583026E+00  0.79176583026E+00  0.00000000000E+00 0.  1.
         -2   -1    0    0    0  501 -0.00000000000E+00 -0.00000000000E+00 -0.63502924991E+03  0.63502924991E+03  0.00000000000E+00 0. -1.
         21    1    1    2  502  503  0.22310813015E+02  0.10289133164E+01 -0.34534444447E+03  0.34606591333E+03  0.00000000000E+00 0.  1.
         21    1    1    2  503  501 -0.22310813015E+02 -0.10289133164E+01 -0.28889303961E+03  0.28975510242E+03  0.00000000000E+00 0. -1.
</event>
<event>
 4    1  0.5843276E+002  0.3374258E+02  0.7546771E-02  0.1389625E+00
          2   -1    0    0  502    0  0.00000000000E+00  0.00000000000E+00  0.64164046573E+03  0.64164046573E+03  0.00000000000E+00 0. -1.
         -2   -1    0    0    0  501 -0.00000000000E+00 -0.00000000000E+00 -0.41658276530E+01  0.41658276530E+01  0.00000000000E+00 0.  1.
         21    1    1    2  502  503  0.32297790163E+02 -0.97680434402E+01  0.56338735674E+03  0.56439691322E+03  0.00000000000E+00 0. -1.
         21    1    1    2  503  501 -0.32297790163E+02  0.97680434402E+01  0.74087281343E+02  0.81409380165E+02  0.00000000000E+00 0.  1.
</event>
<event>
 4    1  0.5843276E+002  0.3791855E+02  0.7546771E-02  0.1361134E+00
          2   -1    0    0  503    0  0.00000000000E+00  0.00000000000E+00  0.26529297139E+03  0.26529297139E+03  0.00000000000E+00 0.  1.
         -2   -1    0    0    0  501 -0.00000000000E+00 -0.00000000000E+00 -0.18883022543E+02  0.18883022543E+02  0.00000000000E+00 0. -1.
         21    1    1    2  502  501 -0.15937330832E+02  0.34406658624E+02  0.32281801930E+01  0.38055719926E+02  0.00000000000E+00 0. -1.
         21    1    1    2  503  502  0.15937330832E+02 -0.34406658624E+02  0.24318176865E+03  0.24612027400E+03  0.00000000000E+00 0.  1.
</event>
<event>
 4    1  0.5843276E+002  0.2030260E+02  0.7546771E-02  0.1529459E+00
          2   -1    0    0  502    0  0.00000000000E+00  0.00000000000E+00  0.22775448883E+03  0.22775448883E+03  0.00000000000E+00 0. -1.
         -2   -1    0    0    0  501 -0.00000000000E+00 -0.00000000000E+00 -0.25699969194E+01  0.25699969194E+01  0.00000000000E+00 0.  1.
         21    1    1    2  502  503  0.16067367391E+02 -0.12411098493E+02  0.17522476207E+03  0.17639703202E+03  0.00000000000E+00 0. -1.
         21    1    1    2  503  501 -0.16067367391E+02  0.12411098493E+02  0.49959729839E+02  0.53927453734E+02  0.00000000000E+00 0.  1.
</event>
<event>
 4    1  0.5843276E+002  0.3330757E+02  0.7546771E-02  0.1392868E+00
          2   -1    0    0  503    0  0.00000000000E+00  0.00000000000E+00  0.16330226703E+03  0.16330226703E+03  0.00000000000E+00 0.  1.
         -2   -1    0    0    0  501 -0.00000000000E+00 -0.00000000000E+00 -0.69919779611E+01  0.69919779611E+01  0.00000000000E+00 0. -1.
         21    1    1    2  502  501  0.25850930752E+02  0.21002944260E+02  0.63809375453E+02  0.71979376796E+02  0.00000000000E+00 0.  1.
         21    1    1    2  503  502 -0.25850930752E+02 -0.21002944260E+02  0.92500913614E+02  0.98314868192E+02  0.00000000000E+00 0. -1.
</event>
<event>
 4    1  0.5843276E+002  0.2051253E+02  0.7546771E-02  0.1526340E+00
          2   -1    0    0  502    0  0.00000000000E+00  0.00000000000E+00  0.11958191183E+04  0.11958191183E+04  0.00000000000E+00 0.  1.
         -2   -1    0    0    0  501 -0.00000000000E+00 -0.00000000000E+00 -0.35290229877E+00  0.35290229877E+00  0.00000000000E+00 0. -1.
         21    1    1    2  502  503  0.66703645411E+01  0.19397681110E+02  0.63019920448E+03  0.63053295006E+03  0.00000000000E+00 0.  1.
         21    1    1    2  503  501 -0.66703645411E+01 -0.19397681110E+02  0.56526701152E+03  0.56563907053E+03  0.00000000000E+00 0. -1.
</event>
<event>
 4    1  0.5843276E+002  0.2035033E+02  0.7546771E-02  0.1528746E+00
          2   -1    0    0  502    0  0.00000000000E+00  0.00000000000E+00  0.15844067532E+01  0.15844067532E+01  0.00000000000E+00 0.  1.
         -2   -1    0    0    0  501 -0.00000000000E+00 -0.00000000000E+00 -0.28161070651E+03  0.28161070651E+03  0.00000000000E+00 0. -1.
         21    1    1    2  502  503 -0.20344592419E+02  0.48303808167E+00 -0.17796323832E+03  0.17912300232E+03  0.00000000000E+00 0. -1.
         21    1    1    2  503  501  0.20344592419E+02 -0.48303808167E+00 -0.10206306144E+03  0.10407211095E+03  0.00000000000E+00 0.  1.
</event>
<event>
 4    1  0.5843276E+002  0.2411643E+02  0.7546771E-02  0.1478936E+00
          2   -1    0    0  503    0  0.00000000000E+00  0.00000000000E+00  0.77286854286E+03  0.77286854286E+03  0.00000000000E+00 0.  1.
         -2   -1    0    0    0  501 -0.00000000000E+00 -0.00000000000E+00 -0.10370280882E+01  0.10370280882E+01  0.00000000000E+00 0. -1.
         21    1    1    2  502  501 -0.94910097145E+00  0.24097744662E+02  0.18323757092E+03  0.18481777373E+03  0.00000000000E+00 0. -1.
         21    1    1    2  503  502  0.94910097145E+00 -0.24097744662E+02  0.58859394385E+03  0.58908779722E+03  0.00000000000E+00 0.  1.
</event>
<event>
 4    1  0.5843276E+002  0.2685692E+02  0.7546771E-02  0.1449051E+00
          2   -1    0    0  502    0  0.00000000000E+00  0.00000000000E+00  0.15933862632E+04  0.15933862632E+04  0.00000000000E+00 0.  1.
         -2   -1    0    0    0  501 -0.00000000000E+00 -0.00000000000E+00 -0.10644890384E+01  0.10644890384E+01  0.00000000000E+00 0. -1.
         21    1    1    2  502  503  0.26315701830E+02  0.53644990780E+01  0.14005525702E+04  0.14008100499E+04  0.00000000000E+00 0.  1.
         21    1    1    2  503  501 -0.26315701830E+02 -0.53644990780E+01  0.19176920396E+03  0.19364070233E+03  0.00000000000E+00 0. -1.
</event>
<event>
 4    1  0.5843276E+002  0.2591503E+02  0.7546771E-02  0.1458822E+00
          2   -1    0    0  503    0  0.00000000000E+00  0.00000000000E+00  0.43431291048E+02  0.43431291048E+02  0.00000000000E+00 0. -1.
         -2   -1    0    0    0  501 -0.00000000000E+00 -0.00000000000E+00 -0.55642729193E+02  0.55642729193E+02  0.00000000000E+00 0.  1.
         21    1    1    2  502  501  0.24564859009E+02  0.82556824902E+01 -0.48200453142E+02  0.54725426216E+02  0.00000000000E+00 0.  1.
         21    1    1    2  503  502 -0.24564859009E+02 -0.82556824902E+01  0.35989014997E+02  0.44348594025E+02  0.00000000000E+00 0. -1.
</event>
<event>
 4    1  0.5843276E+002  0.2513925E+02  0.7546771E-02  0.1467252E+00
          2   -1    0    0  502    0  0.00000000000E+00  0.00000000000E+00  0.16981433078E+03  0.16981433078E+03  0.00000000000E+00 0. -1.
         -2   -1    0    0    0  501 -0.00000000000E+00 -0.00000000000E+00 -0.71619749284E+01  0.71619749284E+01  0.00000000000E+00 0.  1.
         21    1    1    2  502  503  0.21611169411E+02  0.12842859426E+02  0.14265595274E+03  0.14485407324E+03  0.00000000000E+00 0.  1.
         21    1    1    2  503  501 -0.21611169411E+02 -0.12842859426E+02  0.19996403116E+02  0.32122232475E+02  0.00000000000E+00 0. -1.
</event>
<event>
 4    1  0.5843276E+002  0.3308593E+02  0.7546771E-02  0.1394543E+00
          2   -1    0    0  503    0  0.00000000000E+00  0.00000000000E+00  0.54132907185E+01  0.54132907185E+01  0.00000000000E+00 0.  1.
         -2   -1    0    0    0  501 -0.00000000000E+00 -0.00000000000E+00 -0.28289384555E+03  0.28289384555E+03  0.00000000000E+00 0. -1.
         21    1    1    2  502  501 -0.31153652493E+02 -0.11141306636E+02 -0.21572037747E+03  0.21824289229E+03  0.00000000000E+00 0. -1.
         21    1    1    2  503  502  0.31153652493E+02  0.11141306636E+02 -0.61760177361E+02  0.70064243983E+02  0.00000000000E+00 0.  1.
</event>
<event>
 4    1  0.5843276E+002  0.4537029E+02  0.7546771E-02  0.1319598E+00
          2   -1    0    0  503    0  0.00000000000E+00  0.00000000000E+00  0.72912119633E+03  0.72912119633E+03  0.00000000000E+00 0.  1.
         -2   -1    0    0    0  501 -0.00000000000E+00 -0.00000000000E+00 -0.28657834681E+01  0.28657834681E+01  0.00000000000E+00 0. -1.
         21    1    1    2  502  501 -0.20531985011E+02 -0.40458635367E+02  0.40773561625E+03  0.41025211315E+03  0.00000000000E+00 0.  1.
         21    1    1    2  503  502  0.20531985011E+02  0.40458635367E+02  0.31851979661E+03  0.32173486665E+03  0.00000000000E+00 0. -1.
</event>
<event>
 4    1  0.5843276E+002  0.2006619E+02  0.7546771E-02  0.1533026E+00
          2   -1    0    0  502    0  0.00000000000E+00  0.00000000000E+00  0.31202386436E+01  0.31202386436E+01  0.00000000000E+00 0. -1.
         -2   -1    0    0    0  501 -0.00000000000E+00 -0.00000000000E+00 -0.13156241119E+03  0.13156241119E+03  0.00000000000E+00 0.  1.
         21    1    1    2  502  503 -0.19923926307E+02  0.23852203642E+01 -0.54906418021E+02  0.58458248824E+02  0.00000000000E+00 0.  1.
         21    1    1    2  503  501  0.19923926307E+02 -0.23852203642E+01 -0.73535754529E+02  0.76224401013E+02  0.00000000000E+00 0. -1.
</event>
<event>
 4    1  0.5843276E+002  0.7299786E+02  0.7546771E-02  0.1221108E+00
          2   -1    0    0  503    0  0.00000000000E+00  0.00000000000E+00  0.87146845775E+01  0.87146845775E+01  0.00000000000E+00 0.  1.
         -2   -1    0    0    0  501 -0.00000000000E+00 -0.00000000000E+00 -0.67190492008E+03  0.67190492008E+03  0.00000000000E+00 0. -1.
         21    1    1    2  502  501 -0.68729860692E+02  0.24594593859E+02 -0.43366501152E+03  0.43976588091E+03  0.00000000000E+00 0. -1.
         21    1    1    2  503  502  0.68729860692E+02 -0.24594593859E+02 -0.22952522398E+03  0.24085372375E+03  0.00000000000E+00 0.  1.
</event>
<event>
 4    1  0.5843276E+002  0.2661975E+02  0.7546771E-02  0.1451466E+00
          2   -1    0    0  502    0  0.00000000000E+00  0.00000000000E+00  0.53873077803E+03  0.53873077803E+03  0.00000000000E+00 0. -1.
         -2   -1    0    0    0  501 -0.00000000000E+00 -0.00000000000E+00 -0.15039117513E+02  0.15039117513E+02  0.00000000000E+00 0.  1.
         21    1    1    2  502  503  0.36306682396E+01 -0.26370994827E+02  0.52634547535E+03  0.52701818806E+03  0.00000000000E+00 0. -1.
         21    1    1    2  503  501 -0.36306682396E+01  0.26370994827E+02 -0.26538148385E+01  0.26751707483E+02  0.00000000000E+00 0.  1.
</event>
<event>
 4    1  0.5843276E+002  0.2048726E+02  0.7546771E-02  0.1526713E+00
          2   -1    0    0  503    0  0.00000000000E+00  0.00000000000E+00  0.12491192040E+04  0.12491192040E+04  0.00000000000E+00 0. -1.
         -2   -1    0    0    0  501 -0.00000000000E+00 -0.00000000000E+00 -0.56956619091E+00  0.56956619091E+00  0.00000000000E+00 0.  1.
         21    1    1    2  502  501 -0.12620878765E+01  0.20448352451E+02  0.22415787109E+03  0.22509215703E+03  0.00000000000E+00 0.  1.
         21    1    1    2  503  502  0.12620878765E+01 -0.20448352451E+02  0.10243917667E+04  0.10245966131E+04  0.00000000000E+00 0. -1.
</event>
<event>
 4    1  0.5843276E+002  0.2054056E+02  0.7546771E-02  0.1525927E+00
          2   -1    0    0  503    0  0.00000000000E+00  0.00000000000E+00  0.53105070016E+01  0.53105070016E+01  0.00000000000E+00 0.  1.
         -2   -1    0    0    0  501 -0.00000000000E+00 -0.00000000000E+00 -0.80021369085E+02  0.80021369085E+02  0.00000000000E+00 0. -1.
         21    1    1    2  502  501  0.10542663187E+02  0.17628585796E+02 -0.40963659263E+02  0.45825060441E+02  0.00000000000E+00 0. -1.
         21    1    1    2  503  502 -0.10542663187E+02 -0.17628585796E+02 -0.33747202820E+02  0.39506815645E+02  0.00000000000E+00 0.  1.
</event>
<event>
 4    1  0.5843276E+002  0.2409007E+02  0.7546771E-02  0.1479246E+00
          2   -1    0    0  503    0  0.00000000000E+00  0.00000000000E+00  0.12791802050E+04  0.12791802050E+04  0.00000000000E+00 0. -1.
         -2   -1    0    0    0  501 -0.00000000000E+00 -0.00000000000E+00 -0.19591709042E+01  0.19591709042E+01  0.00000000000E+00 0.  1.
         21    1    1    2  502  501 -0.12025114895E+02  0.20874099046E+02  0.77084234512E+02  0.80760823483E+02  0.00000000000E+00 0.  1.
         21    1    1    2  503  502  0.12025114895E+02 -0.20874099046E+02  0.12001367996E+04  0.12003785524E+04  0.00000000000E+00 0. -1.
</event>
<event>
 4    1  0.5843276E+002  0.4245706E+02  0.7546771E-02  0.1334659E+00
          2   -1    0    0  502    0  0.00000000000E+00  0.00000000000E+00  0.33760141278E+03  0.33760141278E+03  0.00000000000E+00 0. -1.
         -2   -1    0    0    0  501 -0.00000000000E+00 -0.00000000000E+00 -0.16566784650E+02  0.16566784650E+02  0.00000000000E+00 0.  1.
         21    1    1    2  502  503  0.13424606749E+02  0.40278801472E+02  0.30629767195E+03  0.30922623717E+03  0.00000000000E+00 0. -1.
         21    1    1    2  503  501 -0.13424606749E+02 -0.40278801472E+02  0.14736956182E+02  0.44941960259E+02  0.00000000000E+00 0.  1.
</event>
<event>
 4    1  0.5843276E+002  0.2087138E+02  0.7546771E-02  0.1521109E+00
          2   -1    0    0  503    0  0.00000000000E+00  0.00000000000E+00  0.96228809299E+02  0.96228809299E+02  0.00000000000E+00 0. -1.
         -2   -1    0    0    0  501 -0.00000000000E+00 -0.00000000000E+00 -0.45343833429E+01  0.45343833429E+01  0.00000000000E+00 0.  1.
         21    1    1    2  502  501 -0.17117789076E+01 -0.20801061495E+02  0.47899408013E+02  0.52249092186E+02  0.00000000000E+00 0. -1.
         21    1    1    2  503  502  0.17117789076E+01  0.20801061495E+02  0.43795017943E+02  0.48514100455E+02  0.00000000000E+00 0.  1.
</event>
<event>
 4    1  0.5843276E+002  0.2198310E+02  0.7546771E-02  0.1505678E+00
          2   -1    0    0  502    0  0.00000000000E+00  0.00000000000E+00  0.56457105888E+03  0.56457105888E+03  0.00000000000E+00 0.  1.
         -2   -1    0    0    0  501 -0.00000000000E+00 -0.00000000000E+00 -0.25106032878E+01  0.25106032878E+01  0.00000000000E+00 0. -1.
         21    1    1    2  502  503  0.10739842430E+02 -0.19181045055E+02  0.51121535021E+03  0.51168778664E+03  0.00000000000E+00 0.  1.
         21    1    1    2  503  501 -0.10739842430E+02  0.19181045055E+02  0.50845105386E+02  0.55393875533E+02  0.00000000000E+00 0. -1.
</event>
<event>
 4    1  0.5843276E+002  0.2080211E+02  0.7546771E-02  0.1522109E+00
          2   -1    0    0  503    0  0.00000000000E+00  0.00000000000E+00  0.10174371337E+03  0.10174371337E+03  0.00000000000E+00 0. -1.
         -2   -1    0    0    0  501 -0.00000000000E+00 -0.00000000000E+00 -0.59284648687E+02  0.59284648687E+02  0.00000000000E+00 0.  1.
         21    1    1    2  502  501  0.16675238269E+02 -0.12436404662E+02 -0.56342837955E+02  0.60060329012E+02  0.00000000000E+00 0.  1.
         21    1    1    2  503  502 -0.16675238269E+02  0.12436404662E+02  0.98801902640E+02  0.10096803305E+03  0.00000000000E+00 0. -1.
</event>
<event>
 4    1  0.5843276E+002  0.3829533E+02  0.7546771E-02  0.1358775E+00
          2   -1    0    0  502    0  0.00000000000E+00  0.00000000000E+00  0.53180092738E+02  0.53180092738E+02  0.00000000000E+00 0. -1.
         -2   -1    0    0    0  501 -0.00000000000E+00 -0.00000000000E+00 -0.31188875455E+02  0.31188875455E+02  0.00000000000E+00 0.  1.
         21    1    1    2  502  503  0.10783814799E+02  0.36745634960E+02  0.25351702873E+02  0.45926475902E+02  0.00000000000E+00 0. -1.
         21    1    1    2  503  501 -0.10783814799E+02 -0.36745634960E+02 -0.33604855905E+01  0.38442492292E+02  0.00000000000E+00 0.  1.
</event>
<event>
 4    1  0.5843276E+002  0.6545626E+02  0.7546771E-02  0.1242342E+00
          2   -1    0    0  503    0  0.00000000000E+00  0.00000000000E+00  0.13670536516E+03  0.13670536516E+03  0.00000000000E+00 0. -1.
         -2   -1    0    0    0  501 -0.00000000000E+00 -0.00000000000E+00 -0.31480930800E+02  0.31480930800E+02  0.00000000000E+00 0.  1.
         21    1    1    2  502  501 -0.36773911187E+02 -0.54149809993E+02  0.47011504336E+02  0.80589106002E+02  0.00000000000E+00 0. -1.
         21    1    1    2  503  502  0.36773911187E+02  0.54149809993E+02  0.58212930019E+02  0.87597189953E+02  0.00000000000E+00 0.  1.
</event>
<event>
 4    1  0.5843276E+002  0.3822349E+02  0.7546771E-02  0.1359223E+00
          2   -1    0    0  502    0  0.00000000000E+00  0.00000000000E+00  0.11096842786E+03  0.11096842786E+03  0.00000000000E+00 0. -1.
         -2   -1    0    0    0  501 -0.00000000000E+00 -0.00000000000E+00 -0.16436495489E+02  0.16436495489E+02  0.00000000000E+00 0.  1.
         21    1    1    2  502  503 -0.30072676964E+02  0.23593841467E+02  0.75680691425E+02  0.84785625607E+02  0.00000000000E+00 0. -1.
         21    1    1    2  503  501  0.30072676964E+02 -0.23593841467E+02  0.18851240949E+02  0.42619297745E+02  0.00000000000E+00 0.  1.
</event>
<event>
 4    1  0.5843276E+002  0.2663204E+02  0.7546771E-02  0.1451340E+00
          2   -1    0    0  502    0  0.00000000000E+00  0.00000000000E+00  0.21045187610E+01  0.21045187610E+01  0.00000000000E+00 0. -1.
         -2   -1    0    0    0  501 -0.00000000000E+00 -0.00000000000E+00 -0.10543643971E+04  0.10543643971E+04  0.00000000000E+00 0.  1.
         21    1    1    2  502  503 -0.71008410662E+01 -0.25667951719E+02 -0.90422369524E+02  0.94262774199E+02  0.00000000000E+00 0. -1.
         21    1    1    2  503  501  0.71008410662E+01  0.25667951719E+02 -0.96183750882E+03  0.96220614166E+03  0.00000000000E+00 0.  1.
</event>
<event>
 4    1  0.5843276E+002  0.2905066E+02  0.7546771E-02  0.1428029E+00
          2   -1    0    0  503    0  0.00000000000E+00  0.00000000000E+00  0.26279432804E+03  0.26279432804E+03  0.00000000000E+00 0. -1.
         -2   -1    0    0    0  501 -0.00000000000E+00 -0.00000000000E+00 -0.66431738723E+01  0.66431738723E+01  0.00000000000E+00 0.  1.
         21    1    1    2  502  501 -0.28585851085E+02  0.51759017697E+01  0.31248055779E+02  0.42665932914E+02  0.00000000000E+00 0.  1.
         21    1    1    2  503  502  0.28585851085E+02 -0.51759017697E+01  0.22490309839E+03  0.22677156900E+03  0.00000000000E+00 0. -1.
</event>
<event>
 4    1  0.5843276E+002  0.2393684E+02  0.7546771E-02  0.1481058E+00
          2   -1    0    0  502    0  0.00000000000E+00  0.00000000000E+00  0.12141522937E+04  0.12141522937E+04  0.00000000000E+00 0.  1.
         -2   -1    0    0    0  501 -0.00000000000E+00 -0.00000000000E+00 -0.55908404178E+00  0.55908404178E+00  0.00000000000E+00 0. -1.
         21    1    1    2  502  503  0.22424936961E+02 -0.83722356836E+01  0.36697128618E+03  0.36775113462E+03  0.00000000000E+00 0.  1.
         21    1    1    2  503  501 -0.22424936961E+02  0.83722356836E+01  0.84662192351E+03  0.84696024317E+03  0.00000000000E+00 0. -1.
</event>
<event>
 4    1  0.5843276E+002  0.2012093E+02  0.7546771E-02  0.1532195E+00
          2   -1    0    0  502    0  0.00000000000E+00  0.00000000000E+00  0.68467545258E+02  0.68467545258E+02  0.00000000000E+00 0. -1.
         -2   -1    0    0    0  501 -0.00000000000E+00 -0.00000000000E+00 -0.59131831117E+01  0.59131831117E+01  0.00000000000E+00 0.  1.
         21    1    1    2  502  503 -0.92725260772E+01 -0.17856993346E+02  0.31100078637E+02  0.37041420632E+02  0.00000000000E+00 0. -1.
         21    1    1    2  503  501  0.92725260772E+01  0.17856993346E+02  0.31454283509E+02  0.37339307737E+02  0.00000000000E+00 0.  1.
</event>
<event>
 4    1  0.5843276E+002  0.2434911E+02  0.7546771E-02  0.1476218E+00
          2   -1    0    0  503    0  0.00000000000E+00  0.00000000000E+00  0.34514533597E+02  0.34514533597E+02  0.00000000000E+00 0.  1.
         -2   -1    0    0    0  501 -0.00000000000E+00 -0.00000000000E+00 -0.28022769608E+02  0.28022769608E+02  0.00000000000E+00 0. -1.
         21    1    1    2  502  501  0.21328262542E+02  0.11746679400E+02 -0.16206393107E+02  0.29249383541E+02  0.00000000000E+00 0. -1.
         21    1    1    2  503  502 -0.21328262542E+02 -0.11746679400E+02  0.22698157096E+02  0.33287919664E+02  0.00000000000E+00 0.  1.
</event>
<event>
 4    1  0.5843276E+002  0.2850125E+02  0.7546771E-02  0.1433084E+00
          2   -1    0    0  503    0  0.00000000000E+00  0.00000000000E+00  0.39912352056E+03  0.39912352056E+03  0.00000000000E+00 0. -1.
         -2   -1    0    0    0  501 -0.00000000000E+00 -0.00000000000E+00 -0.24593525100E+01  0.24593525100E+01  0.00000000000E+00 0.  1.
         21    1    1    2  502  501  0.24399942976E+02  0.14729706646E+02  0.11495179823E+03  0.11843241698E+03  0.00000000000E+00 0.  1.
         21    1    1    2  503  502 -0.24399942976E+02 -0.14729706646E+02  0.28171236982E+03  0.28315045609E+03  0.00000000000E+00 0. -1.
</event>
<event>
 4    1  0.5843276E+002  0.3250332E+02  0.7546771E-02  0.1399020E+00
          2   -1    0    0  503    0  0.00000000000E+00  0.00000000000E+00  0.91523188897E+02  0.91523188897E+02  0.00000000000E+00 0.  1.
         -2   -1    0    0    0  501 -0.00000000000E+00 -0.00000000000E+00 -0.15513981724E+02  0.15513981724E+02  0.00000000000E+00 0. -1.
         21    1    1    2  502  501  0.35110410027E+01  0.32313134031E+02  0.10928657302E+02  0.34291421526E+02  0.00000000000E+00 0. -1.
         21    1    1    2  503  502 -0.35110410027E+01 -0.32313134031E+02  0.65080549871E+02  0.72745749095E+02  0.00000000000E+00 0.  1.
</event>
<event>
 4    1  0.5843276E+002  0.2241613E+02  0.7546771E-02  0.1499963E+00
          2   -1    0    0  503    0  0.00000000000E+00  0.00000000000E+00  0.69130157104E+03  0.69130157104E+03  0.00000000000E+00 0. -1.
         -2   -1    0    0    0  501 -0.00000000000E+00 -0.00000000000E+00 -0.81087372967E+00  0.81087372967E+00  0.00000000000E+00 0.  1.
         21    1    1    2  502  501  0.11183435910E+01 -0.22388210546E+02  0.23385868378E+03  0.23493055706E+03  0.00000000000E+00 0.  1.
         21    1    1    2  503  502 -0.11183435910E+01  0.22388210546E+02  0.45663201353E+03  0.45718188770E+03  0.00000000000E+00 0. -1.
</event>
<event>
 4    1  0.5843276E+002  0.2459101E+02  0.7546771E-02  0.1473431E+00
          2   -1    0    0  502    0  0.00000000000E+00  0.00000000000E+00  0.47749529060E+03  0.47749529060E+03  0.00000000000E+00 0.  1.
         -2   -1    0    0    0  501 -0.00000000000E+00 -0.00000000000E+00 -0.33299647293E+01  0.33299647293E+01  0.00000000000E+00 0. -1.
         21    1    1    2  502  503  0.14075720751E+02  0.20164118294E+02  0.42633560517E+03  0.42704421998E+03  0.00000000000E+00 0.  1.
         21    1    1    2  503  501 -0.14075720751E+02 -0.20164118294E+02  0.47829720708E+02  0.53781035358E+02  0.00000000000E+00 0. -1.
</event>
<event>
 4    1  0.5843276E+002  0.2037047E+02  0.7546771E-02  0.1528446E+00
          2   -1    0    0  502    0  0.00000000000E+00  0.00000000000E+00  0.30338936259E+03  0.30338936259E+03  0.00000000000E+00 0.  1.
         -2   -1    0    0    0  501 -0.00000000000E+00 -0.00000000000E+00 -0.15443760637E+01  0.15443760637E+01  0.00000000000E+00 0. -1.
         21    1    1    2  502  503  0.16265256966E+02 -0.12263666936E+02  0.20248634495E+03  0.20350841752E+03  0.00000000000E+00 0.  1.
         21    1    1    2  503  501 -0.16265256966E+02  0.12263666936E+02  0.99358641581E+02  0.10142532114E+03  0.00000000000E+00 0. -1.
</event>
<event>
 4    1  0.5843276E+002  0.3553451E+02  0.7546771E-02  0.1376844E+00
          2   -1    0    0  503    0  0.00000000000E+00  0.00000000000E+00  0.56938082131E+03  0.56938082131E+03  0.00000000000E+00 0. -1.
         -2   -1    0    0    0  501 -0.00000000000E+00 -0.00000000000E+00 -0.34054961458E+02  0.34054961458E+02  0.00000000000E+00 0.  1.
         21    1    1    2  502  501  0.33455787667E+02  0.11975463880E+02 -0.24065592029E+02  0.42916828672E+02  0.00000000000E+00 0.  1.
         21    1    1    2  503  502 -0.33455787667E+02 -0.11975463880E+02  0.55939145188E+03  0.56051895409E+03  0.00000000000E+00 0. -1.
</event>
<event>
 4    1  0.5843276E+002  0.2330113E+02  0.7546771E-02  0.1488751E+00
          2   -1    0    0  502    0  0.00000000000E+00  0.00000000000E+00  0.79171985046E+02  0.79171985046E+02  0.00000000000E+00 0. -1.
         -2   -1    0    0    0  501 -0.00000000000E+00 -0.00000000000E+00 -0.96028109499E+01  0.96028109499E+01  0.00000000000E+00 0.  1.
         21    1    1    2  502  503  0.13295653152E+02 -0.19135528928E+02  0.58516640347E+02  0.62985236822E+02  0.00000000000E+00 0. -1.
         21    1    1    2  503  501 -0.13295653152E+02  0.19135528928E+02  0.11052533749E+02  0.25789559173E+02  0.00000000000E+00 0.  1.
</event>
<event>
 4    1  0.5843276E+002  0.2240971E+02  0.7546771E-02  0.1500047E+00
          2   -1    0    0  503    0  0.00000000000E+00  0.00000000000E+00  0.18519648086E+03  0.18519648086E+03  0.00000000000E+00 0. -1.
         -2   -1    0    0    0  501 -0.00000000000E+00 -0.00000000000E+00 -0.63705995764E+01  0.63705995764E+01  0.00000000000E+00 0.  1.
         21    1    1    2  502  501  0.60428512683E+01 -0.21579593928E+02  0.16822950820E+02  0.28021538142E+02  0.00000000000E+00 0.  1.
         21    1    1    2  503  502 -0.60428512683E+01  0.21579593928E+02  0.16200293047E+03  0.16354554230E+03  0.00000000000E+00 0. -1.
</event>
<event>
 4    1  0.5843276E+002  0.2213646E+02  0.7546771E-02  0.1503636E+00
          2   -1    0    0  503    0  0.00000000000E+00  0.00000000000E+00  0.57806532855E+03  0.57806532855E+03  0.00000000000E+00 0.  1.
         -2   -1    0    0    0  501 -0.00000000000E+00 -0.00000000000E+00 -0.38623408121E+01  0.38623408121E+01  0.00000000000E+00 0. -1.
         21    1    1    2  502  501  0.14053927791E+02 -0.17102922977E+02  0.30043040106E+02  0.37317651581E+02  0.00000000000E+00 0. -1.
         21    1    1    2  503  502 -0.14053927791E+02  0.17102922977E+02  0.54415994763E+03  0.54461001778E+03  0.00000000000E+00 0.  1.
</event>
<event>
 4    1  0.5843276E+002  0.2152980E+02  0.7546771E-02  0.1511833E+00
          2   -1    0    0  503    0  0.00000000000E+00  0.00000000000E+00  0.18222436647E+03  0.18222436647E+03  0.00000000000E+00 0.  1.
         -2   -1    0    0    0  501 -0.00000000000E+00 -0.00000000000E+00 -0.49063798741E+02  0.49063798741E+02  0.00000000000E+00 0. -1.
         21    1    1    2  502  501 -0.74359579086E+01  0.20204921825E+02 -0.46026079640E+02  0.50812718319E+02  0.00000000000E+00 0. -1.
         21    1    1    2  503  502  0.74359579086E+01 -0.20204921825E+02  0.17918664737E+03  0.18047544689E+03  0.00000000000E+00 0.  1.
</event>
<event>
 4    1  0.5843276E+002  0.3807629E+02  0.7546771E-02  0.1360143E+00
          2   -1    0    0  502    0  0.00000000000E+00  0.00000000000E+00  0.36895118704E+03  0.36895118704E+03  0.00000000000E+00 0. -1.
         -2   -1    0    0    0  501 -0.00000000000E+00 -0.00000000000E+00 -0.75408107578E+01  0.75408107578E+01  0.00000000000E+00 0.  1.
         21    1    1    2  502  503  0.37668896254E+02 -0.55549799742E+01  0.31097613129E+03  0.31329851225E+03  0.00000000000E+00 0. -1.
         21    1    1    2  503  501 -0.37668896254E+02  0.55549799742E+01  0.50434244994E+02  0.63193485547E+02  0.00000000000E+00 0.  1.
</event>
<event>
 4    1  0.5843276E+002  0.3506160E+02  0.7546771E-02  0.1380131E+00
          2   -1    0    0  502    0  0.00000000000E+00  0.00000000000E+00  0.90139927832E+03  0.90139927832E+03  0.00000000000E+00 0.  1.
         -2   -1    0    0    0  501 -0.00000000000E+00 -0.00000000000E+00 -0.13994743475E+01  0.13994743475E+01  0.00000000000E+00 0. -1.
         21    1    1    2  502  503 -0.16190765490E+02  0.31099438991E+02  0.52208406108E+03  0.52326005277E+03  0.00000000000E+00 0.  1.
         21    1    1    2  503  501  0.16190765490E+02 -0.31099438991E+02  0.37791574290E+03  0.37953869990E+03  0.00000000000E+00 0. -1.
</event>
<event>
 4    1  0.5843276E+002  0.3743553E+02  0.7546771E-02  0.1364206E+00
          2   -1    0    0  502    0  0.00000000000E+00  0.00000000000E+00  0.11302114454E+04  0.11302114454E+04  0.00000000000E+00 0.  1.
         -2   -1    0    0    0  501 -0.00000000000E+00 -0.00000000000E+00 -0.21409217562E+01  0.21409217562E+01  0.00000000000E+00 0. -1.
         21    1    1    2  502  503 -0.30977952770E+02  0.21018693550E+02  0.93132089389E+03  0.93207297270E+03  0.00000000000E+00 0.  1.
         21    1    1    2  503  501  0.30977952770E+02 -0.21018693550E+02  0.19674962971E+03  0.20027939442E+03  0.00000000000E+00 0. -1.
</event>
<event>
 4    1  0.5843276E+002  0.3853721E+02  0.7546771E-02  0.1357278E+00
          2   -1    0    0  503    0  0.00000000000E+00  0.00000000000E+00  0.40928000374E+03  0.40928000374E+03  0.00000000000E+00 0.  1.
         -2   -1    0    0    0  501 -0.00000000000E+00 -0.00000000000E+00 -0.40777432463E+02  0.40777432463E+02  0.00000000000E+00 0. -1.
         21    1    1    2  502  501 -0.36834233218E+02  0.11329409746E+02 -0.30532034565E+02  0.49166262788E+02  0.00000000000E+00 0. -1.
         21    1    1    2  503  502  0.36834233218E+02 -0.11329409746E+02  0.39903460584E+03  0.40089117341E+03  0.00000000000E+00 0.  1.
</event>
<event>
 4    1  0.5843276E+002  0.2269331E+02  0.7546771E-02  0.1496386E+00
          2   -1    0    0  503    0  0.00000000000E+00  0.00000000000E+00  0.15219405560E+02  0.15219405560E+02  0.00000000000E+00 0. -1.
         -2   -1    0    0    0  501 -0.00000000000E+00 -0.00000000000E+00 -0.65205704259E+03  0.65205704259E+03  0.00000000000E+00 0.  1.
         21    1    1    2  502  501  0.19327089242E+02 -0.11893277543E+02 -0.64328490399E+03  0.64368505819E+03  0.00000000000E+00 0.  1.
         21    1    1    2  503  502 -0.19327089242E+02  0.11893277543E+02  0.64472669585E+01  0.23591389966E+02  0.00000000000E+00 0. -1.
</event>
<event>
 4    1  0.5843276E+002  0.1177030E+03  0.7546771E-02  0.1136239E+00
          2   -1    0    0  502    0  0.00000000000E+00  0.00000000000E+00  0.96314383300E+03  0.96314383300E+03  0.00000000000E+00 0. -1.
         -2   -1    0    0    0  501 -0.00000000000E+00 -0.00000000000E+00 -0.17828337189E+02  0.17828337189E+02  0.00000000000E+00 0.  1.
         21    1    1    2  502  503  0.11645971461E+03 -0.17062376184E+02  0.25707417601E+03  0.28273861035E+03  0.00000000000E+00 0.  1.
         21    1    1    2  503  501 -0.11645971461E+03  0.17062376184E+02  0.68824131980E+03  0.69823355985E+03  0.00000000000E+00 0. -1.
</event>
<event>
 4    1  0.5843276E+002  0.2011971E+02  0.7546771E-02  0.1532214E+00
          2   -1    0    0  502    0  0.00000000000E+00  0.00000000000E+00  0.19364212692E+04  0.19364212692E+04  0.00000000000E+00 0. -1.
         -2   -1    0    0    0  501 -0.00000000000E+00 -0.00000000000E+00 -0.21007588138E+00  0.21007588138E+00  0.00000000000E+00 0.  1.
         21    1    1    2  502  503 -0.72073311651E+01 -0.18784489090E+02  0.10358784176E+04  0.10360737901E+04  0.00000000000E+00 0.  1.
         21    1    1    2  503  501  0.72073311651E+01  0.18784489090E+02  0.90033277573E+03  0.90055755491E+03  0.00000000000E+00 0. -1.
</event>
<event>
 4    1  0.5843276E+002  0.5585604E+02  0.7546771E-02  0.1274602E+00
          2   -1    0    0  502    0  0.00000000000E+00  0.00000000000E+00  0.22232170162E+04  0.22232170162E+04  0.00000000000E+00 0. -1.
         -2   -1    0    0    0  501 -0.00000000000E+00 -0.00000000000E+00 -0.12062982065E+02  0.12062982065E+02  0.00000000000E+00 0.  1.
         21    1    1    2  502  503 -0.54516622276E+01 -0.55589359922E+02  0.21561983083E+04  0.21569216589E+04  0.00000000000E+00 0. -1.
         21    1    1    2  503  501  0.54516622276E+01  0.55589359922E+02  0.54955725806E+02  0.78358339419E+02  0.00000000000E+00 0.  1.
</event>
<event>
 4    1  0.5843276E+002  0.2751509E+02  0.7546771E-02  0.1442501E+00
          2   -1    0    0  503    0  0.00000000000E+00  0.00000000000E+00  0.26335369917E+04  0.26335369917E+04  0.00000000000E+00 0. -1.
         -2   -1    0    0    0  501 -0.00000000000E+00 -0.00000000000E+00 -0.36962318002E+00  0.36962318002E+00  0.00000000000E+00 0.  1.
         21    1    1    2  502  501  0.26433054622E+02  0.76402660062E+01  0.69573503399E+03  0.69627890789E+03  0.00000000000E+00 0.  1.
         21    1    1    2  503  502 -0.26433054622E+02 -0.76402660062E+01  0.19374323345E+04  0.19376277070E+04  0.00000000000E+00 0. -1.
</event>
<event>
 4    1  0.5843276E+002  0.2544580E+02  0.7546771E-02  0.1463878E+00
          2   -1    0    0  502    0  0.00000000000E+00  0.00000000000E+00  0.66721797596E+02  0.66721797596E+02  0.00000000000E+00 0. -1.
         -2   -1    0    0    0  501 -0.00000000000E+00 -0.00000000000E+00 -0.99621029862E+02  0.99621029862E+02  0.00000000000E+00 0.  1.
         21    1    1    2  502  503  0.17190168639E+02  0.18761308526E+02  0.62567070150E+02  0.67543518287E+02  0.00000000000E+00 0. -1.
         21    1    1    2  503  501 -0.17190168639E+02 -0.18761308526E+02 -0.95466302416E+02  0.98799309170E+02  0.00000000000E+00 0.  1.
</event>
<event>
 4    1  0.5843276E+002  0.2569198E+02  0.7546771E-02  0.1461209E+00
          2   -1    0    0  503    0  0.00000000000E+00  0.00000000000E+00  0.33153894823E+03  0.33153894823E+03  0.00000000000E+00 0. -1.
         -2   -1    0    0    0  501 -0.00000000000E+00 -0.00000000000E+00 -0.93721389040E+01  0.93721389040E+01  0.00000000000E+00 0.  1.
         21    1    1    2  502  501  0.21152139400E+02 -0.14583035824E+02  0.98126789579E+01  0.27502119979E+02  0.00000000000E+00 0.  1.
         21    1    1    2  503  502 -0.21152139400E+02  0.14583035824E+02  0.31235413036E+03  0.31340896715E+03  0.00000000000E+00 0. -1.
</event>
<event>
 4    1  0.5843276E+002  0.3162594E+02  0.7546771E-02  0.1405974E+00
          2   -1    0    0  502    0  0.00000000000E+00  0.00000000000E+00  0.23140996854E+04  0.23140996854E+04  0.00000000000E+00 0.  1.
         -2   -1    0    0    0  501 -0.00000000000E+00 -0.00000000000E+00 -0.16796752284E+01  0.16796752284E+01  0.00000000000E+00 0. -1.
         21    1    1    2  502  503  0.28736594722E+02 -0.13206371172E+02  0.21540640272E+04  0.21542961806E+04  0.00000000000E+00 0.  1.
         21    1    1    2  503  501 -0.28736594722E+02  0.13206371172E+02  0.15835598297E+03  0.16148318011E+03  0.00000000000E+00 0. -1.
</event>
<event>
 4    1  0.5843276E+002  0.2119257E+02  0.7546771E-02  0.1516533E+00
          2   -1    0    0  503    0  0.00000000000E+00  0.00000000000E+00  0.11742580849E+04  0.11742580849E+04  0.00000000000E+00 0. -1.
         -2   -1    0    0    0  501 -0.00000000000E+00 -0.00000000000E+00 -0.13373491791E+01  0.13373491791E+01  0.00000000000E+00 0.  1.
         21    1    1    2  502  501  0.27247988740E+01 -0.21016671081E+02  0.89778346581E+02  0.92245739777E+02  0.00000000000E+00 0.  1.
         21    1    1    2  503  502 -0.27247988740E+01  0.21016671081E+02  0.10831423891E+04  0.10833496943E+04  0.00000000000E+00 0. -1.
</event>
<event>
 4    1  0.5843276E+002  0.3051637E+02  0.7546771E-02  0.1415161E+00
          2   -1    0    0  502    0  0.00000000000E+00  0.00000000000E+00  0.15024737484E+04  0.15024737484E+04  0.00000000000E+00 0.  1.
         -2   -1    0    0    0  501 -0.00000000000E+00 -0.00000000000E+00 -0.15318716850E+01  0.15318716850E+01  0.00000000000E+00 0. -1.
         21    1    1    2  502  503  0.30454945805E+02  0.19352462996E+01  0.13307277832E+04  0.13310776393E+04  0.00000000000E+00 0.  1.
         21    1    1    2  503  501 -0.30454945805E+02 -0.19352462996E+01  0.17021409350E+03  0.17292798075E+03  0.00000000000E+00 0. -1.
</event>
<event>
 4    1  0.5843276E+002  0.3468811E+02  0.7546771E-02  0.1382769E+00
          2   -1    0    0  503    0  0.00000000000E+00  0.00000000000E+00  0.67261719856E+01  0.67261719856E+01  0.00000000000E+00 0.  1.
         -2   -1    0    0    0  501 -0.00000000000E+00 -0.00000000000E+00 -0.48033725498E+03  0.48033725498E+03  0.00000000000E+00 0. -1.
         21    1    1    2  502  501 -0.34379860127E+02 -0.46141286228E+01 -0.42972938568E+03  0.43112713888E+03  0.00000000000E+00 0. -1.
         21    1    1    2  503  502  0.34379860127E+02  0.46141286228E+01 -0.43881697320E+02  0.55936288087E+02  0.00000000000E+00 0.  1.
</event>
<event>
 4    1  0.5843276E+002  0.4162261E+02  0.7546771E-02  0.1339231E+00
          2   -1    0    0  502    0  0.00000000000E+00  0.00000000000E+00  0.41254015126E+03  0.41254015126E+03  0.00000000000E+00 0.  1.
         -2   -1    0    0    0  501 -0.00000000000E+00 -0.00000000000E+00 -0.13050817206E+02  0.13050817206E+02  0.00000000000E+00 0. -1.
         21    1    1    2  502  503 -0.38595453469E+02 -0.15583095959E+02  0.37499091281E+03  0.37729381998E+03  0.00000000000E+00 0.  1.
         21    1    1    2  503  501  0.38595453469E+02  0.15583095959E+02  0.24498421246E+02  0.48297148484E+02  0.00000000000E+00 0. -1.
</event>
<event>
 4    1  0.5843276E+002  0.2164972E+02  0.7546771E-02  0.1510187E+00
          2   -1    0    0  503    0  0.00000000000E+00  0.00000000000E+00  0.60685914008E+03  0.60685914008E+03  0.00000000000E+00 0. -1.
         -2   -1    0    0    0  501 -0.00000000000E+00 -0.00000000000E+00 -0.99465573497E+00  0.99465573497E+00  0.00000000000E+00 0.  1.
         21    1    1    2  502  501 -0.13902041745E+02 -0.16596489861E+02  0.44661475567E+03  0.44713918439E+03  0.00000000000E+00 0. -1.
         21    1    1    2  503  502  0.13902041745E+02  0.16596489861E+02  0.15924972868E+03  0.16071461142E+03  0.00000000000E+00 0.  1.
</event>
<event>
 4    1  0.5843276E+002  0.2230861E+02  0.7546771E-02  0.1501367E+00
          2   -1    0    0  502    0  0.00000000000E+00  0.00000000000E+00  0.13824397679E+04  0.13824397679E+04  0.00000000000E+00 0. -1.
         -2   -1    0    0    0  501 -0.00000000000E+00 -0.00000000000E+00 -0.26246897078E+01  0.26246897078E+01  0.00000000000E+00 0.  1.
         21    1    1    2  502  503 -0.21717042933E+02 -0.51033291657E+01  0.13331958546E+04  0.13333824885E+04  0.00000000000E+00 0. -1.
         21    1    1    2  503  501  0.21717042933E+02  0.51033291657E+01  0.46619223599E+02  0.51681969112E+02  0.00000000000E+00 0.  1.
</event>
<event>
 4    1  0.5843276E+002  0.2610430E+02  0.7546771E-02  0.1456819E+00
          2   -1    0    0  502    0  0.00000000000E+00  0.00000000000E+00  0.34729731842E+03  0.34729731842E+03  0.00000000000E+00 0.  1.
         -2   -1    0    0    0  501 -0.00000000000E+00 -0.00000000000E+00 -0.35701246190E+01  0.35701246190E+01  0.00000000000E+00 0. -1.
         21    1    1    2  502  503  0.18467599428E+02 -0.18449450391E+02  0.28960163906E+03  0.29077576204E+03  0.00000000000E+00 0.  1.
         21    1    1    2  503  501 -0.18467599428E+02  0.18449450391E+02  0.54125554744E+02  0.60091680994E+02  0.00000000000E+00 0. -1.
</event>
<event>
 4    1  0.5843276E+002  0.4749904E+02  0.7546771E-02  0.1309396E+00
          2   -1    0    0  503    0  0.00000000000E+00  0.00000000000E+00  0.62795267724E+02  0.62795267724E+02  0.00000000000E+00 0. -1.
         -2   -1    0    0    0  501 -0.00000000000E+00 -0.00000000000E+00 -0.45850125904E+02  0.45850125904E+02  0.00000000000E+00 0.  1.
         21    1    1    2  502  501  0.76110165917E+01 -0.46885293787E+02 -0.16796891759E+02  0.50381483898E+02  0.00000000000E+00 0.  1.
         21    1    1    2  503  502 -0.76110165917E+01  0.46885293787E+02  0.33742033578E+02  0.58263909730E+02  0.00000000000E+00 0. -1.
</event>
<event>
 4    1  0.5843276E+002  0.2071931E+02  0.7546771E-02  0.1523310E+00
          2   -1    0    0  503    0  0.00000000000E+00  0.00000000000E+00  0.26823474641E+03  0.26823474641E+03  0.00000000000E+00 0.  1.
         -2   -1    0    0    0  501 -0.00000000000E+00 -0.00000000000E+00 -0.85080514964E+01  0.85080514964E+01  0.00000000000E+00 0. -1.
         21    1    1    2  502  501 -0.12450088704E+02  0.16561552184E+02  0.51836655929E+01  0.21357905058E+02  0.00000000000E+00 0. -1.
         21    1    1    2  503  502  0.12450088704E+02 -0.16561552184E+02  0.25454302932E+03  0.25538489285E+03  0.00000000000E+00 0.  1.
</event>
<event>
 4    1  0.5843276E+002  0.2401923E+02  0.7546771E-02  0.1480081E+00
          2   -1    0    0  502    0  0.00000000000E+00  0.00000000000E+00  0.33362368835E+01  0.33362368835E+01  0.00000000000E+00 0.  1.
         -2   -1    0    0    0  501 -0.00000000000E+00 -0.00000000000E+00 -0.17582752153E+03  0.17582752153E+03  0.00000000000E+00 0. -1.
         21    1    1    2  502  503  0.10998518072E+02  0.21353131152E+02 -0.74738810800E+02  0.78503588769E+02  0.00000000000E+00 0. -1.
         21    1    1    2  503  501 -0.10998518072E+02 -0.21353131152E+02 -0.97752473846E+02  0.10066016964E+03  0.00000000000E+00 0.  1.
</event>
<event>
 4    1  0.5843276E+002  0.4491234E+02  0.7546771E-02  0.1321878E+00
          2   -1    0    0  503    0  0.00000000000E+00  0.00000000000E+00  0.38499970244E+02  0.38499970244E+02  0.00000000000E+00 0. -1.
         -2   -1    0    0    0  501 -0.00000000000E+00 -0.00000000000E+00 -0.53675169562E+02  0.53675169562E+02  0.00000000000E+00 0.  1.
         21    1    1    2  502  501 -0.40631806962E+02 -0.19135684303E+02 -0.46370828495E+00  0.44914732284E+02  0.00000000000E+00 0. -1.
         21    1    1    2  503  502  0.40631806962E+02  0.19135684303E+02 -0.14711491033E+02  0.47260407523E+02  0.00000000000E+00 0.  1.
</event>
<event>
 4    1  0.5843276E+002  0.2121125E+02  0.7546771E-02  0.1516270E+00
          2   -1    0    0  503    0  0.00000000000E+00  0.00000000000E+00  0.65248857164E+03  0.65248857164E+03  0.00000000000E+00 0. -1.
         -2   -1    0    0    0  501 -0.00000000000E+00 -0.00000000000E+00 -0.62962684507E+01  0.62962684507E+01  0.00000000000E+00 0.  1.
         21    1    1    2  502  501  0.11029603814E+02  0.18118088412E+02  0.12263434254E+02  0.24501206250E+02  0.00000000000E+00 0.  1.
         21    1    1    2  503  502 -0.11029603814E+02 -0.18118088412E+02  0.63392886894E+03  0.63428363384E+03  0.00000000000E+00 0. -1.
</event>
<event>
 4    1  0.5843276E+002  0.2206797E+02  0.7546771E-02  0.1504545E+00
          2   -1    0    0  502    0  0.00000000000E+00  0.00000000000E+00  0.22502035041E+03  0.22502035041E+03  0.00000000000E+00 0. -1.
         -2   -1    0    0    0  501 -0.00000000000E+00 -0.00000000000E+00 -0.31091566421E+01  0.31091566421E+01  0.00000000000E+00 0.  1.
         21    1    1    2  502  503 -0.21791849178E+02 -0.34800309993E+01  0.17383808379E+03  0.17523320085E+03  0.00000000000E+00 0. -1.
         21    1    1    2  503  501  0.21791849178E+02  0.34800309993E+01  0.48073109986E+02  0.52896306205E+02  0.00000000000E+00 0.  1.
</event>
<event>
 4    1  0.5843276E+002  0.5364483E+02  0.7546771E-02  0.1283099E+00
          2   -1    0    0  502    0  0.00000000000E+00  0.00000000000E+00  0.15054719063E+04  0.15054719063E+04  0.00000000000E+00 0. -1.
         -2   -1    0    0    0  501 -0.00000000000E+00 -0.00000000000E+00 -0.19353875570E+01  0.19353875570E+01  0.00000000000E+00 0.  1.
         21    1    1    2  502  503 -0.47441076639E+02 -0.25042208545E+02  0.66810216100E+03  0.67025238940E+03  0.00000000000E+00 0.  1.
         21    1    1    2  503  501  0.47441076639E+02  0.25042208545E+02  0.83543435774E+03  0.83715490445E+03  0.00000000000E+00 0. -1.
</event>
<event>
 4    1  0.5843276E+002  0.2202010E+02  0.7546771E-02  0.1505183E+00
          2   -1    0    0  503    0  0.00000000000E+00  0.00000000000E+00  0.62932380223E+03  0.62932380223E+03  0.00000000000E+00 0.  1.
         -2   -1    0    0    0  501 -0.00000000000E+00 -0.00000000000E+00 -0.11477971311E+01  0.11477971311E+01  0.00000000000E+00 0. -1.
         21    1    1    2  502  501  0.21822841061E+02  0.29408233278E+01  0.13334849726E+03  0.13515438045E+03  0.00000000000E+00 0. -1.
         21    1    1    2  503  502 -0.21822841061E+02 -0.29408233278E+01  0.49482750785E+03  0.49531721892E+03  0.00000000000E+00 0.  1.
</event>
<event>
 4    1  0.5843276E+002  0.2723297E+02  0.7546771E-02  0.1445282E+00
          2   -1    0    0  503    0  0.00000000000E+00  0.00000000000E+00  0.43769604061E+01  0.43769604061E+01  0.00000000000E+00 0.  1.
         -2   -1    0    0    0  501 -0.00000000000E+00 -0.00000000000E+00 -0.17444145492E+03  0.17444145492E+03  0.00000000000E+00 0. -1.
         21    1    1    2  502  501 -0.25528682462E+02  0.94826824599E+01 -0.69893896748E+02  0.75011943699E+02  0.00000000000E+00 0.  1.
         21    1    1    2  503  502  0.25528682462E+02 -0.94826824599E+01 -0.10017059776E+03  0.10380647162E+03  0.00000000000E+00 0. -1.
</event>
<event>
 4    1  0.5843276E+002  0.1655002E+03  0.7546771E-02  0.1082711E+00
          2   -1    0    0  503    0  0.00000000000E+00  0.00000000000E+00  0.60944168868E+03  0.60944168868E+03  0.00000000000E+00 0.  1.
         -2   -1    0    0    0  501 -0.00000000000E+00 -0.00000000000E+00 -0.91496531037E+02  0.91496531037E+02  0.00000000000E+00 0. -1.
         21    1    1    2  502  501  0.22621428055E+02  0.16394691931E+03  0.89827494794E+01  0.16574381179E+03  0.00000000000E+00 0. -1.
         21    1    1    2  503  502 -0.22621428055E+02 -0.16394691931E+03  0.50896240816E+03  0.53519440793E+03  0.00000000000E+00 0.  1.
</event>
<event>
 4    1  0.5843276E+002  0.4245638E+02  0.7546771E-02  0.1334663E+00
          2   -1    0    0  503    0  0.00000000000E+00  0.00000000000E+00  0.14997965145E+03  0.14997965145E+03  0.00000000000E+00 0. -1.
         -2   -1    0    0    0  501 -0.00000000000E+00 -0.00000000000E+00 -0.14032433640E+02  0.14032433640E+02  0.00000000000E+00 0.  1.
         21    1    1    2  502  501  0.37695078792E+02 -0.19535227281E+02  0.99040095145E+02  0.10775659848E+03  0.00000000000E+00 0. -1.
         21    1    1    2  503  502 -0.37695078792E+02  0.19535227281E+02  0.36907122664E+02  0.56255486607E+02  0.00000000000E+00 0.  1.
</event>
<event>
 4    1  0.5843276E+002  0.2948207E+02  0.7546771E-02  0.1424151E+00
          2   -1    0    0  502    0  0.00000000000E+00  0.00000000000E+00  0.54247605423E+03  0.54247605423E+03  0.00000000000E+00 0.  1.
         -2   -1    0    0    0  501 -0.00000000000E+00 -0.00000000000E+00 -0.25378166062E+01  0.25378166062E+01  0.00000000000E+00 0. -1.
         21    1    1    2  502  503 -0.28670224736E+02 -0.68710223344E+01  0.43542427875E+03  0.43642123603E+03  0.00000000000E+00 0.  1.
         21    1    1    2  503  501  0.28670224736E+02  0.68710223344E+01  0.10451395887E+03  0.10859263480E+03  0.00000000000E+00 0. -1.
</event>
<event>
 4    1  0.5843276E+002  0.3542885E+02  0.7546771E-02  0.1377573E+00
          2   -1    0    0  502    0  0.00000000000E+00  0.00000000000E+00  0.45399670110E+03  0.45399670110E+03  0.00000000000E+00 0.  1.
         -2   -1    0    0    0  501 -0.00000000000E+00 -0.00000000000E+00 -0.16360847337E+02  0.16360847337E+02  0.00000000000E+00 0. -1.
         21    1    1    2  502  503  0.35222045561E+02 -0.38224072073E+01  0.43320658162E+03  0.43465290250E+03  0.00000000000E+00 0.  1.
         21    1    1    2  503  501 -0.35222045561E+02  0.38224072073E+01  0.44292721480E+01  0.35704645946E+02  0.00000000000E+00 0. -1.
</event>
<event>
 4    1  0.5843276E+002  0.2433834E+02  0.7546771E-02  0.1476343E+00
          2   -1    0    0  503    0  0.00000000000E+00  0.00000000000E+00  0.14652895966E+04  0.14652895966E+04  0.00000000000E+00 0.  1.
         -2   -1    0    0    0  501 -0.00000000000E+00 -0.00000000000E+00 -0.15650969163E+01  0.15650969163E+01  0.00000000000E+00 0. -1.
         21    1    1    2  502  501  0.23443243988E+02 -0.65398036916E+01  0.10021806567E+03  0.10313105938E+03  0.00000000000E+00 0. -1.
         21    1    1    2  503  502 -0.23443243988E+02  0.65398036916E+01  0.13635064340E+04  0.13637236342E+04  0.00000000000E+00 0.  1.
</event>
<event>
 4    1  0.5843276E+002  0.2039734E+02  0.7546771E-02  0.1528046E+00
          2   -1    0    0  502    0  0.00000000000E+00  0.00000000000E+00  0.21568561982E+03  0.21568561982E+03  0.00000000000E+00 0.  1.
         -2   -1    0    0    0  501 -0.00000000000E+00 -0.00000000000E+00 -0.50743720047E+01  0.50743720047E+01  0.00000000000E+00 0. -1.
         21    1    1    2  502  503  0.14381390168E+02 -0.14464689434E+02  0.19220909659E+03  0.19328835566E+03  0.00000000000E+00 0.  1.
         21    1    1    2  503  501 -0.14381390168E+02  0.14464689434E+02  0.18402151226E+02  0.27471636160E+02  0.00000000000E+00 0. -1.
</event>
<event>
 4    1  0.5843276E+002  0.2056629E+02  0.7546771E-02  0.1525548E+00
          2   -1    0    0  503    0  0.00000000000E+00  0.00000000000E+00  0.34963974547E+03  0.34963974547E+03  0.00000000000E+00 0. -1.
         -2   -1    0    0    0  501 -0.00000000000E+00 -0.00000000000E+00 -0.13448696436E+01  0.13448696436E+01  0.00000000000E+00 0.  1.
         21    1    1    2  502  501 -0.13742088436E+02  0.15301212061E+02  0.11851880810E+03  0.12028998279E+03  0.00000000000E+00 0.  1.
         21    1    1    2  503  502  0.13742088436E+02 -0.15301212061E+02  0.22977606772E+03  0.23069463232E+03  0.00000000000E+00 0. -1.
</event>
<event>
 4    1  0.5843276E+002  0.2067107E+02  0.7546771E-02  0.1524013E+00
          2   -1    0    0  502    0  0.00000000000E+00  0.00000000000E+00  0.30439961892E+03  0.30439961892E+03  0.00000000000E+00 0.  1.
         -2   -1    0    0    0  501 -0.00000000000E+00 -0.00000000000E+00 -0.33739108828E+01  0.33739108828E+01  0.00000000000E+00 0. -1.
         21    1    1    2  502  503 -0.17538041766E+02 -0.10941225612E+02  0.26810764319E+03  0.26890333145E+03  0.00000000000E+00 0.  1.
         21    1    1    2  503  501  0.17538041766E+02  0.10941225612E+02  0.32918064849E+02  0.38870198356E+02  0.00000000000E+00 0. -1.
</event>
<event>
 4    1  0.5843276E+002  0.2013316E+02  0.7546771E-02  0.1532010E+00
          2   -1    0    0  502    0  0.00000000000E+00  0.00000000000E+00  0.10707494253E+02  0.10707494253E+02  0.00000000000E+00 0. -1.
         -2   -1    0    0    0  501 -0.00000000000E+00 -0.00000000000E+00 -0.73078495362E+02  0.73078495362E+02  0.00000000000E+00 0.  1.
         21    1    1    2  502  503 -0.83097280081E+01  0.18338281679E+02 -0.21013791482E+01  0.20242528222E+02  0.00000000000E+00 0. -1.
         21    1    1    2  503  501  0.83097280081E+01 -0.18338281679E+02 -0.60269621961E+02  0.63543461393E+02  0.00000000000E+00 0.  1.
</event>
<event>
 4    1  0.5843276E+002  0.2761083E+02  0.7546771E-02  0.1441567E+00
          2   -1    0    0  503    0  0.00000000000E+00  0.00000000000E+00  0.18999566945E+03  0.18999566945E+03  0.00000000000E+00 0. -1.
         -2   -1    0    0    0  501 -0.00000000000E+00 -0.00000000000E+00 -0.83088252744E+01  0.83088252744E+01  0.00000000000E+00 0.  1.
         21    1    1    2  502  501  0.26694984127E+02 -0.70523523705E+01  0.19544778842E+02  0.33828334743E+02  0.00000000000E+00 0.  1.
         21    1    1    2  503  502 -0.26694984127E+02  0.70523523705E+01  0.16214206533E+03  0.16447615998E+03  0.00000000000E+00 0. -1.
</event>
<event>
 4    1  0.5843276E+002  0.2196449E+02  0.7546771E-02  0.1505927E+00
          2   -1    0    0  502    0  0.00000000000E+00  0.00000000000E+00  0.53241028442E+03  0.53241028442E+03  0.00000000000E+00 0. -1.
         -2   -1    0    0    0  501 -0.00000000000E+00 -0.00000000000E+00 -0.13206847399E+01  0.13206847399E+01  0.00000000000E+00 0.  1.
         21    1    1    2  502  503 -0.10710934008E+02  0.19175889952E+02  0.41505744809E+03  0.41563821297E+03  0.00000000000E+00 0. -1.
         21    1    1    2  503  501  0.10710934008E+02 -0.19175889952E+02  0.11603215158E+03  0.11809275619E+03  0.00000000000E+00 0.  1.
</event>
<event>
 4    1  0.5843276E+002  0.2363092E+02  0.7546771E-02  0.1484724E+00
          2   -1    0    0  502    0  0.00000000000E+00  0.00000000000E+00  0.49585050519E+03  0.49585050519E+03  0.00000000000E+00 0.  1.
         -2   -1    0    0    0  501 -0.00000000000E+00 -0.00000000000E+00 -0.11444371233E+01  0.11444371233E+01  0.00000000000E+00 0. -1.
         21    1    1    2  502  503 -0.12068409099E+02  0.20316842318E+02  0.27873314084E+03  0.27973305915E+03  0.00000000000E+00 0.  1.
         21    1    1    2  503  501  0.12068409099E+02 -0.20316842318E+02  0.21597292723E+03  0.21726188316E+03  0.00000000000E+00 0. -1.
</event>
<event>
 4    1  0.5843276E+002  0.3331051E+02  0.7546771E-02  0.1392846E+00
          2   -1    0    0  502    0  0.00000000000E+00  0.00000000000E+00  0.14200661091E+04  0.14200661091E+04  0.00000000000E+00 0.  1.
         -2   -1    0    0    0  501 -0.00000000000E+00 -0.00000000000E+00 -0.11810680904E+01  0.11810680904E+01  0.00000000000E+00 0. -1.
         21    1    1    2  502  503 -0.21763071730E+01  0.33239338995E+02  0.11228429267E+04  0.11233369165E+04  0.00000000000E+00 0.  1.
         21    1    1    2  503  501  0.21763071730E+01 -0.33239338995E+02  0.29604211434E+03  0.29791026070E+03  0.00000000000E+00 0. -1.
</event>
<event>
 4    1  0.5843276E+002  0.2542476E+02  0.7546771E-02  0.1464107E+00
          2   -1    0    0  503    0  0.00000000000E+00  0.00000000000E+00  0.12922039711E+04  0.12922039711E+04  0.00000000000E+00 0. -1.
         -2   -1    0    0    0  501 -0.00000000000E+00 -0.00000000000E+00 -0.55614149926E+00  0.55614149926E+00  0.00000000000E+00 0.  1.
         21    1    1    2  502  501 -0.28774807414E+01 -0.25261404872E+02  0.85074559770E+03  0.85112542582E+03  0.00000000000E+00 0. -1.
         21    1    1    2  503  502  0.28774807414E+01  0.25261404872E+02  0.44090223193E+03  0.44163468680E+03  0.00000000000E+00 0.  1.
</event>
<event>
 4    1  0.5843276E+002  0.2673286E+02  0.7546771E-02  0.1450310E+00
          2   -1    0    0  503    0  0.00000000000E+00  0.00000000000E+00  0.20143065901E+04  0.20143065901E+04  0.00000000000E+00 0. -1.
         -2   -1    0    0    0  501 -0.00000000000E+00 -0.00000000000E+00 -0.52594569903E+01  0.52594569903E+01  0.00000000000E+00 0.  1.
         21    1    1    2  502  501 -0.63121492433E+01 -0.25976959805E+02  0.29393387861E+02  0.39731812426E+02  0.00000000000E+00 0.  1.
         21    1    1    2  503  502  0.63121492433E+01  0.25976959805E+02  0.19796537453E+04  0.19798342347E+04  0.00000000000E+00 0. -1.
</event>
<event>
 4    1  0.5843276E+002  0.2158921E+02  0.7546771E-02  0.1511016E+00
          2   -1    0    0  503    0  0.00000000000E+00  0.00000000000E+00  0.17782084886E+04  0.17782084886E+04  0.00000000000E+00 0. -1.
         -2   -1    0    0    0  501 -0.00000000000E+00 -0.00000000000E+00 -0.42556933199E+00  0.42556933199E+00  0.00000000000E+00 0.  1.
         21    1    1    2  502  501 -0.21274120365E+02  0.36750023175E+01  0.33774043466E+03  0.33842974905E+03  0.00000000000E+00 0.  1.
         21    1    1    2  503  502  0.21274120365E+02 -0.36750023175E+01  0.14400424846E+04  0.14402043088E+04  0.00000000000E+00 0. -1.
</event>
<event>
 4    1  0.5843276E+002  0.2283562E+02  0.7546771E-02  0.1494573E+00
          2   -1    0    0  502    0  0.00000000000E+00  0.00000000000E+00  0.85308526888E+02  0.85308526888E+02  0.00000000000E+00 0. -1.
         -2   -1    0    0    0  501 -0.00000000000E+00 -0.00000000000E+00 -0.62113476140E+01  0.62113476140E+01  0.00000000000E+00 0.  1.
         21    1    1    2  502  503 -0.17297028794E+02 -0.14909001824E+02  0.33781814681E+02  0.40775930935E+02  0.00000000000E+00 0. -1.
         21    1    1    2  503  501  0.17297028794E+02  0.14909001824E+02  0.45315364593E+02  0.50743943567E+02  0.00000000000E+00 0.  1.
</event>
<event>
 4    1  0.5843276E+002  0.2259325E+02  0.7546771E-02  0.1497670E+00
          2   -1    0    0  503    0  0.00000000000E+00  0.00000000000E+00  0.20786805939E+04  0.20786805939E+04  0.00000000000E+00 0. -1.
         -2   -1    0    0    0  501 -0.00000000000E+00 -0.00000000000E+00 -0.24784257583E+00  0.24784257583E+00  0.00000000000E+00 0.  1.
         21    1    1    2  502  501 -0.22497881266E+01 -0.22480955451E+02  0.93960979562E+03  0.93988138769E+03  0.00000000000E+00 0.  1.
         21    1    1    2  503  502  0.22497881266E+01  0.22480955451E+02  0.11388229557E+04  0.11390470488E+04  0.00000000000E+00 0. -1.
</event>
<event>
 4    1  0.5843276E+002  0.2623331E+02  0.7546771E-02  0.1455465E+00
          2   -1    0    0  502    0  0.00000000000E+00  0.00000000000E+00  0.19793441894E+03  0.19793441894E+03  0.00000000000E+00 0. -1.
         -2   -1    0    0    0  501 -0.00000000000E+00 -0.00000000000E+00 -0.45372091157E+01  0.45372091157E+01  0.00000000000E+00 0.  1.
         21    1    1    2  502  503  0.19582639016E+02  0.17455853155E+02  0.14563906552E+03  0.14798285024E+03  0.00000000000E+00 0.  1.
         21    1    1    2  503  501 -0.19582639016E+02 -0.17455853155E+02  0.47758144300E+02  0.54488777810E+02  0.00000000000E+00 0. -1.
</event>
<event>
 4    1  0.5843276E+002  0.2007625E+02  0.7546771E-02  0.1532873E+00
          2   -1    0    0  503    0  0.00000000000E+00  0.00000000000E+00  0.41030871550E+03  0.41030871550E+03  0.00000000000E+00 0.  1.
         -2   -1    0    0    0  501 -0.00000000000E+00 -0.00000000000E+00 -0.11892846974E+03  0.11892846974E+03  0.00000000000E+00 0. -1.
         21    1    1    2  502  501 -0.19935918763E+02  0.23696047918E+01 -0.11783335749E+03  0.11953140182E+03  0.00000000000E+00 0. -1.
         21    1    1    2  503  502  0.19935918763E+02 -0.23696047918E+01  0.40921360325E+03  0.40970578343E+03  0.00000000000E+00 0.  1.
</event>
<event>
 4    1  0.5843276E+002  0.2584347E+02  0.7546771E-02  0.1459585E+00
          2   -1    0    0  503    0  0.00000000000E+00  0.00000000000E+00  0.83471780738E+00  0.83471780738E+00  0.00000000000E+00 0.  1.
         -2   -1    0    0    0  501 -0.00000000000E+00 -0.00000000000E+00 -0.11966132168E+04  0.11966132168E+04  0.00000000000E+00 0. -1.
         21    1    1    2  502  501 -0.25248071474E+02 -0.55154262913E+01 -0.94252525922E+03  0.94287949883E+03  0.00000000000E+00 0. -1.
         21    1    1    2  503  502  0.25248071474E+02  0.55154262913E+01 -0.25325323975E+03  0.25456843576E+03  0.00000000000E+00 0.  1.
</event>
<event>
 4    1  0.5843276E+002  0.3183017E+02  0.7546771E-02  0.1404332E+00
          2   -1    0    0  502    0  0.00000000000E+00  0.00000000000E+00  0.67016544115E+02  0.67016544115E+02  0.00000000000E+00 0. -1.
         -2   -1    0    0    0  501 -0.00000000000E+00 -0.00000000000E+00 -0.20754733128E+02  0.20754733128E+02  0.00000000000E+00 0.  1.
         21    1    1    2  502  503 -0.11752166031E+02  0.29581179665E+02  0.46001401345E+02  0.55940043997E+02  0.00000000000E+00 0. -1.
         21    1    1    2  503  501  0.11752166031E+02 -0.29581179665E+02  0.26040964215E+00  0.31831233246E+02  0.00000000000E+00 0.  1.
</event>
<event>
 4    1  0.5843276E+002  0.2868008E+02  0.7546771E-02  0.1431424E+00
          2   -1    0    0  503    0  0.00000000000E+00  0.00000000000E+00  0.41766374218E+01  0.41766374218E+01  0.00000000000E+00 0. -1.
         -2   -1    0    0    0  501 -0.00000000000E+00 -0.00000000000E+00 -0.19799642143E+03  0.19799642143E+03  0.00000000000E+00 0.  1.
         21    1    1    2  502  501  0.19812509192E+01  0.28611566233E+02 -0.10429366125E+03  0.10816522017E+03  0.00000000000E+00 0. -1.
         21    1    1    2  503  502 -0.19812509192E+01 -0.28611566233E+02 -0.89526122757E+02  0.94007838681E+02  0.00000000000E+00 0.  1.
</event>
<event>
 4    1  0.5843276E+002  0.3130656E+02  0.7546771E-02  0.1408572E+00
          2   -1    0    0  502    0  0.00000000000E+00  0.00000000000E+00  0.23400075812E+02  0.23400075812E+02  0.00000000000E+00 0. -1.
         -2   -1    0    0    0  501 -0.00000000000E+00 -0.00000000000E+00 -0.24332024130E+03  0.24332024130E+03  0.00000000000E+00 0.  1.
         21    1    1    2  502  503 -0.85711191175E+01  0.30110408753E+02  0.11380264827E+02  0.33310827455E+02  0.00000000000E+00 0. -1.
         21    1    1    2  503  501  0.85711191175E+01 -0.30110408753E+02 -0.23130043031E+03  0.23340948965E+03  0.00000000000E+00 0.  1.
</event>
<event>
 4    1  0.5843276E+002  0.2437661E+02  0.7546771E-02  0.1475900E+00
          2   -1    0    0  502    0  0.00000000000E+00  0.00000000000E+00  0.24327105175E+03  0.24327105175E+03  0.00000000000E+00 0.  1.
         -2   -1    0    0    0  501 -0.00000000000E+00 -0.00000000000E+00 -0.19045213462E+02  0.19045213462E+02  0.00000000000E+00 0. -1.
         21    1    1    2  502  503 -0.23091025416E+02  0.78117537008E+01  0.23457179197E+03  0.23583499431E+03  0.00000000000E+00 0.  1.
         21    1    1    2  503  501  0.23091025416E+02 -0.78117537008E+01 -0.10345953690E+02  0.26481270899E+02  0.00000000000E+00 0. -1.
</event>
<event>
 4    1  0.5843276E+002  0.2438748E+02  0.7546771E-02  0.1475774E+00
          2   -1    0    0  502    0  0.00000000000E+00  0.00000000000E+00  0.67493261110E+03  0.67493261110E+03  0.00000000000E+00 0.  1.
         -2   -1    0    0    0  501 -0.00000000000E+00 -0.00000000000E+00 -0.96422652314E+00  0.96422652314E+00  0.00000000000E+00 0. -1.
         21    1    1    2  502  503 -0.21871574054E+02 -0.10788115254E+02  0.23781543597E+03  0.23906260847E+03  0.00000000000E+00 0. -1.
         21    1    1    2  503  501  0.21871574054E+02  0.10788115254E+02  0.43615294861E+03  0.43683422916E+03  0.00000000000E+00 0.  1.
</event>
<event>
 4    1  0.5843276E+002  0.2624273E+02  0.7546771E-02  0.1455367E+00
          2   -1    0    0  502    0  0.00000000000E+00  0.00000000000E+00  0.89400699690E+03  0.89400699690E+03  0.00000000000E+00 0. -1.
         -2   -1    0    0    0  501 -0.00000000000E+00 -0.00000000000E+00 -0.79989927032E+00  0.79989927032E+00  0.00000000000E+00 0.  1.
         21    1    1    2  502  503  0.19495072382E+02 -0.17567675390E+02  0.53262298521E+03  0.53326909289E+03  0.00000000000E+00 0. -1.
         21    1    1    2  503  501 -0.19495072382E+02  0.17567675390E+02  0.36058411242E+03  0.36153780328E+03  0.00000000000E+00 0.  1.
</event>
<event>
 4    1  0.5843276E+002  0.3149521E+02  0.7546771E-02  0.1407033E+00
          2   -1    0    0  502    0  0.00000000000E+00  0.00000000000E+00  0.17173761485E+03  0.17173761485E+03  0.00000000000E+00 0. -1.
         -2   -1    0    0    0  501 -0.00000000000E+00 -0.00000000000E+00 -0.23246039087E+02  0.23246039087E+02  0.00000000000E+00 0.  1.
         21    1    1    2  502  503  0.26925995552E+02 -0.16338259634E+02  0.15876224446E+03  0.16185610347E+03  0.00000000000E+00 0. -1.
         21    1    1    2  503  501 -0.26925995552E+02  0.16338259634E+02 -0.10270668698E+02  0.33127550466E+02  0.00000000000E+00 0.  1.
</event>
<event>
 4    1  0.5843276E+002  0.2011147E+02  0.7546771E-02  0.1532338E+00
          2   -1    0    0  503    0  0.00000000000E+00  0.00000000000E+00  0.54503109045E+01  0.54503109045E+01  0.00000000000E+00 0. -1.
         -2   -1    0    0    0  501 -0.00000000000E+00 -0.00000000000E+00 -0.83212821817E+02  0.83212821817E+02  0.00000000000E+00 0.  1.
         21    1    1    2  502  501 -0.19627433958E+02 -0.43857973689E+01 -0.24300151141E+02  0.31543124890E+02  0.00000000000E+00 0. -1.
         21    1    1    2  503  502  0.19627433958E+02  0.43857973689E+01 -0.53462359772E+02  0.57120007832E+02  0.00000000000E+00 0.  1.
</event>
<event>
 4    1  0.5843276E+002  0.4865103E+02  0.7546771E-02  0.1304129E+00
          2   -1    0    0  502    0  0.00000000000E+00  0.00000000000E+00  0.22608471807E+04  0.22608471807E+04  0.00000000000E+00 0. -1.
         -2   -1    0    0    0  501 -0.00000000000E+00 -0.00000000000E+00 -0.11563133273E+01  0.11563133273E+01  0.00000000000E+00 0.  1.
         21    1    1    2  502  503  0.16385676165E+02 -0.45808651452E+02  0.14777208467E+04  0.14785214993E+04  0.00000000000E+00 0. -1.
         21    1    1    2  503  501 -0.16385676165E+02  0.45808651452E+02  0.78197002067E+03  0.78348199479E+03  0.00000000000E+00 0.  1.
</event>
<event>
 4    1  0.5843276E+002  0.2188528E+02  0.7546771E-02  0.1506991E+00
          2   -1    0    0  502    0  0.00000000000E+00  0.00000000000E+00  0.39288243871E+03  0.39288243871E+03  0.00000000000E+00 0. -1.
         -2   -1    0    0    0  501 -0.00000000000E+00 -0.00000000000E+00 -0.27933505610E+01  0.27933505610E+01  0.00000000000E+00 0.  1.
         21    1    1    2  502  503 -0.10458604347E+02  0.19224545891E+02  0.34356380522E+03  0.34426015429E+03  0.00000000000E+00 0. -1.
         21    1    1    2  503  501  0.10458604347E+02 -0.19224545891E+02  0.46525282930E+02  0.51415634989E+02  0.00000000000E+00 0.  1.
</event>
<event>
 4    1  0.5843276E+002  0.2466023E+02  0.7546771E-02  0.1472640E+00
          2   -1    0    0  502    0  0.00000000000E+00  0.00000000000E+00  0.53352291966E+02  0.53352291966E+02  0.00000000000E+00 0.  1.
         -2   -1    0    0    0  501 -0.00000000000E+00 -0.00000000000E+00 -0.19441341802E+02  0.19441341802E+02  0.00000000000E+00 0. -1.
         21    1    1    2  502  503 -0.23888244875E+02 -0.61219739741E+01  0.40365924492E+02  0.47302586278E+02  0.00000000000E+00 0.  1.
         21    1    1    2  503  501  0.23888244875E+02  0.61219739741E+01 -0.64549743277E+01  0.25491047489E+02  0.00000000000E+00 0. -1.
</event>
<event>
 4    1  0.5843276E+002  0.2300898E+02  0.7546771E-02  0.1492385E+00
          2   -1    0    0  502    0  0.00000000000E+00  0.00000000000E+00  0.54775791564E+03  0.54775791564E+03  0.00000000000E+00 0. -1.
         -2   -1    0    0    0  501 -0.00000000000E+00 -0.00000000000E+00 -0.73911226934E+01  0.73911226934E+01  0.00000000000E+00 0.  1.
         21    1    1    2  502  503 -0.18089225498E+02 -0.14219454676E+02  0.52897363979E+03  0.52947381859E+03  0.00000000000E+00 0. -1.
         21    1    1    2  503  501  0.18089225498E+02  0.14219454676E+02  0.11393153154E+02  0.25675219750E+02  0.00000000000E+00 0.  1.
</event>
<event>
 4    1  0.5843276E+002  0.2569374E+02  0.7546771E-02  0.1461190E+00
          2   -1    0    0  503    0  0.00000000000E+00  0.00000000000E+00  0.17819540202E+01  0.17819540202E+01  0.00000000000E+00 0. -1.
         -2   -1    0    0    0  501 -0.00000000000E+00 -0.00000000000E+00 -0.92714117363E+03  0.92714117363E+03  0.00000000000E+00 0.  1.
         21    1    1    2  502  501  0.15798927185E+02  0.20262333870E+02 -0.82257353146E+03  0.82297471585E+03  0.00000000000E+00 0.  1.
         21    1    1    2  503  502 -0.15798927185E+02 -0.20262333870E+02 -0.10278568815E+03  0.10594841180E+03  0.00000000000E+00 0. -1.
</event>
<event>
 4    1  0.5843276E+002  0.3152125E+02  0.7546771E-02  0.1406822E+00
          2   -1    0    0  503    0  0.00000000000E+00  0.00000000000E+00  0.27162027412E+02  0.27162027412E+02  0.00000000000E+00 0. -1.
         -2   -1    0    0    0  501 -0.00000000000E+00 -0.00000000000E+00 -0.38185310075E+02  0.38185310075E+02  0.00000000000E+00 0.  1.
         21    1    1    2  502  501 -0.14933231034E+02 -0.27759468454E+02  0.11874620586E+01  0.31543613364E+02  0.00000000000E+00 0. -1.
         21    1    1    2  503  502  0.14933231034E+02  0.27759468454E+02 -0.12210744721E+02  0.33803724123E+02  0.00000000000E+00 0.  1.
</event>
<event>
 4    1  0.5843276E+002  0.2925459E+02  0.7546771E-02  0.1426186E+00
          2   -1    0    0  502    0  0.00000000000E+00  0.00000000000E+00  0.21010605779E+03  0.21010605779E+03  0.00000000000E+00 0.  1.
         -2   -1    0    0    0  501 -0.00000000000E+00 -0.00000000000E+00 -0.17964185601E+02  0.17964185601E+02  0.00000000000E+00 0. -1.
         21    1    1    2  502  503  0.27524205652E+02  0.99120784117E+01  0.19634748304E+03  0.19851489942E+03  0.00000000000E+00 0.  1.
         21    1    1    2  503  501 -0.27524205652E+02 -0.99120784117E+01 -0.42056108434E+01  0.29555343980E+02  0.00000000000E+00 0. -1.
</event>
<event>
 4    1  0.5843276E+002  0.7376285E+02  0.7546771E-02  0.1219118E+00
          2   -1    0    0  502    0  0.00000000000E+00  0.00000000000E+00  0.68636668872E+03  0.68636668872E+03  0.00000000000E+00 0. -1.
         -2   -1    0    0    0  501 -0.00000000000E+00 -0.00000000000E+00 -0.19781913426E+02  0.19781913426E+02  0.00000000000E+00 0.  1.
         21    1    1    2  502  503  0.34199491130E+02  0.65355590989E+02  0.60661633929E+03  0.61108456171E+03  0.00000000000E+00 0. -1.
         21    1    1    2  503  501 -0.34199491130E+02 -0.65355590989E+02  0.59968436005E+02  0.95064040436E+02  0.00000000000E+00 0.  1.
</event>
<event>
 4    1  0.5843276E+002  0.2725443E+02  0.7546771E-02  0.1445069E+00
          2   -1    0    0  503    0  0.00000000000E+00  0.00000000000E+00  0.11525397042E+03  0.11525397042E+03  0.00000000000E+00 0.  1.
         -2   -1    0    0    0  501 -0.00000000000E+00 -0.00000000000E+00 -0.18743666716E+02  0.18743666716E+02  0.00000000000E+00 0. -1.
         21    1    1    2  502  501 -0.22382591470E+02 -0.15550671436E+02 -0.60161348632E+01  0.27910529585E+02  0.00000000000E+00 0. -1.
         21    1    1    2  503  502  0.22382591470E+02  0.15550671436E+02  0.10252643857E+03  0.10608710755E+03  0.00000000000E+00 0.  1.
</event>
<event>
 4    1  0.5843276E+002  0.3480452E+02  0.7546771E-02  0.1381943E+00
          2   -1    0    0  503    0  0.00000000000E+00  0.00000000000E+00  0.51449953148E+02  0.51449953148E+02  0.00000000000E+00 0.  1.
         -2   -1    0    0    0  501 -0.00000000000E+00 -0.00000000000E+00 -0.25550875301E+02  0.25550875301E+02  0.00000000000E+00 0. -1.
         21    1    1    2  502  501 -0.34100874658E+02  0.69631302366E+01  0.21604031228E+01  0.34871509528E+02  0.00000000000E+00 0. -1.
         21    1    1    2  503  502  0.34100874658E+02 -0.69631302366E+01  0.23738674723E+02  0.42129318921E+02  0.00000000000E+00 0.  1.
</event>
<event>
 4    1  0.5843276E+002  0.3139799E+02  0.7546771E-02  0.1407825E+00
          2   -1    0    0  503    0  0.00000000000E+00  0.00000000000E+00  0.13803931128E+04  0.13803931128E+04  0.00000000000E+00 0. -1.
         -2   -1    0    0    0  501 -0.00000000000E+00 -0.00000000000E+00 -0.92622869208E+00  0.92622869208E+00  0.00000000000E+00 0.  1.
         21    1    1    2  502  501  0.28791006362E+02  0.12526437993E+02  0.35926176238E+03  0.36063117946E+03  0.00000000000E+00 0.  1.
         21    1    1    2  503  502 -0.28791006362E+02 -0.12526437993E+02  0.10202051217E+04  0.10206881620E+04  0.00000000000E+00 0. -1.
</event>
<event>
 4    1  0.5843276E+002  0.3823790E+02  0.7546771E-02  0.1359133E+00
          2   -1    0    0  503    0  0.00000000000E+00  0.00000000000E+00  0.72012843250E+03  0.72012843250E+03  0.00000000000E+00 0.  1.
         -2   -1    0    0    0  501 -0.00000000000E+00 -0.00000000000E+00 -0.23058996300E+01  0.23058996300E+01  0.00000000000E+00 0. -1.
         21    1    1    2  502  501 -0.37689358006E+02  0.64536533081E+01  0.23405188133E+03  0.23715484499E+03  0.00000000000E+00 0. -1.
         21    1    1    2  503  502  0.37689358006E+02 -0.64536533081E+01  0.48377065154E+03  0.48527948714E+03  0.00000000000E+00 0.  1.
</event>
<event>
 4    1  0.5843276E+002  0.2093658E+02  0.7546771E-02  0.1520172E+00
          2   -1    0    0  502    0  0.00000000000E+00  0.00000000000E+00  0.22953442128E+03  0.22953442128E+03  0.00000000000E+00 0. -1.
         -2   -1    0    0    0  501 -0.00000000000E+00 -0.00000000000E+00 -0.29230216912E+01  0.29230216912E+01  0.00000000000E+00 0.  1.
         21    1    1    2  502  503 -0.15739260271E+02  0.13806371442E+02  0.18173981834E+03  0.18294179888E+03  0.00000000000E+00 0. -1.
         21    1    1    2  503  501  0.15739260271E+02 -0.13806371442E+02  0.44871581250E+02  0.49515644095E+02  0.00000000000E+00 0.  1.
</event>
<event>
 4    1  0.5843276E+002  0.2013669E+02  0.7546771E-02  0.1531956E+00
          2   -1    0    0  503    0  0.00000000000E+00  0.00000000000E+00  0.10266050716E+02  0.10266050716E+02  0.00000000000E+00 0.  1.
         -2   -1    0    0    0  501 -0.00000000000E+00 -0.00000000000E+00 -0.15168448055E+03  0.15168448055E+03  0.00000000000E+00 0. -1.
         21    1    1    2  502  501  0.20134372599E+02 -0.30581681011E+00 -0.14034820169E+03  0.14178541604E+03  0.00000000000E+00 0. -1.
         21    1    1    2  503  502 -0.20134372599E+02  0.30581681011E+00 -0.10702281446E+01  0.20165115228E+02  0.00000000000E+00 0.  1.
</event>
<event>
 4    1  0.5843276E+002  0.3518093E+02  0.7546771E-02  0.1379296E+00
          2   -1    0    0  503    0  0.00000000000E+00  0.00000000000E+00  0.11625920150E+03  0.11625920150E+03  0.00000000000E+00 0. -1.
         -2   -1    0    0    0  501 -0.00000000000E+00 -0.00000000000E+00 -0.12702402944E+02  0.12702402944E+02  0.00000000000E+00 0.  1.
         21    1    1    2  502  501 -0.31593964092E+02  0.15476417815E+02  0.25834262725E+02  0.43647533790E+02  0.00000000000E+00 0.  1.
         21    1    1    2  503  502  0.31593964092E+02 -0.15476417815E+02  0.77722535832E+02  0.85314070654E+02  0.00000000000E+00 0. -1.
</event>
<event>
 4    1  0.5843276E+002  0.2192999E+02  0.7546771E-02  0.1506390E+00
          2   -1    0    0  503    0  0.00000000000E+00  0.00000000000E+00  0.11432202642E+02  0.11432202642E+02  0.00000000000E+00 0. -1.
         -2   -1    0    0    0  501 -0.00000000000E+00 -0.00000000000E+00 -0.13684017800E+03  0.13684017800E+03  0.00000000000E+00 0.  1.
         21    1    1    2  502  501 -0.12952257665E+02  0.17696429863E+02 -0.12440111469E+03  0.12631928572E+03  0.00000000000E+00 0.  1.
         21    1    1    2  503  502  0.12952257665E+02 -0.17696429863E+02 -0.10068606740E+01  0.21953094929E+02  0.00000000000E+00 0. -1.
</event>
<event>
 4    1  0.5843276E+002  0.3154150E+02  0.7546771E-02  0.1406658E+00
          2   -1    0    0  502    0  0.00000000000E+00  0.00000000000E+00  0.88256843934E+02  0.88256843934E+02  0.00000000000E+00 0. -1.
         -2   -1    0    0    0  501 -0.00000000000E+00 -0.00000000000E+00 -0.66281879589E+02  0.66281879589E+02  0.00000000000E+00 0.  1.
         21    1    1    2  502  503 -0.11052270235E+02 -0.29541723944E+02  0.81380356613E+02  0.87279027111E+02  0.00000000000E+00 0. -1.
         21    1    1    2  503  501  0.11052270235E+02  0.29541723944E+02 -0.59405392268E+02  0.67259696412E+02  0.00000000000E+00 0.  1.
</event>
<event>
 4    1  0.5843276E+002  0.3951425E+02  0.7546771E-02  0.1351356E+00
          2   -1    0    0  503    0  0.00000000000E+00  0.00000000000E+00  0.78718998655E+03  0.78718998655E+03  0.00000000000E+00 0. -1.
         -2   -1    0    0    0  501 -0.00000000000E+00 -0.00000000000E+00 -0.44995671797E+01  0.44995671797E+01  0.00000000000E+00 0.  1.
         21    1    1    2  502  501  0.30707699769E+01 -0.39394749040E+02  0.95337951794E+02  0.10320223318E+03  0.00000000000E+00 0.  1.
         21    1    1    2  503  502 -0.30707699769E+01  0.39394749040E+02  0.68735246758E+03  0.68848732056E+03  0.00000000000E+00 0. -1.
</event>
<event>
 4    1  0.5843276E+002  0.2235310E+02  0.7546771E-02  0.1500785E+00
          2   -1    0    0  503    0  0.00000000000E+00  0.00000000000E+00  0.60956507255E+01  0.60956507255E+01  0.00000000000E+00 0. -1.
         -2   -1    0    0    0  501 -0.00000000000E+00 -0.00000000000E+00 -0.87350145251E+02  0.87350145251E+02  0.00000000000E+00 0.  1.
         21    1    1    2  502  501  0.17234667659E+02 -0.14234723915E+02 -0.52222779584E+02  0.56805632131E+02  0.00000000000E+00 0. -1.
         21    1    1    2  503  502 -0.17234667659E+02  0.14234723915E+02 -0.29031714941E+02  0.36640163846E+02  0.00000000000E+00 0.  1.
</event>
<event>
 4    1  0.5843276E+002  0.2237558E+02  0.7546771E-02  0.1500491E+00
          2   -1    0    0  502    0  0.00000000000E+00  0.00000000000E+00  0.20550426337E+03  0.20550426337E+03  0.00000000000E+00 0. -1.
         -2   -1    0    0    0  501 -0.00000000000E+00 -0.00000000000E+00 -0.31152763174E+01  0.31152763174E+01  0.00000000000E+00 0.  1.
         21    1    1    2  502  503  0.22261631594E+02  0.22552628973E+01  0.14989232164E+03  0.15155320696E+03  0.00000000000E+00 0. -1.
         21    1    1    2  503  501 -0.22261631594E+02 -0.22552628973E+01  0.52496665411E+02  0.57066332730E+02  0.00000000000E+00 0.  1.
</event>
<event>
 4    1  0.5843276E+002  0.3539859E+02  0.7546771E-02  0.1377782E+00
          2   -1    0    0  502    0  0.00000000000E+00  0.00000000000E+00  0.22222957985E+03  0.22222957985E+03  0.00000000000E+00 0. -1.
         -2   -1    0    0    0  501 -0.00000000000E+00 -0.00000000000E+00 -0.69247192932E+01  0.69247192932E+01  0.00000000000E+00 0.  1.
         21    1    1    2  502  503 -0.23634855463E+02  0.26352493032E+02  0.15703118776E+03  0.16097159442E+03  0.00000000000E+00 0. -1.
         21    1    1    2  503  501  0.23634855463E+02 -0.26352493032E+02  0.58273672800E+02  0.68182704723E+02  0.00000000000E+00 0.  1.
</event>
<event>
 4    1  0.5843276E+002  0.2511623E+02  0.7546771E-02  0.1467507E+00
          2   -1    0    0  503    0  0.00000000000E+00  0.00000000000E+00  0.19241939567E+03  0.19241939567E+03  0.00000000000E+00 0.  1.
         -2   -1    0    0    0  501 -0.00000000000E+00 -0.00000000000E+00 -0.33446887641E+01  0.33446887641E+01  0.00000000000E+00 0. -1.
         21    1    1    2  502  501  0.21136773123E+02 -0.13566936820E+02  0.80755974076E+02  0.84571580934E+02  0.00000000000E+00 0.  1.
         21    1    1    2  503  502 -0.21136773123E+02  0.13566936820E+02  0.10831873283E+03  0.11119250350E+03  0.00000000000E+00 0. -1.
</event>
<event>
 4    1  0.5843276E+002  0.2027990E+02  0.7546771E-02  0.1529799E+00
          2   -1    0    0  503    0  0.00000000000E+00  0.00000000000E+00  0.22914950590E+01  0.22914950590E+01  0.00000000000E+00 0. -1.
         -2   -1    0    0    0  501 -0.00000000000E+00 -0.00000000000E+00 -0.22627974410E+03  0.22627974410E+03  0.00000000000E+00 0.  1.
         21    1    1    2  502  501  0.10126355283E+02  0.17570747262E+02 -0.16396944475E+03  0.16521880354E+03  0.00000000000E+00 0.  1.
         21    1    1    2  503  502 -0.10126355283E+02 -0.17570747262E+02 -0.60018804292E+02  0.63352435623E+02  0.00000000000E+00 0. -1.
</event>
<event>
 4    1  0.5843276E+002  0.2311666E+02  0.7546771E-02  0.1491038E+00
          2   -1    0    0  502    0  0.00000000000E+00  0.00000000000E+00  0.49216187962E+03  0.49216187962E+03  0.00000000000E+00 0. -1.
         -2   -1    0    0    0  501 -0.00000000000E+00 -0.00000000000E+00 -0.25765249435E+01  0.25765249435E+01  0.00000000000E+00 0.  1.
         21    1    1    2  502  503  0.21067419024E+02 -0.95154634879E+01  0.43295381440E+03  0.43357050821E+03  0.00000000000E+00 0. -1.
         21    1    1    2  503  501 -0.21067419024E+02  0.95154634879E+01  0.56631540280E+02  0.61167896353E+02  0.00000000000E+00 0.  1.
</event>
<event>
 4    1  0.5843276E+002  0.5165089E+02  0.7546771E-02  0.1291169E+00
          2   -1    0    0  502    0  0.00000000000E+00  0.00000000000E+00  0.15712551856E+04  0.15712551856E+04  0.00000000000E+00 0.  1.
         -2   -1    0    0    0  501 -0.00000000000E+00 -0.00000000000E+00 -0.27023705477E+01  0.27023705477E+01  0.00000000000E+00 0. -1.
         21    1    1    2  502  503  0.51570386048E+02  0.28826578260E+01  0.12640782287E+04  0.12651330297E+04  0.00000000000E+00 0. -1.
         21    1    1    2  503  501 -0.51570386048E+02 -0.28826578260E+01  0.30447458635E+03  0.30882452650E+03  0.00000000000E+00 0.  1.
</event>
<event>
 4    1  0.5843276E+002  0.2912560E+02  0.7546771E-02  0.1427350E+00
          2   -1    0    0  502    0  0.00000000000E+00  0.00000000000E+00  0.43845843966E+02  0.43845843966E+02  0.00000000000E+00 0.  1.
         -2   -1    0    0    0  501 -0.00000000000E+00 -0.00000000000E+00 -0.23103928449E+02  0.23103928449E+02  0.00000000000E+00 0. -1.
         21    1    1    2  502  503 -0.11536828907E+02  0.26743258782E+02  0.23869074718E+02  0.37656779461E+02  0.00000000000E+00 0. -1.
         21    1    1    2  503  501  0.11536828907E+02 -0.26743258782E+02 -0.31271592015E+01  0.29292992954E+02  0.00000000000E+00 0.  1.
</event>
<event>
 4    1  0.5843276E+002  0.2008779E+02  0.7546771E-02  0.1532698E+00
          2   -1    0    0  503    0  0.00000000000E+00  0.00000000000E+00  0.22936956721E+02  0.22936956721E+02  0.00000000000E+00 0.  1.
         -2   -1    0    0    0  501 -0.00000000000E+00 -0.00000000000E+00 -0.20245591323E+02  0.20245591323E+02  0.00000000000E+00 0. -1.
         21    1    1    2  502  501  0.46637336112E+01  0.19538910782E+02 -0.64703333749E+01  0.21104138451E+02  0.00000000000E+00 0. -1.
         21    1    1    2  503  502 -0.46637336112E+01 -0.19538910782E+02  0.91616987733E+01  0.22078409593E+02  0.00000000000E+00 0.  1.
</event>
<event>
 4    1  0.5843276E+002  0.2267781E+02  0.7546771E-02  0.1496584E+00
          2   -1    0    0  503    0  0.00000000000E+00  0.00000000000E+00  0.49999916170E+03  0.49999916170E+03  0.00000000000E+00 0.  1.
         -2   -1    0    0    0  501 -0.00000000000E+00 -0.00000000000E+00 -0.29170291939E+01  0.29170291939E+01  0.00000000000E+00 0. -1.
         21    1    1    2  502  501 -0.22518163717E+02 -0.26861136150E+01  0.46216172789E+02  0.51480263508E+02  0.00000000000E+00 0. -1.
         21    1    1    2  503  502  0.22518163717E+02  0.26861136150E+01  0.45086595972E+03  0.45143592739E+03  0.00000000000E+00 0.  1.
</event>
<event>
 4    1  0.5843276E+002  0.2058437E+02  0.7546771E-02  0.1525282E+00
          2   -1    0    0  502    0  0.00000000000E+00  0.00000000000E+00  0.14999677571E+03  0.14999677571E+03  0.00000000000E+00 0.  1.
         -2   -1    0    0    0  501 -0.00000000000E+00 -0.00000000000E+00 -0.30726248359E+01  0.30726248359E+01  0.00000000000E+00 0. -1.
         21    1    1    2  502  503  0.20584209221E+02  0.81751593876E-01  0.51727851838E+02  0.55673036637E+02  0.00000000000E+00 0. -1.
         21    1    1    2  503  501 -0.20584209221E+02 -0.81751593876E-01  0.95196299033E+02  0.97396363907E+02  0.00000000000E+00 0.  1.
</event>
<event>
 4    1  0.5843276E+002  0.3344134E+02  0.7546771E-02  0.1391865E+00
          2   -1    0    0  503    0  0.00000000000E+00  0.00000000000E+00  0.11434491322E+04  0.11434491322E+04  0.00000000000E+00 0.  1.
         -2   -1    0    0    0  501 -0.00000000000E+00 -0.00000000000E+00 -0.75969874769E+01  0.75969874769E+01  0.00000000000E+00 0. -1.
         21    1    1    2  502  501  0.30468553760E+02 -0.13783711717E+02  0.30724918646E+02  0.45413038906E+02  0.00000000000E+00 0. -1.
         21    1    1    2  503  502 -0.30468553760E+02  0.13783711717E+02  0.11051272260E+04  0.11056330807E+04  0.00000000000E+00 0.  1.
</event>
<event>
 4    1  0.5843276E+002  0.2511251E+02  0.7546771E-02  0.1467549E+00
          2   -1    0    0  503    0  0.00000000000E+00  0.00000000000E+00  0.15199316864E+03  0.15199316864E+03  0.00000000000E+00 0.  1.
         -2   -1    0    0    0  501 -0.00000000000E+00 -0.00000000000E+00 -0.81365082347E+01  0.81365082347E+01  0.00000000000E+00 0. -1.
         21    1    1    2  502  501 -0.86795490726E+01 -0.23564883030E+02  0.15879452638E+02  0.29711871372E+02  0.00000000000E+00 0. -1.
         21    1    1    2  503  502  0.86795490726E+01  0.23564883030E+02  0.12797720777E+03  0.13041780551E+03  0.00000000000E+00 0.  1.
</event>
<event>
 4    1  0.5843276E+002  0.2882107E+02  0.7546771E-02  0.1430126E+00
          2   -1    0    0  503    0  0.00000000000E+00  0.00000000000E+00  0.97984638482E+03  0.97984638482E+03  0.00000000000E+00 0. -1.
         -2   -1    0    0    0  501 -0.00000000000E+00 -0.00000000000E+00 -0.99137284043E+00  0.99137284043E+00  0.00000000000E+00 0.  1.
         21    1    1    2  502  501 -0.99283170996E+01 -0.27057023623E+02  0.67609858485E+03  0.67671260550E+03  0.00000000000E+00 0. -1.
         21    1    1    2  503  502  0.99283170996E+01  0.27057023623E+02  0.30275642712E+03  0.30412515215E+03  0.00000000000E+00 0.  1.
</event>
<event>
 4    1  0.5843276E+002  0.2197005E+02  0.7546771E-02  0.1505853E+00
          2   -1    0    0  502    0  0.00000000000E+00  0.00000000000E+00  0.45382092458E+02  0.45382092458E+02  0.00000000000E+00 0.  1.
         -2   -1    0    0    0  501 -0.00000000000E+00 -0.00000000000E+00 -0.12160248380E+02  0.12160248380E+02  0.00000000000E+00 0. -1.
         21    1    1    2  502  503  0.15203354329E+02  0.15860042190E+02  0.26797243124E+02  0.34652202818E+02  0.00000000000E+00 0.  1.
         21    1    1    2  503  501 -0.15203354329E+02 -0.15860042190E+02  0.64246009541E+01  0.22890138019E+02  0.00000000000E+00 0. -1.
</event>
<event>
 4    1  0.5843276E+002  0.2451529E+02  0.7546771E-02  0.1474299E+00
          2   -1    0    0  503    0  0.00000000000E+00  0.00000000000E+00  0.12330224265E+02  0.12330224265E+02  0.00000000000E+00 0. -1.
         -2   -1    0    0    0  501 -0.00000000000E+00 -0.00000000000E+00 -0.73556328269E+02  0.73556328269E+02  0.00000000000E+00 0.  1.
         21    1    1    2  502  501  0.10809048410E+02  0.22003720617E+02 -0.55555369344E+02  0.60723951712E+02  0.00000000000E+00 0.  1.
         21    1    1    2  503  502 -0.10809048410E+02 -0.22003720617E+02 -0.56707346601E+01  0.25162600822E+02  0.00000000000E+00 0. -1.
</event>
<event>
 4    1  0.5843276E+002  0.2995661E+02  0.7546771E-02  0.1419974E+00
          2   -1    0    0  502    0  0.00000000000E+00  0.00000000000E+00  0.97678962372E+03  0.97678962372E+03  0.00000000000E+00 0. -1.
         -2   -1    0    0    0  501 -0.00000000000E+00 -0.00000000000E+00 -0.92514689897E+00  0.92514689897E+00  0.00000000000E+00 0.  1.
         21    1    1    2  502  503 -0.26909424599E+02  0.13163641205E+02  0.52866969224E+03  0.52951774482E+03  0.00000000000E+00 0.  1.
         21    1    1    2  503  501  0.26909424599E+02 -0.13163641205E+02  0.44719478458E+03  0.44819702580E+03  0.00000000000E+00 0. -1.
</event>
<event>
 4    1  0.5843276E+002  0.2057065E+02  0.7546771E-02  0.1525484E+00
          2   -1    0    0  503    0  0.00000000000E+00  0.00000000000E+00  0.18893272339E+03  0.18893272339E+03  0.00000000000E+00 0. -1.
         -2   -1    0    0    0  501 -0.00000000000E+00 -0.00000000000E+00 -0.24843755302E+01  0.24843755302E+01  0.00000000000E+00 0.  1.
         21    1    1    2  502  501  0.19972455576E+02 -0.49246957366E+01  0.63188171590E+02  0.66452213197E+02  0.00000000000E+00 0.  1.
         21    1    1    2  503  502 -0.19972455576E+02  0.49246957366E+01  0.12326017627E+03  0.12496488573E+03  0.00000000000E+00 0. -1.
</event>
<event>
 4    1  0.5843276E+002  0.2113713E+02  0.7546771E-02  0.1517316E+00
          2   -1    0    0  502    0  0.00000000000E+00  0.00000000000E+00  0.38063945274E+03  0.38063945274E+03  0.00000000000E+00 0.  1.
         -2   -1    0    0    0  501 -0.00000000000E+00 -0.00000000000E+00 -0.16489045757E+01  0.16489045757E+01  0.00000000000E+00 0. -1.
         21    1    1    2  502  503 -0.21117073133E+02  0.92064616428E+00  0.29210237078E+03  0.29286613560E+03  0.00000000000E+00 0.  1.
         21    1    1    2  503  501  0.21117073133E+02 -0.92064616428E+00  0.86888177379E+02  0.89422221709E+02  0.00000000000E+00 0. -1.
</event>
<event>
 4    1  0.5843276E+002  0.2830065E+02  0.7546771E-02  0.1434963E+00
          2   -1    0    0  503    0  0.00000000000E+00  0.00000000000E+00  0.11987639211E+04  0.11987639211E+04  0.00000000000E+00 0. -1.
         -2   -1    0    0    0  501 -0.00000000000E+00 -0.00000000000E+00 -0.10669389321E+01  0.10669389321E+01  0.00000000000E+00 0.  1.
         21    1    1    2  502  501  0.10177404004E+02  0.26407332575E+02  0.23206969457E+03  0.23378894308E+03  0.00000000000E+00 0.  1.
         21    1    1    2  503  502 -0.10177404004E+02 -0.26407332575E+02  0.96562728763E+03  0.96604191699E+03  0.00000000000E+00 0. -1.
</event>
<event>
 4    1  0.5843276E+002  0.4359032E+02  0.7546771E-02  0.1328640E+00
          2   -1    0    0  502    0  0.00000000000E+00  0.00000000000E+00  0.17530809964E+04  0.17530809964E+04  0.00000000000E+00 0. -1.
         -2   -1    0    0    0  501 -0.00000000000E+00 -0.00000000000E+00 -0.11104267811E+01  0.11104267811E+01  0.00000000000E+00 0.  1.
         21    1    1    2  502  503 -0.66127408070E+01 -0.43085816843E+02  0.74035057909E+03  0.74163272306E+03  0.00000000000E+00 0.  1.
         21    1    1    2  503  501  0.66127408070E+01  0.43085816843E+02  0.10116199905E+04  0.10125587001E+04  0.00000000000E+00 0. -1.
</event>
<event>
 4    1  0.5843276E+002  0.2524848E+02  0.7546771E-02  0.1466043E+00
          2   -1    0    0  502    0  0.00000000000E+00  0.00000000000E+00  0.10518946008E+04  0.10518946008E+04  0.00000000000E+00 0.  1.
         -2   -1    0    0    0  501 -0.00000000000E+00 -0.00000000000E+00 -0.22486326836E+01  0.22486326836E+01  0.00000000000E+00 0. -1.
         21    1    1    2  502  503  0.22891213152E+02 -0.10652603259E+02  0.97530337523E+03  0.97563013450E+03  0.00000000000E+00 0.  1.
         21    1    1    2  503  501 -0.22891213152E+02  0.10652603259E+02  0.74342592857E+02  0.78513098961E+02  0.00000000000E+00 0. -1.
</event>
<event>
 4    1  0.5843276E+002  0.3500555E+02  0.7546771E-02  0.1380524E+00
          2   -1    0    0  503    0  0.00000000000E+00  0.00000000000E+00  0.16867686642E+03  0.16867686642E+03  0.00000000000E+00 0. -1.
         -2   -1    0    0    0  501 -0.00000000000E+00 -0.00000000000E+00 -0.17021394007E+02  0.17021394007E+02  0.00000000000E+00 0.  1.
         21    1    1    2  502  501  0.11306777015E+02 -0.33129223650E+02  0.55316125044E+01  0.35439912571E+02  0.00000000000E+00 0.  1.
         21    1    1    2  503  502 -0.11306777015E+02  0.33129223650E+02  0.14612385991E+03  0.15025834786E+03  0.00000000000E+00 0. -1.
</event>
<event>
 4    1  0.5843276E+002  0.3475860E+02  0.7546771E-02  0.1382268E+00
          2   -1    0    0  503    0  0.00000000000E+00  0.00000000000E+00  0.30530549608E+03  0.30530549608E+03  0.00000000000E+00 0. -1.
         -2   -1    0    0    0  501 -0.00000000000E+00 -0.00000000000E+00 -0.44669220565E+02  0.44669220565E+02  0.00000000000E+00 0.  1.
         21    1    1    2  502  501 -0.27583081445E+02 -0.21150262592E+02 -0.36738496590E+02  0.50575459675E+02  0.00000000000E+00 0.  1.
         21    1    1    2  503  502  0.27583081445E+02  0.21150262592E+02  0.29737477210E+03  0.29939925697E+03  0.00000000000E+00 0. -1.
</event>
<event>
 4    1  0.5843276E+002  0.2648549E+02  0.7546771E-02  0.1452846E+00
          2   -1    0    0  503    0  0.00000000000E+00  0.00000000000E+00  0.55740175689E+02  0.55740175689E+02  0.00000000000E+00 0.  1.
         -2   -1    0    0    0  501 -0.00000000000E+00 -0.00000000000E+00 -0.12634654914E+02  0.12634654914E+02  0.00000000000E+00 0. -1.
         21    1    1    2  502  501  0.32672882607E+00 -0.26483471186E+02  0.23699500670E+02  0.35540784034E+02  0.00000000000E+00 0. -1.
         21    1    1    2  503  502 -0.32672882607E+00  0.26483471186E+02  0.19406020105E+02  0.32834046569E+02  0.00000000000E+00 0.  1.
</event>
<event>
 4    1  0.5843276E+002  0.2135505E+02  0.7546771E-02  0.1514256E+00
          2   -1    0    0  503    0  0.00000000000E+00  0.00000000000E+00  0.10484187841E+03  0.10484187841E+03  0.00000000000E+00 0. -1.
         -2   -1    0    0    0  501 -0.00000000000E+00 -0.00000000000E+00 -0.44287432015E+01  0.44287432015E+01  0.00000000000E+00 0.  1.
         21    1    1    2  502  501  0.18169767964E+02  0.11220420971E+02  0.57502256307E+02  0.61339610327E+02  0.00000000000E+00 0.  1.
         21    1    1    2  503  502 -0.18169767964E+02 -0.11220420971E+02  0.42910878899E+02  0.47931011282E+02  0.00000000000E+00 0. -1.
</event>
<event>
 4    1  0.5843276E+002  0.2322797E+02  0.7546771E-02  0.1489655E+00
          2   -1    0    0  503    0  0.00000000000E+00  0.00000000000E+00  0.57726867303E+03  0.57726867303E+03  0.00000000000E+00 0.  1.
         -2   -1    0    0    0  501 -0.00000000000E+00 -0.00000000000E+00 -0.29933496662E+01  0.29933496662E+01  0.00000000000E+00 0. -1.
         21    1    1    2  502  501 -0.27177661551E+01  0.23068423715E+02  0.46528050184E+02  0.52003825623E+02  0.00000000000E+00 0. -1.
         21    1    1    2  503  502  0.27177661551E+01 -0.23068423715E+02  0.52774727318E+03  0.52825819708E+03  0.00000000000E+00 0.  1.
</event>
<event>
 4    1  0.5843276E+002  0.3483855E+02  0.7546771E-02  0.1381702E+00
          2   -1    0    0  502    0  0.00000000000E+00  0.00000000000E+00  0.28484644566E+04  0.28484644566E+04  0.00000000000E+00 0.  1.
         -2   -1    0    0    0  501 -0.00000000000E+00 -0.00000000000E+00 -0.54818874414E+00  0.54818874414E+00  0.00000000000E+00 0. -1.
         21    1    1    2  502  503  0.34339959773E+02  0.58729642785E+01  0.20962238791E+04  0.20965133617E+04  0.00000000000E+00 0.  1.
         21    1    1    2  503  501 -0.34339959773E+02 -0.58729642785E+01  0.75169238874E+03  0.75249928361E+03  0.00000000000E+00 0. -1.
</event>
<event>
 4    1  0.5843276E+002  0.2149962E+02  0.7546771E-02  0.1512250E+00
          2   -1    0    0  503    0  0.00000000000E+00  0.00000000000E+00  0.49184557129E+02  0.49184557129E+02  0.00000000000E+00 0. -1.
         -2   -1    0    0    0  501 -0.00000000000E+00 -0.00000000000E+00 -0.13048737446E+02  0.13048737446E+02  0.00000000000E+00 0.  1.
         21    1    1    2  502  501 -0.21496285928E+02 -0.37856467705E+00  0.16089534299E+01  0.21559739123E+02  0.00000000000E+00 0.  1.
         21    1    1    2  503  502  0.21496285928E+02  0.37856467705E+00  0.34526866253E+02  0.40673555453E+02  0.00000000000E+00 0. -1.
</event>
<event>
 4    1  0.5843276E+002  0.2339402E+02  0.7546771E-02  0.1487609E+00
          2   -1    0    0  502    0  0.00000000000E+00  0.00000000000E+00  0.26802399554E+03  0.26802399554E+03  0.00000000000E+00 0.  1.
         -2   -1    0    0    0  501 -0.00000000000E+00 -0.00000000000E+00 -0.37814150387E+01  0.37814150387E+01  0.00000000000E+00 0. -1.
         21    1    1    2  502  503 -0.22668094563E+02  0.57825291665E+01  0.22429649484E+03  0.22551318753E+03  0.00000000000E+00 0.  1.
         21    1    1    2  503  501  0.22668094563E+02 -0.57825291665E+01  0.39946085661E+02  0.46292223043E+02  0.00000000000E+00 0. -1.
</event>
<event>
 4    1  0.5843276E+002  0.2515218E+02  0.7546771E-02  0.1467108E+00
          2   -1    0    0  503    0  0.00000000000E+00  0.00000000000E+00  0.16123459566E+04  0.16123459566E+04  0.00000000000E+00 0.  1.
         -2   -1    0    0    0  501 -0.00000000000E+00 -0.00000000000E+00 -0.17200531190E+01  0.17200531190E+01  0.00000000000E+00 0. -1.
         21    1    1    2  502  501  0.16656047551E+02  0.18846965695E+02  0.96277412446E+02  0.99508653811E+02  0.00000000000E+00 0. -1.
         21    1    1    2  503  502 -0.16656047551E+02 -0.18846965695E+02  0.15143484910E+04  0.15145573559E+04  0.00000000000E+00 0.  1.
</event>
<event>
 4    1  0.5843276E+002  0.2133847E+02  0.7546771E-02  0.1514487E+00
          2   -1    0    0  502    0  0.00000000000E+00  0.00000000000E+00  0.14582326598E+03  0.14582326598E+03  0.00000000000E+00 0.  1.
         -2   -1    0    0    0  501 -0.00000000000E+00 -0.00000000000E+00 -0.32179722590E+01  0.32179722590E+01  0.00000000000E+00 0. -1.
         21    1    1    2  502  503  0.21295917409E+02  0.13468725139E+01  0.58465442768E+02  0.62237755117E+02  0.00000000000E+00 0. -1.
         21    1    1    2  503  501 -0.21295917409E+02 -0.13468725139E+01  0.84139850955E+02  0.86803483125E+02  0.00000000000E+00 0.  1.
</event>
<event>
 4    1  0.5843276E+002  0.2562407E+02  0.7546771E-02  0.1461942E+00
          2   -1    0    0  503    0  0.00000000000E+00  0.00000000000E+00  0.74923352890E+03  0.74923352890E+03  0.00000000000E+00 0. -1.
         -2   -1    0    0    0  501 -0.00000000000E+00 -0.00000000000E+00 -0.14924134128E+01  0.14924134128E+01  0.00000000000E+00 0.  1.
         21    1    1    2  502  501  0.21682995871E+02 -0.13654329189E+02  0.13270320062E+03  0.13515447632E+03  0.00000000000E+00 0.  1.
         21    1    1    2  503  502 -0.21682995871E+02  0.13654329189E+02  0.61503791487E+03  0.61557146599E+03  0.00000000000E+00 0. -1.
</event>
<event>
 4    1  0.5843276E+002  0.3164030E+02  0.7546771E-02  0.1405858E+00
          2   -1    0    0  503    0  0.00000000000E+00  0.00000000000E+00  0.50383620224E+03  0.50383620224E+03  0.00000000000E+00 0.  1.
         -2   -1    0    0    0  501 -0.00000000000E+00 -0.00000000000E+00 -0.71720849876E+01  0.71720849876E+01  0.00000000000E+00 0. -1.
         21    1    1    2  502  501 -0.31446663210E+02 -0.34951700753E+01  0.31084796555E+02  0.44355083336E+02  0.00000000000E+00 0. -1.
         21    1    1    2  503  502  0.31446663210E+02  0.34951700753E+01  0.46557932069E+03  0.46665320389E+03  0.00000000000E+00 0.  1.
</event>
<event>
 4    1  0.5843276E+002  0.2486010E+02  0.7546771E-02  0.1470375E+00
          2   -1    0    0  503    0  0.00000000000E+00  0.00000000000E+00  0.83196529991E+03  0.83196529991E+03  0.00000000000E+00 0.  1.
         -2   -1    0    0    0  501 -0.00000000000E+00 -0.00000000000E+00 -0.14547645068E+01  0.14547645068E+01  0.00000000000E+00 0. -1.
         21    1    1    2  502  501  0.24789526627E+02  0.18719461155E+01  0.12374641180E+03  0.12621885456E+03  0.00000000000E+00 0. -1.
         21    1    1    2  503  502 -0.24789526627E+02 -0.18719461155E+01  0.70676412360E+03  0.70720120986E+03  0.00000000000E+00 0.  1.
</event>
<event>
 4    1  0.5843276E+002  0.3661636E+02  0.7546771E-02  0.1369542E+00
          2   -1    0    0  503    0  0.00000000000E+00  0.00000000000E+00  0.69011105171E+03  0.69011105171E+03  0.00000000000E+00 0.  1.
         -2   -1    0    0    0  501 -0.00000000000E+00 -0.00000000000E+00 -0.28670741205E+01  0.28670741205E+01  0.00000000000E+00 0. -1.
         21    1    1    2  502  501  0.35948363060E+02 -0.69622439152E+01  0.14689357160E+03  0.15138850361E+03  0.00000000000E+00 0. -1.
         21    1    1    2  503  502 -0.35948363060E+02  0.69622439152E+01  0.54035040598E+03  0.54158962222E+03  0.00000000000E+00 0.  1.
</event>
<event>
 4    1  0.5843276E+002  0.2417871E+02  0.7546771E-02  0.1478205E+00
          2   -1    0    0  502    0  0.00000000000E+00  0.00000000000E+00  0.13891063163E+02  0.13891063163E+02  0.00000000000E+00 0. -1.
         -2   -1    0    0    0  501 -0.00000000000E+00 -0.00000000000E+00 -0.85166066177E+02  0.85166066177E+02  0.00000000000E+00 0.  1.
         21    1    1    2  502  503 -0.19079240710E+02 -0.14852362139E+02 -0.41144992586E+00  0.24182212021E+02  0.00000000000E+00 0. -1.
         21    1    1    2  503  501  0.19079240710E+02  0.14852362139E+02 -0.70863553088E+02  0.74874917319E+02  0.00000000000E+00 0.  1.
</event>
<event>
 4    1  0.5843276E+002  0.2170805E+02  0.7546771E-02  0.1509391E+00
          2   -1    0    0  503    0  0.00000000000E+00  0.00000000000E+00  0.17598510509E+04  0.17598510509E+04  0.00000000000E+00 0. -1.
         -2   -1    0    0    0  501 -0.00000000000E+00 -0.00000000000E+00 -0.30126528739E+00  0.30126528739E+00  0.00000000000E+00 0.  1.
         21    1    1    2  502  501  0.21706407186E+02  0.26708139939E+00  0.58633284126E+03  0.58673455684E+03  0.00000000000E+00 0.  1.
         21    1    1    2  503  502 -0.21706407186E+02 -0.26708139939E+00  0.11732169444E+04  0.11734177594E+04  0.00000000000E+00 0. -1.
</event>
<event>
 4    1  0.5843276E+002  0.2178468E+02  0.7546771E-02  0.1508350E+00
          2   -1    0    0  502    0  0.00000000000E+00  0.00000000000E+00  0.62037371493E+02  0.62037371493E+02  0.00000000000E+00 0. -1.
         -2   -1    0    0    0  501 -0.00000000000E+00 -0.00000000000E+00 -0.20832643785E+02  0.20832643785E+02  0.00000000000E+00 0.  1.
         21    1    1    2  502  503  0.17994092356E+02  0.12279444663E+02  0.53563346014E+02  0.57823906450E+02  0.00000000000E+00 0. -1.
         21    1    1    2  503  501 -0.17994092356E+02 -0.12279444663E+02 -0.12358618306E+02  0.25046108827E+02  0.00000000000E+00 0.  1.
</event>
<event>
 4    1  0.5843276E+002  0.2598360E+02  0.7546771E-02  0.1458094E+00
          2   -1    0    0  502    0  0.00000000000E+00  0.00000000000E+00  0.34924197727E+03  0.34924197727E+03  0.00000000000E+00 0.  1.
         -2   -1    0    0    0  501 -0.00000000000E+00 -0.00000000000E+00 -0.19580080763E+01  0.19580080763E+01  0.00000000000E+00 0. -1.
         21    1    1    2  502  503 -0.25920847835E+02 -0.18048102280E+01  0.19341562426E+03  0.19515314857E+03  0.00000000000E+00 0.  1.
         21    1    1    2  503  501  0.25920847835E+02  0.18048102280E+01  0.15386834494E+03  0.15604683677E+03  0.00000000000E+00 0. -1.
</event>
<event>
 4    1  0.5843276E+002  0.8901380E+02  0.7546771E-02  0.1184340E+00
          2   -1    0    0  503    0  0.00000000000E+00  0.00000000000E+00  0.67888630411E+02  0.67888630411E+02  0.00000000000E+00 0.  1.
         -2   -1    0    0    0  501 -0.00000000000E+00 -0.00000000000E+00 -0.37326183639E+03  0.37326183639E+03  0.00000000000E+00 0. -1.
         21    1    1    2  502  501  0.13777075726E+02  0.87941165029E+02 -0.33555360476E+03  0.34715944174E+03  0.00000000000E+00 0. -1.
         21    1    1    2  503  502 -0.13777075726E+02 -0.87941165029E+02  0.30180398777E+02  0.93991025064E+02  0.00000000000E+00 0.  1.
</event>
<event>
 4    1  0.5843276E+002  0.2584887E+02  0.7546771E-02  0.1459527E+00
          2   -1    0    0  503    0  0.00000000000E+00  0.00000000000E+00  0.34294735004E+02  0.34294735004E+02  0.00000000000E+00 0.  1.
         -2   -1    0    0    0  501 -0.00000000000E+00 -0.00000000000E+00 -0.36351627851E+02  0.36351627851E+02  0.00000000000E+00 0. -1.
         21    1    1    2  502  501 -0.53589642603E+01 -0.25287264688E+02 -0.25090782291E+02  0.36023764508E+02  0.00000000000E+00 0. -1.
         21    1    1    2  503  502  0.53589642603E+01  0.25287264688E+02  0.23033889444E+02  0.34622598347E+02  0.00000000000E+00 0.  1.
</event>
<event>
 4    1  0.5843276E+002  0.2813022E+02  0.7546771E-02  0.1436574E+00
          2   -1    0    0  502    0  0.00000000000E+00  0.00000000000E+00  0.12275262517E+03  0.12275262517E+03  0.00000000000E+00 0.  1.
         -2   -1    0    0    0  501 -0.00000000000E+00 -0.00000000000E+00 -0.13787286154E+02  0.13787286154E+02  0.00000000000E+00 0. -1.
         21    1    1    2  502  503  0.22945957377E+02 -0.16272444420E+02  0.10429825296E+03  0.10802515901E+03  0.00000000000E+00 0.  1.
         21    1    1    2  503  501 -0.22945957377E+02  0.16272444420E+02  0.46670860500E+01  0.28514752315E+02  0.00000000000E+00 0. -1.
</event>
<event>
 4    1  0.5843276E+002  0.2704877E+02  0.7546771E-02  0.1447119E+00
          2   -1    0    0  502    0  0.00000000000E+00  0.00000000000E+00  0.12773248121E+03  0.12773248121E+03  0.00000000000E+00 0. -1.
         -2   -1    0    0    0  501 -0.00000000000E+00 -0.00000000000E+00 -0.67238206254E+01  0.67238206254E+01  0.00000000000E+00 0.  1.
         21    1    1    2  502  503 -0.71667571987E+01  0.26082052669E+02  0.86378152483E+02  0.90514203894E+02  0.00000000000E+00 0. -1.
         21    1    1    2  503  501  0.71667571987E+01 -0.26082052669E+02  0.34630508104E+02  0.43942097944E+02  0.00000000000E+00 0.  1.
</event>
<event>
 4    1  0.5843276E+002  0.2892701E+02  0.7546771E-02  0.1429155E+00
          2   -1    0    0  503    0  0.00000000000E+00  0.00000000000E+00  0.93863804700E+02  0.93863804700E+02  0.00000000000E+00 0. -1.
         -2   -1    0    0    0  501 -0.00000000000E+00 -0.00000000000E+00 -0.14056497406E+02  0.14056497406E+02  0.00000000000E+00 0.  1.
         21    1    1    2  502  501 -0.28786846989E+02 -0.28441677567E+01  0.72681594515E+01  0.29826129343E+02  0.00000000000E+00 0.  1.
         21    1    1    2  503  502  0.28786846989E+02  0.28441677567E+01  0.72539147843E+02  0.78094172763E+02  0.00000000000E+00 0. -1.
</event>
<event>
 4    1  0.5843276E+002  0.3669827E+02  0.7546771E-02  0.1369001E+00
          2   -1    0    0  503    0  0.00000000000E+00  0.00000000000E+00  0.20320263345E+04  0.20320263345E+04  0.00000000000E+00 0. -1.
         -2   -1    0    0    0  501 -0.00000000000E+00 -0.00000000000E+00 -0.14055389271E+01  0.14055389271E+01  0.00000000000E+00 0.  1.
         21    1    1    2  502  501  0.88717094192E+01  0.35609768325E+02  0.27620644417E+03  0.27863374281E+03  0.00000000000E+00 0.  1.
         21    1    1    2  503  502 -0.88717094192E+01 -0.35609768325E+02  0.17544143514E+04  0.17547981306E+04  0.00000000000E+00 0. -1.
</event>
<event>
 4    1  0.5843276E+002  0.2456682E+02  0.7546771E-02  0.1473708E+00
          2   -1    0    0  502    0  0.00000000000E+00  0.00000000000E+00  0.33344291832E+02  0.33344291832E+02  0.00000000000E+00 0.  1.
         -2   -1    0    0    0  501 -0.00000000000E+00 -0.00000000000E+00 -0.24731426518E+02  0.24731426518E+02  0.00000000000E+00 0. -1.
         21    1    1    2  502  503  0.23720411682E+02  0.63930024392E+01  0.19342930787E+02  0.31267833024E+02  0.00000000000E+00 0.  1.
         21    1    1    2  503  501 -0.23720411682E+02 -0.63930024392E+01 -0.10730065473E+02  0.26807885325E+02  0.00000000000E+00 0. -1.
</event>
<event>
 4    1  0.5843276E+002  0.8937237E+02  0.7546771E-02  0.1183618E+00
          2   -1    0    0  502    0  0.00000000000E+00  0.00000000000E+00  0.89581987155E+02  0.89581987155E+02  0.00000000000E+00 0. -1.
         -2   -1    0    0    0  501 -0.00000000000E+00 -0.00000000000E+00 -0.19364427077E+03  0.19364427077E+03  0.00000000000E+00 0.  1.
         21    1    1    2  502  503  0.49720240395E+02 -0.74265188258E+02  0.51989591365E+02  0.10339409123E+03  0.00000000000E+00 0. -1.
         21    1    1    2  503  501 -0.49720240395E+02  0.74265188258E+02 -0.15605187498E+03  0.17983216669E+03  0.00000000000E+00 0.  1.
</event>
<event>
 4    1  0.5843276E+002  0.2408849E+02  0.7546771E-02  0.1479264E+00
          2   -1    0    0  502    0  0.00000000000E+00  0.00000000000E+00  0.56023522722E+03  0.56023522722E+03  0.00000000000E+00 0.  1.
         -2   -1    0    0    0  501 -0.00000000000E+00 -0.00000000000E+00 -0.21158059430E+01  0.21158059430E+01  0.00000000000E+00 0. -1.
         21    1    1    2  502  503 -0.24660461204E+01  0.23961924609E+02  0.47995314038E+03  0.48055725171E+03  0.00000000000E+00 0.  1.
         21    1    1    2  503  501  0.24660461204E+01 -0.23961924609E+02  0.78166280901E+02  0.81793781453E+02  0.00000000000E+00 0. -1.
</event>
<event>
 4    1  0.5843276E+002  0.3456393E+02  0.7546771E-02  0.1383655E+00
          2   -1    0    0  503    0  0.00000000000E+00  0.00000000000E+00  0.21140267989E+04  0.21140267989E+04  0.00000000000E+00 0.  1.
         -2   -1    0    0    0  501 -0.00000000000E+00 -0.00000000000E+00 -0.14636830346E+01  0.14636830346E+01  0.00000000000E+00 0. -1.
         21    1    1    2  502  501  0.26846485476E+02 -0.21769967875E+02  0.18850503378E+04  0.18853671901E+04  0.00000000000E+00 0.  1.
         21    1    1    2  503  502 -0.26846485476E+02  0.21769967875E+02  0.22751277801E+03  0.23012329182E+03  0.00000000000E+00 0. -1.
</event>
<event>
 4    1  0.5843276E+002  0.2238236E+02  0.7546771E-02  0.1500403E+00
          2   -1    0    0  503    0  0.00000000000E+00  0.00000000000E+00  0.96510767964E+02  0.96510767964E+02  0.00000000000E+00 0.  1.
         -2   -1    0    0    0  501 -0.00000000000E+00 -0.00000000000E+00 -0.54796109103E+01  0.54796109103E+01  0.00000000000E+00 0. -1.
         21    1    1    2  502  501  0.13791479503E+02  0.17628532392E+02  0.33808573008E+02  0.40546142480E+02  0.00000000000E+00 0. -1.
         21    1    1    2  503  502 -0.13791479503E+02 -0.17628532392E+02  0.57222584046E+02  0.61444236395E+02  0.00000000000E+00 0.  1.
</event>
<event>
 4    1  0.5843276E+002  0.2377821E+02  0.7546771E-02  0.1482951E+00
          2   -1    0    0  502    0  0.00000000000E+00  0.00000000000E+00  0.57178620633E+01  0.57178620633E+01  0.00000000000E+00 0. -1.
         -2   -1    0    0    0  501 -0.00000000000E+00 -0.00000000000E+00 -0.13822655843E+03  0.13822655843E+03  0.00000000000E+00 0.  1.
         21    1    1    2  502  503  0.97743965786E+01  0.21676356522E+02 -0.27856919673E+02  0.36625281354E+02  0.00000000000E+00 0. -1.
         21    1    1    2  503  501 -0.97743965786E+01 -0.21676356522E+02 -0.10465177670E+03  0.10731913914E+03  0.00000000000E+00 0.  1.
</event>
<event>
 4    1  0.5843276E+002  0.2822287E+02  0.7546771E-02  0.1435696E+00
          2   -1    0    0  503    0  0.00000000000E+00  0.00000000000E+00  0.12208655850E+04  0.12208655850E+04  0.00000000000E+00 0. -1.
         -2   -1    0    0    0  501 -0.00000000000E+00 -0.00000000000E+00 -0.85174796648E+00  0.85174796648E+00  0.00000000000E+00 0.  1.
         21    1    1    2  502  501  0.25400965471E+02 -0.12301279631E+02  0.31450701350E+03  0.31577079039E+03  0.00000000000E+00 0.  1.
         21    1    1    2  503  502 -0.25400965471E+02  0.12301279631E+02  0.90550682356E+03  0.90594654260E+03  0.00000000000E+00 0. -1.
</event>
<event>
 4    1  0.5843276E+002  0.2262152E+02  0.7546771E-02  0.1497306E+00
          2   -1    0    0  502    0  0.00000000000E+00  0.00000000000E+00  0.19463412320E+03  0.19463412320E+03  0.00000000000E+00 0. -1.
         -2   -1    0    0    0  501 -0.00000000000E+00 -0.00000000000E+00 -0.28478121911E+01  0.28478121911E+01  0.00000000000E+00 0.  1.
         21    1    1    2  502  503  0.11896776073E+02  0.19240578364E+02  0.12325045856E+03  0.12530925214E+03  0.00000000000E+00 0. -1.
         21    1    1    2  503  501 -0.11896776073E+02 -0.19240578364E+02  0.68535852446E+02  0.72172683248E+02  0.00000000000E+00 0.  1.
</event>
<event>
 4    1  0.5843276E+002  0.4009683E+02  0.7546771E-02  0.1347919E+00
          2   -1    0    0  503    0  0.00000000000E+00  0.00000000000E+00  0.13651012659E+02  0.13651012659E+02  0.00000000000E+00 0.  1.
         -2   -1    0    0    0  501 -0.00000000000E+00 -0.00000000000E+00 -0.17232377615E+03  0.17232377615E+03  0.00000000000E+00 0. -1.
         21    1    1    2  502  501  0.17768907868E+02 -0.35944704667E+02 -0.13165324405E+03  0.13762388074E+03  0.00000000000E+00 0. -1.
         21    1    1    2  503  502 -0.17768907868E+02  0.35944704667E+02 -0.27019519439E+02  0.48350908070E+02  0.00000000000E+00 0.  1.
</event>
<event>
 4    1  0.5843276E+002  0.2391581E+02  0.7546771E-02  0.1481308E+00
          2   -1    0    0  503    0  0.00000000000E+00  0.00000000000E+00  0.25820905388E+03  0.25820905388E+03  0.00000000000E+00 0.  1.
         -2   -1    0    0    0  501 -0.00000000000E+00 -0.00000000000E+00 -0.62602424155E+01  0.62602424155E+01  0.00000000000E+00 0. -1.
         21    1    1    2  502  501 -0.22804064836E+02  0.72069886899E+01  0.19678850883E+02  0.30971329179E+02  0.00000000000E+00 0. -1.
         21    1    1    2  503  502  0.22804064836E+02 -0.72069886899E+01  0.23226996058E+03  0.23349796712E+03  0.00000000000E+00 0.  1.
</event>
<event>
 4    1  0.5843276E+002  0.2479173E+02  0.7546771E-02  0.1471147E+00
          2   -1    0    0  502    0  0.00000000000E+00  0.00000000000E+00  0.40967011347E+02  0.40967011347E+02  0.00000000000E+00 0. -1.
         -2   -1    0    0    0  501 -0.00000000000E+00 -0.00000000000E+00 -0.38078516328E+02  0.38078516328E+02  0.00000000000E+00 0.  1.
         21    1    1    2  502  503 -0.21937935710E+02 -0.11548016515E+02  0.32211069277E+02  0.40647050233E+02  0.00000000000E+00 0. -1.
         21    1    1    2  503  501  0.21937935710E+02  0.11548016515E+02 -0.29322574259E+02  0.38398477442E+02  0.00000000000E+00 0.  1.
</event>
<event>
 4    1  0.5843276E+002  0.6619557E+02  0.7546771E-02  0.1240120E+00
          2   -1    0    0  503    0  0.00000000000E+00  0.00000000000E+00  0.36337324527E+02  0.36337324527E+02  0.00000000000E+00 0. -1.
         -2   -1    0    0    0  501 -0.00000000000E+00 -0.00000000000E+00 -0.12401203798E+03  0.12401203798E+03  0.00000000000E+00 0.  1.
         21    1    1    2  502  501 -0.64554565546E+02  0.14647912956E+02 -0.57159087413E+02  0.87458644860E+02  0.00000000000E+00 0.  1.
         21    1    1    2  503  502  0.64554565546E+02 -0.14647912956E+02 -0.30515626042E+02  0.72890717650E+02  0.00000000000E+00 0. -1.
</event>
<event>
 4    1  0.5843276E+002  0.3342732E+02  0.7546771E-02  0.1391970E+00
          2   -1    0    0  502    0  0.00000000000E+00  0.00000000000E+00  0.14332294962E+03  0.14332294962E+03  0.00000000000E+00 0. -1.
         -2   -1    0    0    0  501 -0.00000000000E+00 -0.00000000000E+00 -0.86751632920E+01  0.86751632920E+01  0.00000000000E+00 0.  1.
         21    1    1    2  502  503  0.24312210256E+02 -0.22941276740E+02  0.91513853007E+02  0.97427773444E+02  0.00000000000E+00 0. -1.
         21    1    1    2  503  501 -0.24312210256E+02  0.22941276740E+02  0.43133933322E+02  0.54570339469E+02  0.00000000000E+00 0.  1.
</event>
<event>
 4    1  0.5843276E+002  0.6675866E+02  0.7546771E-02  0.1238450E+00
          2   -1    0    0  502    0  0.00000000000E+00  0.00000000000E+00  0.68920299178E+03  0.68920299178E+03  0.00000000000E+00 0.  1.
         -2   -1    0    0    0  501 -0.00000000000E+00 -0.00000000000E+00 -0.13318559439E+02  0.13318559439E+02  0.00000000000E+00 0. -1.
         21    1    1    2  502  503  0.56148685022E+02 -0.36111540195E+02  0.58989095400E+03  0.59365651330E+03  0.00000000000E+00 0.  1.
         21    1    1    2  503  501 -0.56148685022E+02  0.36111540195E+02  0.85993478336E+02  0.10886503792E+03  0.00000000000E+00 0. -1.
</event>
<event>
 4    1  0.5843276E+002  0.2306999E+02  0.7546771E-02  0.1491621E+00
          2   -1    0    0  503    0  0.00000000000E+00  0.00000000000E+00  0.49035594962E+00  0.49035594962E+00  0.00000000000E+00 0. -1.
         -2   -1    0    0    0  501 -0.00000000000E+00 -0.00000000000E+00 -0.11498935172E+04  0.11498935172E+04  0.00000000000E+00 0.  1.
         21    1    1    2  502  501 -0.22866757604E+02  0.30554434039E+01 -0.71093918553E+03  0.71131339778E+03  0.00000000000E+00 0. -1.
         21    1    1    2  503  502  0.22866757604E+02 -0.30554434039E+01 -0.43846397568E+03  0.43907047533E+03  0.00000000000E+00 0.  1.
</event>
<event>
 4    1  0.5843276E+002  0.3112632E+02  0.7546771E-02  0.1410055E+00
          2   -1    0    0  503    0  0.00000000000E+00  0.00000000000E+00  0.98919849931E+03  0.98919849931E+03  0.00000000000E+00 0. -1.
         -2   -1    0    0    0  501 -0.00000000000E+00 -0.00000000000E+00 -0.51551273027E+01  0.51551273027E+01  0.00000000000E+00 0.  1.
         21    1    1    2  502  501 -0.22287061577E+02  0.21728658507E+02  0.44560025515E+02  0.54354793608E+02  0.00000000000E+00 0.  1.
         21    1    1    2  503  502  0.22287061577E+02 -0.21728658507E+02  0.93948334649E+03  0.93999883300E+03  0.00000000000E+00 0. -1.
</event>
<event>
 4    1  0.5843276E+002  0.2043446E+02  0.7546771E-02  0.1527495E+00
          2   -1    0    0  502    0  0.00000000000E+00  0.00000000000E+00  0.28837230943E+03  0.28837230943E+03  0.00000000000E+00 0.  1.
         -2   -1    0    0    0  501 -0.00000000000E+00 -0.00000000000E+00 -0.19535425174E+01  0.19535425174E+01  0.00000000000E+00 0. -1.
         21    1    1    2  502  503  0.19632068120E+02 -0.56700215019E+01  0.21705368016E+03  0.21801345673E+03  0.00000000000E+00 0.  1.
         21    1    1    2  503  501 -0.19632068120E+02  0.56700215019E+01  0.69365086752E+02  0.72312395221E+02  0.00000000000E+00 0. -1.
</event>
<event>
 4    1  0.5843276E+002  0.2023862E+02  0.7546771E-02  0.1530419E+00
          2   -1    0    0  502    0  0.00000000000E+00  0.00000000000E+00  0.79537428023E+03  0.79537428023E+03  0.00000000000E+00 0. -1.
         -2   -1    0    0    0  501 -0.00000000000E+00 -0.00000000000E+00 -0.55972072473E+00  0.55972072473E+00  0.00000000000E+00 0.  1.
         21    1    1    2  502  503  0.80418577722E+01 -0.18572303422E+02  0.50992278186E+03  0.51032425515E+03  0.00000000000E+00 0. -1.
         21    1    1    2  503  501 -0.80418577722E+01  0.18572303422E+02  0.28489177764E+03  0.28560974581E+03  0.00000000000E+00 0.  1.
</event>
<event>
 4    1  0.5843276E+002  0.2071664E+02  0.7546771E-02  0.1523349E+00
          2   -1    0    0  502    0  0.00000000000E+00  0.00000000000E+00  0.38880676430E+02  0.38880676430E+02  0.00000000000E+00 0. -1.
         -2   -1    0    0    0  501 -0.00000000000E+00 -0.00000000000E+00 -0.11849117998E+02  0.11849117998E+02  0.00000000000E+00 0.  1.
         21    1    1    2  502  503  0.64007478844E+00 -0.20706750610E+02  0.20150666641E+02  0.28900321498E+02  0.00000000000E+00 0.  1.
         21    1    1    2  503  501 -0.64007478844E+00  0.20706750610E+02  0.68808917913E+01  0.21829472930E+02  0.00000000000E+00 0. -1.
</event>
<event>
 4    1  0.5843276E+002  0.2037378E+02  0.7546771E-02  0.1528396E+00
          2   -1    0    0  502    0  0.00000000000E+00  0.00000000000E+00  0.11310271667E+03  0.11310271667E+03  0.00000000000E+00 0.  1.
         -2   -1    0    0    0  501 -0.00000000000E+00 -0.00000000000E+00 -0.43415251584E+01  0.43415251584E+01  0.00000000000E+00 0. -1.
         21    1    1    2  502  503  0.85633433871E+01 -0.18486752383E+02  0.77474671405E+02  0.80108773383E+02  0.00000000000E+00 0.  1.
         21    1    1    2  503  501 -0.85633433871E+01  0.18486752383E+02  0.31286520107E+02  0.37335468446E+02  0.00000000000E+00 0. -1.
</event>
<event>
 4    1  0.5843276E+002  0.2236780E+02  0.7546771E-02  0.1500593E+00
          2   -1    0    0  502    0  0.00000000000E+00  0.00000000000E+00  0.18860413276E+03  0.18860413276E+03  0.00000000000E+00 0. -1.
         -2   -1    0    0    0  501 -0.00000000000E+00 -0.00000000000E+00 -0.27853762594E+01  0.27853762594E+01  0.00000000000E+00 0.  1.
         21    1    1    2  502  503  0.93014707716E+01  0.20342104852E+02  0.11379127071E+03  0.11596884011E+03  0.00000000000E+00 0.  1.
         21    1    1    2  503  501 -0.93014707716E+01 -0.20342104852E+02  0.72027485795E+02  0.75420668906E+02  0.00000000000E+00 0. -1.
</event>
<event>
 4    1  0.5843276E+002  0.2111061E+02  0.7546771E-02  0.1517691E+00
          2   -1    0    0  502    0  0.00000000000E+00  0.00000000000E+00  0.10749890788E+04  0.10749890788E+04  0.00000000000E+00 0. -1.
         -2   -1    0    0    0  501 -0.00000000000E+00 -0.00000000000E+00 -0.56220177627E+00  0.56220177627E+00  0.00000000000E+00 0.  1.
         21    1    1    2  502  503  0.14956595445E+02  0.14898258764E+02  0.81279200434E+03  0.81306611059E+03  0.00000000000E+00 0. -1.
         21    1    1    2  503  501 -0.14956595445E+02 -0.14898258764E+02  0.26163487266E+03  0.26248516997E+03  0.00000000000E+00 0.  1.
</event>
<event>
 4    1  0.5843276E+002  0.3333489E+02  0.7546771E-02  0.1392663E+00
          2   -1    0    0  502    0  0.00000000000E+00  0.00000000000E+00  0.60956081386E+01  0.60956081386E+01  0.00000000000E+00 0.  1.
         -2   -1    0    0    0  501 -0.00000000000E+00 -0.00000000000E+00 -0.33959919541E+03  0.33959919541E+03  0.00000000000E+00 0. -1.
         21    1    1    2  502  503  0.27332841221E+02 -0.19082204262E+02 -0.49114210245E+02  0.59358406116E+02  0.00000000000E+00 0.  1.
         21    1    1    2  503  501 -0.27332841221E+02  0.19082204262E+02 -0.28438937702E+03  0.28633639743E+03  0.00000000000E+00 0. -1.
</event>
<event>
 4    1  0.5843276E+002  0.3232344E+02  0.7546771E-02  0.1400424E+00
          2   -1    0    0  503    0  0.00000000000E+00  0.00000000000E+00  0.39270064595E+01  0.39270064595E+01  0.00000000000E+00 0. -1.
         -2   -1    0    0    0  501 -0.00000000000E+00 -0.00000000000E+00 -0.60276177743E+03  0.60276177743E+03  0.00000000000E+00 0.  1.
         21    1    1    2  502  501  0.31297720297E+02 -0.80782155976E+01 -0.52613653290E+03  0.52712850058E+03  0.00000000000E+00 0.  1.
         21    1    1    2  503  502 -0.31297720297E+02  0.80782155976E+01 -0.72698238067E+02  0.79560283315E+02  0.00000000000E+00 0. -1.
</event>
<event>
 4    1  0.5843276E+002  0.3100528E+02  0.7546771E-02  0.1411057E+00
          2   -1    0    0  503    0  0.00000000000E+00  0.00000000000E+00  0.82082373192E+00  0.82082373192E+00  0.00000000000E+00 0.  1.
         -2   -1    0    0    0  501 -0.00000000000E+00 -0.00000000000E+00 -0.11831629582E+04  0.11831629582E+04  0.00000000000E+00 0. -1.
         21    1    1    2  502  501 -0.23313186883E+02 -0.20440708393E+02 -0.65076306921E+03  0.65150126592E+03  0.00000000000E+00 0. -1.
         21    1    1    2  503  502  0.23313186883E+02  0.20440708393E+02 -0.53157906527E+03  0.53248251603E+03  0.00000000000E+00 0.  1.
</event>
<event>
 4    1  0.5843276E+002  0.2325852E+02  0.7546771E-02  0.1489277E+00
          2   -1    0    0  502    0  0.00000000000E+00  0.00000000000E+00  0.17983983708E+04  0.17983983708E+04  0.00000000000E+00 0. -1.
         -2   -1    0    0    0  501 -0.00000000000E+00 -0.00000000000E+00 -0.36820559848E+00  0.36820559848E+00  0.00000000000E+00 0.  1.
         21    1    1    2  502  503 -0.22437395637E+02  0.61255059149E+01  0.12838256933E+04  0.12840363583E+04  0.00000000000E+00 0.  1.
         21    1    1    2  503  501  0.22437395637E+02 -0.61255059149E+01  0.51420447194E+03  0.51473021818E+03  0.00000000000E+00 0. -1.
</event>
<event>
 4    1  0.5843276E+002  0.2322478E+02  0.7546771E-02  0.1489695E+00
          2   -1    0    0  502    0  0.00000000000E+00  0.00000000000E+00  0.39291635489E+02  0.39291635489E+02  0.00000000000E+00 0.  1.
         -2   -1    0    0    0  501 -0.00000000000E+00 -0.00000000000E+00 -0.14808255007E+02  0.14808255007E+02  0.00000000000E+00 0. -1.
         21    1    1    2  502  503 -0.17159284520E+02  0.15650857935E+02  0.49352799969E+01  0.23743365136E+02  0.00000000000E+00 0. -1.
         21    1    1    2  503  501  0.17159284520E+02 -0.15650857935E+02  0.19548100485E+02  0.30356525360E+02  0.00000000000E+00 0.  1.
</event>
<event>
 4    1  0.5843276E+002  0.6111821E+02  0.7546771E-02  0.1256080E+00
          2   -1    0    0  502    0  0.00000000000E+00  0.00000000000E+00  0.47189756565E+02  0.47189756565E+02  0.00000000000E+00 0. -1.
         -2   -1    0    0    0  501 -0.00000000000E+00 -0.00000000000E+00 -0.10098723026E+03  0.10098723026E+03  0.00000000000E+00 0.  1.
         21    1    1    2  502  503  0.34169016971E+02  0.50674593751E+02  0.75472771404E+01  0.61582445265E+02  0.00000000000E+00 0. -1.
         21    1    1    2  503  501 -0.34169016971E+02 -0.50674593751E+02 -0.61344750831E+02  0.86594541555E+02  0.00000000000E+00 0.  1.
</event>
<event>
 4    1  0.5843276E+002  0.2444044E+02  0.7546771E-02  0.1475162E+00
          2   -1    0    0  503    0  0.00000000000E+00  0.00000000000E+00  0.88865817562E+02  0.88865817562E+02  0.00000000000E+00 0.  1.
         -2   -1    0    0    0  501 -0.00000000000E+00 -0.00000000000E+00 -0.20943986752E+03  0.20943986752E+03  0.00000000000E+00 0. -1.
         21    1    1    2  502  501  0.18976138943E+02 -0.15402631308E+02 -0.20702689377E+03  0.20846455249E+03  0.00000000000E+00 0. -1.
         21    1    1    2  503  502 -0.18976138943E+02  0.15402631308E+02  0.86452843818E+02  0.89841132587E+02  0.00000000000E+00 0.  1.
</event>
<event>
 4    1  0.5843276E+002  0.3592801E+02  0.7546771E-02  0.1374154E+00
          2   -1    0    0  503    0  0.00000000000E+00  0.00000000000E+00  0.19931765739E+04  0.19931765739E+04  0.00000000000E+00 0. -1.
         -2   -1    0    0    0  501 -0.00000000000E+00 -0.00000000000E+00 -0.64784250253E+00  0.64784250253E+00  0.00000000000E+00 0.  1.
         21    1    1    2  502  501  0.35871403439E+02 -0.20159298260E+01  0.10147282337E+04  0.10153640774E+04  0.00000000000E+00 0. -1.
         21    1    1    2  503  502 -0.35871403439E+02  0.20159298260E+01  0.97780049772E+03  0.97846033895E+03  0.00000000000E+00 0.  1.
</event>
<event>
 4    1  0.5843276E+002  0.4339731E+02  0.7546771E-02  0.1329651E+00
          2   -1    0    0  502    0  0.00000000000E+00  0.00000000000E+00  0.23186438056E+03  0.23186438056E+03  0.00000000000E+00 0.  1.
         -2   -1    0    0    0  501 -0.00000000000E+00 -0.00000000000E+00 -0.36572935725E+02  0.36572935725E+02  0.00000000000E+00 0. -1.
         21    1    1    2  502  503  0.43075852213E+02  0.52723507891E+01  0.21602540448E+03  0.22034133091E+03  0.00000000000E+00 0.  1.
         21    1    1    2  503  501 -0.43075852213E+02 -0.52723507891E+01 -0.20733959645E+02  0.48095985375E+02  0.00000000000E+00 0. -1.
</event>
<event>
 4    1  0.5843276E+002  0.2378967E+02  0.7546771E-02  0.1482813E+00
          2   -1    0    0  503    0  0.00000000000E+00  0.00000000000E+00  0.15986236351E+02  0.15986236351E+02  0.00000000000E+00 0. -1.
         -2   -1    0    0    0  501 -0.00000000000E+00 -0.00000000000E+00 -0.60029367704E+02  0.60029367704E+02  0.00000000000E+00 0.  1.
         21    1    1    2  502  501  0.13125731120E+02  0.19840957885E+02 -0.46365896104E+02  0.52112807915E+02  0.00000000000E+00 0.  1.
         21    1    1    2  503  502 -0.13125731120E+02 -0.19840957885E+02  0.23227647517E+01  0.23902796140E+02  0.00000000000E+00 0. -1.
</event>
<event>
 4    1  0.5843276E+002  0.3394073E+02  0.7546771E-02  0.1388167E+00
          2   -1    0    0  503    0  0.00000000000E+00  0.00000000000E+00  0.75471538355E+01  0.75471538355E+01  0.00000000000E+00 0.  1.
         -2   -1    0    0    0  501 -0.00000000000E+00 -0.00000000000E+00 -0.16004224094E+03  0.16004224094E+03  0.00000000000E+00 0. -1.
         21    1    1    2  502  501  0.20837798586E+02  0.26791035986E+02 -0.94272511361E+02  0.10019620680E+03  0.00000000000E+00 0. -1.
         21    1    1    2  503  502 -0.20837798586E+02 -0.26791035986E+02 -0.58222575745E+02  0.67393187975E+02  0.00000000000E+00 0.  1.
</event>
<event>
 4    1  0.5843276E+002  0.2443960E+02  0.7546771E-02  0.1475171E+00
          2   -1    0    0  502    0  0.00000000000E+00  0.00000000000E+00  0.80022578686E+02  0.80022578686E+02  0.00000000000E+00 0.  1.
         -2   -1    0    0    0  501 -0.00000000000E+00 -0.00000000000E+00 -0.11346172905E+02  0.11346172905E+02  0.00000000000E+00 0. -1.
         21    1    1    2  502  503  0.23396345150E+02  0.70643385026E+01  0.61060680188E+02  0.65770057852E+02  0.00000000000E+00 0.  1.
         21    1    1    2  503  501 -0.23396345150E+02 -0.70643385026E+01  0.76157255927E+01  0.25598693739E+02  0.00000000000E+00 0. -1.
</event>
<event>
 4    1  0.5843276E+002  0.2496190E+02  0.7546771E-02  0.1469230E+00
          2   -1    0    0  503    0  0.00000000000E+00  0.00000000000E+00  0.14708832042E+03  0.14708832042E+03  0.00000000000E+00 0.  1.
         -2   -1    0    0    0  501 -0.00000000000E+00 -0.00000000000E+00 -0.52987804102E+01  0.52987804102E+01  0.00000000000E+00 0. -1.
         21    1    1    2  502  501  0.19384854516E+02 -0.15726527469E+02  0.36774679934E+02  0.44446297204E+02  0.00000000000E+00 0. -1.
         21    1    1    2  503  502 -0.19384854516E+02  0.15726527469E+02  0.10501486007E+03  0.10794080362E+03  0.00000000000E+00 0.  1.
</event>
<event>
 4    1  0.5843276E+002  0.5560660E+02  0.7546771E-02  0.1275538E+00
          2   -1    0    0  503    0  0.00000000000E+00  0.00000000000E+00  0.36090715564E+02  0.36090715564E+02  0.00000000000E+00 0.  1.
         -2   -1    0    0    0  501 -0.00000000000E+00 -0.00000000000E+00 -0.13313079337E+03  0.13313079337E+03  0.00000000000E+00 0. -1.
         21    1    1    2  502  501  0.13115865761E+01  0.55591133556E+02 -0.99035938936E+02  0.11357909839E+03  0.00000000000E+00 0. -1.
         21    1    1    2  503  502 -0.13115865761E+01 -0.55591133556E+02  0.19958611329E+01  0.55642410544E+02  0.00000000000E+00 0.  1.
</event>
<event>
 4    1  0.5843276E+002  0.2568635E+02  0.7546771E-02  0.1461270E+00
          2   -1    0    0  503    0  0.00000000000E+00  0.00000000000E+00  0.11698847945E+02  0.11698847945E+02  0.00000000000E+00 0. -1.
         -2   -1    0    0    0  501 -0.00000000000E+00 -0.00000000000E+00 -0.91725231317E+02  0.91725231317E+02  0.00000000000E+00 0.  1.
         21    1    1    2  502  501  0.16774087631E+02  0.19452983303E+02 -0.72105700112E+02  0.76544239260E+02  0.00000000000E+00 0.  1.
         21    1    1    2  503  502 -0.16774087631E+02 -0.19452983303E+02 -0.79206832598E+01  0.26879840002E+02  0.00000000000E+00 0. -1.
</event>
<event>
 4    1  0.5843276E+002  0.2746014E+02  0.7546771E-02  0.1443040E+00
          2   -1    0    0  502    0  0.00000000000E+00  0.00000000000E+00  0.33661427390E+03  0.33661427390E+03  0.00000000000E+00 0.  1.
         -2   -1    0    0    0  501 -0.00000000000E+00 -0.00000000000E+00 -0.26336022156E+01  0.26336022156E+01  0.00000000000E+00 0. -1.
         21    1    1    2  502  503  0.20338053142E+02 -0.18450558536E+02  0.10142573158E+03  0.10507729794E+03  0.00000000000E+00 0. -1.
         21    1    1    2  503  501 -0.20338053142E+02  0.18450558536E+02  0.23255494010E+03  0.23417057817E+03  0.00000000000E+00 0.  1.
</event>
<event>
 4    1  0.5843276E+002  0.2254990E+02  0.7546771E-02  0.1498229E+00
          2   -1    0    0  502    0  0.00000000000E+00  0.00000000000E+00  0.47445177183E+03  0.47445177183E+03  0.00000000000E+00 0. -1.
         -2   -1    0    0    0  501 -0.00000000000E+00 -0.00000000000E+00 -0.48804638380E+01  0.48804638380E+01  0.00000000000E+00 0.  1.
         21    1    1    2  502  503  0.21416140674E+02 -0.70602357756E+01  0.44650704753E+03  0.44707610259E+03  0.00000000000E+00 0. -1.
         21    1    1    2  503  501 -0.21416140674E+02  0.70602357756E+01  0.23064260457E+02  0.32256133076E+02  0.00000000000E+00 0.  1.
</event>
<event>
 4    1  0.5843276E+002  0.2006672E+02  0.7546771E-02  0.1533018E+00
          2   -1    0    0  502    0  0.00000000000E+00  0.00000000000E+00  0.10499029775E+04  0.10499029775E+04  0.00000000000E+00 0. -1.
         -2   -1    0    0    0  501 -0.00000000000E+00 -0.00000000000E+00 -0.24121994636E+01  0.24121994636E+01  0.00000000000E+00 0.  1.
         21    1    1    2  502  503 -0.82274239307E+01  0.18302535518E+02  0.10062644413E+04  0.10064645046E+04  0.00000000000E+00 0. -1.
         21    1    1    2  503  501  0.82274239307E+01 -0.18302535518E+02  0.41226336815E+02  0.45850672385E+02  0.00000000000E+00 0.  1.
</event>
<event>
 4    1  0.5843276E+002  0.2909181E+02  0.7546771E-02  0.1427656E+00
          2   -1    0    0  503    0  0.00000000000E+00  0.00000000000E+00  0.88177167503E+03  0.88177167503E+03  0.00000000000E+00 0.  1.
         -2   -1    0    0    0  501 -0.00000000000E+00 -0.00000000000E+00 -0.26387879574E+01  0.26387879574E+01  0.00000000000E+00 0. -1.
         21    1    1    2  502  501  0.25449527508E+02 -0.14094493175E+02  0.86835029875E+02  0.91578685302E+02  0.00000000000E+00 0. -1.
         21    1    1    2  503  502 -0.25449527508E+02  0.14094493175E+02  0.79229785719E+03  0.79283177768E+03  0.00000000000E+00 0.  1.
</event>
<event>
 4    1  0.5843276E+002  0.2365990E+02  0.7546771E-02  0.1484374E+00
          2   -1    0    0  502    0  0.00000000000E+00  0.00000000000E+00  0.16594080228E+02  0.16594080228E+02  0.00000000000E+00 0.  1.
         -2   -1    0    0    0  501 -0.00000000000E+00 -0.00000000000E+00 -0.65727977019E+02  0.65727977019E+02  0.00000000000E+00 0. -1.
         21    1    1    2  502  503 -0.14630674108E+02 -0.18593926247E+02  0.41502944150E+01  0.24021150302E+02  0.00000000000E+00 0.  1.
         21    1    1    2  503  501  0.14630674108E+02  0.18593926247E+02 -0.53284191206E+02  0.58300906945E+02  0.00000000000E+00 0. -1.
</event>
<event>
 4    1  0.5843276E+002  0.2870682E+02  0.7546771E-02  0.1431177E+00
          2   -1    0    0  502    0  0.00000000000E+00  0.00000000000E+00  0.96278577478E+02  0.96278577478E+02  0.00000000000E+00 0. -1.
         -2   -1    0    0    0  501 -0.00000000000E+00 -0.00000000000E+00 -0.93887052274E+01  0.93887052274E+01  0.00000000000E+00 0.  1.
         21    1    1    2  502  503  0.28613298987E+02  0.23152649274E+01  0.27742034136E+02  0.39921194729E+02  0.00000000000E+00 0.  1.
         21    1    1    2  503  501 -0.28613298987E+02 -0.23152649274E+01  0.59147838115E+02  0.65746087977E+02  0.00000000000E+00 0. -1.
</event>
<event>
 4    1  0.5843276E+002  0.3569872E+02  0.7546771E-02  0.1375716E+00
          2   -1    0    0  503    0  0.00000000000E+00  0.00000000000E+00  0.90289333312E+03  0.90289333312E+03  0.00000000000E+00 0. -1.
         -2   -1    0    0    0  501 -0.00000000000E+00 -0.00000000000E+00 -0.98980826150E+01  0.98980826150E+01  0.00000000000E+00 0.  1.
         21    1    1    2  502  501  0.26394275690E+02  0.24036235525E+02  0.23893781400E+02  0.42957085527E+02  0.00000000000E+00 0.  1.
         21    1    1    2  503  502 -0.26394275690E+02 -0.24036235525E+02  0.86910146910E+03  0.86983433021E+03  0.00000000000E+00 0. -1.
</event>
<event>
 4    1  0.5843276E+002  0.2056409E+02  0.7546771E-02  0.1525580E+00
          2   -1    0    0  502    0  0.00000000000E+00  0.00000000000E+00  0.21732489603E+02  0.21732489603E+02  0.00000000000E+00 0. -1.
         -2   -1    0    0    0  501 -0.00000000000E+00 -0.00000000000E+00 -0.55354249825E+02  0.55354249825E+02  0.00000000000E+00 0.  1.
         21    1    1    2  502  503 -0.10422372262E+02  0.17727268154E+02  0.14227256959E+02  0.25005933703E+02  0.00000000000E+00 0. -1.
         21    1    1    2  503  501  0.10422372262E+02 -0.17727268154E+02 -0.47849017181E+02  0.52080805725E+02  0.00000000000E+00 0.  1.
</event>
<event>
 4    1  0.5843276E+002  0.4872835E+02  0.7546771E-02  0.1303782E+00
          2   -1    0    0  502    0  0.00000000000E+00  0.00000000000E+00  0.12010680732E+04  0.12010680732E+04  0.00000000000E+00 0. -1.
         -2   -1    0    0    0  501 -0.00000000000E+00 -0.00000000000E+00 -0.50835236332E+01  0.50835236332E+01  0.00000000000E+00 0.  1.
         21    1    1    2  502  503  0.25254767127E+02  0.41673119433E+02  0.10694364420E+04  0.10705460082E+04  0.00000000000E+00 0. -1.
         21    1    1    2  503  501 -0.25254767127E+02 -0.41673119433E+02  0.12654810756E+03  0.13560558865E+03  0.00000000000E+00 0.  1.
</event>
<event>
 4    1  0.5843276E+002  0.4980483E+02  0.7546771E-02  0.1299021E+00
          2   -1    0    0  502    0  0.00000000000E+00  0.00000000000E+00  0.12877322913E+04  0.12877322913E+04  0.00000000000E+00 0.  1.
         -2   -1    0    0    0  501 -0.00000000000E+00 -0.00000000000E+00 -0.27347651805E+01  0.27347651805E+01  0.00000000000E+00 0. -1.
         21    1    1    2  502  503  0.47192077390E+02 -0.15919438968E+02  0.99332776917E+03  0.99457557667E+03  0.00000000000E+00 0.  1.
         21    1    1    2  503  501 -0.47192077390E+02  0.15919438968E+02  0.29166975699E+03  0.29589147985E+03  0.00000000000E+00 0. -1.
</event>
<event>
 4    1  0.5843276E+002  0.2026499E+02  0.7546771E-02  0.1530023E+00
          2   -1    0    0  503    0  0.00000000000E+00  0.00000000000E+00  0.14613034708E+03  0.14613034708E+03  0.00000000000E+00 0. -1.
         -2   -1    0    0    0  501 -0.00000000000E+00 -0.00000000000E+00 -0.39002656405E+01  0.39002656405E+01  0.00000000000E+00 0.  1.
         21    1    1    2  502  501 -0.17165941973E+02 -0.10770332985E+02  0.11077112685E+03  0.11260955634E+03  0.00000000000E+00 0. -1.
         21    1    1    2  503  502  0.17165941973E+02  0.10770332985E+02  0.31458954589E+02  0.37421056376E+02  0.00000000000E+00 0.  1.
</event>
<event>
 4    1  0.5843276E+002  0.2532579E+02  0.7546771E-02  0.1465192E+00
          2   -1    0    0  502    0  0.00000000000E+00  0.00000000000E+00  0.35808980675E+02  0.35808980675E+02  0.00000000000E+00 0.  1.
         -2   -1    0    0    0  501 -0.00000000000E+00 -0.00000000000E+00 -0.30255179318E+02  0.30255179318E+02  0.00000000000E+00 0. -1.
         21    1    1    2  502  503  0.24670888202E+02  0.57221477791E+01  0.23875655596E+02  0.34805784433E+02  0.00000000000E+00 0.  1.
         21    1    1    2  503  501 -0.24670888202E+02 -0.57221477791E+01 -0.18321854238E+02  0.31258375559E+02  0.00000000000E+00 0. -1.
</event>
<event>
 4    1  0.5843276E+002  0.2256892E+02  0.7546771E-02  0.1497983E+00
          2   -1    0    0  503    0  0.00000000000E+00  0.00000000000E+00  0.74133930058E+01  0.74133930058E+01  0.00000000000E+00 0.  1.
         -2   -1    0    0    0  501 -0.00000000000E+00 -0.00000000000E+00 -0.12393226483E+03  0.12393226483E+03  0.00000000000E+00 0. -1.
         21    1    1    2  502  501  0.54864951981E+01  0.21891883794E+02 -0.10209839165E+03  0.10456308040E+03  0.00000000000E+00 0. -1.
         21    1    1    2  503  502 -0.54864951981E+01 -0.21891883794E+02 -0.14420480176E+02  0.26782577436E+02  0.00000000000E+00 0.  1.
</event>
<event>
 4    1  0.5843276E+002  0.2172303E+02  0.7546771E-02  0.1509187E+00
          2   -1    0    0  503    0  0.00000000000E+00  0.00000000000E+00  0.20731531583E+02  0.20731531583E+02  0.00000000000E+00 0. -1.
         -2   -1    0    0    0  501 -0.00000000000E+00 -0.00000000000E+00 -0.23340804324E+02  0.23340804324E+02  0.00000000000E+00 0.  1.
         21    1    1    2  502  501  0.18702494691E+02 -0.11050185587E+02 -0.47749281598E+01  0.22241624224E+02  0.00000000000E+00 0.  1.
         21    1    1    2  503  502 -0.18702494691E+02  0.11050185587E+02  0.21656554185E+01  0.21830711683E+02  0.00000000000E+00 0. -1.
</event>
<event>
 4    1  0.5843276E+002  0.4470969E+02  0.7546771E-02  0.1322898E+00
          2   -1    0    0  502    0  0.00000000000E+00  0.00000000000E+00  0.20316446522E+04  0.20316446522E+04  0.00000000000E+00 0.  1.
         -2   -1    0    0    0  501 -0.00000000000E+00 -0.00000000000E+00 -0.23608660598E+01  0.23608660598E+01  0.00000000000E+00 0. -1.
         21    1    1    2  502  503  0.93712052622E+01 -0.43716550587E+02  0.17913296083E+04  0.17918874747E+04  0.00000000000E+00 0.  1.
         21    1    1    2  503  501 -0.93712052622E+01  0.43716550587E+02  0.23795417783E+03  0.24211804359E+03  0.00000000000E+00 0. -1.
</event>
<event>
 4    1  0.5843276E+002  0.2176086E+02  0.7546771E-02  0.1508673E+00
          2   -1    0    0  502    0  0.00000000000E+00  0.00000000000E+00  0.46120650207E+02  0.46120650207E+02  0.00000000000E+00 0.  1.
         -2   -1    0    0    0  501 -0.00000000000E+00 -0.00000000000E+00 -0.28998929798E+02  0.28998929798E+02  0.00000000000E+00 0. -1.
         21    1    1    2  502  503 -0.21730976860E+02  0.11399699381E+01  0.38747854243E+02  0.44440196840E+02  0.00000000000E+00 0.  1.
         21    1    1    2  503  501  0.21730976860E+02 -0.11399699381E+01 -0.21626133835E+02  0.30679383165E+02  0.00000000000E+00 0. -1.
</event>
<event>
 4    1  0.5843276E+002  0.2447014E+02  0.7546771E-02  0.1474819E+00
          2   -1    0    0  502    0  0.00000000000E+00  0.00000000000E+00  0.16224186629E+04  0.16224186629E+04  0.00000000000E+00 0. -1.
         -2   -1    0    0    0  501 -0.00000000000E+00 -0.00000000000E+00 -0.41297176397E+00  0.41297176397E+00  0.00000000000E+00 0.  1.
         21    1    1    2  502  503  0.18912261024E+02  0.15527853388E+02  0.10755595745E+04  0.10758378996E+04  0.00000000000E+00 0. -1.
         21    1    1    2  503  501 -0.18912261024E+02 -0.15527853388E+02  0.54644611667E+03  0.54699373513E+03  0.00000000000E+00 0.  1.
</event>
<event>
 4    1  0.5843276E+002  0.2064711E+02  0.7546771E-02  0.1524363E+00
          2   -1    0    0  502    0  0.00000000000E+00  0.00000000000E+00  0.13197684142E+01  0.13197684142E+01  0.00000000000E+00 0.  1.
         -2   -1    0    0    0  501 -0.00000000000E+00 -0.00000000000E+00 -0.32791515186E+03  0.32791515186E+03  0.00000000000E+00 0. -1.
         21    1    1    2  502  503  0.20640515282E+02 -0.52164939078E+00 -0.14317123883E+03  0.14465236472E+03  0.00000000000E+00 0. -1.
         21    1    1    2  503  501 -0.20640515282E+02  0.52164939078E+00 -0.18342414461E+03  0.18458255556E+03  0.00000000000E+00 0.  1.
</event>
<event>
 4    1  0.5843276E+002  0.2527545E+02  0.7546771E-02  0.1465745E+00
          2   -1    0    0  503    0  0.00000000000E+00  0.00000000000E+00  0.50437786357E+03  0.50437786357E+03  0.00000000000E+00 0. -1.
         -2   -1    0    0    0  501 -0.00000000000E+00 -0.00000000000E+00 -0.20278582919E+01  0.20278582919E+01  0.00000000000E+00 0.  1.
         21    1    1    2  502  501  0.83208105420E+01 -0.23866558277E+02  0.96038551912E+02  0.99308871433E+02  0.00000000000E+00 0.  1.
         21    1    1    2  503  502 -0.83208105420E+01  0.23866558277E+02  0.40631145337E+03  0.40709685043E+03  0.00000000000E+00 0. -1.
</event>
<event>
 4    1  0.5843276E+002  0.2556434E+02  0.7546771E-02  0.1462588E+00
          2   -1    0    0  502    0  0.00000000000E+00  0.00000000000E+00  0.10428926249E+04  0.10428926249E+04  0.00000000000E+00 0. -1.
         -2   -1    0    0    0  501 -0.00000000000E+00 -0.00000000000E+00 -0.25334466824E+01  0.25334466824E+01  0.00000000000E+00 0.  1.
         21    1    1    2  502  503  0.60212369404E+01  0.24845124125E+02  0.97366037991E+03  0.97399592961E+03  0.00000000000E+00 0. -1.
         21    1    1    2  503  501 -0.60212369404E+01 -0.24845124125E+02  0.66698798341E+02  0.71430142008E+02  0.00000000000E+00 0.  1.
</event>
<event>
 4    1  0.5843276E+002  0.3562455E+02  0.7546771E-02  0.1376225E+00
          2   -1    0    0  502    0  0.00000000000E+00  0.00000000000E+00  0.11967036469E+04  0.11967036469E+04  0.00000000000E+00 0.  1.
         -2   -1    0    0    0  501 -0.00000000000E+00 -0.00000000000E+00 -0.21525392407E+01  0.21525392407E+01  0.00000000000E+00 0. -1.
         21    1    1    2  502  503  0.27974587021E+02 -0.22057441910E+02  0.10242284897E+04  0.10248478460E+04  0.00000000000E+00 0.  1.
         21    1    1    2  503  501 -0.27974587021E+02  0.22057441910E+02  0.17032261794E+03  0.17400834016E+03  0.00000000000E+00 0. -1.
</event>
<event>
 4    1  0.5843276E+002  0.2173222E+02  0.7546771E-02  0.1509062E+00
          2   -1    0    0  502    0  0.00000000000E+00  0.00000000000E+00  0.62516357553E+02  0.62516357553E+02  0.00000000000E+00 0. -1.
         -2   -1    0    0    0  501 -0.00000000000E+00 -0.00000000000E+00 -0.13140323722E+02  0.13140323722E+02  0.00000000000E+00 0.  1.
         21    1    1    2  502  503  0.92170593426E+01 -0.19680835569E+02  0.49351355898E+02  0.53924445297E+02  0.00000000000E+00 0. -1.
         21    1    1    2  503  501 -0.92170593426E+01  0.19680835569E+02  0.24677933153E-01  0.21732235979E+02  0.00000000000E+00 0.  1.
</event>
<event>
 4    1  0.5843276E+002  0.2836757E+02  0.7546771E-02  0.1434334E+00
          2   -1    0    0  502    0  0.00000000000E+00  0.00000000000E+00  0.17024523742E+04  0.17024523742E+04  0.00000000000E+00 0. -1.
         -2   -1    0    0    0  501 -0.00000000000E+00 -0.00000000000E+00 -0.22549096770E+01  0.22549096770E+01  0.00000000000E+00 0.  1.
         21    1    1    2  502  503  0.25775946026E+01 -0.28250225936E+02  0.16078676548E+04  0.16081178796E+04  0.00000000000E+00 0. -1.
         21    1    1    2  503  501 -0.25775946026E+01  0.28250225936E+02  0.92329809673E+02  0.96589404252E+02  0.00000000000E+00 0.  1.
</event>
<event>
 4    1  0.5843276E+002  0.2483336E+02  0.7546771E-02  0.1470676E+00
          2   -1    0    0  503    0  0.00000000000E+00  0.00000000000E+00  0.18097168327E+04  0.18097168327E+04  0.00000000000E+00 0.  1.
         -2   -1    0    0    0  501 -0.00000000000E+00 -0.00000000000E+00 -0.57031290861E+00  0.57031290861E+00  0.00000000000E+00 0. -1.
         21    1    1    2  502  501  0.14671654955E+02 -0.20035921237E+02  0.33033298230E+03  0.33126511255E+03  0.00000000000E+00 0. -1.
         21    1    1    2  503  502 -0.14671654955E+02  0.20035921237E+02  0.14788135375E+04  0.14790220331E+04  0.00000000000E+00 0.  1.
</event>
<event>
 4    1  0.5843276E+002  0.5043952E+02  0.7546771E-02  0.1296278E+00
          2   -1    0    0  502    0  0.00000000000E+00  0.00000000000E+00  0.84840379010E+02  0.84840379010E+02  0.00000000000E+00 0. -1.
         -2   -1    0    0    0  501 -0.00000000000E+00 -0.00000000000E+00 -0.55482722804E+02  0.55482722804E+02  0.00000000000E+00 0.  1.
         21    1    1    2  502  503  0.30101188079E+02 -0.40473004039E+02  0.62239746695E+02  0.80111994410E+02  0.00000000000E+00 0. -1.
         21    1    1    2  503  501 -0.30101188079E+02  0.40473004039E+02 -0.32882090490E+02  0.60211107403E+02  0.00000000000E+00 0.  1.
</event>
<event>
 4    1  0.5843276E+002  0.3377660E+02  0.7546771E-02  0.1389374E+00
          2   -1    0    0  503    0  0.00000000000E+00  0.00000000000E+00  0.98390822230E+01  0.98390822230E+01  0.00000000000E+00 0.  1.
         -2   -1    0    0    0  501 -0.00000000000E+00 -0.00000000000E+00 -0.52500796330E+03  0.52500796330E+03  0.00000000000E+00 0. -1.
         21    1    1    2  502  501  0.33502238161E+02  0.42963899676E+01 -0.49363669363E+03  0.49479090960E+03  0.00000000000E+00 0. -1.
         21    1    1    2  503  502 -0.33502238161E+02 -0.42963899676E+01 -0.21532187448E+02  0.40056135920E+02  0.00000000000E+00 0.  1.
</event>
<event>
 4    1  0.5843276E+002  0.2092502E+02  0.7546771E-02  0.1520338E+00
          2   -1    0    0  503    0  0.00000000000E+00  0.00000000000E+00  0.27787453415E+03  0.27787453415E+03  0.00000000000E+00 0.  1.
         -2   -1    0    0    0  501 -0.00000000000E+00 -0.00000000000E+00 -0.45305676245E+01  0.45305676245E+01  0.00000000000E+00 0. -1.
         21    1    1    2  502  501 -0.19486125521E+02 -0.76254289527E+01  0.22638398852E+02  0.30827801691E+02  0.00000000000E+00 0. -1.
         21    1    1    2  503  502  0.19486125521E+02  0.76254289527E+01  0.25070556767E+03  0.25157730008E+03  0.00000000000E+00 0.  1.
</event>
<event>
 4    1  0.5843276E+002  0.2409454E+02  0.7546771E-02  0.1479193E+00
          2   -1    0    0  502    0  0.00000000000E+00  0.00000000000E+00  0.55434765273E+03  0.55434765273E+03  0.00000000000E+00 0. -1.
         -2   -1    0    0    0  501 -0.00000000000E+00 -0.00000000000E+00 -0.12274558000E+01  0.12274558000E+01  0.00000000000E+00 0.  1.
         21    1    1    2  502  503 -0.11712274960E+02  0.21056339523E+02  0.38299416902E+03  0.38375132615E+03  0.00000000000E+00 0.  1.
         21    1    1    2  503  501  0.11712274960E+02 -0.21056339523E+02  0.17012602791E+03  0.17182378238E+03  0.00000000000E+00 0. -1.
</event>
<event>
 4    1  0.5843276E+002  0.2915616E+02  0.7546771E-02  0.1427074E+00
          2   -1    0    0  502    0  0.00000000000E+00  0.00000000000E+00  0.35160395200E+02  0.35160395200E+02  0.00000000000E+00 0.  1.
         -2   -1    0    0    0  501 -0.00000000000E+00 -0.00000000000E+00 -0.31217206272E+02  0.31217206272E+02  0.00000000000E+00 0. -1.
         21    1    1    2  502  503 -0.20670479369E+02 -0.20562409522E+02  0.17732448732E+02  0.34125080816E+02  0.00000000000E+00 0.  1.
         21    1    1    2  503  501  0.20670479369E+02  0.20562409522E+02 -0.13789259804E+02  0.32252520655E+02  0.00000000000E+00 0. -1.
</event>
<event>
 4    1  0.5843276E+002  0.2864315E+02  0.7546771E-02  0.1431766E+00
          2   -1    0    0  502    0  0.00000000000E+00  0.00000000000E+00  0.29831645854E+03  0.29831645854E+03  0.00000000000E+00 0.  1.
         -2   -1    0    0    0  501 -0.00000000000E+00 -0.00000000000E+00 -0.65176235297E+01  0.65176235297E+01  0.00000000000E+00 0. -1.
         21    1    1    2  502  503  0.20365197811E+02 -0.20141717933E+02  0.26178011026E+03  0.26334246944E+03  0.00000000000E+00 0.  1.
         21    1    1    2  503  501 -0.20365197811E+02  0.20141717933E+02  0.30018724759E+02  0.41491612638E+02  0.00000000000E+00 0. -1.
</event>
<event>
 4    1  0.5843276E+002  0.2259133E+02  0.7546771E-02  0.1497695E+00
          2   -1    0    0  503    0  0.00000000000E+00  0.00000000000E+00  0.15754552305E+03  0.15754552305E+03  0.00000000000E+00 0.  1.
         -2   -1    0    0    0  501 -0.00000000000E+00 -0.00000000000E+00 -0.13855155311E+02  0.13855155311E+02  0.00000000000E+00 0. -1.
         21    1    1    2  502  501  0.90800574089E+01  0.20686242655E+02 -0.31701988760E+01  0.22812677148E+02  0.00000000000E+00 0. -1.
         21    1    1    2  503  502 -0.90800574089E+01 -0.20686242655E+02  0.14686056661E+03  0.14858800121E+03  0.00000000000E+00 0.  1.
</event>
<event>
 4    1  0.5843276E+002  0.2967097E+02  0.7546771E-02  0.1422478E+00
          2   -1    0    0  502    0  0.00000000000E+00  0.00000000000E+00  0.89456517587E+03  0.89456517587E+03  0.00000000000E+00 0. -1.
         -2   -1    0    0    0  501 -0.00000000000E+00 -0.00000000000E+00 -0.11828893834E+01  0.11828893834E+01  0.00000000000E+00 0.  1.
         21    1    1    2  502  503 -0.20590834229E+02 -0.21363142008E+02  0.63028166030E+03  0.63097966497E+03  0.00000000000E+00 0. -1.
         21    1    1    2  503  501  0.20590834229E+02  0.21363142008E+02  0.26310062619E+03  0.26476840029E+03  0.00000000000E+00 0.  1.
</event>
<event>
 4    1  0.5843276E+002  0.2123285E+02  0.7546771E-02  0.1515966E+00
          2   -1    0    0  502    0  0.00000000000E+00  0.00000000000E+00  0.66430676672E+03  0.66430676672E+03  0.00000000000E+00 0.  1.
         -2   -1    0    0    0  501 -0.00000000000E+00 -0.00000000000E+00 -0.11679155759E+01  0.11679155759E+01  0.00000000000E+00 0. -1.
         21    1    1    2  502  503  0.91835982456E+01 -0.19144067792E+02  0.54693029537E+03  0.54734228944E+03  0.00000000000E+00 0.  1.
         21    1    1    2  503  501 -0.91835982456E+01  0.19144067792E+02  0.11620855577E+03  0.11813239286E+03  0.00000000000E+00 0. -1.
</event>
<event>
 4    1  0.5843276E+002  0.5463239E+02  0.7546771E-02  0.1279247E+00
          2   -1    0    0  503    0  0.00000000000E+00  0.00000000000E+00  0.53117466471E+03  0.53117466471E+03  0.00000000000E+00 0.  1.
         -2   -1    0    0    0  501 -0.00000000000E+00 -0.00000000000E+00 -0.86045064878E+01  0.86045064878E+01  0.00000000000E+00 0. -1.
         21    1    1    2  502  501  0.54101546830E+02 -0.75974429498E+01  0.10231027095E+03  0.11598314555E+03  0.00000000000E+00 0. -1.
         21    1    1    2  503  502 -0.54101546830E+02  0.75974429498E+01  0.42025988727E+03  0.42379602565E+03  0.00000000000E+00 0.  1.
</event>
<event>
 4    1  0.5843276E+002  0.2738166E+02  0.7546771E-02  0.1443811E+00
          2   -1    0    0  502    0  0.00000000000E+00  0.00000000000E+00  0.24467974182E+03  0.24467974182E+03  0.00000000000E+00 0.  1.
         -2   -1    0    0    0  501 -0.00000000000E+00 -0.00000000000E+00 -0.35830140688E+01  0.35830140688E+01  0.00000000000E+00 0. -1.
         21    1    1    2  502  503 -0.27180250575E+02  0.33150276701E+01  0.16778184005E+03  0.17000147435E+03  0.00000000000E+00 0.  1.
         21    1    1    2  503  501  0.27180250575E+02 -0.33150276701E+01  0.73314887697E+02  0.78261281537E+02  0.00000000000E+00 0. -1.
</event>
<event>
 4    1  0.5843276E+002  0.3612545E+02  0.7546771E-02  0.1372819E+00
          2   -1    0    0  502    0  0.00000000000E+00  0.00000000000E+00  0.10374212070E+04  0.10374212070E+04  0.00000000000E+00 0.  1.
         -2   -1    0    0    0  501 -0.00000000000E+00 -0.00000000000E+00 -0.13543707701E+01  0.13543707701E+01  0.00000000000E+00 0. -1.
         21    1    1    2  502  503 -0.14418953163E+02 -0.33123129907E+02  0.37946754738E+03  0.38118324657E+03  0.00000000000E+00 0. -1.
         21    1    1    2  503  501  0.14418953163E+02  0.33123129907E+02  0.65659928888E+03  0.65759233124E+03  0.00000000000E+00 0.  1.
</event>
<event>
 4    1  0.5843276E+002  0.3038934E+02  0.7546771E-02  0.1416243E+00
          2   -1    0    0  503    0  0.00000000000E+00  0.00000000000E+00  0.89104791885E+03  0.89104791885E+03  0.00000000000E+00 0. -1.
         -2   -1    0    0    0  501 -0.00000000000E+00 -0.00000000000E+00 -0.28949538669E+01  0.28949538669E+01  0.00000000000E+00 0.  1.
         21    1    1    2  502  501  0.68340977258E+01 -0.29610924524E+02  0.85944891938E+02  0.91159399917E+02  0.00000000000E+00 0.  1.
         21    1    1    2  503  502 -0.68340977258E+01  0.29610924524E+02  0.80220807304E+03  0.80278347280E+03  0.00000000000E+00 0. -1.
</event>
<event>
 4    1  0.5843276E+002  0.9161062E+02  0.7546771E-02  0.1179197E+00
          2   -1    0    0  502    0  0.00000000000E+00  0.00000000000E+00  0.19788477626E+04  0.19788477626E+04  0.00000000000E+00 0. -1.
         -2   -1    0    0    0  501 -0.00000000000E+00 -0.00000000000E+00 -0.44092033154E+01  0.44092033154E+01  0.00000000000E+00 0.  1.
         21    1    1    2  502  503  0.78472574542E+02  0.47271149351E+02  0.11808378910E+04  0.11843861833E+04  0.00000000000E+00 0. -1.
         21    1    1    2  503  501 -0.78472574542E+02 -0.47271149351E+02  0.79360066829E+03  0.79887078255E+03  0.00000000000E+00 0.  1.
</event>
<event>
 4    1  0.5843276E+002  0.3164779E+02  0.7546771E-02  0.1405798E+00
          2   -1    0    0  502    0  0.00000000000E+00  0.00000000000E+00  0.95111665475E+03  0.95111665475E+03  0.00000000000E+00 0.  1.
         -2   -1    0    0    0  501 -0.00000000000E+00 -0.00000000000E+00 -0.10961438519E+01  0.10961438519E+01  0.00000000000E+00 0. -1.
         21    1    1    2  502  503  0.45294060449E+01  0.31321989204E+02  0.56940102053E+03  0.57027984771E+03  0.00000000000E+00 0. -1.
         21    1    1    2  503  501 -0.45294060449E+01 -0.31321989204E+02  0.38061949037E+03  0.38193295089E+03  0.00000000000E+00 0.  1.
</event>
<event>
 4    1  0.5843276E+002  0.2256700E+02  0.7546771E-02  0.1498008E+00
          2   -1    0    0  502    0  0.00000000000E+00  0.00000000000E+00  0.13251779048E+03  0.13251779048E+03  0.00000000000E+00 0. -1.
         -2   -1    0    0    0  501 -0.00000000000E+00 -0.00000000000E+00 -0.17997220711E+02  0.17997220711E+02  0.00000000000E+00 0.  1.
         21    1    1    2  502  503 -0.20264133017E+02  0.99314941649E+01  0.12400081326E+03  0.12603757913E+03  0.00000000000E+00 0. -1.
         21    1    1    2  503  501  0.20264133017E+02 -0.99314941649E+01 -0.94802434978E+01  0.24477432056E+02  0.00000000000E+00 0.  1.
</event>
<event>
 4    1  0.5843276E+002  0.2668363E+02  0.7546771E-02  0.1450812E+00
          2   -1    0    0  503    0  0.00000000000E+00  0.00000000000E+00  0.23259994193E+03  0.23259994193E+03  0.00000000000E+00 0.  1.
         -2   -1    0    0    0  501 -0.00000000000E+00 -0.00000000000E+00 -0.39858197500E+01  0.39858197500E+01  0.00000000000E+00 0. -1.
         21    1    1    2  502  501 -0.83022000127E+01  0.25359206408E+02  0.57329925109E+02  0.63235561101E+02  0.00000000000E+00 0. -1.
         21    1    1    2  503  502  0.83022000127E+01 -0.25359206408E+02  0.17128419707E+03  0.17335020058E+03  0.00000000000E+00 0.  1.
</event>
<event>
 4    1  0.5843276E+002  0.2487293E+02  0.7546771E-02  0.1470230E+00
          2   -1    0    0  503    0  0.00000000000E+00  0.00000000000E+00  0.41025891317E+03  0.41025891317E+03  0.00000000000E+00 0.  1.
         -2   -1    0    0    0  501 -0.00000000000E+00 -0.00000000000E+00 -0.16379685932E+01  0.16379685932E+01  0.00000000000E+00 0. -1.
         21    1    1    2  502  501  0.63131886818E+01  0.24058398305E+02  0.14629341177E+03  0.14839280713E+03  0.00000000000E+00 0. -1.
         21    1    1    2  503  502 -0.63131886818E+01 -0.24058398305E+02  0.26232753281E+03  0.26350407464E+03  0.00000000000E+00 0.  1.
</event>
<event>
 4    1  0.5843276E+002  0.8209300E+02  0.7546771E-02  0.1199070E+00
          2   -1    0    0  503    0  0.00000000000E+00  0.00000000000E+00  0.10247938389E+04  0.10247938389E+04  0.00000000000E+00 0.  1.
         -2   -1    0    0    0  501 -0.00000000000E+00 -0.00000000000E+00 -0.73251735645E+01  0.73251735645E+01  0.00000000000E+00 0. -1.
         21    1    1    2  502  501  0.78652297149E+02 -0.23517574105E+02  0.67374840612E+03  0.67873129800E+03  0.00000000000E+00 0.  1.
         21    1    1    2  503  502 -0.78652297149E+02  0.23517574105E+02  0.34372025927E+03  0.35338771451E+03  0.00000000000E+00 0. -1.
</event>
<event>
 4    1  0.5843276E+002  0.2096167E+02  0.7546771E-02  0.1519813E+00
          2   -1    0    0  502    0  0.00000000000E+00  0.00000000000E+00  0.21888617190E+01  0.21888617190E+01  0.00000000000E+00 0.  1.
         -2   -1    0    0    0  501 -0.00000000000E+00 -0.00000000000E+00 -0.20430625175E+03  0.20430625175E+03  0.00000000000E+00 0. -1.
         21    1    1    2  502  503  0.19388637936E+02  0.79669556159E+01 -0.87417351156E+02  0.89895411151E+02  0.00000000000E+00 0. -1.
         21    1    1    2  503  501 -0.19388637936E+02 -0.79669556159E+01 -0.11470003887E+03  0.11659970232E+03  0.00000000000E+00 0.  1.
</event>
<event>
 4    1  0.5843276E+002  0.2881971E+02  0.7546771E-02  0.1430138E+00
          2   -1    0    0  503    0  0.00000000000E+00  0.00000000000E+00  0.23596628344E+03  0.23596628344E+03  0.00000000000E+00 0.  1.
         -2   -1    0    0    0  501 -0.00000000000E+00 -0.00000000000E+00 -0.19015285749E+02  0.19015285749E+02  0.00000000000E+00 0. -1.
         21    1    1    2  502  501  0.17271572772E+02  0.23070946492E+02 -0.66121389411E+01  0.29568499783E+02  0.00000000000E+00 0. -1.
         21    1    1    2  503  502 -0.17271572772E+02 -0.23070946492E+02  0.22356313663E+03  0.22541306940E+03  0.00000000000E+00 0.  1.
</event>
<event>
 4    1  0.5843276E+002  0.2931870E+02  0.7546771E-02  0.1425611E+00
          2   -1    0    0  502    0  0.00000000000E+00  0.00000000000E+00  0.19816316671E+04  0.19816316671E+04  0.00000000000E+00 0.  1.
         -2   -1    0    0    0  501 -0.00000000000E+00 -0.00000000000E+00 -0.43439780525E+00  0.43439780525E+00  0.00000000000E+00 0. -1.
         21    1    1    2  502  503  0.73442383383E+01 -0.28383940661E+02  0.10280681160E+04  0.10284860899E+04  0.00000000000E+00 0.  1.
         21    1    1    2  503  501 -0.73442383383E+01  0.28383940661E+02  0.95312915325E+03  0.95357997499E+03  0.00000000000E+00 0. -1.
</event>
<event>
 4    1  0.5843276E+002  0.2184505E+02  0.7546771E-02  0.1507533E+00
          2   -1    0    0  503    0  0.00000000000E+00  0.00000000000E+00  0.10491733560E+04  0.10491733560E+04  0.00000000000E+00 0.  1.
         -2   -1    0    0    0  501 -0.00000000000E+00 -0.00000000000E+00 -0.57499202807E+00  0.57499202807E+00  0.00000000000E+00 0. -1.
         21    1    1    2  502  501 -0.21349899718E+02  0.46246944791E+01  0.28436626609E+03  0.28520410114E+03  0.00000000000E+00 0. -1.
         21    1    1    2  503  502  0.21349899718E+02 -0.46246944791E+01  0.76423209785E+03  0.76454424686E+03  0.00000000000E+00 0.  1.
</event>
<event>
 4    1  0.5843276E+002  0.2251911E+02  0.7546771E-02  0.1498627E+00
          2   -1    0    0  502    0  0.00000000000E+00  0.00000000000E+00  0.30888577586E+02  0.30888577586E+02  0.00000000000E+00 0. -1.
         -2   -1    0    0    0  501 -0.00000000000E+00 -0.00000000000E+00 -0.35192515478E+02  0.35192515478E+02  0.00000000000E+00 0.  1.
         21    1    1    2  502  503  0.21888191271E+02  0.52931438187E+01  0.21981142461E+02  0.31468729121E+02  0.00000000000E+00 0. -1.
         21    1    1    2  503  501 -0.21888191271E+02 -0.52931438187E+01 -0.26285080352E+02  0.34612363943E+02  0.00000000000E+00 0.  1.
</event>
<event>
 4    1  0.5843276E+002  0.2001305E+02  0.7546771E-02  0.1533836E+00
          2   -1    0    0  503    0  0.00000000000E+00  0.00000000000E+00  0.75553951813E+02  0.75553951813E+02  0.00000000000E+00 0. -1.
         -2   -1    0    0    0  501 -0.00000000000E+00 -0.00000000000E+00 -0.97833379221E+01  0.97833379221E+01  0.00000000000E+00 0.  1.
         21    1    1    2  502  501  0.10236792577E+02 -0.17196803773E+02  0.40043952950E+01  0.20409732089E+02  0.00000000000E+00 0.  1.
         21    1    1    2  503  502 -0.10236792577E+02  0.17196803773E+02  0.61766218596E+02  0.64927557647E+02  0.00000000000E+00 0. -1.
</event>
<event>
 4    1  0.5843276E+002  0.4101833E+02  0.7546771E-02  0.1342620E+00
          2   -1    0    0  502    0  0.00000000000E+00  0.00000000000E+00  0.49145109906E+03  0.49145109906E+03  0.00000000000E+00 0.  1.
         -2   -1    0    0    0  501 -0.00000000000E+00 -0.00000000000E+00 -0.66786394752E+01  0.66786394752E+01  0.00000000000E+00 0. -1.
         21    1    1    2  502  503  0.27845763351E+02 -0.30118385396E+02  0.41626655618E+03  0.41828261914E+03  0.00000000000E+00 0.  1.
         21    1    1    2  503  501 -0.27845763351E+02  0.30118385396E+02  0.68505903408E+02  0.79847119405E+02  0.00000000000E+00 0. -1.
</event>
<event>
 4    1  0.5843276E+002  0.3754023E+02  0.7546771E-02  0.1363536E+00
          2   -1    0    0  503    0  0.00000000000E+00  0.00000000000E+00  0.73110634618E+02  0.73110634618E+02  0.00000000000E+00 0.  1.
         -2   -1    0    0    0  501 -0.00000000000E+00 -0.00000000000E+00 -0.83509231692E+02  0.83509231692E+02  0.00000000000E+00 0. -1.
         21    1    1    2  502  501  0.25625130815E+02  0.27433948774E+02 -0.73879259150E+02  0.82869860668E+02  0.00000000000E+00 0. -1.
         21    1    1    2  503  502 -0.25625130815E+02 -0.27433948774E+02  0.63480662076E+02  0.73750005642E+02  0.00000000000E+00 0.  1.
</event>
<event>
 4    1  0.5843276E+002  0.2792330E+02  0.7546771E-02  0.1438547E+00
          2   -1    0    0  502    0  0.00000000000E+00  0.00000000000E+00  0.16442086845E+03  0.16442086845E+03  0.00000000000E+00 0.  1.
         -2   -1    0    0    0  501 -0.00000000000E+00 -0.00000000000E+00 -0.24396769930E+02  0.24396769930E+02  0.00000000000E+00 0. -1.
         21    1    1    2  502  503 -0.27812840620E+02 -0.24812714548E+01  0.15475011860E+03  0.15724919720E+03  0.00000000000E+00 0.  1.
         21    1    1    2  503  501  0.27812840620E+02  0.24812714548E+01 -0.14726020081E+02  0.31568441185E+02  0.00000000000E+00 0. -1.
</event>
<event>
 4    1  0.5843276E+002  0.2773899E+02  0.7546771E-02  0.1440323E+00
          2   -1    0    0  502    0  0.00000000000E+00  0.00000000000E+00  0.36034847876E+03  0.36034847876E+03  0.00000000000E+00 0. -1.
         -2   -1    0    0    0  501 -0.00000000000E+00 -0.00000000000E+00 -0.29267668221E+01  0.29267668221E+01  0.00000000000E+00 0.  1.
         21    1    1    2  502  503 -0.25757624371E+02  0.10295446769E+02  0.27316665244E+03  0.27457143232E+03  0.00000000000E+00 0. -1.
         21    1    1    2  503  501  0.25757624371E+02 -0.10295446769E+02  0.84255059498E+02  0.88703813269E+02  0.00000000000E+00 0.  1.
</event>
<event>
 4    1  0.5843276E+002  0.2231755E+02  0.7546771E-02  0.1501250E+00
          2   -1    0    0  502    0  0.00000000000E+00  0.00000000000E+00  0.88951633268E+02  0.88951633268E+02  0.00000000000E+00 0.  1.
         -2   -1    0    0    0  501 -0.00000000000E+00 -0.00000000000E+00 -0.56490736767E+01  0.56490736767E+01  0.00000000000E+00 0. -1.
         21    1    1    2  502  503  0.21494835800E+02 -0.60037680619E+01  0.46088036280E+02  0.51207228837E+02  0.00000000000E+00 0. -1.
         21    1    1    2  503  501 -0.21494835800E+02  0.60037680619E+01  0.37214523312E+02  0.43393478108E+02  0.00000000000E+00 0.  1.
</event>
<event>
 4    1  0.5843276E+002  0.2161989E+02  0.7546771E-02  0.1510596E+00
          2   -1    0    0  503    0  0.00000000000E+00  0.00000000000E+00  0.77105962018E+02  0.77105962018E+02  0.00000000000E+00 0.  1.
         -2   -1    0    0    0  501 -0.00000000000E+00 -0.00000000000E+00 -0.14146906516E+03  0.14146906516E+03  0.00000000000E+00 0. -1.
         21    1    1    2  502  501  0.99720267807E+01  0.19182762546E+02 -0.13910190764E+03  0.14077201571E+03  0.00000000000E+00 0. -1.
         21    1    1    2  503  502 -0.99720267807E+01 -0.19182762546E+02  0.74738804496E+02  0.77803011474E+02  0.00000000000E+00 0.  1.
</event>
<event>
 4    1  0.5843276E+002  0.2159991E+02  0.7546771E-02  0.1510869E+00
          2   -1    0    0  502    0  0.00000000000E+00  0.00000000000E+00  0.20575818417E+03  0.20575818417E+03  0.00000000000E+00 0.  1.
         -2   -1    0    0    0  501 -0.00000000000E+00 -0.00000000000E+00 -0.30507248080E+01  0.30507248080E+01  0.00000000000E+00 0. -1.
         21    1    1    2  502  503  0.32589353267E+01 -0.21352649559E+02  0.15425440803E+03  0.15575936152E+03  0.00000000000E+00 0.  1.
         21    1    1    2  503  501 -0.32589353267E+01  0.21352649559E+02  0.48453051326E+02  0.53049547457E+02  0.00000000000E+00 0. -1.
</event>
<event>
 4    1  0.5843276E+002  0.2112196E+02  0.7546771E-02  0.1517531E+00
          2   -1    0    0  502    0  0.00000000000E+00  0.00000000000E+00  0.71305388526E+03  0.71305388526E+03  0.00000000000E+00 0.  1.
         -2   -1    0    0    0  501 -0.00000000000E+00 -0.00000000000E+00 -0.64454372242E+00  0.64454372242E+00  0.00000000000E+00 0. -1.
         21    1    1    2  502  503  0.32904653734E+00  0.21119400580E+02  0.41726685848E+03  0.41780111123E+03  0.00000000000E+00 0.  1.
         21    1    1    2  503  501 -0.32904653734E+00 -0.21119400580E+02  0.29514248305E+03  0.29589731775E+03  0.00000000000E+00 0. -1.
</event>
<event>
 4    1  0.5843276E+002  0.2353384E+02  0.7546771E-02  0.1485901E+00
          2   -1    0    0  503    0  0.00000000000E+00  0.00000000000E+00  0.31775798860E+03  0.31775798860E+03  0.00000000000E+00 0. -1.
         -2   -1    0    0    0  501 -0.00000000000E+00 -0.00000000000E+00 -0.11058476587E+02  0.11058476587E+02  0.00000000000E+00 0.  1.
         21    1    1    2  502  501 -0.18736605796E+02  0.14240122164E+02  0.24532327887E+01  0.23661357254E+02  0.00000000000E+00 0.  1.
         21    1    1    2  503  502  0.18736605796E+02 -0.14240122164E+02  0.30424627923E+03  0.30515510794E+03  0.00000000000E+00 0. -1.
</event>
<event>
 4    1  0.5843276E+002  0.2133727E+02  0.7546771E-02  0.1514504E+00
          2   -1    0    0  502    0  0.00000000000E+00  0.00000000000E+00  0.11576078502E+04  0.11576078502E+04  0.00000000000E+00 0.  1.
         -2   -1    0    0    0  501 -0.00000000000E+00 -0.00000000000E+00 -0.14877779266E+01  0.14877779266E+01  0.00000000000E+00 0. -1.
         21    1    1    2  502  503 -0.11123412128E+01 -0.21308254482E+02  0.10751386950E+04  0.10753504045E+04  0.00000000000E+00 0.  1.
         21    1    1    2  503  501  0.11123412128E+01  0.21308254482E+02  0.80981377270E+02  0.83745223604E+02  0.00000000000E+00 0. -1.
</event>
<event>
 4    1  0.5843276E+002  0.6189963E+02  0.7546771E-02  0.1253511E+00
          2   -1    0    0  503    0  0.00000000000E+00  0.00000000000E+00  0.13489593843E+04  0.13489593843E+04  0.00000000000E+00 0.  1.
         -2   -1    0    0    0  501 -0.00000000000E+00 -0.00000000000E+00 -0.16712587704E+02  0.16712587704E+02  0.00000000000E+00 0. -1.
         21    1    1    2  502  501 -0.59779101175E+02  0.16063111885E+02  0.44013289517E+02  0.75952183345E+02  0.00000000000E+00 0. -1.
         21    1    1    2  503  502  0.59779101175E+02 -0.16063111885E+02  0.12882335070E+04  0.12897197886E+04  0.00000000000E+00 0.  1.
</event>
<event>
 4    1  0.5843276E+002  0.3748451E+02  0.7546771E-02  0.1363892E+00
          2   -1    0    0  503    0  0.00000000000E+00  0.00000000000E+00  0.20782853393E+02  0.20782853393E+02  0.00000000000E+00 0.  1.
         -2   -1    0    0    0  501 -0.00000000000E+00 -0.00000000000E+00 -0.75581688776E+02  0.75581688776E+02  0.00000000000E+00 0. -1.
         21    1    1    2  502  501  0.11880307293E+02  0.35552033004E+02 -0.43049135643E+02  0.57081668088E+02  0.00000000000E+00 0. -1.
         21    1    1    2  503  502 -0.11880307293E+02 -0.35552033004E+02 -0.11749699741E+02  0.39282874081E+02  0.00000000000E+00 0.  1.
</event>
<event>
 4    1  0.5843276E+002  0.3078413E+02  0.7546771E-02  0.1412902E+00
          2   -1    0    0  502    0  0.00000000000E+00  0.00000000000E+00  0.19472050964E+04  0.19472050964E+04  0.00000000000E+00 0.  1.
         -2   -1    0    0    0  501 -0.00000000000E+00 -0.00000000000E+00 -0.52295184829E+00  0.52295184829E+00  0.00000000000E+00 0. -1.
         21    1    1    2  502  503  0.11583891753E+02 -0.28521507275E+02  0.12298255458E+04  0.12302107689E+04  0.00000000000E+00 0.  1.
         21    1    1    2  503  501 -0.11583891753E+02  0.28521507275E+02  0.71685659880E+03  0.71751727936E+03  0.00000000000E+00 0. -1.
</event>
<event>
 4    1  0.5843276E+002  0.2000702E+02  0.7546771E-02  0.1533928E+00
          2   -1    0    0  503    0  0.00000000000E+00  0.00000000000E+00  0.11076993646E+02  0.11076993646E+02  0.00000000000E+00 0. -1.
         -2   -1    0    0    0  501 -0.00000000000E+00 -0.00000000000E+00 -0.80682962897E+02  0.80682962897E+02  0.00000000000E+00 0.  1.
         21    1    1    2  502  501  0.60801148088E+01 -0.19060775833E+02 -0.68894015466E+02  0.71740269992E+02  0.00000000000E+00 0.  1.
         21    1    1    2  503  502 -0.60801148088E+01  0.19060775833E+02 -0.71195378467E+00  0.20019686552E+02  0.00000000000E+00 0. -1.
</event>
<event>
 4    1  0.5843276E+002  0.2068779E+02  0.7546771E-02  0.1523769E+00
          2   -1    0    0  502    0  0.00000000000E+00  0.00000000000E+00  0.53834340434E+00  0.53834340434E+00  0.00000000000E+00 0.  1.
         -2   -1    0    0    0  501 -0.00000000000E+00 -0.00000000000E+00 -0.93586879392E+03  0.93586879392E+03  0.00000000000E+00 0. -1.
         21    1    1    2  502  503  0.96992433789E+01  0.18273191495E+02 -0.28601775368E+03  0.28676495649E+03  0.00000000000E+00 0.  1.
         21    1    1    2  503  501 -0.96992433789E+01 -0.18273191495E+02 -0.64931269684E+03  0.64964218084E+03  0.00000000000E+00 0. -1.
</event>
<event>
 4    1  0.5843276E+002  0.3024541E+02  0.7546771E-02  0.1417476E+00
          2   -1    0    0  503    0  0.00000000000E+00  0.00000000000E+00  0.59024257330E+02  0.59024257330E+02  0.00000000000E+00 0.  1.
         -2   -1    0    0    0  501 -0.00000000000E+00 -0.00000000000E+00 -0.17489650418E+02  0.17489650418E+02  0.00000000000E+00 0. -1.
         21    1    1    2  502  501 -0.18458056204E+02  0.23960068994E+02  0.33675835570E+02  0.45264187238E+02  0.00000000000E+00 0.  1.
         21    1    1    2  503  502  0.18458056204E+02 -0.23960068994E+02  0.78587713423E+01  0.31249720511E+02  0.00000000000E+00 0. -1.
</event>
<event>
 4    1  0.5843276E+002  0.2791824E+02  0.7546771E-02  0.1438596E+00
          2   -1    0    0  503    0  0.00000000000E+00  0.00000000000E+00  0.80171867092E+02  0.80171867092E+02  0.00000000000E+00 0. -1.
         -2   -1    0    0    0  501 -0.00000000000E+00 -0.00000000000E+00 -0.20641721862E+02  0.20641721862E+02  0.00000000000E+00 0.  1.
         21    1    1    2  502  501  0.16588911875E+02  0.22455200182E+02 -0.68974734576E+01  0.28757662501E+02  0.00000000000E+00 0.  1.
         21    1    1    2  503  502 -0.16588911875E+02 -0.22455200182E+02  0.66427618688E+02  0.72055926453E+02  0.00000000000E+00 0. -1.
</event>
<event>
 4    1  0.5843276E+002  0.2934387E+02  0.7546771E-02  0.1425385E+00
          2   -1    0    0  502    0  0.00000000000E+00  0.00000000000E+00  0.89917173091E+03  0.89917173091E+03  0.00000000000E+00 0. -1.
         -2   -1    0    0    0  501 -0.00000000000E+00 -0.00000000000E+00 -0.15564576436E+01  0.15564576436E+01  0.00000000000E+00 0.  1.
         21    1    1    2  502  503  0.23087162063E+02 -0.18112027886E+02  0.72815884206E+03  0.72874986235E+03  0.00000000000E+00 0. -1.
         21    1    1    2  503  501 -0.23087162063E+02  0.18112027886E+02  0.16945643121E+03  0.17197832620E+03  0.00000000000E+00 0.  1.
</event>
<event>
 4    1  0.5843276E+002  0.3277936E+02  0.7546771E-02  0.1396885E+00
          2   -1    0    0  503    0  0.00000000000E+00  0.00000000000E+00  0.43443783782E+03  0.43443783782E+03  0.00000000000E+00 0. -1.
         -2   -1    0    0    0  501 -0.00000000000E+00 -0.00000000000E+00 -0.68256620920E+01  0.68256620920E+01  0.00000000000E+00 0.  1.
         21    1    1    2  502  501  0.12948977763E+02  0.30113290000E+02  0.37625058682E+02  0.49901215422E+02  0.00000000000E+00 0.  1.
         21    1    1    2  503  502 -0.12948977763E+02 -0.30113290000E+02  0.38998711704E+03  0.39136228449E+03  0.00000000000E+00 0. -1.
</event>
<event>
 4    1  0.5843276E+002  0.2728902E+02  0.7546771E-02  0.1444726E+00
          2   -1    0    0  503    0  0.00000000000E+00  0.00000000000E+00  0.99846418701E+01  0.99846418701E+01  0.00000000000E+00 0. -1.
         -2   -1    0    0    0  501 -0.00000000000E+00 -0.00000000000E+00 -0.77203586333E+02  0.77203586333E+02  0.00000000000E+00 0.  1.
         21    1    1    2  502  501  0.20731215857E+02 -0.17745625912E+02 -0.25578677763E+02  0.37402664424E+02  0.00000000000E+00 0.  1.
         21    1    1    2  503  502 -0.20731215857E+02  0.17745625912E+02 -0.41640266700E+02  0.49785563779E+02  0.00000000000E+00 0. -1.
</event>
<event>
 4    1  0.5843276E+002  0.2326385E+02  0.7546771E-02  0.1489211E+00
          2   -1    0    0  502    0  0.00000000000E+00  0.00000000000E+00  0.61204451702E+03  0.61204451702E+03  0.00000000000E+00 0.  1.
         -2   -1    0    0    0  501 -0.00000000000E+00 -0.00000000000E+00 -0.12206382117E+01  0.12206382117E+01  0.00000000000E+00 0. -1.
         21    1    1    2  502  503 -0.18884860302E+02 -0.13585607870E+02  0.46637956037E+03  0.46695942117E+03  0.00000000000E+00 0.  1.
         21    1    1    2  503  501  0.18884860302E+02  0.13585607870E+02  0.14444431844E+03  0.14630573406E+03  0.00000000000E+00 0. -1.
</event>
<event>
 4    1  0.5843276E+002  0.2066493E+02  0.7546771E-02  0.1524103E+00
          2   -1    0    0  502    0  0.00000000000E+00  0.00000000000E+00  0.11216163065E+04  0.11216163065E+04  0.00000000000E+00 0. -1.
         -2   -1    0    0    0  501 -0.00000000000E+00 -0.00000000000E+00 -0.92285475356E+00  0.92285475356E+00  0.00000000000E+00 0.  1.
         21    1    1    2  502  503  0.20608813158E+02  0.15218493165E+01  0.99052871456E+03  0.99074425235E+03  0.00000000000E+00 0. -1.
         21    1    1    2  503  501 -0.20608813158E+02 -0.15218493165E+01  0.13016473723E+03  0.13179490894E+03  0.00000000000E+00 0.  1.
</event>
<event>
 4    1  0.5843276E+002  0.2174322E+02  0.7546771E-02  0.1508913E+00
          2   -1    0    0  503    0  0.00000000000E+00  0.00000000000E+00  0.42463701046E+03  0.42463701046E+03  0.00000000000E+00 0.  1.
         -2   -1    0    0    0  501 -0.00000000000E+00 -0.00000000000E+00 -0.13135194365E+01  0.13135194365E+01  0.00000000000E+00 0. -1.
         21    1    1    2  502  501 -0.17137927121E+02 -0.13381299221E+02  0.12852085833E+03  0.13034714704E+03  0.00000000000E+00 0. -1.
         21    1    1    2  503  502  0.17137927121E+02  0.13381299221E+02  0.29480263269E+03  0.29560338286E+03  0.00000000000E+00 0.  1.
</event>
<event>
 4    1  0.5843276E+002  0.2399061E+02  0.7546771E-02  0.1480420E+00
          2   -1    0    0  502    0  0.00000000000E+00  0.00000000000E+00  0.99138928543E+03  0.99138928543E+03  0.00000000000E+00 0.  1.
         -2   -1    0    0    0  501 -0.00000000000E+00 -0.00000000000E+00 -0.13798466234E+01  0.13798466234E+01  0.00000000000E+00 0. -1.
         21    1    1    2  502  503 -0.16487384799E+02 -0.17427431603E+02  0.87280071460E+03  0.87313036634E+03  0.00000000000E+00 0.  1.
         21    1    1    2  503  501  0.16487384799E+02  0.17427431603E+02  0.11720872421E+03  0.11963876571E+03  0.00000000000E+00 0. -1.
</event>
<event>
 4    1  0.5843276E+002  0.2867914E+02  0.7546771E-02  0.1431433E+00
          2   -1    0    0  503    0  0.00000000000E+00  0.00000000000E+00  0.12469988860E+03  0.12469988860E+03  0.00000000000E+00 0. -1.
         -2   -1    0    0    0  501 -0.00000000000E+00 -0.00000000000E+00 -0.13826900343E+02  0.13826900343E+02  0.00000000000E+00 0.  1.
         21    1    1    2  502  501 -0.16313858298E+02 -0.23587098502E+02  0.53472921937E+01  0.29173390651E+02  0.00000000000E+00 0.  1.
         21    1    1    2  503  502  0.16313858298E+02  0.23587098502E+02  0.10552569606E+03  0.10935339829E+03  0.00000000000E+00 0. -1.
</event>
<event>
 4    1  0.5843276E+002  0.2237792E+02  0.7546771E-02  0.1500461E+00
          2   -1    0    0  503    0  0.00000000000E+00  0.00000000000E+00  0.12994306366E+01  0.12994306366E+01  0.00000000000E+00 0.  1.
         -2   -1    0    0    0  501 -0.00000000000E+00 -0.00000000000E+00 -0.82917445429E+03  0.82917445429E+03  0.00000000000E+00 0. -1.
         21    1    1    2  502  501  0.20974049139E+02 -0.78013305218E+01 -0.71772167131E+03  0.71807044847E+03  0.00000000000E+00 0. -1.
         21    1    1    2  503  502 -0.20974049139E+02  0.78013305218E+01 -0.11015335234E+03  0.11240343646E+03  0.00000000000E+00 0.  1.
</event>
<event>
 4    1  0.5843276E+002  0.3343046E+02  0.7546771E-02  0.1391946E+00
          2   -1    0    0  503    0  0.00000000000E+00  0.00000000000E+00  0.90109842967E+03  0.90109842967E+03  0.00000000000E+00 0.  1.
         -2   -1    0    0    0  501 -0.00000000000E+00 -0.00000000000E+00 -0.39610126869E+01  0.39610126869E+01  0.00000000000E+00 0. -1.
         21    1    1    2  502  501  0.16142588282E+02  0.29274770115E+02  0.73519187861E+02  0.80763025609E+02  0.00000000000E+00 0. -1.
         21    1    1    2  503  502 -0.16142588282E+02 -0.29274770115E+02  0.82361822912E+03  0.82429641674E+03  0.00000000000E+00 0.  1.
</event>
<event>
 4    1  0.5843276E+002  0.5711303E+02  0.7546771E-02  0.1269970E+00
          2   -1    0    0  503    0  0.00000000000E+00  0.00000000000E+00  0.28433888674E+04  0.28433888674E+04  0.00000000000E+00 0.  1.
         -2   -1    0    0    0  501 -0.00000000000E+00 -0.00000000000E+00 -0.39493553654E+01  0.39493553654E+01  0.00000000000E+00 0. -1.
         21    1    1    2  502  501  0.40845923508E+02  0.39918778548E+02  0.22051572570E+03  0.22779175496E+03  0.00000000000E+00 0. -1.
         21    1    1    2  503  502 -0.40845923508E+02 -0.39918778548E+02  0.26189237864E+04  0.26195464678E+04  0.00000000000E+00 0.  1.
</event>
<event>
 4    1  0.5843276E+002  0.2741848E+02  0.7546771E-02  0.1443449E+00
          2   -1    0    0  503    0  0.00000000000E+00  0.00000000000E+00  0.48761948768E+01  0.48761948768E+01  0.00000000000E+00 0.  1.
         -2   -1    0    0    0  501 -0.00000000000E+00 -0.00000000000E+00 -0.16793160127E+03  0.16793160127E+03  0.00000000000E+00 0. -1.
         21    1    1    2  502  501  0.20437504610E+02 -0.18277889099E+02 -0.10626029879E+03  0.10974071224E+03  0.00000000000E+00 0. -1.
         21    1    1    2  503  502 -0.20437504610E+02  0.18277889099E+02 -0.56795107611E+02  0.63067083912E+02  0.00000000000E+00 0.  1.
</event>
<event>
 4    1  0.5843276E+002  0.5267863E+02  0.7546771E-02  0.1286959E+00
          2   -1    0    0  503    0  0.00000000000E+00  0.00000000000E+00  0.13827739747E+03  0.13827739747E+03  0.00000000000E+00 0.  1.
         -2   -1    0    0    0  501 -0.00000000000E+00 -0.00000000000E+00 -0.21605330152E+02  0.21605330152E+02  0.00000000000E+00 0. -1.
         21    1    1    2  502  501  0.52567269286E+02 -0.34234447355E+01  0.79655966049E+02  0.95499270685E+02  0.00000000000E+00 0.  1.
         21    1    1    2  503  502 -0.52567269286E+02  0.34234447355E+01  0.37016101271E+02  0.64383456938E+02  0.00000000000E+00 0. -1.
</event>
<event>
 4    1  0.5843276E+002  0.2346900E+02  0.7546771E-02  0.1486691E+00
          2   -1    0    0  502    0  0.00000000000E+00  0.00000000000E+00  0.75544241845E+02  0.75544241845E+02  0.00000000000E+00 0. -1.
         -2   -1    0    0    0  501 -0.00000000000E+00 -0.00000000000E+00 -0.10178195324E+02  0.10178195324E+02  0.00000000000E+00 0.  1.
         21    1    1    2  502  503  0.15505451621E+02 -0.17617463701E+02  0.55510936909E+02  0.60268218604E+02  0.00000000000E+00 0. -1.
         21    1    1    2  503  501 -0.15505451621E+02  0.17617463701E+02  0.98551096130E+01  0.25454218564E+02  0.00000000000E+00 0.  1.
</event>
<event>
 4    1  0.5843276E+002  0.2519514E+02  0.7546771E-02  0.1466632E+00
          2   -1    0    0  503    0  0.00000000000E+00  0.00000000000E+00  0.11761204478E+03  0.11761204478E+03  0.00000000000E+00 0.  1.
         -2   -1    0    0    0  501 -0.00000000000E+00 -0.00000000000E+00 -0.54236872246E+01  0.54236872246E+01  0.00000000000E+00 0. -1.
         21    1    1    2  502  501  0.17853492861E+02 -0.17777740784E+02  0.60379717027E+02  0.65425572240E+02  0.00000000000E+00 0.  1.
         21    1    1    2  503  502 -0.17853492861E+02  0.17777740784E+02  0.51808640531E+02  0.57610159767E+02  0.00000000000E+00 0. -1.
</event>
<event>
 4    1  0.5843276E+002  0.4649940E+02  0.7546771E-02  0.1314108E+00
          2   -1    0    0  502    0  0.00000000000E+00  0.00000000000E+00  0.69333887752E+02  0.69333887752E+02  0.00000000000E+00 0.  1.
         -2   -1    0    0    0  501 -0.00000000000E+00 -0.00000000000E+00 -0.87686609678E+03  0.87686609678E+03  0.00000000000E+00 0. -1.
         21    1    1    2  502  503 -0.42923272838E+02  0.17882581535E+02  0.60844962991E+02  0.76578741141E+02  0.00000000000E+00 0.  1.
         21    1    1    2  503  501  0.42923272838E+02 -0.17882581535E+02 -0.86837717202E+03  0.86962124339E+03  0.00000000000E+00 0. -1.
</event>
<event>
 4    1  0.5843276E+002  0.3090290E+02  0.7546771E-02  0.1411909E+00
          2   -1    0    0  502    0  0.00000000000E+00  0.00000000000E+00  0.18014215149E+02  0.18014215149E+02  0.00000000000E+00 0.  1.
         -2   -1    0    0    0  501 -0.00000000000E+00 -0.00000000000E+00 -0.58728129151E+02  0.58728129151E+02  0.00000000000E+00 0. -1.
         21    1    1    2  502  503 -0.10586408334E+02  0.29033035003E+02 -0.83870249510E+01  0.32020795594E+02  0.00000000000E+00 0.  1.
         21    1    1    2  503  501  0.10586408334E+02 -0.29033035003E+02 -0.32326889051E+02  0.44721548706E+02  0.00000000000E+00 0. -1.
</event>
<event>
 4    1  0.5843276E+002  0.2145638E+02  0.7546771E-02  0.1512848E+00
          2   -1    0    0  502    0  0.00000000000E+00  0.00000000000E+00  0.16101817887E+04  0.16101817887E+04  0.00000000000E+00 0.  1.
         -2   -1    0    0    0  501 -0.00000000000E+00 -0.00000000000E+00 -0.45781068387E+00  0.45781068387E+00  0.00000000000E+00 0. -1.
         21    1    1    2  502  503  0.20891538408E+02 -0.48907758650E+01  0.12983279084E+04  0.12985051921E+04  0.00000000000E+00 0.  1.
         21    1    1    2  503  501 -0.20891538408E+02  0.48907758650E+01  0.31139606959E+03  0.31213440730E+03  0.00000000000E+00 0. -1.
</event>
<event>
 4    1  0.5843276E+002  0.2020413E+02  0.7546771E-02  0.1530938E+00
          2   -1    0    0  502    0  0.00000000000E+00  0.00000000000E+00  0.35104503980E+02  0.35104503980E+02  0.00000000000E+00 0.  1.
         -2   -1    0    0    0  501 -0.00000000000E+00 -0.00000000000E+00 -0.11988060561E+02  0.11988060561E+02  0.00000000000E+00 0. -1.
         21    1    1    2  502  503  0.13601603714E+02  0.14939991853E+02  0.74794189152E+01  0.21544110273E+02  0.00000000000E+00 0.  1.
         21    1    1    2  503  501 -0.13601603714E+02 -0.14939991853E+02  0.15637024503E+02  0.25548454268E+02  0.00000000000E+00 0. -1.
</event>
<event>
 4    1  0.5843276E+002  0.2792167E+02  0.7546771E-02  0.1438563E+00
          2   -1    0    0  502    0  0.00000000000E+00  0.00000000000E+00  0.42142113170E+03  0.42142113170E+03  0.00000000000E+00 0.  1.
         -2   -1    0    0    0  501 -0.00000000000E+00 -0.00000000000E+00 -0.23081525308E+01  0.23081525308E+01  0.00000000000E+00 0. -1.
         21    1    1    2  502  503  0.26167660651E+02  0.97402847042E+01  0.30394995748E+03  0.30522974341E+03  0.00000000000E+00 0.  1.
         21    1    1    2  503  501 -0.26167660651E+02 -0.97402847042E+01  0.11516302168E+03  0.11849954081E+03  0.00000000000E+00 0. -1.
</event>
<event>
 4    1  0.5843276E+002  0.2927064E+02  0.7546771E-02  0.1426042E+00
          2   -1    0    0  502    0  0.00000000000E+00  0.00000000000E+00  0.11209961002E+04  0.11209961002E+04  0.00000000000E+00 0.  1.
         -2   -1    0    0    0  501 -0.00000000000E+00 -0.00000000000E+00 -0.23572370627E+01  0.23572370627E+01  0.00000000000E+00 0. -1.
         21    1    1    2  502  503  0.28786594259E+02  0.53011627273E+01  0.10210460493E+04  0.10214655183E+04  0.00000000000E+00 0.  1.
         21    1    1    2  503  501 -0.28786594259E+02 -0.53011627273E+01  0.97592813844E+02  0.10188781894E+03  0.00000000000E+00 0. -1.
</event>
<event>
 4    1  0.5843276E+002  0.2597690E+02  0.7546771E-02  0.1458165E+00
          2   -1    0    0  502    0  0.00000000000E+00  0.00000000000E+00  0.13120541343E+01  0.13120541343E+01  0.00000000000E+00 0.  1.
         -2   -1    0    0    0  501 -0.00000000000E+00 -0.00000000000E+00 -0.79584909662E+03  0.79584909662E+03  0.00000000000E+00 0. -1.
         21    1    1    2  502  503  0.19231689595E+02 -0.17462571439E+02 -0.16020100588E+03  0.16229344279E+03  0.00000000000E+00 0.  1.
         21    1    1    2  503  501 -0.19231689595E+02  0.17462571439E+02 -0.63433603660E+03  0.63486770797E+03  0.00000000000E+00 0. -1.
</event>
<event>
 4    1  0.5843276E+002  0.4109280E+02  0.7546771E-02  0.1342198E+00
          2   -1    0    0  502    0  0.00000000000E+00  0.00000000000E+00  0.85688662620E+02  0.85688662620E+02  0.00000000000E+00 0. -1.
         -2   -1    0    0    0  501 -0.00000000000E+00 -0.00000000000E+00 -0.58752407838E+02  0.58752407838E+02  0.00000000000E+00 0.  1.
         21    1    1    2  502  503 -0.35269625503E+01  0.40941161086E+02  0.72343814244E+02  0.83200033626E+02  0.00000000000E+00 0. -1.
         21    1    1    2  503  501  0.35269625503E+01 -0.40941161086E+02 -0.45407559462E+02  0.61241036832E+02  0.00000000000E+00 0.  1.
</event>
<event>
 4    1  0.5843276E+002  0.2432571E+02  0.7546771E-02  0.1476490E+00
          2   -1    0    0  503    0  0.00000000000E+00  0.00000000000E+00  0.16810006533E+04  0.16810006533E+04  0.00000000000E+00 0.  1.
         -2   -1    0    0    0  501 -0.00000000000E+00 -0.00000000000E+00 -0.73737543539E+00  0.73737543539E+00  0.00000000000E+00 0. -1.
         21    1    1    2  502  501 -0.12333782439E+02  0.20967073711E+02  0.23225339785E+03  0.23352383430E+03  0.00000000000E+00 0. -1.
         21    1    1    2  503  502  0.12333782439E+02 -0.20967073711E+02  0.14480098800E+04  0.14482141944E+04  0.00000000000E+00 0.  1.
</event>
<event>
 4    1  0.5843276E+002  0.2596206E+02  0.7546771E-02  0.1458322E+00
          2   -1    0    0  502    0  0.00000000000E+00  0.00000000000E+00  0.10963441721E+03  0.10963441721E+03  0.00000000000E+00 0.  1.
         -2   -1    0    0    0  501 -0.00000000000E+00 -0.00000000000E+00 -0.71027540404E+01  0.71027540404E+01  0.00000000000E+00 0. -1.
         21    1    1    2  502  503  0.24256092515E+02  0.92558497951E+01  0.72666091031E+02  0.77164691183E+02  0.00000000000E+00 0.  1.
         21    1    1    2  503  501 -0.24256092515E+02 -0.92558497951E+01  0.29865572137E+02  0.39572480066E+02  0.00000000000E+00 0. -1.
</event>
<event>
 4    1  0.5843276E+002  0.5254554E+02  0.7546771E-02  0.1287498E+00
          2   -1    0    0  502    0  0.00000000000E+00  0.00000000000E+00  0.20883074984E+04  0.20883074984E+04  0.00000000000E+00 0. -1.
         -2   -1    0    0    0  501 -0.00000000000E+00 -0.00000000000E+00 -0.19868054193E+01  0.19868054193E+01  0.00000000000E+00 0.  1.
         21    1    1    2  502  503 -0.46505193675E+02  0.24460186594E+02  0.16476675620E+04  0.16485052104E+04  0.00000000000E+00 0. -1.
         21    1    1    2  503  501  0.46505193675E+02 -0.24460186594E+02  0.43865313095E+03  0.44178909341E+03  0.00000000000E+00 0.  1.
</event>
<event>
 4    1  0.5843276E+002  0.3044943E+02  0.7546771E-02  0.1415730E+00
          2   -1    0    0  502    0  0.00000000000E+00  0.00000000000E+00  0.22239086456E+03  0.22239086456E+03  0.00000000000E+00 0. -1.
         -2   -1    0    0    0  501 -0.00000000000E+00 -0.00000000000E+00 -0.41831167629E+01  0.41831167629E+01  0.00000000000E+00 0.  1.
         21    1    1    2  502  503  0.29429586022E+02  0.78145566817E+01  0.11566363295E+03  0.11960453092E+03  0.00000000000E+00 0. -1.
         21    1    1    2  503  501 -0.29429586022E+02 -0.78145566817E+01  0.10254411484E+03  0.10696945040E+03  0.00000000000E+00 0.  1.
</event>
<event>
 4    1  0.5843276E+002  0.5364880E+02  0.7546771E-02  0.1283083E+00
          2   -1    0    0  503    0  0.00000000000E+00  0.00000000000E+00  0.96600644948E+03  0.96600644948E+03  0.00000000000E+00 0. -1.
         -2   -1    0    0    0  501 -0.00000000000E+00 -0.00000000000E+00 -0.40895683809E+01  0.40895683809E+01  0.00000000000E+00 0.  1.
         21    1    1    2  502  501  0.47416502749E+02 -0.25097197363E+02  0.22824674353E+03  0.23446699123E+03  0.00000000000E+00 0.  1.
         21    1    1    2  503  502 -0.47416502749E+02  0.25097197363E+02  0.73367013757E+03  0.73562902662E+03  0.00000000000E+00 0. -1.
</event>
<event>
 4    1  0.5843276E+002  0.2284949E+02  0.7546771E-02  0.1494397E+00
          2   -1    0    0  503    0  0.00000000000E+00  0.00000000000E+00  0.21564085778E+03  0.21564085778E+03  0.00000000000E+00 0.  1.
         -2   -1    0    0    0  501 -0.00000000000E+00 -0.00000000000E+00 -0.36775250445E+01  0.36775250445E+01  0.00000000000E+00 0. -1.
         21    1    1    2  502  501  0.12563545385E+02 -0.19085505080E+02  0.41886302292E+02  0.47713326194E+02  0.00000000000E+00 0. -1.
         21    1    1    2  503  502 -0.12563545385E+02  0.19085505080E+02  0.17007703045E+03  0.17160505664E+03  0.00000000000E+00 0.  1.
</event>
<event>
 4    1  0.5843276E+002  0.2739623E+02  0.7546771E-02  0.1443668E+00
          2   -1    0    0  502    0  0.00000000000E+00  0.00000000000E+00  0.60975581488E+03  0.60975581488E+03  0.00000000000E+00 0. -1.
         -2   -1    0    0    0  501 -0.00000000000E+00 -0.00000000000E+00 -0.26650269292E+01  0.26650269292E+01  0.00000000000E+00 0.  1.
         21    1    1    2  502  503  0.25838226567E+02 -0.91071103875E+01  0.52817227377E+03  0.52888231602E+03  0.00000000000E+00 0. -1.
         21    1    1    2  503  501 -0.25838226567E+02  0.91071103875E+01  0.78918514182E+02  0.83538525797E+02  0.00000000000E+00 0.  1.
</event>
<event>
 4    1  0.5843276E+002  0.2228078E+02  0.7546771E-02  0.1501732E+00
          2   -1    0    0  502    0  0.00000000000E+00  0.00000000000E+00  0.11586017965E+04  0.11586017965E+04  0.00000000000E+00 0.  1.
         -2   -1    0    0    0  501 -0.00000000000E+00 -0.00000000000E+00 -0.42973645610E+00  0.42973645610E+00  0.00000000000E+00 0. -1.
         21    1    1    2  502  503  0.14003581370E+02 -0.17330119379E+02  0.54770345818E+03  0.54815646619E+03  0.00000000000E+00 0. -1.
         21    1    1    2  503  501 -0.14003581370E+02  0.17330119379E+02  0.61046860183E+03  0.61087506673E+03  0.00000000000E+00 0.  1.
</event>
<event>
 4    1  0.5843276E+002  0.3312805E+02  0.7546771E-02  0.1394224E+00
          2   -1    0    0  502    0  0.00000000000E+00  0.00000000000E+00  0.14050425566E+03  0.14050425566E+03  0.00000000000E+00 0.  1.
         -2   -1    0    0    0  501 -0.00000000000E+00 -0.00000000000E+00 -0.94466640051E+01  0.94466640051E+01  0.00000000000E+00 0. -1.
         21    1    1    2  502  503 -0.10602636072E+01 -0.33111078973E+02  0.34330032847E+02  0.47707639482E+02  0.00000000000E+00 0. -1.
         21    1    1    2  503  501  0.10602636072E+01  0.33111078973E+02  0.96727558807E+02  0.10224328018E+03  0.00000000000E+00 0.  1.
</event>
<event>
 4    1  0.5843276E+002  0.2542263E+02  0.7546771E-02  0.1464131E+00
          2   -1    0    0  503    0  0.00000000000E+00  0.00000000000E+00  0.29557256276E+03  0.29557256276E+03  0.00000000000E+00 0. -1.
         -2   -1    0    0    0  501 -0.00000000000E+00 -0.00000000000E+00 -0.31151132991E+01  0.31151132991E+01  0.00000000000E+00 0.  1.
         21    1    1    2  502  501  0.17104184564E+02 -0.18808425685E+02  0.64695294678E+02  0.69511086596E+02  0.00000000000E+00 0.  1.
         21    1    1    2  503  502 -0.17104184564E+02  0.18808425685E+02  0.22776215479E+03  0.22917658947E+03  0.00000000000E+00 0. -1.
</event>
<event>
 4    1  0.5843276E+002  0.2916749E+02  0.7546771E-02  0.1426971E+00
          2   -1    0    0  502    0  0.00000000000E+00  0.00000000000E+00  0.13743626764E+04  0.13743626764E+04  0.00000000000E+00 0.  1.
         -2   -1    0    0    0  501 -0.00000000000E+00 -0.00000000000E+00 -0.20554308057E+01  0.20554308057E+01  0.00000000000E+00 0. -1.
         21    1    1    2  502  503  0.10456467820E+02  0.27228745696E+02  0.12614743314E+04  0.12618114879E+04  0.00000000000E+00 0.  1.
         21    1    1    2  503  501 -0.10456467820E+02 -0.27228745696E+02  0.11083291424E+03  0.11460661931E+03  0.00000000000E+00 0. -1.
</event>
<event>
 4    1  0.5843276E+002  0.2992501E+02  0.7546771E-02  0.1420249E+00
          2   -1    0    0  503    0  0.00000000000E+00  0.00000000000E+00  0.87935016299E+02  0.87935016299E+02  0.00000000000E+00 0.  1.
         -2   -1    0    0    0  501 -0.00000000000E+00 -0.00000000000E+00 -0.14399694243E+02  0.14399694243E+02  0.00000000000E+00 0. -1.
         21    1    1    2  502  501 -0.73611139523E+01 -0.29005517278E+02  0.90813529486E+01  0.31272623852E+02  0.00000000000E+00 0. -1.
         21    1    1    2  503  502  0.73611139523E+01  0.29005517278E+02  0.64453969107E+02  0.71062086690E+02  0.00000000000E+00 0.  1.
</event>
<event>
 4    1  0.5843276E+002  0.2387326E+02  0.7546771E-02  0.1481814E+00
          2   -1    0    0  503    0  0.00000000000E+00  0.00000000000E+00  0.10286491673E+03  0.10286491673E+03  0.00000000000E+00 0. -1.
         -2   -1    0    0    0  501 -0.00000000000E+00 -0.00000000000E+00 -0.85710381614E+02  0.85710381614E+02  0.00000000000E+00 0.  1.
         21    1    1    2  502  501  0.23150136311E+02  0.58312770036E+01 -0.82611944607E+02  0.85992243804E+02  0.00000000000E+00 0.  1.
         21    1    1    2  503  502 -0.23150136311E+02 -0.58312770036E+01  0.99766479725E+02  0.10258305454E+03  0.00000000000E+00 0. -1.
</event>
<event>
 4    1  0.5843276E+002  0.2042137E+02  0.7546771E-02  0.1527689E+00
          2   -1    0    0  502    0  0.00000000000E+00  0.00000000000E+00  0.22556722842E+03  0.22556722842E+03  0.00000000000E+00 0. -1.
         -2   -1    0    0    0  501 -0.00000000000E+00 -0.00000000000E+00 -0.95848841101E+01  0.95848841101E+01  0.00000000000E+00 0.  1.
         21    1    1    2  502  503  0.18301023193E+02  0.90611745087E+01  0.21362076218E+03  0.21459464664E+03  0.00000000000E+00 0. -1.
         21    1    1    2  503  501 -0.18301023193E+02 -0.90611745087E+01  0.23615821249E+01  0.20557465882E+02  0.00000000000E+00 0.  1.
</event>
<event>
 4    1  0.5843276E+002  0.2033380E+02  0.7546771E-02  0.1528993E+00
          2   -1    0    0  502    0  0.00000000000E+00  0.00000000000E+00  0.48180963885E+02  0.48180963885E+02  0.00000000000E+00 0.  1.
         -2   -1    0    0    0  501 -0.00000000000E+00 -0.00000000000E+00 -0.13669316308E+02  0.13669316308E+02  0.00000000000E+00 0. -1.
         21    1    1    2  502  503 -0.18466696269E+02  0.85114375689E+01  0.36122931128E+02  0.41452739281E+02  0.00000000000E+00 0.  1.
         21    1    1    2  503  501  0.18466696269E+02 -0.85114375689E+01 -0.16112835514E+01  0.20397540912E+02  0.00000000000E+00 0. -1.
</event>
<event>
 4    1  0.5843276E+002  0.2788161E+02  0.7546771E-02  0.1438948E+00
          2   -1    0    0  503    0  0.00000000000E+00  0.00000000000E+00  0.10983625376E+03  0.10983625376E+03  0.00000000000E+00 0. -1.
         -2   -1    0    0    0  501 -0.00000000000E+00 -0.00000000000E+00 -0.40952780933E+02  0.40952780933E+02  0.00000000000E+00 0.  1.
         21    1    1    2  502  501 -0.22044308300E+02 -0.17071402437E+02 -0.34128943452E+02  0.44070047547E+02  0.00000000000E+00 0.  1.
         21    1    1    2  503  502  0.22044308300E+02  0.17071402437E+02  0.10301241628E+03  0.10671898714E+03  0.00000000000E+00 0. -1.
</event>
<event>
 4    1  0.5843276E+002  0.2295987E+02  0.7546771E-02  0.1493003E+00
          2   -1    0    0  503    0  0.00000000000E+00  0.00000000000E+00  0.14601441058E+03  0.14601441058E+03  0.00000000000E+00 0.  1.
         -2   -1    0    0    0  501 -0.00000000000E+00 -0.00000000000E+00 -0.59741980071E+01  0.59741980071E+01  0.00000000000E+00 0. -1.
         21    1    1    2  502  501 -0.19143896173E+02  0.12675440012E+02  0.22217036738E+02  0.31949213787E+02  0.00000000000E+00 0. -1.
         21    1    1    2  503  502  0.19143896173E+02 -0.12675440012E+02  0.11782317583E+03  0.12003939480E+03  0.00000000000E+00 0.  1.
</event>
<event>
 4    1  0.5843276E+002  0.2950282E+02  0.7546771E-02  0.1423967E+00
          2   -1    0    0  503    0  0.00000000000E+00  0.00000000000E+00  0.40966466921E+03  0.40966466921E+03  0.00000000000E+00 0.  1.
         -2   -1    0    0    0  501 -0.00000000000E+00 -0.00000000000E+00 -0.31857771791E+01  0.31857771791E+01  0.00000000000E+00 0. -1.
         21    1    1    2  502  501  0.57784258560E+01  0.28931409571E+02  0.84107707068E+02  0.89132054018E+02  0.00000000000E+00 0. -1.
         21    1    1    2  503  502 -0.57784258560E+01 -0.28931409571E+02  0.32237118496E+03  0.32371839237E+03  0.00000000000E+00 0.  1.
</event>
<event>
 4    1  0.5843276E+002  0.2218728E+02  0.7546771E-02  0.1502964E+00
          2   -1    0    0  503    0  0.00000000000E+00  0.00000000000E+00  0.20961538051E+04  0.20961538051E+04  0.00000000000E+00 0.  1.
         -2   -1    0    0    0  501 -0.00000000000E+00 -0.00000000000E+00 -0.33512701824E+00  0.33512701824E+00  0.00000000000E+00 0. -1.
         21    1    1    2  502  501 -0.19599550570E+02  0.10398702369E+02  0.47449955409E+03  0.47501800200E+03  0.00000000000E+00 0. -1.
         21    1    1    2  503  502  0.19599550570E+02 -0.10398702369E+02  0.16213191240E+04  0.16214709301E+04  0.00000000000E+00 0.  1.
</event>
<event>
 4    1  0.5843276E+002  0.2427279E+02  0.7546771E-02  0.1477106E+00
          2   -1    0    0  503    0  0.00000000000E+00  0.00000000000E+00  0.16071054802E+04  0.16071054802E+04  0.00000000000E+00 0. -1.
         -2   -1    0    0    0  501 -0.00000000000E+00 -0.00000000000E+00 -0.54688511995E+00  0.54688511995E+00  0.00000000000E+00 0.  1.
         21    1    1    2  502  501  0.21989718316E+02 -0.10277191289E+02  0.34175835740E+03  0.34261923943E+03  0.00000000000E+00 0.  1.
         21    1    1    2  503  502 -0.21989718316E+02  0.10277191289E+02  0.12648002376E+04  0.12650331259E+04  0.00000000000E+00 0. -1.
</event>
<event>
 4    1  0.5843276E+002  0.2307791E+02  0.7546771E-02  0.1491522E+00
          2   -1    0    0  502    0  0.00000000000E+00  0.00000000000E+00  0.43284156360E+03  0.43284156360E+03  0.00000000000E+00 0.  1.
         -2   -1    0    0    0  501 -0.00000000000E+00 -0.00000000000E+00 -0.21443344445E+01  0.21443344445E+01  0.00000000000E+00 0. -1.
         21    1    1    2  502  503  0.24414011788E+01  0.22948414006E+02  0.35733425681E+03  0.35807870815E+03  0.00000000000E+00 0.  1.
         21    1    1    2  503  501 -0.24414011788E+01 -0.22948414006E+02  0.73362972347E+02  0.76907189890E+02  0.00000000000E+00 0. -1.
</event>
<event>
 4    1  0.5843276E+002  0.2510413E+02  0.7546771E-02  0.1467642E+00
          2   -1    0    0  502    0  0.00000000000E+00  0.00000000000E+00  0.11733893673E+03  0.11733893673E+03  0.00000000000E+00 0. -1.
         -2   -1    0    0    0  501 -0.00000000000E+00 -0.00000000000E+00 -0.53760059327E+01  0.53760059327E+01  0.00000000000E+00 0.  1.
         21    1    1    2  502  503 -0.16406776754E+02 -0.19000918043E+02  0.57870002275E+02  0.63080538784E+02  0.00000000000E+00 0. -1.
         21    1    1    2  503  501  0.16406776754E+02  0.19000918043E+02  0.54092928524E+02  0.59634403881E+02  0.00000000000E+00 0.  1.
</event>
<event>
 4    1  0.5843276E+002  0.2204215E+02  0.7546771E-02  0.1504889E+00
          2   -1    0    0  503    0  0.00000000000E+00  0.00000000000E+00  0.33423476089E+03  0.33423476089E+03  0.00000000000E+00 0. -1.
         -2   -1    0    0    0  501 -0.00000000000E+00 -0.00000000000E+00 -0.17862325430E+01  0.17862325430E+01  0.00000000000E+00 0.  1.
         21    1    1    2  502  501 -0.10529623404E+02 -0.19364490979E+02  0.93726481874E+02  0.96283487080E+02  0.00000000000E+00 0.  1.
         21    1    1    2  503  502  0.10529623404E+02  0.19364490979E+02  0.23872204647E+03  0.23973750635E+03  0.00000000000E+00 0. -1.
</event>
<event>
 4    1  0.5843276E+002  0.2597783E+02  0.7546771E-02  0.1458155E+00
          2   -1    0    0  502    0  0.00000000000E+00  0.00000000000E+00  0.19539250428E+02  0.19539250428E+02  0.00000000000E+00 0.  1.
         -2   -1    0    0    0  501 -0.00000000000E+00 -0.00000000000E+00 -0.10433844027E+03  0.10433844027E+03  0.00000000000E+00 0. -1.
         21    1    1    2  502  503 -0.10050843016E+02 -0.23954711691E+02  0.82609494908E+01  0.27259694496E+02  0.00000000000E+00 0.  1.
         21    1    1    2  503  501  0.10050843016E+02  0.23954711691E+02 -0.93060139329E+02  0.96617996199E+02  0.00000000000E+00 0. -1.
</event>
<event>
 4    1  0.5843276E+002  0.2070882E+02  0.7546771E-02  0.1523463E+00
          2   -1    0    0  503    0  0.00000000000E+00  0.00000000000E+00  0.49493006259E+03  0.49493006259E+03  0.00000000000E+00 0. -1.
         -2   -1    0    0    0  501 -0.00000000000E+00 -0.00000000000E+00 -0.96610672854E+00  0.96610672854E+00  0.00000000000E+00 0.  1.
         21    1    1    2  502  501  0.36213394293E+01  0.20389731081E+02  0.32659789146E+03  0.32725378216E+03  0.00000000000E+00 0. -1.
         21    1    1    2  503  502 -0.36213394293E+01 -0.20389731081E+02  0.16736606440E+03  0.16864238716E+03  0.00000000000E+00 0.  1.
</event>
<event>
 4    1  0.5843276E+002  0.3310781E+02  0.7546771E-02  0.1394377E+00
          2   -1    0    0  503    0  0.00000000000E+00  0.00000000000E+00  0.17414042631E+03  0.17414042631E+03  0.00000000000E+00 0.  1.
         -2   -1    0    0    0  501 -0.00000000000E+00 -0.00000000000E+00 -0.82867159158E+01  0.82867159158E+01  0.00000000000E+00 0. -1.
         21    1    1    2  502  501 -0.19532394292E+02 -0.26732246142E+02  0.38203319994E+02  0.50553150931E+02  0.00000000000E+00 0. -1.
         21    1    1    2  503  502  0.19532394292E+02  0.26732246142E+02  0.12765039040E+03  0.13187399130E+03  0.00000000000E+00 0.  1.
</event>
<event>
 4    1  0.5843276E+002  0.3086988E+02  0.7546771E-02  0.1412185E+00
          2   -1    0    0  503    0  0.00000000000E+00  0.00000000000E+00  0.28385231835E+03  0.28385231835E+03  0.00000000000E+00 0. -1.
         -2   -1    0    0    0  501 -0.00000000000E+00 -0.00000000000E+00 -0.40773029107E+01  0.40773029107E+01  0.00000000000E+00 0.  1.
         21    1    1    2  502  501  0.15507574420E+02  0.26692029370E+02  0.79385911410E+02  0.85176711762E+02  0.00000000000E+00 0.  1.
         21    1    1    2  503  502 -0.15507574420E+02 -0.26692029370E+02  0.20038910403E+03  0.20275290950E+03  0.00000000000E+00 0. -1.
</event>
<event>
 4    1  0.5843276E+002  0.2035845E+02  0.7546771E-02  0.1528625E+00
          2   -1    0    0  503    0  0.00000000000E+00  0.00000000000E+00  0.68636217517E+03  0.68636217517E+03  0.00000000000E+00 0.  1.
         -2   -1    0    0    0  501 -0.00000000000E+00 -0.00000000000E+00 -0.13643511540E+01  0.13643511540E+01  0.00000000000E+00 0. -1.
         21    1    1    2  502  501 -0.13112917532E+02  0.15572984951E+02  0.85772906178E+02  0.88155872752E+02  0.00000000000E+00 0. -1.
         21    1    1    2  503  502  0.13112917532E+02 -0.15572984951E+02  0.59922491784E+03  0.59957065357E+03  0.00000000000E+00 0.  1.
</event>
<event>
 4    1  0.5843276E+002  0.5536362E+02  0.7546771E-02  0.1276455E+00
          2   -1    0    0  502    0  0.00000000000E+00  0.00000000000E+00  0.84570541191E+03  0.84570541191E+03  0.00000000000E+00 0. -1.
         -2   -1    0    0    0  501 -0.00000000000E+00 -0.00000000000E+00 -0.21636012267E+02  0.21636012267E+02  0.00000000000E+00 0.  1.
         21    1    1    2  502  503  0.39224029969E+02 -0.39071798797E+02  0.80771863263E+03  0.80961380886E+03  0.00000000000E+00 0. -1.
         21    1    1    2  503  501 -0.39224029969E+02  0.39071798797E+02  0.16350767005E+02  0.57727615315E+02  0.00000000000E+00 0.  1.
</event>
<event>
 4    1  0.5843276E+002  0.2283144E+02  0.7546771E-02  0.1494626E+00
          2   -1    0    0  502    0  0.00000000000E+00  0.00000000000E+00  0.52337101297E+03  0.52337101297E+03  0.00000000000E+00 0. -1.
         -2   -1    0    0    0  501 -0.00000000000E+00 -0.00000000000E+00 -0.10029549091E+01  0.10029549091E+01  0.00000000000E+00 0.  1.
         21    1    1    2  502  503  0.20650344016E+02 -0.97384821643E+01  0.23934253742E+03  0.24042904350E+03  0.00000000000E+00 0.  1.
         21    1    1    2  503  501 -0.20650344016E+02  0.97384821643E+01  0.28302552064E+03  0.28394492437E+03  0.00000000000E+00 0. -1.
</event>
<event>
 4    1  0.5843276E+002  0.2333761E+02  0.7546771E-02  0.1488302E+00
          2   -1    0    0  502    0  0.00000000000E+00  0.00000000000E+00  0.10724370150E+04  0.10724370150E+04  0.00000000000E+00 0. -1.
         -2   -1    0    0    0  501 -0.00000000000E+00 -0.00000000000E+00 -0.64787788710E+00  0.64787788710E+00  0.00000000000E+00 0.  1.
         21    1    1    2  502  503  0.19642187186E+02 -0.12602710750E+02  0.78532824583E+03  0.78567493121E+03  0.00000000000E+00 0. -1.
         21    1    1    2  503  501 -0.19642187186E+02  0.12602710750E+02  0.28646089124E+03  0.28740996163E+03  0.00000000000E+00 0.  1.
</event>
<event>
 4    1  0.5843276E+002  0.2008433E+02  0.7546771E-02  0.1532751E+00
          2   -1    0    0  502    0  0.00000000000E+00  0.00000000000E+00  0.12229331884E+02  0.12229331884E+02  0.00000000000E+00 0. -1.
         -2   -1    0    0    0  501 -0.00000000000E+00 -0.00000000000E+00 -0.51819944663E+02  0.51819944663E+02  0.00000000000E+00 0.  1.
         21    1    1    2  502  503  0.19966040597E+02 -0.21765649119E+01 -0.48798665094E+00  0.20090254923E+02  0.00000000000E+00 0. -1.
         21    1    1    2  503  501 -0.19966040597E+02  0.21765649119E+01 -0.39102626128E+02  0.43959021623E+02  0.00000000000E+00 0.  1.
</event>
<event>
 4    1  0.5843276E+002  0.2935503E+02  0.7546771E-02  0.1425285E+00
          2   -1    0    0  502    0  0.00000000000E+00  0.00000000000E+00  0.51727262786E+02  0.51727262786E+02  0.00000000000E+00 0. -1.
         -2   -1    0    0    0  501 -0.00000000000E+00 -0.00000000000E+00 -0.21992123734E+02  0.21992123734E+02  0.00000000000E+00 0.  1.
         21    1    1    2  502  503 -0.24122682180E+02  0.16727633752E+02 -0.32840102032E+01  0.29538149054E+02  0.00000000000E+00 0.  1.
         21    1    1    2  503  501  0.24122682180E+02 -0.16727633752E+02  0.33019149255E+02  0.44181237466E+02  0.00000000000E+00 0. -1.
</event>
<event>
 4    1  0.5843276E+002  0.2070747E+02  0.7546771E-02  0.1523483E+00
          2   -1    0    0  502    0  0.00000000000E+00  0.00000000000E+00  0.17484437001E+03  0.17484437001E+03  0.00000000000E+00 0. -1.
         -2   -1    0    0    0  501 -0.00000000000E+00 -0.00000000000E+00 -0.44306990668E+01  0.44306990668E+01  0.00000000000E+00 0.  1.
         21    1    1    2  502  503 -0.70337531495E+01  0.19476280978E+02  0.14510216025E+03  0.14657228972E+03  0.00000000000E+00 0. -1.
         21    1    1    2  503  501  0.70337531495E+01 -0.19476280978E+02  0.25311510689E+02  0.32702779354E+02  0.00000000000E+00 0.  1.
</event>
<event>
 4    1  0.5843276E+002  0.2361774E+02  0.7546771E-02  0.1484884E+00
          2   -1    0    0  502    0  0.00000000000E+00  0.00000000000E+00  0.19091306518E+03  0.19091306518E+03  0.00000000000E+00 0. -1.
         -2   -1    0    0    0  501 -0.00000000000E+00 -0.00000000000E+00 -0.42114997145E+01  0.42114997145E+01  0.00000000000E+00 0.  1.
         21    1    1    2  502  503 -0.23119053453E+02 -0.48277209911E+01  0.14734144915E+03  0.14922231790E+03  0.00000000000E+00 0. -1.
         21    1    1    2  503  501  0.23119053453E+02  0.48277209911E+01  0.39360116313E+02  0.45902246990E+02  0.00000000000E+00 0.  1.
</event>
<event>
 4    1  0.5843276E+002  0.2062630E+02  0.7546771E-02  0.1524668E+00
          2   -1    0    0  503    0  0.00000000000E+00  0.00000000000E+00  0.75142987182E+00  0.75142987182E+00  0.00000000000E+00 0. -1.
         -2   -1    0    0    0  501 -0.00000000000E+00 -0.00000000000E+00 -0.57158929193E+03  0.57158929193E+03  0.00000000000E+00 0.  1.
         21    1    1    2  502  501 -0.55071430487E+01  0.19877517393E+02 -0.31325870967E+03  0.31393703749E+03  0.00000000000E+00 0. -1.
         21    1    1    2  503  502  0.55071430487E+01 -0.19877517393E+02 -0.25757915239E+03  0.25840368432E+03  0.00000000000E+00 0.  1.
</event>
<event>
 4    1  0.5843276E+002  0.2579101E+02  0.7546771E-02  0.1460146E+00
          2   -1    0    0  503    0  0.00000000000E+00  0.00000000000E+00  0.28443140597E+01  0.28443140597E+01  0.00000000000E+00 0.  1.
         -2   -1    0    0    0  501 -0.00000000000E+00 -0.00000000000E+00 -0.32648107235E+03  0.32648107235E+03  0.00000000000E+00 0. -1.
         21    1    1    2  502  501 -0.12568430562E+02  0.22521345286E+02 -0.24952186683E+03  0.25085122775E+03  0.00000000000E+00 0. -1.
         21    1    1    2  503  502  0.12568430562E+02 -0.22521345286E+02 -0.74114891464E+02  0.78474158657E+02  0.00000000000E+00 0.  1.
</event>
<event>
 4    1  0.5843276E+002  0.2411830E+02  0.7546771E-02  0.1478914E+00
          2   -1    0    0  502    0  0.00000000000E+00  0.00000000000E+00  0.81281782737E+02  0.81281782737E+02  0.00000000000E+00 0. -1.
         -2   -1    0    0    0  501 -0.00000000000E+00 -0.00000000000E+00 -0.72518296223E+01  0.72518296223E+01  0.00000000000E+00 0.  1.
         21    1    1    2  502  503  0.21807097418E+02  0.10302558403E+02  0.42090638973E+02  0.48510968828E+02  0.00000000000E+00 0. -1.
         21    1    1    2  503  501 -0.21807097418E+02 -0.10302558403E+02  0.31939314141E+02  0.40022643531E+02  0.00000000000E+00 0.  1.
</event>
<event>
 4    1  0.5843276E+002  0.5890396E+02  0.7546771E-02  0.1263603E+00
          2   -1    0    0  503    0  0.00000000000E+00  0.00000000000E+00  0.18068853148E+04  0.18068853148E+04  0.00000000000E+00 0.  1.
         -2   -1    0    0    0  501 -0.00000000000E+00 -0.00000000000E+00 -0.19986829157E+01  0.19986829157E+01  0.00000000000E+00 0. -1.
         21    1    1    2  502  501 -0.52821158420E+02 -0.26069164156E+02  0.72327923450E+03  0.72567384351E+03  0.00000000000E+00 0. -1.
         21    1    1    2  503  502  0.52821158420E+02  0.26069164156E+02  0.10816073974E+04  0.10832101542E+04  0.00000000000E+00 0.  1.
</event>
<event>
 4    1  0.5843276E+002  0.4184047E+02  0.7546771E-02  0.1338026E+00
          2   -1    0    0  503    0  0.00000000000E+00  0.00000000000E+00  0.23947580940E+03  0.23947580940E+03  0.00000000000E+00 0.  1.
         -2   -1    0    0    0  501 -0.00000000000E+00 -0.00000000000E+00 -0.82622871984E+01  0.82622871984E+01  0.00000000000E+00 0. -1.
         21    1    1    2  502  501 -0.34490155664E+02 -0.23686583479E+02  0.73559042570E+02  0.84625987843E+02  0.00000000000E+00 0. -1.
         21    1    1    2  503  502  0.34490155664E+02  0.23686583479E+02  0.15765447963E+03  0.16311210876E+03  0.00000000000E+00 0.  1.
</event>
<event>
 4    1  0.5843276E+002  0.2620830E+02  0.7546771E-02  0.1455727E+00
          2   -1    0    0  503    0  0.00000000000E+00  0.00000000000E+00  0.10202599251E+04  0.10202599251E+04  0.00000000000E+00 0. -1.
         -2   -1    0    0    0  501 -0.00000000000E+00 -0.00000000000E+00 -0.76236213036E+00  0.76236213036E+00  0.00000000000E+00 0.  1.
         21    1    1    2  502  501 -0.25194905925E+02  0.72174572683E+01  0.33519516374E+03  0.33621819221E+03  0.00000000000E+00 0. -1.
         21    1    1    2  503  502  0.25194905925E+02 -0.72174572683E+01  0.68430239926E+03  0.68480409506E+03  0.00000000000E+00 0.  1.
</event>
<event>
 4    1  0.5843276E+002  0.2877041E+02  0.7546771E-02  0.1430591E+00
          2   -1    0    0  503    0  0.00000000000E+00  0.00000000000E+00  0.31536464545E+02  0.31536464545E+02  0.00000000000E+00 0.  1.
         -2   -1    0    0    0  501 -0.00000000000E+00 -0.00000000000E+00 -0.29272234743E+02  0.29272234743E+02  0.00000000000E+00 0. -1.
         21    1    1    2  502  501 -0.23278552094E+02  0.16906966969E+02 -0.86422768836E+01  0.30040397291E+02  0.00000000000E+00 0. -1.
         21    1    1    2  503  502  0.23278552094E+02 -0.16906966969E+02  0.10906506686E+02  0.30768301997E+02  0.00000000000E+00 0.  1.
</event>
<event>
 4    1  0.5843276E+002  0.2426004E+02  0.7546771E-02  0.1477254E+00
          2   -1    0    0  502    0  0.00000000000E+00  0.00000000000E+00  0.55158477131E+03  0.55158477131E+03  0.00000000000E+00 0.  1.
         -2   -1    0    0    0  501 -0.00000000000E+00 -0.00000000000E+00 -0.11158305951E+01  0.11158305951E+01  0.00000000000E+00 0. -1.
         21    1    1    2  502  503  0.21576548676E+02  0.11090623090E+02  0.33303594327E+03  0.33391838656E+03  0.00000000000E+00 0. -1.
         21    1    1    2  503  501 -0.21576548676E+02 -0.11090623090E+02  0.21743299744E+03  0.21878221534E+03  0.00000000000E+00 0.  1.
</event>
<event>
 4    1  0.5843276E+002  0.3561798E+02  0.7546771E-02  0.1376270E+00
          2   -1    0    0  503    0  0.00000000000E+00  0.00000000000E+00  0.13853800220E+04  0.13853800220E+04  0.00000000000E+00 0. -1.
         -2   -1    0    0    0  501 -0.00000000000E+00 -0.00000000000E+00 -0.30883251259E+01  0.30883251259E+01  0.00000000000E+00 0.  1.
         21    1    1    2  502  501 -0.25751602702E+02  0.24606818507E+02  0.10886378648E+03  0.11454241383E+03  0.00000000000E+00 0.  1.
         21    1    1    2  503  502  0.25751602702E+02 -0.24606818507E+02  0.12734279104E+04  0.12739259333E+04  0.00000000000E+00 0. -1.
</event>
<event>
 4    1  0.5843276E+002  0.2345195E+02  0.7546771E-02  0.1486900E+00
          2   -1    0    0  502    0  0.00000000000E+00  0.00000000000E+00  0.14811034659E+03  0.14811034659E+03  0.00000000000E+00 0. -1.
         -2   -1    0    0    0  501 -0.00000000000E+00 -0.00000000000E+00 -0.14205066241E+02  0.14205066241E+02  0.00000000000E+00 0.  1.
         21    1    1    2  502  503  0.43783525029E+01  0.23039618993E+02  0.13670039294E+03  0.13869748175E+03  0.00000000000E+00 0. -1.
         21    1    1    2  503  501 -0.43783525029E+01 -0.23039618993E+02 -0.27951125935E+01  0.23617931078E+02  0.00000000000E+00 0.  1.
</event>
<event>
 4    1  0.5843276E+002  0.2788615E+02  0.7546771E-02  0.1438904E+00
          2   -1    0    0  502    0  0.00000000000E+00  0.00000000000E+00  0.91887098640E+02  0.91887098640E+02  0.00000000000E+00 0. -1.
         -2   -1    0    0    0  501 -0.00000000000E+00 -0.00000000000E+00 -0.10500948003E+02  0.10500948003E+02  0.00000000000E+00 0.  1.
         21    1    1    2  502  503 -0.21971585693E+02 -0.17172273017E+02  0.63246111155E+02  0.69120967258E+02  0.00000000000E+00 0. -1.
         21    1    1    2  503  501  0.21971585693E+02  0.17172273017E+02  0.18140039482E+02  0.33267079386E+02  0.00000000000E+00 0.  1.
</event>
<event>
 4    1  0.5843276E+002  0.3008970E+02  0.7546771E-02  0.1418819E+00
          2   -1    0    0  503    0  0.00000000000E+00  0.00000000000E+00  0.34227506724E+03  0.34227506724E+03  0.00000000000E+00 0. -1.
         -2   -1    0    0    0  501 -0.00000000000E+00 -0.00000000000E+00 -0.28065579749E+01  0.28065579749E+01  0.00000000000E+00 0.  1.
         21    1    1    2  502  501 -0.20956127579E+02 -0.21592370528E+02  0.12836427176E+03  0.13184375606E+03  0.00000000000E+00 0. -1.
         21    1    1    2  503  502  0.20956127579E+02  0.21592370528E+02  0.21110423751E+03  0.21323786916E+03  0.00000000000E+00 0.  1.
</event>
<event>
 4    1  0.5843276E+002  0.2007956E+02  0.7546771E-02  0.1532823E+00
          2   -1    0    0  502    0  0.00000000000E+00  0.00000000000E+00  0.38457524456E+01  0.38457524456E+01  0.00000000000E+00 0. -1.
         -2   -1    0    0    0  501 -0.00000000000E+00 -0.00000000000E+00 -0.10555716945E+03  0.10555716945E+03  0.00000000000E+00 0.  1.
         21    1    1    2  502  503  0.20079462620E+02  0.63962640666E-01 -0.46347039879E+02  0.50509771489E+02  0.00000000000E+00 0. -1.
         21    1    1    2  503  501 -0.20079462620E+02 -0.63962640666E-01 -0.55364377125E+02  0.58893150407E+02  0.00000000000E+00 0.  1.
</event>
<event>
 4    1  0.5843276E+002  0.3207455E+02  0.7546771E-02  0.1402386E+00
          2   -1    0    0  503    0  0.00000000000E+00  0.00000000000E+00  0.25836050539E+02  0.25836050539E+02  0.00000000000E+00 0.  1.
         -2   -1    0    0    0  501 -0.00000000000E+00 -0.00000000000E+00 -0.40152460578E+02  0.40152460578E+02  0.00000000000E+00 0. -1.
         21    1    1    2  502  501  0.19931575822E+02 -0.25129844405E+02 -0.41533425912E+01  0.32342341431E+02  0.00000000000E+00 0.  1.
         21    1    1    2  503  502 -0.19931575822E+02  0.25129844405E+02 -0.10163067448E+02  0.33646169686E+02  0.00000000000E+00 0. -1.
</event>
<event>
 4    1  0.5843276E+002  0.2902544E+02  0.7546771E-02  0.1428259E+00
          2   -1    0    0  503    0  0.00000000000E+00  0.00000000000E+00  0.87570743486E+03  0.87570743486E+03  0.00000000000E+00 0.  1.
         -2   -1    0    0    0  501 -0.00000000000E+00 -0.00000000000E+00 -0.18347049952E+01  0.18347049952E+01  0.00000000000E+00 0. -1.
         21    1    1    2  502  501  0.21406691440E+02 -0.19601782392E+02  0.13433171872E+03  0.13743175385E+03  0.00000000000E+00 0.  1.
         21    1    1    2  503  502 -0.21406691440E+02  0.19601782392E+02  0.73954101114E+03  0.74011038601E+03  0.00000000000E+00 0. -1.
</event>
<event>
 4    1  0.5843276E+002  0.2035899E+02  0.7546771E-02  0.1528617E+00
          2   -1    0    0  503    0  0.00000000000E+00  0.00000000000E+00  0.37384952995E+01  0.37384952995E+01  0.00000000000E+00 0.  1.
         -2   -1    0    0    0  501 -0.00000000000E+00 -0.00000000000E+00 -0.24394941660E+03  0.24394941660E+03  0.00000000000E+00 0. -1.
         21    1    1    2  502  501  0.19493675588E+02  0.58723975244E+01 -0.21157568164E+03  0.21255295223E+03  0.00000000000E+00 0. -1.
         21    1    1    2  503  502 -0.19493675588E+02 -0.58723975244E+01 -0.28635239668E+02  0.35134959676E+02  0.00000000000E+00 0.  1.
</event>
<event>
 4    1  0.5843276E+002  0.2167004E+02  0.7546771E-02  0.1509910E+00
          2   -1    0    0  502    0  0.00000000000E+00  0.00000000000E+00  0.20573332687E+02  0.20573332687E+02  0.00000000000E+00 0. -1.
         -2   -1    0    0    0  501 -0.00000000000E+00 -0.00000000000E+00 -0.99644923721E+02  0.99644923721E+02  0.00000000000E+00 0.  1.
         21    1    1    2  502  503 -0.85098070958E+01 -0.19929225281E+02  0.13241745829E+02  0.25395563977E+02  0.00000000000E+00 0. -1.
         21    1    1    2  503  501  0.85098070958E+01  0.19929225281E+02 -0.92313336863E+02  0.94822692431E+02  0.00000000000E+00 0.  1.
</event>
<event>
 4    1  0.5843276E+002  0.2506288E+02  0.7546771E-02  0.1468101E+00
          2   -1    0    0  503    0  0.00000000000E+00  0.00000000000E+00  0.99768302733E+00  0.99768302733E+00  0.00000000000E+00 0. -1.
         -2   -1    0    0    0  501 -0.00000000000E+00 -0.00000000000E+00 -0.76379336956E+03  0.76379336956E+03  0.00000000000E+00 0.  1.
         21    1    1    2  502  501 -0.11167854620E+02  0.22437174072E+02 -0.54167801885E+03  0.54225752540E+03  0.00000000000E+00 0.  1.
         21    1    1    2  503  502  0.11167854620E+02 -0.22437174072E+02 -0.22111766768E+03  0.22253352718E+03  0.00000000000E+00 0. -1.
</event>
<event>
 4    1  0.5843276E+002  0.2068007E+02  0.7546771E-02  0.1523882E+00
          2   -1    0    0  503    0  0.00000000000E+00  0.00000000000E+00  0.48500173051E+02  0.48500173051E+02  0.00000000000E+00 0. -1.
         -2   -1    0    0    0  501 -0.00000000000E+00 -0.00000000000E+00 -0.14256629246E+02  0.14256629246E+02  0.00000000000E+00 0.  1.
         21    1    1    2  502  501  0.20148621680E+02  0.46581271366E+01 -0.22591693981E+01  0.20803099538E+02  0.00000000000E+00 0.  1.
         21    1    1    2  503  502 -0.20148621680E+02 -0.46581271366E+01  0.36502713203E+02  0.41953702759E+02  0.00000000000E+00 0. -1.
</event>
<event>
 4    1  0.5843276E+002  0.2743824E+02  0.7546771E-02  0.1443255E+00
          2   -1    0    0  503    0  0.00000000000E+00  0.00000000000E+00  0.16649742727E+04  0.16649742727E+04  0.00000000000E+00 0.  1.
         -2   -1    0    0    0  501 -0.00000000000E+00 -0.00000000000E+00 -0.48407496501E+00  0.48407496501E+00  0.00000000000E+00 0. -1.
         21    1    1    2  502  501  0.23419729277E+02 -0.14295909951E+02  0.61847116002E+03  0.61907950422E+03  0.00000000000E+00 0. -1.
         21    1    1    2  503  502 -0.23419729277E+02  0.14295909951E+02  0.10460190377E+04  0.10463788435E+04  0.00000000000E+00 0.  1.
</event>
<event>
 4    1  0.5843276E+002  0.2490224E+02  0.7546771E-02  0.1469900E+00
          2   -1    0    0  503    0  0.00000000000E+00  0.00000000000E+00  0.55418343723E+01  0.55418343723E+01  0.00000000000E+00 0. -1.
         -2   -1    0    0    0  501 -0.00000000000E+00 -0.00000000000E+00 -0.11371441716E+03  0.11371441716E+03  0.00000000000E+00 0.  1.
         21    1    1    2  502  501  0.20106205670E+02  0.14692251750E+02 -0.61621876705E+02  0.66463354238E+02  0.00000000000E+00 0. -1.
         21    1    1    2  503  502 -0.20106205670E+02 -0.14692251750E+02 -0.46550706083E+02  0.52792897294E+02  0.00000000000E+00 0.  1.
</event>
<event>
 4    1  0.5843276E+002  0.4055919E+02  0.7546771E-02  0.1345240E+00
          2   -1    0    0  503    0  0.00000000000E+00  0.00000000000E+00  0.33925322614E+01  0.33925322614E+01  0.00000000000E+00 0. -1.
         -2   -1    0    0    0  501 -0.00000000000E+00 -0.00000000000E+00 -0.51715385440E+03  0.51715385440E+03  0.00000000000E+00 0.  1.
         21    1    1    2  502  501  0.38137664522E+02  0.13804593710E+02 -0.32187743098E+03  0.32442276252E+03  0.00000000000E+00 0.  1.
         21    1    1    2  503  502 -0.38137664522E+02 -0.13804593710E+02 -0.19188389116E+03  0.19612362415E+03  0.00000000000E+00 0. -1.
</event>
<event>
 4    1  0.5843276E+002  0.2030331E+02  0.7546771E-02  0.1529448E+00
          2   -1    0    0  503    0  0.00000000000E+00  0.00000000000E+00  0.25797389545E+03  0.25797389545E+03  0.00000000000E+00 0. -1.
         -2   -1    0    0    0  501 -0.00000000000E+00 -0.00000000000E+00 -0.72003267205E+01  0.72003267205E+01  0.00000000000E+00 0.  1.
         21    1    1    2  502  501 -0.16968526435E+02 -0.11148705074E+02  0.84335888195E+01  0.21985220822E+02  0.00000000000E+00 0.  1.
         21    1    1    2  503  502  0.16968526435E+02  0.11148705074E+02  0.24233997991E+03  0.24318900134E+03  0.00000000000E+00 0. -1.
</event>
<event>
 4    1  0.5843276E+002  0.2686325E+02  0.7546771E-02  0.1448987E+00
          2   -1    0    0  502    0  0.00000000000E+00  0.00000000000E+00  0.12067084932E+04  0.12067084932E+04  0.00000000000E+00 0.  1.
         -2   -1    0    0    0  501 -0.00000000000E+00 -0.00000000000E+00 -0.95842434770E+01  0.95842434770E+01  0.00000000000E+00 0. -1.
         21    1    1    2  502  503 -0.11947400407E+02  0.24060216714E+02  0.11874299615E+04  0.11877337866E+04  0.00000000000E+00 0.  1.
         21    1    1    2  503  501  0.11947400407E+02 -0.24060216714E+02  0.96942882355E+01  0.28558950072E+02  0.00000000000E+00 0. -1.
</event>
<event>
 4    1  0.5843276E+002  0.2131452E+02  0.7546771E-02  0.1514821E+00
          2   -1    0    0  503    0  0.00000000000E+00  0.00000000000E+00  0.22271720218E+03  0.22271720218E+03  0.00000000000E+00 0. -1.
         -2   -1    0    0    0  501 -0.00000000000E+00 -0.00000000000E+00 -0.39885088312E+01  0.39885088312E+01  0.00000000000E+00 0.  1.
         21    1    1    2  502  501 -0.21091860416E+02  0.30728090427E+01  0.30133268067E+02  0.36909654234E+02  0.00000000000E+00 0.  1.
         21    1    1    2  503  502  0.21091860416E+02 -0.30728090427E+01  0.18859542528E+03  0.18979605678E+03  0.00000000000E+00 0. -1.
</event>
<event>
 4    1  0.5843276E+002  0.2223370E+02  0.7546771E-02  0.1502352E+00
          2   -1    0    0  502    0  0.00000000000E+00  0.00000000000E+00  0.14050369258E+04  0.14050369258E+04  0.00000000000E+00 0. -1.
         -2   -1    0    0    0  501 -0.00000000000E+00 -0.00000000000E+00 -0.77938288893E+00  0.77938288893E+00  0.00000000000E+00 0.  1.
         21    1    1    2  502  503  0.31231193033E+01 -0.22013254467E+02  0.12227440970E+04  0.12229462229E+04  0.00000000000E+00 0. -1.
         21    1    1    2  503  501 -0.31231193033E+01  0.22013254467E+02  0.18151344589E+03  0.18287008581E+03  0.00000000000E+00 0.  1.
</event>
<event>
 4    1  0.5843276E+002  0.2149665E+02  0.7546771E-02  0.1512291E+00
          2   -1    0    0  503    0  0.00000000000E+00  0.00000000000E+00  0.27085444354E+02  0.27085444354E+02  0.00000000000E+00 0.  1.
         -2   -1    0    0    0  501 -0.00000000000E+00 -0.00000000000E+00 -0.18341317192E+02  0.18341317192E+02  0.00000000000E+00 0. -1.
         21    1    1    2  502  501  0.19680945392E+02  0.86467553103E+01 -0.16288538656E+01  0.21558273443E+02  0.00000000000E+00 0. -1.
         21    1    1    2  503  502 -0.19680945392E+02 -0.86467553103E+01  0.10372981028E+02  0.23868488103E+02  0.00000000000E+00 0.  1.
</event>
<event>
 4    1  0.5843276E+002  0.2860641E+02  0.7546771E-02  0.1432106E+00
          2   -1    0    0  503    0  0.00000000000E+00  0.00000000000E+00  0.18955203400E+03  0.18955203400E+03  0.00000000000E+00 0. -1.
         -2   -1    0    0    0  501 -0.00000000000E+00 -0.00000000000E+00 -0.55166956376E+01  0.55166956376E+01  0.00000000000E+00 0.  1.
         21    1    1    2  502  501 -0.28111171592E+02 -0.52998570952E+01  0.46537221503E+02  0.54626362123E+02  0.00000000000E+00 0. -1.
         21    1    1    2  503  502  0.28111171592E+02  0.52998570952E+01  0.13749811686E+03  0.14044236752E+03  0.00000000000E+00 0.  1.
</event>
<event>
 4    1  0.5843276E+002  0.3530939E+02  0.7546771E-02  0.1378401E+00
          2   -1    0    0  502    0  0.00000000000E+00  0.00000000000E+00  0.22498243651E+03  0.22498243651E+03  0.00000000000E+00 0. -1.
         -2   -1    0    0    0  501 -0.00000000000E+00 -0.00000000000E+00 -0.14806548612E+02  0.14806548612E+02  0.00000000000E+00 0.  1.
         21    1    1    2  502  503  0.26021699449E+02 -0.23866801924E+02  0.19992865959E+03  0.20302271302E+03  0.00000000000E+00 0. -1.
         21    1    1    2  503  501 -0.26021699449E+02  0.23866801924E+02  0.10247228308E+02  0.36766272102E+02  0.00000000000E+00 0.  1.
</event>
<event>
 4    1  0.5843276E+002  0.2665199E+02  0.7546771E-02  0.1451136E+00
          2   -1    0    0  503    0  0.00000000000E+00  0.00000000000E+00  0.90125841752E+03  0.90125841752E+03  0.00000000000E+00 0.  1.
         -2   -1    0    0    0  501 -0.00000000000E+00 -0.00000000000E+00 -0.27802704311E+01  0.27802704311E+01  0.00000000000E+00 0. -1.
         21    1    1    2  502  501  0.10597481304E+02 -0.24454487746E+02  0.66616064972E+02  0.71749764413E+02  0.00000000000E+00 0. -1.
         21    1    1    2  503  502 -0.10597481304E+02  0.24454487746E+02  0.83186208212E+03  0.83228892354E+03  0.00000000000E+00 0.  1.
</event>
<event>
 4    1  0.5843276E+002  0.2173707E+02  0.7546771E-02  0.1508996E+00
          2   -1    0    0  502    0  0.00000000000E+00  0.00000000000E+00  0.15465588163E+04  0.15465588163E+04  0.00000000000E+00 0.  1.
         -2   -1    0    0    0  501 -0.00000000000E+00 -0.00000000000E+00 -0.46368944862E+00  0.46368944862E+00  0.00000000000E+00 0. -1.
         21    1    1    2  502  503 -0.15930151788E+02  0.14789533832E+02  0.12248186321E+04  0.12250115027E+04  0.00000000000E+00 0.  1.
         21    1    1    2  503  501  0.15930151788E+02 -0.14789533832E+02  0.32127649474E+03  0.32201100310E+03  0.00000000000E+00 0. -1.
</event>
<event>
 4    1  0.5843276E+002  0.2328063E+02  0.7546771E-02  0.1489004E+00
          2   -1    0    0  502    0  0.00000000000E+00  0.00000000000E+00  0.13013546958E+03  0.13013546958E+03  0.00000000000E+00 0. -1.
         -2   -1    0    0    0  501 -0.00000000000E+00 -0.00000000000E+00 -0.64926563458E+01  0.64926563458E+01  0.00000000000E+00 0.  1.
         21    1    1    2  502  503 -0.92061050415E+01 -0.21383062559E+02  0.10272649467E+03  0.10533147887E+03  0.00000000000E+00 0. -1.
         21    1    1    2  503  501  0.92061050415E+01  0.21383062559E+02  0.20916318564E+02  0.31296647052E+02  0.00000000000E+00 0.  1.
</event>
<event>
 4    1  0.5843276E+002  0.4750125E+02  0.7546771E-02  0.1309385E+00
          2   -1    0    0  502    0  0.00000000000E+00  0.00000000000E+00  0.52062450267E+03  0.52062450267E+03  0.00000000000E+00 0.  1.
         -2   -1    0    0    0  501 -0.00000000000E+00 -0.00000000000E+00 -0.31613059590E+02  0.31613059590E+02  0.00000000000E+00 0. -1.
         21    1    1    2  502  503 -0.34222328283E+02 -0.32942384047E+02  0.50099998576E+03  0.50324681236E+03  0.00000000000E+00 0.  1.
         21    1    1    2  503  501  0.34222328283E+02  0.32942384047E+02 -0.11988542682E+02  0.48990749897E+02  0.00000000000E+00 0. -1.
</event>
<event>
 4    1  0.5843276E+002  0.2419251E+02  0.7546771E-02  0.1478043E+00
          2   -1    0    0  502    0  0.00000000000E+00  0.00000000000E+00  0.17657014605E+02  0.17657014605E+02  0.00000000000E+00 0.  1.
         -2   -1    0    0    0  501 -0.00000000000E+00 -0.00000000000E+00 -0.71083760986E+02  0.71083760986E+02  0.00000000000E+00 0. -1.
         21    1    1    2  502  503  0.97341397411E+01  0.22147777955E+02  0.57010272883E+01  0.24855165600E+02  0.00000000000E+00 0.  1.
         21    1    1    2  503  501 -0.97341397411E+01 -0.22147777955E+02 -0.59127773669E+02  0.63885609991E+02  0.00000000000E+00 0. -1.
</event>
<event>
 4    1  0.5843276E+002  0.3714380E+02  0.7546771E-02  0.1366088E+00
          2   -1    0    0  503    0  0.00000000000E+00  0.00000000000E+00  0.86789985921E+02  0.86789985921E+02  0.00000000000E+00 0.  1.
         -2   -1    0    0    0  501 -0.00000000000E+00 -0.00000000000E+00 -0.28867125912E+02  0.28867125912E+02  0.00000000000E+00 0. -1.
         21    1    1    2  502  501  0.29555059615E+02  0.22498013195E+02 -0.98018082386E+01  0.38415330160E+02  0.00000000000E+00 0. -1.
         21    1    1    2  503  502 -0.29555059615E+02 -0.22498013195E+02  0.67724668248E+02  0.77241781672E+02  0.00000000000E+00 0.  1.
</event>
<event>
 4    1  0.5843276E+002  0.2335351E+02  0.7546771E-02  0.1488106E+00
          2   -1    0    0  502    0  0.00000000000E+00  0.00000000000E+00  0.77221399683E+03  0.77221399683E+03  0.00000000000E+00 0.  1.
         -2   -1    0    0    0  501 -0.00000000000E+00 -0.00000000000E+00 -0.90066007484E+00  0.90066007484E+00  0.00000000000E+00 0. -1.
         21    1    1    2  502  503  0.43368924139E+01 -0.22947279047E+02  0.56524503739E+03  0.56572726516E+03  0.00000000000E+00 0. -1.
         21    1    1    2  503  501 -0.43368924139E+01  0.22947279047E+02  0.20606829937E+03  0.20738739175E+03  0.00000000000E+00 0.  1.
</event>
<event>
 4    1  0.5843276E+002  0.3813547E+02  0.7546771E-02  0.1359772E+00
          2   -1    0    0  502    0  0.00000000000E+00  0.00000000000E+00  0.86298008441E+02  0.86298008441E+02  0.00000000000E+00 0.  1.
         -2   -1    0    0    0  501 -0.00000000000E+00 -0.00000000000E+00 -0.17940792309E+02  0.17940792309E+02  0.00000000000E+00 0. -1.
         21    1    1    2  502  503 -0.24594570820E+02 -0.29144828837E+02  0.47016835777E+02  0.60538391193E+02  0.00000000000E+00 0. -1.
         21    1    1    2  503  501  0.24594570820E+02  0.29144828837E+02  0.21340380355E+02  0.43700409557E+02  0.00000000000E+00 0.  1.
</event>
<event>
 4    1  0.5843276E+002  0.2426076E+02  0.7546771E-02  0.1477246E+00
          2   -1    0    0  502    0  0.00000000000E+00  0.00000000000E+00  0.15838475938E+02  0.15838475938E+02  0.00000000000E+00 0. -1.
         -2   -1    0    0    0  501 -0.00000000000E+00 -0.00000000000E+00 -0.67833095037E+02  0.67833095037E+02  0.00000000000E+00 0.  1.
         21    1    1    2  502  503 -0.20404702861E+02  0.13123745597E+02  0.21342570306E+01  0.24354458533E+02  0.00000000000E+00 0. -1.
         21    1    1    2  503  501  0.20404702861E+02 -0.13123745597E+02 -0.54128876130E+02  0.59317112442E+02  0.00000000000E+00 0.  1.
</event>
<event>
 4    1  0.5843276E+002  0.4960141E+02  0.7546771E-02  0.1299910E+00
          2   -1    0    0  503    0  0.00000000000E+00  0.00000000000E+00  0.32038172414E+03  0.32038172414E+03  0.00000000000E+00 0. -1.
         -2   -1    0    0    0  501 -0.00000000000E+00 -0.00000000000E+00 -0.84193057895E+01  0.84193057895E+01  0.00000000000E+00 0.  1.
         21    1    1    2  502  501 -0.44906294611E+02  0.21064781924E+02  0.10724081474E+03  0.11815622150E+03  0.00000000000E+00 0.  1.
         21    1    1    2  503  502  0.44906294611E+02 -0.21064781924E+02  0.20472160361E+03  0.21064480843E+03  0.00000000000E+00 0. -1.
</event>
<event>
 4    1  0.5843276E+002  0.2144328E+02  0.7546771E-02  0.1513029E+00
          2   -1    0    0  503    0  0.00000000000E+00  0.00000000000E+00  0.95955874861E+03  0.95955874861E+03  0.00000000000E+00 0. -1.
         -2   -1    0    0    0  501 -0.00000000000E+00 -0.00000000000E+00 -0.49783111779E+00  0.49783111779E+00  0.00000000000E+00 0.  1.
         21    1    1    2  502  501  0.17257133193E+01 -0.21373730198E+02  0.57240990797E+03  0.57281141501E+03  0.00000000000E+00 0. -1.
         21    1    1    2  503  502 -0.17257133193E+01  0.21373730198E+02  0.38665100953E+03  0.38724516472E+03  0.00000000000E+00 0.  1.
</event>
<event>
 4    1  0.5843276E+002  0.2009557E+02  0.7546771E-02  0.1532580E+00
          2   -1    0    0  502    0  0.00000000000E+00  0.00000000000E+00  0.57497269586E+02  0.57497269586E+02  0.00000000000E+00 0.  1.
         -2   -1    0    0    0  501 -0.00000000000E+00 -0.00000000000E+00 -0.30403289131E+02  0.30403289131E+02  0.00000000000E+00 0. -1.
         21    1    1    2  502  503  0.17779459325E+02  0.93660333824E+01  0.52087876857E+02  0.55829908388E+02  0.00000000000E+00 0.  1.
         21    1    1    2  503  501 -0.17779459325E+02 -0.93660333824E+01 -0.24993896402E+02  0.32070650329E+02  0.00000000000E+00 0. -1.
</event>
<event>
 4    1  0.5843276E+002  0.2976584E+02  0.7546771E-02  0.1421642E+00
          2   -1    0    0  503    0  0.00000000000E+00  0.00000000000E+00  0.26639102733E+04  0.26639102733E+04  0.00000000000E+00 0.  1.
         -2   -1    0    0    0  501 -0.00000000000E+00 -0.00000000000E+00 -0.35366599700E+00  0.35366599700E+00  0.00000000000E+00 0. -1.
         21    1    1    2  502  501 -0.25588396676E+02  0.15206559174E+02  0.10066277936E+04  0.10070677834E+04  0.00000000000E+00 0. -1.
         21    1    1    2  503  502  0.25588396676E+02 -0.15206559174E+02  0.16569288136E+04  0.16571961558E+04  0.00000000000E+00 0.  1.
</event>
<event>
 4    1  0.5843276E+002  0.2014915E+02  0.7546771E-02  0.1531768E+00
          2   -1    0    0  502    0  0.00000000000E+00  0.00000000000E+00  0.10345949718E+04  0.10345949718E+04  0.00000000000E+00 0.  1.
         -2   -1    0    0    0  501 -0.00000000000E+00 -0.00000000000E+00 -0.71102042569E+01  0.71102042569E+01  0.00000000000E+00 0. -1.
         21    1    1    2  502  503  0.12240298974E+02 -0.16005097964E+02  0.10200180502E+04  0.10202170410E+04  0.00000000000E+00 0.  1.
         21    1    1    2  503  501 -0.12240298974E+02  0.16005097964E+02  0.74667173743E+01  0.21488135055E+02  0.00000000000E+00 0. -1.
</event>
<event>
 4    1  0.5843276E+002  0.5601432E+02  0.7546771E-02  0.1274011E+00
          2   -1    0    0  502    0  0.00000000000E+00  0.00000000000E+00  0.18047153168E+03  0.18047153168E+03  0.00000000000E+00 0. -1.
         -2   -1    0    0    0  501 -0.00000000000E+00 -0.00000000000E+00 -0.17411565410E+02  0.17411565410E+02  0.00000000000E+00 0.  1.
         21    1    1    2  502  503 -0.53596196511E+01  0.55757315524E+02  0.77708298435E+02  0.95792397417E+02  0.00000000000E+00 0.  1.
         21    1    1    2  503  501  0.53596196511E+01 -0.55757315524E+02  0.85351667830E+02  0.10209069967E+03  0.00000000000E+00 0. -1.
</event>
<event>
 4    1  0.5843276E+002  0.2091429E+02  0.7546771E-02  0.1520492E+00
          2   -1    0    0  503    0  0.00000000000E+00  0.00000000000E+00  0.93060325474E+03  0.93060325474E+03  0.00000000000E+00 0. -1.
         -2   -1    0    0    0  501 -0.00000000000E+00 -0.00000000000E+00 -0.33775896591E+01  0.33775896591E+01  0.00000000000E+00 0.  1.
         21    1    1    2  502  501 -0.14141210000E+02  0.15408887561E+02  0.30332322919E+02  0.36843689416E+02  0.00000000000E+00 0.  1.
         21    1    1    2  503  502  0.14141210000E+02 -0.15408887561E+02  0.89689334216E+03  0.89713715498E+03  0.00000000000E+00 0. -1.
</event>
<event>
 4    1  0.5843276E+002  0.3275317E+02  0.7546771E-02  0.1397087E+00
          2   -1    0    0  503    0  0.00000000000E+00  0.00000000000E+00  0.42370583633E+02  0.42370583633E+02  0.00000000000E+00 0.  1.
         -2   -1    0    0    0  501 -0.00000000000E+00 -0.00000000000E+00 -0.56498779380E+02  0.56498779380E+02  0.00000000000E+00 0. -1.
         21    1    1    2  502  501 -0.32359619818E+02  0.50621479492E+01 -0.43788137537E+02  0.54682459030E+02  0.00000000000E+00 0. -1.
         21    1    1    2  503  502  0.32359619818E+02 -0.50621479492E+01  0.29659941789E+02  0.44186903983E+02  0.00000000000E+00 0.  1.
</event>
<event>
 4    1  0.5843276E+002  0.2314593E+02  0.7546771E-02  0.1490674E+00
          2   -1    0    0  503    0  0.00000000000E+00  0.00000000000E+00  0.31026671202E+02  0.31026671202E+02  0.00000000000E+00 0. -1.
         -2   -1    0    0    0  501 -0.00000000000E+00 -0.00000000000E+00 -0.17719704564E+02  0.17719704564E+02  0.00000000000E+00 0.  1.
         21    1    1    2  502  501 -0.19601569669E+02  0.12309050628E+02  0.10549690968E+02  0.25436789113E+02  0.00000000000E+00 0.  1.
         21    1    1    2  503  502  0.19601569669E+02 -0.12309050628E+02  0.27572756692E+01  0.23309586653E+02  0.00000000000E+00 0. -1.
</event>
<event>
 4    1  0.5843276E+002  0.2216361E+02  0.7546771E-02  0.1503277E+00
          2   -1    0    0  503    0  0.00000000000E+00  0.00000000000E+00  0.13150839750E+04  0.13150839750E+04  0.00000000000E+00 0.  1.
         -2   -1    0    0    0  501 -0.00000000000E+00 -0.00000000000E+00 -0.48779135932E+01  0.48779135932E+01  0.00000000000E+00 0. -1.
         21    1    1    2  502  501 -0.44400279733E+01 -0.21714318959E+02  0.20894690615E+02  0.30460032701E+02  0.00000000000E+00 0. -1.
         21    1    1    2  503  502  0.44400279733E+01  0.21714318959E+02  0.12893113708E+04  0.12895018559E+04  0.00000000000E+00 0.  1.
</event>
<event>
 4    1  0.5843276E+002  0.2873963E+02  0.7546771E-02  0.1430875E+00
          2   -1    0    0  502    0  0.00000000000E+00  0.00000000000E+00  0.10249615769E+04  0.10249615769E+04  0.00000000000E+00 0. -1.
         -2   -1    0    0    0  501 -0.00000000000E+00 -0.00000000000E+00 -0.12340191379E+01  0.12340191379E+01  0.00000000000E+00 0.  1.
         21    1    1    2  502  503  0.21709760748E+02 -0.18832218650E+02  0.81409995508E+03  0.81460708507E+03  0.00000000000E+00 0. -1.
         21    1    1    2  503  501 -0.21709760748E+02  0.18832218650E+02  0.20962760268E+03  0.21158851097E+03  0.00000000000E+00 0.  1.
</event>
<event>
 4    1  0.5843276E+002  0.3209934E+02  0.7546771E-02  0.1402189E+00
          2   -1    0    0  502    0  0.00000000000E+00  0.00000000000E+00  0.17046312874E+04  0.17046312874E+04  0.00000000000E+00 0.  1.
         -2   -1    0    0    0  501 -0.00000000000E+00 -0.00000000000E+00 -0.61268441040E+00  0.61268441040E+00  0.00000000000E+00 0. -1.
         21    1    1    2  502  503 -0.29807027889E+02  0.11912535267E+02  0.95084356780E+03  0.95138523103E+03  0.00000000000E+00 0. -1.
         21    1    1    2  503  501  0.29807027889E+02 -0.11912535267E+02  0.75317503520E+03  0.75385874078E+03  0.00000000000E+00 0.  1.
</event>
<event>
 4    1  0.5843276E+002  0.3712563E+02  0.7546771E-02  0.1366206E+00
          2   -1    0    0  502    0  0.00000000000E+00  0.00000000000E+00  0.90359326541E+03  0.90359326541E+03  0.00000000000E+00 0.  1.
         -2   -1    0    0    0  501 -0.00000000000E+00 -0.00000000000E+00 -0.15414521529E+01  0.15414521529E+01  0.00000000000E+00 0. -1.
         21    1    1    2  502  503  0.34019860426E+01 -0.36969435682E+02  0.49725451822E+03  0.49863851493E+03  0.00000000000E+00 0.  1.
         21    1    1    2  503  501 -0.34019860426E+01  0.36969435682E+02  0.40479729503E+03  0.40649620263E+03  0.00000000000E+00 0. -1.
</event>
<event>
 4    1  0.5843276E+002  0.2134206E+02  0.7546771E-02  0.1514437E+00
          2   -1    0    0  502    0  0.00000000000E+00  0.00000000000E+00  0.17908820781E+03  0.17908820781E+03  0.00000000000E+00 0. -1.
         -2   -1    0    0    0  501 -0.00000000000E+00 -0.00000000000E+00 -0.27362280695E+01  0.27362280695E+01  0.00000000000E+00 0.  1.
         21    1    1    2  502  503 -0.21210069385E+02 -0.23699256726E+01  0.11231336615E+03  0.11432312017E+03  0.00000000000E+00 0.  1.
         21    1    1    2  503  501  0.21210069385E+02  0.23699256726E+01  0.64038613595E+02  0.67501315707E+02  0.00000000000E+00 0. -1.
</event>
<event>
 4    1  0.5843276E+002  0.2698494E+02  0.7546771E-02  0.1447759E+00
          2   -1    0    0  503    0  0.00000000000E+00  0.00000000000E+00  0.25791957930E+03  0.25791957930E+03  0.00000000000E+00 0.  1.
         -2   -1    0    0    0  501 -0.00000000000E+00 -0.00000000000E+00 -0.51498241857E+01  0.51498241857E+01  0.00000000000E+00 0. -1.
         21    1    1    2  502  501  0.26961392117E+02 -0.11270157436E+01  0.37975765027E+02  0.46586967693E+02  0.00000000000E+00 0. -1.
         21    1    1    2  503  502 -0.26961392117E+02  0.11270157436E+01  0.21479399009E+03  0.21648243580E+03  0.00000000000E+00 0.  1.
</event>
<event>
 4    1  0.5843276E+002  0.2572320E+02  0.7546771E-02  0.1460873E+00
          2   -1    0    0  503    0  0.00000000000E+00  0.00000000000E+00  0.46432112564E+03  0.46432112564E+03  0.00000000000E+00 0.  1.
         -2   -1    0    0    0  501 -0.00000000000E+00 -0.00000000000E+00 -0.15833895166E+01  0.15833895166E+01  0.00000000000E+00 0. -1.
         21    1    1    2  502  501  0.17073865060E+01 -0.25666468928E+02  0.15770375450E+03  0.15978784991E+03  0.00000000000E+00 0. -1.
         21    1    1    2  503  502 -0.17073865060E+01  0.25666468928E+02  0.30503398162E+03  0.30611666524E+03  0.00000000000E+00 0.  1.
</event>
<event>
 4    1  0.5843276E+002  0.2738036E+02  0.7546771E-02  0.1443824E+00
          2   -1    0    0  502    0  0.00000000000E+00  0.00000000000E+00  0.29218998582E+02  0.29218998582E+02  0.00000000000E+00 0.  1.
         -2   -1    0    0    0  501 -0.00000000000E+00 -0.00000000000E+00 -0.34238733780E+02  0.34238733780E+02  0.00000000000E+00 0. -1.
         21    1    1    2  502  503  0.15356148433E+02 -0.22668762187E+02  0.13374598988E+02  0.30472347659E+02  0.00000000000E+00 0.  1.
         21    1    1    2  503  501 -0.15356148433E+02  0.22668762187E+02 -0.18394334186E+02  0.32985384702E+02  0.00000000000E+00 0. -1.
</event>
<event>
 4    1  0.5843276E+002  0.2332449E+02  0.7546771E-02  0.1488463E+00
          2   -1    0    0  503    0  0.00000000000E+00  0.00000000000E+00  0.59939070792E+03  0.59939070792E+03  0.00000000000E+00 0. -1.
         -2   -1    0    0    0  501 -0.00000000000E+00 -0.00000000000E+00 -0.16075811692E+01  0.16075811692E+01  0.00000000000E+00 0.  1.
         21    1    1    2  502  501  0.21377311532E+02  0.93296507305E+01  0.10060781752E+03  0.10327615783E+03  0.00000000000E+00 0.  1.
         21    1    1    2  503  502 -0.21377311532E+02 -0.93296507305E+01  0.49717530924E+03  0.49772213126E+03  0.00000000000E+00 0. -1.
</event>
<event>
 4    1  0.5843276E+002  0.2530767E+02  0.7546771E-02  0.1465391E+00
          2   -1    0    0  502    0  0.00000000000E+00  0.00000000000E+00  0.26991720727E+03  0.26991720727E+03  0.00000000000E+00 0. -1.
         -2   -1    0    0    0  501 -0.00000000000E+00 -0.00000000000E+00 -0.39634114237E+01  0.39634114237E+01  0.00000000000E+00 0.  1.
         21    1    1    2  502  503 -0.23749125632E+02  0.87439770803E+01  0.21972687933E+03  0.22117951895E+03  0.00000000000E+00 0. -1.
         21    1    1    2  503  501  0.23749125632E+02 -0.87439770803E+01  0.46226916517E+02  0.52701099743E+02  0.00000000000E+00 0.  1.
</event>
<event>
 4    1  0.5843276E+002  0.4698151E+02  0.7546771E-02  0.1311818E+00
          2   -1    0    0  502    0  0.00000000000E+00  0.00000000000E+00  0.96112230399E+02  0.96112230399E+02  0.00000000000E+00 0. -1.
         -2   -1    0    0    0  501 -0.00000000000E+00 -0.00000000000E+00 -0.54388125493E+02  0.54388125493E+02  0.00000000000E+00 0.  1.
         21    1    1    2  502  503 -0.38279487313E+02 -0.27238637250E+02  0.78059537092E+02  0.91107375328E+02  0.00000000000E+00 0. -1.
         21    1    1    2  503  501  0.38279487313E+02  0.27238637250E+02 -0.36335432185E+02  0.59392980564E+02  0.00000000000E+00 0.  1.
</event>
<event>
 4    1  0.5843276E+002  0.2215693E+02  0.7546771E-02  0.1503365E+00
          2   -1    0    0  502    0  0.00000000000E+00  0.00000000000E+00  0.11620374592E+04  0.11620374592E+04  0.00000000000E+00 0.  1.
         -2   -1    0    0    0  501 -0.00000000000E+00 -0.00000000000E+00 -0.57326311572E+00  0.57326311572E+00  0.00000000000E+00 0. -1.
         21    1    1    2  502  503 -0.11084383427E+02 -0.19185051403E+02  0.87886739181E+03  0.87914664427E+03  0.00000000000E+00 0.  1.
         21    1    1    2  503  501  0.11084383427E+02  0.19185051403E+02  0.28259680423E+03  0.28346407799E+03  0.00000000000E+00 0. -1.
</event>
<event>
 4    1  0.5843276E+002  0.2777921E+02  0.7546771E-02  0.1439934E+00
          2   -1    0    0  503    0  0.00000000000E+00  0.00000000000E+00  0.13998785485E+03  0.13998785485E+03  0.00000000000E+00 0.  1.
         -2   -1    0    0    0  501 -0.00000000000E+00 -0.00000000000E+00 -0.62398174280E+01  0.62398174280E+01  0.00000000000E+00 0. -1.
         21    1    1    2  502  501  0.24592656036E+02  0.12918424358E+02  0.41912402175E+02  0.50282540457E+02  0.00000000000E+00 0. -1.
         21    1    1    2  503  502 -0.24592656036E+02 -0.12918424358E+02  0.91835635252E+02  0.95945131825E+02  0.00000000000E+00 0.  1.
</event>
<event>
 4    1  0.5843276E+002  0.2249031E+02  0.7546771E-02  0.1498999E+00
          2   -1    0    0  503    0  0.00000000000E+00  0.00000000000E+00  0.18992298239E+04  0.18992298239E+04  0.00000000000E+00 0.  1.
         -2   -1    0    0    0  501 -0.00000000000E+00 -0.00000000000E+00 -0.26989711239E+00  0.26989711239E+00  0.00000000000E+00 0. -1.
         21    1    1    2  502  501  0.91542843246E+01 -0.20542957384E+02  0.84023025586E+03  0.84053119923E+03  0.00000000000E+00 0. -1.
         21    1    1    2  503  502 -0.91542843246E+01  0.20542957384E+02  0.10587296709E+04  0.10589685217E+04  0.00000000000E+00 0.  1.
</event>
<event>
 4    1  0.5843276E+002  0.2690010E+02  0.7546771E-02  0.1448614E+00
          2   -1    0    0  503    0  0.00000000000E+00  0.00000000000E+00  0.57951306293E+01  0.57951306293E+01  0.00000000000E+00 0. -1.
         -2   -1    0    0    0  501 -0.00000000000E+00 -0.00000000000E+00 -0.16742382101E+03  0.16742382101E+03  0.00000000000E+00 0.  1.
         21    1    1    2  502  501 -0.26710517533E+02  0.31880154200E+01 -0.12448061743E+03  0.12735399210E+03  0.00000000000E+00 0.  1.
         21    1    1    2  503  502  0.26710517533E+02 -0.31880154200E+01 -0.37148072954E+02  0.45864959538E+02  0.00000000000E+00 0. -1.
</event>
<event>
 4    1  0.5843276E+002  0.2870133E+02  0.7546771E-02  0.1431228E+00
          2   -1    0    0  502    0  0.00000000000E+00  0.00000000000E+00  0.40611535200E+03  0.40611535200E+03  0.00000000000E+00 0. -1.
         -2   -1    0    0    0  501 -0.00000000000E+00 -0.00000000000E+00 -0.10781012580E+02  0.10781012580E+02  0.00000000000E+00 0.  1.
         21    1    1    2  502  503  0.28152547690E+02  0.55857226405E+01  0.38548511070E+03  0.38655211397E+03  0.00000000000E+00 0. -1.
         21    1    1    2  503  501 -0.28152547690E+02 -0.55857226405E+01  0.98492287164E+01  0.30344250612E+02  0.00000000000E+00 0.  1.
</event>
<event>
 4    1  0.5843276E+002  0.2219476E+02  0.7546771E-02  0.1502865E+00
          2   -1    0    0  503    0  0.00000000000E+00  0.00000000000E+00  0.24375951503E+01  0.24375951503E+01  0.00000000000E+00 0.  1.
         -2   -1    0    0    0  501 -0.00000000000E+00 -0.00000000000E+00 -0.14322276483E+04  0.14322276483E+04  0.00000000000E+00 0. -1.
         21    1    1    2  502  501  0.22150776961E+02 -0.13966278085E+01 -0.13796963154E+04  0.13798748241E+04  0.00000000000E+00 0. -1.
         21    1    1    2  503  502 -0.22150776961E+02  0.13966278085E+01 -0.50093737714E+02  0.54790419303E+02  0.00000000000E+00 0.  1.
</event>
<event>
 4    1  0.5843276E+002  0.3827598E+02  0.7546771E-02  0.1358896E+00
          2   -1    0    0  502    0  0.00000000000E+00  0.00000000000E+00  0.20508486809E+04  0.20508486809E+04  0.00000000000E+00 0.  1.
         -2   -1    0    0    0  501 -0.00000000000E+00 -0.00000000000E+00 -0.77889702976E+00  0.77889702976E+00  0.00000000000E+00 0. -1.
         21    1    1    2  502  503 -0.35674187945E+02 -0.13870935332E+02  0.13203071943E+04  0.13208618921E+04  0.00000000000E+00 0.  1.
         21    1    1    2  503  501  0.35674187945E+02  0.13870935332E+02  0.72976258958E+03  0.73076568589E+03  0.00000000000E+00 0. -1.
</event>
<event>
 4    1  0.5843276E+002  0.2949460E+02  0.7546771E-02  0.1424040E+00
          2   -1    0    0  503    0  0.00000000000E+00  0.00000000000E+00  0.93632743847E+01  0.93632743847E+01  0.00000000000E+00 0. -1.
         -2   -1    0    0    0  501 -0.00000000000E+00 -0.00000000000E+00 -0.12348505284E+03  0.12348505284E+03  0.00000000000E+00 0.  1.
         21    1    1    2  502  501 -0.18259129153E+02  0.23163239775E+02 -0.90113849091E+02  0.94817916410E+02  0.00000000000E+00 0.  1.
         21    1    1    2  503  502  0.18259129153E+02 -0.23163239775E+02 -0.24007929360E+02  0.38030410811E+02  0.00000000000E+00 0. -1.
</event>
<event>
 4    1  0.5843276E+002  0.2187702E+02  0.7546771E-02  0.1507102E+00
          2   -1    0    0  502    0  0.00000000000E+00  0.00000000000E+00  0.10526403555E+01  0.10526403555E+01  0.00000000000E+00 0.  1.
         -2   -1    0    0    0  501 -0.00000000000E+00 -0.00000000000E+00 -0.57603915554E+03  0.57603915554E+03  0.00000000000E+00 0. -1.
         21    1    1    2  502  503  0.11292586009E+02  0.18737167264E+02 -0.15504594217E+03  0.15658176177E+03  0.00000000000E+00 0.  1.
         21    1    1    2  503  501 -0.11292586009E+02 -0.18737167264E+02 -0.41994057302E+03  0.42051003413E+03  0.00000000000E+00 0. -1.
</event>
<event>
 4    1  0.5843276E+002  0.2403353E+02  0.7546771E-02  0.1479912E+00
          2   -1    0    0  503    0  0.00000000000E+00  0.00000000000E+00  0.11761346070E+03  0.11761346070E+03  0.00000000000E+00 0.  1.
         -2   -1    0    0    0  501 -0.00000000000E+00 -0.00000000000E+00 -0.49141289298E+01  0.49141289298E+01  0.00000000000E+00 0. -1.
         21    1    1    2  502  501 -0.78671265938E+00 -0.24020653972E+02  0.54827116238E+02  0.59863372850E+02  0.00000000000E+00 0. -1.
         21    1    1    2  503  502  0.78671265938E+00  0.24020653972E+02  0.57872215536E+02  0.62664216783E+02  0.00000000000E+00 0.  1.
</event>
<event>
 4    1  0.5843276E+002  0.2045482E+02  0.7546771E-02  0.1527193E+00
          2   -1    0    0  502    0  0.00000000000E+00  0.00000000000E+00  0.14813080693E+03  0.14813080693E+03  0.00000000000E+00 0. -1.
         -2   -1    0    0    0  501 -0.00000000000E+00 -0.00000000000E+00 -0.30566993146E+01  0.30566993146E+01  0.00000000000E+00 0.  1.
         21    1    1    2  502  503  0.15386457792E+02 -0.13478006088E+02  0.51703513701E+02  0.55602635373E+02  0.00000000000E+00 0.  1.
         21    1    1    2  503  501 -0.15386457792E+02  0.13478006088E+02  0.93370593916E+02  0.95584870873E+02  0.00000000000E+00 0. -1.
</event>
<event>
 4    1  0.5843276E+002  0.3757271E+02  0.7546771E-02  0.1363328E+00
          2   -1    0    0  503    0  0.00000000000E+00  0.00000000000E+00  0.17710343367E+02  0.17710343367E+02  0.00000000000E+00 0.  1.
         -2   -1    0    0    0  501 -0.00000000000E+00 -0.00000000000E+00 -0.97272548871E+02  0.97272548871E+02  0.00000000000E+00 0. -1.
         21    1    1    2  502  501 -0.19246789276E+01 -0.37523382187E+02 -0.64209214520E+02  0.74394434126E+02  0.00000000000E+00 0. -1.
         21    1    1    2  503  502  0.19246789276E+01  0.37523382187E+02 -0.15352990985E+02  0.40588458112E+02  0.00000000000E+00 0.  1.
</event>
<event>
 4    1  0.5843276E+002  0.4333825E+02  0.7546771E-02  0.1329961E+00
          2   -1    0    0  502    0  0.00000000000E+00  0.00000000000E+00  0.46777792680E+02  0.46777792680E+02  0.00000000000E+00 0. -1.
         -2   -1    0    0    0  501 -0.00000000000E+00 -0.00000000000E+00 -0.96009170591E+02  0.96009170591E+02  0.00000000000E+00 0.  1.
         21    1    1    2  502  503  0.17016698083E+02 -0.39857698529E+02  0.29839986254E+02  0.52617762451E+02  0.00000000000E+00 0. -1.
         21    1    1    2  503  501 -0.17016698083E+02  0.39857698529E+02 -0.79071364165E+02  0.90169200820E+02  0.00000000000E+00 0.  1.
</event>
<event>
 4    1  0.5843276E+002  0.2194969E+02  0.7546771E-02  0.1506125E+00
          2   -1    0    0  502    0  0.00000000000E+00  0.00000000000E+00  0.29652716603E+03  0.29652716603E+03  0.00000000000E+00 0. -1.
         -2   -1    0    0    0  501 -0.00000000000E+00 -0.00000000000E+00 -0.19725415200E+01  0.19725415200E+01  0.00000000000E+00 0.  1.
         21    1    1    2  502  503  0.21785266578E+02 -0.26816525490E+01  0.20994540269E+03  0.21108969945E+03  0.00000000000E+00 0.  1.
         21    1    1    2  503  501 -0.21785266578E+02  0.26816525490E+01  0.84609221821E+02  0.87410008108E+02  0.00000000000E+00 0. -1.
</event>
<event>
 4    1  0.5843276E+002  0.4897072E+02  0.7546771E-02  0.1302698E+00
          2   -1    0    0  503    0  0.00000000000E+00  0.00000000000E+00  0.32539660571E+02  0.32539660571E+02  0.00000000000E+00 0. -1.
         -2   -1    0    0    0  501 -0.00000000000E+00 -0.00000000000E+00 -0.46251890085E+03  0.46251890085E+03  0.00000000000E+00 0.  1.
         21    1    1    2  502  501 -0.27409083448E+02  0.40581689137E+02 -0.44194278120E+03  0.44464767312E+03  0.00000000000E+00 0.  1.
         21    1    1    2  503  502  0.27409083448E+02 -0.40581689137E+02  0.11963540922E+02  0.50410888309E+02  0.00000000000E+00 0. -1.
</event>
<event>
 4    1  0.5843276E+002  0.2295724E+02  0.7546771E-02  0.1493036E+00
          2   -1    0    0  503    0  0.00000000000E+00  0.00000000000E+00  0.29772779249E+03  0.29772779249E+03  0.00000000000E+00 0. -1.
         -2   -1    0    0    0  501 -0.00000000000E+00 -0.00000000000E+00 -0.29884102701E+01  0.29884102701E+01  0.00000000000E+00 0.  1.
         21    1    1    2  502  501 -0.28124340604E+01 -0.22784313291E+02  0.51370038880E+02  0.56266469696E+02  0.00000000000E+00 0.  1.
         21    1    1    2  503  502  0.28124340604E+01  0.22784313291E+02  0.24336934334E+03  0.24444973307E+03  0.00000000000E+00 0. -1.
</event>
<event>
 4    1  0.5843276E+002  0.3669689E+02  0.7546771E-02  0.1369010E+00
          2   -1    0    0  503    0  0.00000000000E+00  0.00000000000E+00  0.94583292145E+03  0.94583292145E+03  0.00000000000E+00 0.  1.
         -2   -1    0    0    0  501 -0.00000000000E+00 -0.00000000000E+00 -0.24221003917E+01  0.24221003917E+01  0.00000000000E+00 0. -1.
         21    1    1    2  502  501  0.41371043221E+01 -0.36462939061E+02  0.16731340781E+03  0.17129050759E+03  0.00000000000E+00 0. -1.
         21    1    1    2  503  502 -0.41371043221E+01  0.36462939061E+02  0.77609741325E+03  0.77696451425E+03  0.00000000000E+00 0.  1.
</event>
<event>
 4    1  0.5843276E+002  0.2023179E+02  0.7546771E-02  0.1530521E+00
          2   -1    0    0  502    0  0.00000000000E+00  0.00000000000E+00  0.57392985529E+03  0.57392985529E+03  0.00000000000E+00 0. -1.
         -2   -1    0    0    0  501 -0.00000000000E+00 -0.00000000000E+00 -0.10256956490E+01  0.10256956490E+01  0.00000000000E+00 0.  1.
         21    1    1    2  502  503 -0.54711485863E+01  0.19477979778E+02  0.44513089729E+03  0.44559044075E+03  0.00000000000E+00 0. -1.
         21    1    1    2  503  501  0.54711485863E+01 -0.19477979778E+02  0.12777326235E+03  0.12936511019E+03  0.00000000000E+00 0.  1.
</event>
<event>
 4    1  0.5843276E+002  0.2555218E+02  0.7546771E-02  0.1462720E+00
          2   -1    0    0  503    0  0.00000000000E+00  0.00000000000E+00  0.25023489127E+04  0.25023489127E+04  0.00000000000E+00 0. -1.
         -2   -1    0    0    0  501 -0.00000000000E+00 -0.00000000000E+00 -0.26546479230E+00  0.26546479230E+00  0.00000000000E+00 0.  1.
         21    1    1    2  502  501  0.21367070324E+02 -0.14012931114E+02  0.14147600754E+04  0.14149908074E+04  0.00000000000E+00 0. -1.
         21    1    1    2  503  502 -0.21367070324E+02  0.14012931114E+02  0.10873233725E+04  0.10876235701E+04  0.00000000000E+00 0.  1.
</event>
<event>
 4    1  0.5843276E+002  0.2179288E+02  0.7546771E-02  0.1508239E+00
          2   -1    0    0  503    0  0.00000000000E+00  0.00000000000E+00  0.45446834834E+01  0.45446834834E+01  0.00000000000E+00 0. -1.
         -2   -1    0    0    0  501 -0.00000000000E+00 -0.00000000000E+00 -0.11951401754E+03  0.11951401754E+03  0.00000000000E+00 0.  1.
         21    1    1    2  502  501 -0.98635946693E+01  0.19432942930E+02 -0.35500837856E+02  0.41656203130E+02  0.00000000000E+00 0. -1.
         21    1    1    2  503  502  0.98635946693E+01 -0.19432942930E+02 -0.79468496199E+02  0.82402497892E+02  0.00000000000E+00 0.  1.
</event>
<event>
 4    1  0.5843276E+002  0.3688534E+02  0.7546771E-02  0.1367772E+00
          2   -1    0    0  503    0  0.00000000000E+00  0.00000000000E+00  0.40673090850E+02  0.40673090850E+02  0.00000000000E+00 0. -1.
         -2   -1    0    0    0  501 -0.00000000000E+00 -0.00000000000E+00 -0.38217430309E+02  0.38217430309E+02  0.00000000000E+00 0.  1.
         21    1    1    2  502  501 -0.12684847011E+02 -0.34635576429E+02 -0.12703449817E+02  0.39011615392E+02  0.00000000000E+00 0. -1.
         21    1    1    2  503  502  0.12684847011E+02  0.34635576429E+02  0.15159110358E+02  0.39878905766E+02  0.00000000000E+00 0.  1.
</event>
<event>
 4    1  0.5843276E+002  0.2310378E+02  0.7546771E-02  0.1491199E+00
          2   -1    0    0  502    0  0.00000000000E+00  0.00000000000E+00  0.22899740691E+02  0.22899740691E+02  0.00000000000E+00 0.  1.
         -2   -1    0    0    0  501 -0.00000000000E+00 -0.00000000000E+00 -0.10442966962E+03  0.10442966962E+03  0.00000000000E+00 0. -1.
         21    1    1    2  502  503 -0.77518348886E+01 -0.21764503878E+02  0.15346402190E+02  0.27736197168E+02  0.00000000000E+00 0.  1.
         21    1    1    2  503  501  0.77518348886E+01  0.21764503878E+02 -0.96876331117E+02  0.99593213141E+02  0.00000000000E+00 0. -1.
</event>
<event>
 4    1  0.5843276E+002  0.2264331E+02  0.7546771E-02  0.1497026E+00
          2   -1    0    0  502    0  0.00000000000E+00  0.00000000000E+00  0.50572377126E+02  0.50572377126E+02  0.00000000000E+00 0. -1.
         -2   -1    0    0    0  501 -0.00000000000E+00 -0.00000000000E+00 -0.10717270075E+02  0.10717270075E+02  0.00000000000E+00 0.  1.
         21    1    1    2  502  503 -0.14821251843E+02 -0.17118709277E+02  0.27050011203E+02  0.35276377642E+02  0.00000000000E+00 0. -1.
         21    1    1    2  503  501  0.14821251843E+02  0.17118709277E+02  0.12805095848E+02  0.26013269559E+02  0.00000000000E+00 0.  1.
</event>
<event>
 4    1  0.5843276E+002  0.2052593E+02  0.7546771E-02  0.1526142E+00
          2   -1    0    0  503    0  0.00000000000E+00  0.00000000000E+00  0.72387721512E+03  0.72387721512E+03  0.00000000000E+00 0.  1.
         -2   -1    0    0    0  501 -0.00000000000E+00 -0.00000000000E+00 -0.72167601558E+00  0.72167601558E+00  0.00000000000E+00 0. -1.
         21    1    1    2  502  501  0.20525420814E+02  0.14453922912E+00  0.20220269623E+03  0.20324183662E+03  0.00000000000E+00 0. -1.
         21    1    1    2  503  502 -0.20525420814E+02 -0.14453922912E+00  0.52095284287E+03  0.52135705451E+03  0.00000000000E+00 0.  1.
</event>
<event>
 4    1  0.5843276E+002  0.2113164E+02  0.7546771E-02  0.1517394E+00
          2   -1    0    0  503    0  0.00000000000E+00  0.00000000000E+00  0.60574620594E+03  0.60574620594E+03  0.00000000000E+00 0. -1.
         -2   -1    0    0    0  501 -0.00000000000E+00 -0.00000000000E+00 -0.75297991500E+00  0.75297991500E+00  0.00000000000E+00 0.  1.
         21    1    1    2  502  501 -0.34530084283E+01 -0.20847612565E+02  0.25857428694E+03  0.25943632761E+03  0.00000000000E+00 0.  1.
         21    1    1    2  503  502  0.34530084283E+01  0.20847612565E+02  0.34641893909E+03  0.34706285825E+03  0.00000000000E+00 0. -1.
</event>
<event>
 4    1  0.5843276E+002  0.2100965E+02  0.7546771E-02  0.1519127E+00
          2   -1    0    0  503    0  0.00000000000E+00  0.00000000000E+00  0.18899020359E+02  0.18899020359E+02  0.00000000000E+00 0.  1.
         -2   -1    0    0    0  501 -0.00000000000E+00 -0.00000000000E+00 -0.23672165197E+02  0.23672165197E+02  0.00000000000E+00 0. -1.
         21    1    1    2  502  501  0.85929685558E+01 -0.19172015514E+02 -0.48465560673E+01  0.21561409815E+02  0.00000000000E+00 0. -1.
         21    1    1    2  503  502 -0.85929685558E+01  0.19172015514E+02  0.73411228889E-01  0.21009775741E+02  0.00000000000E+00 0.  1.
</event>
<event>
 4    1  0.5843276E+002  0.2893224E+02  0.7546771E-02  0.1429108E+00
          2   -1    0    0  503    0  0.00000000000E+00  0.00000000000E+00  0.76489466646E+03  0.76489466646E+03  0.00000000000E+00 0.  1.
         -2   -1    0    0    0  501 -0.00000000000E+00 -0.00000000000E+00 -0.28075131654E+01  0.28075131654E+01  0.00000000000E+00 0. -1.
         21    1    1    2  502  501 -0.28906580753E+02  0.12181728197E+01  0.81196877008E+02  0.86197489474E+02  0.00000000000E+00 0. -1.
         21    1    1    2  503  502  0.28906580753E+02 -0.12181728197E+01  0.68089027628E+03  0.68150469015E+03  0.00000000000E+00 0.  1.
</event>
<event>
 4    1  0.5843276E+002  0.2105267E+02  0.7546771E-02  0.1518514E+00
          2   -1    0    0  503    0  0.00000000000E+00  0.00000000000E+00  0.35061700284E+03  0.35061700284E+03  0.00000000000E+00 0. -1.
         -2   -1    0    0    0  501 -0.00000000000E+00 -0.00000000000E+00 -0.13371785817E+01  0.13371785817E+01  0.00000000000E+00 0.  1.
         21    1    1    2  502  501 -0.80116923141E+01  0.19468631824E+02  0.13350055954E+03  0.13515033939E+03  0.00000000000E+00 0.  1.
         21    1    1    2  503  502  0.80116923141E+01 -0.19468631824E+02  0.21577926472E+03  0.21680384204E+03  0.00000000000E+00 0. -1.
</event>
<event>
 4    1  0.5843276E+002  0.2262713E+02  0.7546771E-02  0.1497234E+00
          2   -1    0    0  503    0  0.00000000000E+00  0.00000000000E+00  0.13553936314E+03  0.13553936314E+03  0.00000000000E+00 0.  1.
         -2   -1    0    0    0  501 -0.00000000000E+00 -0.00000000000E+00 -0.39992375302E+01  0.39992375302E+01  0.00000000000E+00 0. -1.
         21    1    1    2  502  501 -0.21997718347E+02 -0.52997694151E+01  0.49338167467E+02  0.54279295660E+02  0.00000000000E+00 0. -1.
         21    1    1    2  503  502  0.21997718347E+02  0.52997694151E+01  0.82201958146E+02  0.85259305013E+02  0.00000000000E+00 0.  1.
</event>
<event>
 4    1  0.5843276E+002  0.2520871E+02  0.7546771E-02  0.1466482E+00
          2   -1    0    0  503    0  0.00000000000E+00  0.00000000000E+00  0.15134025442E+04  0.15134025442E+04  0.00000000000E+00 0.  1.
         -2   -1    0    0    0  501 -0.00000000000E+00 -0.00000000000E+00 -0.10612605206E+01  0.10612605206E+01  0.00000000000E+00 0. -1.
         21    1    1    2  502  501  0.16662492752E+02 -0.18916673389E+02  0.16750500963E+03  0.16939128504E+03  0.00000000000E+00 0. -1.
         21    1    1    2  503  502 -0.16662492752E+02  0.18916673389E+02  0.13448362740E+04  0.13450725197E+04  0.00000000000E+00 0.  1.
</event>
<event>
 4    1  0.5843276E+002  0.5500017E+02  0.7546771E-02  0.1277837E+00
          2   -1    0    0  502    0  0.00000000000E+00  0.00000000000E+00  0.38639341809E+03  0.38639341809E+03  0.00000000000E+00 0. -1.
         -2   -1    0    0    0  501 -0.00000000000E+00 -0.00000000000E+00 -0.85458466346E+01  0.85458466346E+01  0.00000000000E+00 0.  1.
         21    1    1    2  502  503  0.18471589842E+02  0.51805590473E+02  0.24612156844E+03  0.25219208014E+03  0.00000000000E+00 0. -1.
         21    1    1    2  503  501 -0.18471589842E+02 -0.51805590473E+02  0.13172600302E+03  0.14274718459E+03  0.00000000000E+00 0.  1.
</event>
<event>
 4    1  0.5843276E+002  0.2595400E+02  0.7546771E-02  0.1458408E+00
          2   -1    0    0  502    0  0.00000000000E+00  0.00000000000E+00  0.37708505661E+01  0.37708505661E+01  0.00000000000E+00 0. -1.
         -2   -1    0    0    0  501 -0.00000000000E+00 -0.00000000000E+00 -0.26871293130E+03  0.26871293130E+03  0.00000000000E+00 0.  1.
         21    1    1    2  502  503 -0.24273044411E+02 -0.91885626151E+01 -0.53589983791E+02  0.59544073849E+02  0.00000000000E+00 0. -1.
         21    1    1    2  503  501  0.24273044411E+02  0.91885626151E+01 -0.21135209694E+03  0.21293970801E+03  0.00000000000E+00 0.  1.
</event>
<event>
 4    1  0.5843276E+002  0.2501900E+02  0.7546771E-02  0.1468591E+00
          2   -1    0    0  503    0  0.00000000000E+00  0.00000000000E+00  0.12212861454E+02  0.12212861454E+02  0.00000000000E+00 0. -1.
         -2   -1    0    0    0  501 -0.00000000000E+00 -0.00000000000E+00 -0.83497040131E+02  0.83497040131E+02  0.00000000000E+00 0.  1.
         21    1    1    2  502  501 -0.24993551569E+02  0.11282067303E+01 -0.65380207192E+02  0.70003728207E+02  0.00000000000E+00 0.  1.
         21    1    1    2  503  502  0.24993551569E+02 -0.11282067303E+01 -0.59039714843E+01  0.25706173378E+02  0.00000000000E+00 0. -1.
</event>
<event>
 4    1  0.5843276E+002  0.2235588E+02  0.7546771E-02  0.1500749E+00
          2   -1    0    0  503    0  0.00000000000E+00  0.00000000000E+00  0.12174701673E+04  0.12174701673E+04  0.00000000000E+00 0.  1.
         -2   -1    0    0    0  501 -0.00000000000E+00 -0.00000000000E+00 -0.41631126489E+00  0.41631126489E+00  0.00000000000E+00 0. -1.
         21    1    1    2  502  501  0.11814645506E+02 -0.18978923264E+02  0.53665209333E+03  0.53711754268E+03  0.00000000000E+00 0. -1.
         21    1    1    2  503  502 -0.11814645506E+02  0.18978923264E+02  0.68040176269E+03  0.68076893587E+03  0.00000000000E+00 0.  1.
</event>
<event>
 4    1  0.5843276E+002  0.2496847E+02  0.7546771E-02  0.1469156E+00
          2   -1    0    0  503    0  0.00000000000E+00  0.00000000000E+00  0.12653541537E+03  0.12653541537E+03  0.00000000000E+00 0. -1.
         -2   -1    0    0    0  501 -0.00000000000E+00 -0.00000000000E+00 -0.49306024084E+01  0.49306024084E+01  0.00000000000E+00 0.  1.
         21    1    1    2  502  501 -0.16275941400E+01  0.24915362433E+02  0.58995410353E+02  0.64061554700E+02  0.00000000000E+00 0. -1.
         21    1    1    2  503  502  0.16275941400E+01 -0.24915362433E+02  0.62609402608E+02  0.67404463077E+02  0.00000000000E+00 0.  1.
</event>
<event>
 4    1  0.5843276E+002  0.3932926E+02  0.7546771E-02  0.1352462E+00
          2   -1    0    0  503    0  0.00000000000E+00  0.00000000000E+00  0.64901328288E+02  0.64901328288E+02  0.00000000000E+00 0. -1.
         -2   -1    0    0    0  501 -0.00000000000E+00 -0.00000000000E+00 -0.28649449215E+02  0.28649449215E+02  0.00000000000E+00 0.  1.
         21    1    1    2  502  501 -0.34371412633E+02  0.19115361327E+02  0.37304869174E+02  0.54207419319E+02  0.00000000000E+00 0. -1.
         21    1    1    2  503  502  0.34371412633E+02 -0.19115361327E+02 -0.10529901010E+01  0.39343358185E+02  0.00000000000E+00 0.  1.
</event>
<event>
 4    1  0.5843276E+002  0.4308146E+02  0.7546771E-02  0.1331317E+00
          2   -1    0    0  503    0  0.00000000000E+00  0.00000000000E+00  0.57794959799E+02  0.57794959799E+02  0.00000000000E+00 0. -1.
         -2   -1    0    0    0  501 -0.00000000000E+00 -0.00000000000E+00 -0.78392984217E+02  0.78392984217E+02  0.00000000000E+00 0.  1.
         21    1    1    2  502  501  0.16503565968E+02 -0.39795027518E+02 -0.62618469606E+02  0.76007135458E+02  0.00000000000E+00 0.  1.
         21    1    1    2  503  502 -0.16503565968E+02  0.39795027518E+02  0.42020445188E+02  0.60180808557E+02  0.00000000000E+00 0. -1.
</event>
<event>
 4    1  0.5843276E+002  0.2953350E+02  0.7546771E-02  0.1423694E+00
          2   -1    0    0  502    0  0.00000000000E+00  0.00000000000E+00  0.47531782209E+03  0.47531782209E+03  0.00000000000E+00 0.  1.
         -2   -1    0    0    0  501 -0.00000000000E+00 -0.00000000000E+00 -0.48688958150E+01  0.48688958150E+01  0.00000000000E+00 0. -1.
         21    1    1    2  502  503  0.28458910442E+02 -0.78941731192E+01  0.42474763867E+03  0.42577316039E+03  0.00000000000E+00 0.  1.
         21    1    1    2  503  501 -0.28458910442E+02  0.78941731192E+01  0.45701287611E+02  0.54413557521E+02  0.00000000000E+00 0. -1.
</event>
<event>
 4    1  0.5843276E+002  0.4603636E+02  0.7546771E-02  0.1316337E+00
          2   -1    0    0  503    0  0.00000000000E+00  0.00000000000E+00  0.10163721910E+04  0.10163721910E+04  0.00000000000E+00 0. -1.
         -2   -1    0    0    0  501 -0.00000000000E+00 -0.00000000000E+00 -0.48512237696E+01  0.48512237696E+01  0.00000000000E+00 0.  1.
         21    1    1    2  502  501 -0.81910478570E+01 -0.45301799675E+02  0.12019999177E+03  0.12871435173E+03  0.00000000000E+00 0.  1.
         21    1    1    2  503  502  0.81910478570E+01  0.45301799675E+02  0.89132097543E+03  0.89250906301E+03  0.00000000000E+00 0. -1.
</event>
<event>
 4    1  0.5843276E+002  0.3746886E+02  0.7546771E-02  0.1363992E+00
          2   -1    0    0  502    0  0.00000000000E+00  0.00000000000E+00  0.21286498718E+03  0.21286498718E+03  0.00000000000E+00 0.  1.
         -2   -1    0    0    0  501 -0.00000000000E+00 -0.00000000000E+00 -0.67651916567E+01  0.67651916567E+01  0.00000000000E+00 0. -1.
         21    1    1    2  502  503  0.37266547810E+02  0.38884452403E+01  0.12045053303E+03  0.12614375331E+03  0.00000000000E+00 0. -1.
         21    1    1    2  503  501 -0.37266547810E+02 -0.38884452403E+01  0.85649262495E+02  0.93486425528E+02  0.00000000000E+00 0.  1.
</event>
<event>
 4    1  0.5843276E+002  0.2177992E+02  0.7546771E-02  0.1508415E+00
          2   -1    0    0  503    0  0.00000000000E+00  0.00000000000E+00  0.19735690450E+03  0.19735690450E+03  0.00000000000E+00 0. -1.
         -2   -1    0    0    0  501 -0.00000000000E+00 -0.00000000000E+00 -0.98587788435E+01  0.98587788435E+01  0.00000000000E+00 0.  1.
         21    1    1    2  502  501  0.13883592644E+02 -0.16781264624E+02  0.36520477689E+01  0.22083986053E+02  0.00000000000E+00 0.  1.
         21    1    1    2  503  502 -0.13883592644E+02  0.16781264624E+02  0.18384607789E+03  0.18513169729E+03  0.00000000000E+00 0. -1.
</event>
<event>
 4    1  0.5843276E+002  0.2302997E+02  0.7546771E-02  0.1492122E+00
          2   -1    0    0  503    0  0.00000000000E+00  0.00000000000E+00  0.12739496072E+04  0.12739496072E+04  0.00000000000E+00 0.  1.
         -2   -1    0    0    0  501 -0.00000000000E+00 -0.00000000000E+00 -0.32374252032E+01  0.32374252032E+01  0.00000000000E+00 0. -1.
         21    1    1    2  502  501  0.22884961936E+02 -0.25802945360E+01  0.39236014891E+02  0.45495541180E+02  0.00000000000E+00 0. -1.
         21    1    1    2  503  502 -0.22884961936E+02  0.25802945360E+01  0.12314761671E+04  0.12316914912E+04  0.00000000000E+00 0.  1.
</event>
<event>
 4    1  0.5843276E+002  0.2477731E+02  0.7546771E-02  0.1471310E+00
          2   -1    0    0  503    0  0.00000000000E+00  0.00000000000E+00  0.13072340289E+03  0.13072340289E+03  0.00000000000E+00 0. -1.
         -2   -1    0    0    0  501 -0.00000000000E+00 -0.00000000000E+00 -0.50387260129E+01  0.50387260129E+01  0.00000000000E+00 0.  1.
         21    1    1    2  502  501  0.22335655629E+02  0.10725366412E+02  0.45146218642E+02  0.51498505364E+02  0.00000000000E+00 0.  1.
         21    1    1    2  503  502 -0.22335655629E+02 -0.10725366412E+02  0.80538458236E+02  0.84263623540E+02  0.00000000000E+00 0. -1.
</event>
<event>
 4    1  0.5843276E+002  0.2658311E+02  0.7546771E-02  0.1451841E+00
          2   -1    0    0  502    0  0.00000000000E+00  0.00000000000E+00  0.91026220523E+03  0.91026220523E+03  0.00000000000E+00 0.  1.
         -2   -1    0    0    0  501 -0.00000000000E+00 -0.00000000000E+00 -0.77956579892E+00  0.77956579892E+00  0.00000000000E+00 0. -1.
         21    1    1    2  502  503 -0.12912510861E+01 -0.26551727015E+02  0.42538215403E+03  0.42621196429E+03  0.00000000000E+00 0.  1.
         21    1    1    2  503  501  0.12912510861E+01  0.26551727015E+02  0.48410048540E+03  0.48482980674E+03  0.00000000000E+00 0. -1.
</event>
<event>
 4    1  0.5843276E+002  0.2489396E+02  0.7546771E-02  0.1469993E+00
          2   -1    0    0  502    0  0.00000000000E+00  0.00000000000E+00  0.20132462709E+03  0.20132462709E+03  0.00000000000E+00 0. -1.
         -2   -1    0    0    0  501 -0.00000000000E+00 -0.00000000000E+00 -0.83741833884E+01  0.83741833884E+01  0.00000000000E+00 0.  1.
         21    1    1    2  502  503  0.80448605142E+01 -0.23558214190E+02  0.13093718533E+02  0.28127472364E+02  0.00000000000E+00 0.  1.
         21    1    1    2  503  501 -0.80448605142E+01  0.23558214190E+02  0.17985672517E+03  0.18157133811E+03  0.00000000000E+00 0. -1.
</event>
<event>
 4    1  0.5843276E+002  0.2349263E+02  0.7546771E-02  0.1486403E+00
          2   -1    0    0  503    0  0.00000000000E+00  0.00000000000E+00  0.18035213854E+03  0.18035213854E+03  0.00000000000E+00 0. -1.
         -2   -1    0    0    0  501 -0.00000000000E+00 -0.00000000000E+00 -0.12920262576E+02  0.12920262576E+02  0.00000000000E+00 0.  1.
         21    1    1    2  502  501 -0.18550727081E+02  0.14414370885E+02 -0.70404095847E+00  0.23503175039E+02  0.00000000000E+00 0.  1.
         21    1    1    2  503  502  0.18550727081E+02 -0.14414370885E+02  0.16813591693E+03  0.16976922608E+03  0.00000000000E+00 0. -1.
</event>
<event>
 4    1  0.5843276E+002  0.2894674E+02  0.7546771E-02  0.1428975E+00
          2   -1    0    0  503    0  0.00000000000E+00  0.00000000000E+00  0.35199652658E+03  0.35199652658E+03  0.00000000000E+00 0. -1.
         -2   -1    0    0    0  501 -0.00000000000E+00 -0.00000000000E+00 -0.37186678996E+01  0.37186678996E+01  0.00000000000E+00 0.  1.
         21    1    1    2  502  501 -0.44563493565E+01 -0.28601651422E+02  0.67444785760E+02  0.73394227565E+02  0.00000000000E+00 0.  1.
         21    1    1    2  503  502  0.44563493565E+01  0.28601651422E+02  0.28083307292E+03  0.28232096692E+03  0.00000000000E+00 0. -1.
</event>
<event>
 4    1  0.5843276E+002  0.2260653E+02  0.7546771E-02  0.1497499E+00
          2   -1    0    0  503    0  0.00000000000E+00  0.00000000000E+00  0.98038342889E+03  0.98038342889E+03  0.00000000000E+00 0.  1.
         -2   -1    0    0    0  501 -0.00000000000E+00 -0.00000000000E+00 -0.15189213834E+02  0.15189213834E+02  0.00000000000E+00 0. -1.
         21    1    1    2  502  501  0.21371424321E+02  0.73700352435E+01 -0.65728395027E+01  0.23542672239E+02  0.00000000000E+00 0. -1.
         21    1    1    2  503  502 -0.21371424321E+02 -0.73700352435E+01  0.97176705456E+03  0.97202997049E+03  0.00000000000E+00 0.  1.
</event>
<event>
 4    1  0.5843276E+002  0.3197319E+02  0.7546771E-02  0.1403190E+00
          2   -1    0    0  503    0  0.00000000000E+00  0.00000000000E+00  0.40028729839E+03  0.40028729839E+03  0.00000000000E+00 0. -1.
         -2   -1    0    0    0  501 -0.00000000000E+00 -0.00000000000E+00 -0.72460069218E+02  0.72460069218E+02  0.00000000000E+00 0.  1.
         21    1    1    2  502  501 -0.84501325164E+01 -0.30836346205E+02 -0.68257171126E+02  0.75374573942E+02  0.00000000000E+00 0.  1.
         21    1    1    2  503  502  0.84501325164E+01  0.30836346205E+02  0.39608440030E+03  0.39737279367E+03  0.00000000000E+00 0. -1.
</event>
<event>
 4    1  0.5843276E+002  0.2025618E+02  0.7546771E-02  0.1530155E+00
          2   -1    0    0  503    0  0.00000000000E+00  0.00000000000E+00  0.45957569096E+03  0.45957569096E+03  0.00000000000E+00 0.  1.
         -2   -1    0    0    0  501 -0.00000000000E+00 -0.00000000000E+00 -0.91271264930E+00  0.91271264930E+00  0.00000000000E+00 0. -1.
         21    1    1    2  502  501 -0.11049335521E+02  0.16977186212E+02  0.19532957583E+03  0.19637707570E+03  0.00000000000E+00 0. -1.
         21    1    1    2  503  502  0.11049335521E+02 -0.16977186212E+02  0.26333340248E+03  0.26411132791E+03  0.00000000000E+00 0.  1.
</event>
<event>
 4    1  0.5843276E+002  0.2588515E+02  0.7546771E-02  0.1459140E+00
          2   -1    0    0  503    0  0.00000000000E+00  0.00000000000E+00  0.92858580509E+02  0.92858580509E+02  0.00000000000E+00 0.  1.
         -2   -1    0    0    0  501 -0.00000000000E+00 -0.00000000000E+00 -0.76098429307E+01  0.76098429307E+01  0.00000000000E+00 0. -1.
         21    1    1    2  502  501  0.17933078309E+02 -0.18666702891E+02  0.54056576363E+02  0.59934585529E+02  0.00000000000E+00 0.  1.
         21    1    1    2  503  502 -0.17933078309E+02  0.18666702891E+02  0.31192161216E+02  0.40533837911E+02  0.00000000000E+00 0. -1.
</event>
<event>
 4    1  0.5843276E+002  0.2638901E+02  0.7546771E-02  0.1453844E+00
          2   -1    0    0  502    0  0.00000000000E+00  0.00000000000E+00  0.20663034589E+04  0.20663034589E+04  0.00000000000E+00 0. -1.
         -2   -1    0    0    0  501 -0.00000000000E+00 -0.00000000000E+00 -0.34251673129E+00  0.34251673129E+00  0.00000000000E+00 0.  1.
         21    1    1    2  502  503 -0.69098052943E+00  0.26379960363E+02  0.11639164080E+04  0.11642155233E+04  0.00000000000E+00 0.  1.
         21    1    1    2  503  501  0.69098052943E+00 -0.26379960363E+02  0.90204453419E+03  0.90243045241E+03  0.00000000000E+00 0. -1.
</event>
<event>
 4    1  0.5843276E+002  0.2290111E+02  0.7546771E-02  0.1493744E+00
          2   -1    0    0  502    0  0.00000000000E+00  0.00000000000E+00  0.40649772674E+01  0.40649772674E+01  0.00000000000E+00 0. -1.
         -2   -1    0    0    0  501 -0.00000000000E+00 -0.00000000000E+00 -0.39262899032E+03  0.39262899032E+03  0.00000000000E+00 0.  1.
         21    1    1    2  502  503  0.20554040553E+02 -0.10099129933E+02 -0.31758940842E+02  0.39154710213E+02  0.00000000000E+00 0. -1.
         21    1    1    2  503  501 -0.20554040553E+02  0.10099129933E+02 -0.35680507221E+03  0.35753925737E+03  0.00000000000E+00 0.  1.
</event>
<event>
 4    1  0.5843276E+002  0.2161805E+02  0.7546771E-02  0.1510621E+00
          2   -1    0    0  502    0  0.00000000000E+00  0.00000000000E+00  0.16043976161E+02  0.16043976161E+02  0.00000000000E+00 0. -1.
         -2   -1    0    0    0  501 -0.00000000000E+00 -0.00000000000E+00 -0.70339997700E+02  0.70339997700E+02  0.00000000000E+00 0.  1.
         21    1    1    2  502  503  0.34992012489E+01  0.21332966720E+02  0.59125524915E+01  0.22412009179E+02  0.00000000000E+00 0. -1.
         21    1    1    2  503  501 -0.34992012489E+01 -0.21332966720E+02 -0.60208574030E+02  0.63971964682E+02  0.00000000000E+00 0.  1.
</event>
<event>
 4    1  0.5843276E+002  0.2358256E+02  0.7546771E-02  0.1485310E+00
          2   -1    0    0  503    0  0.00000000000E+00  0.00000000000E+00  0.42566342581E+02  0.42566342581E+02  0.00000000000E+00 0.  1.
         -2   -1    0    0    0  501 -0.00000000000E+00 -0.00000000000E+00 -0.18201071893E+02  0.18201071893E+02  0.00000000000E+00 0. -1.
         21    1    1    2  502  501 -0.20108351516E+02 -0.12320360192E+02 -0.39572360485E+01  0.23912272855E+02  0.00000000000E+00 0. -1.
         21    1    1    2  503  502  0.20108351516E+02  0.12320360192E+02  0.28322506736E+02  0.36855141619E+02  0.00000000000E+00 0.  1.
</event>
<event>
 4    1  0.5843276E+002  0.5016977E+02  0.7546771E-02  0.1297438E+00
          2   -1    0    0  502    0  0.00000000000E+00  0.00000000000E+00  0.88829903105E+02  0.88829903105E+02  0.00000000000E+00 0.  1.
         -2   -1    0    0    0  501 -0.00000000000E+00 -0.00000000000E+00 -0.35707233598E+02  0.35707233598E+02  0.00000000000E+00 0. -1.
         21    1    1    2  502  503 -0.34113028910E+02 -0.36787324902E+02  0.54854841036E+02  0.74337471035E+02  0.00000000000E+00 0. -1.
         21    1    1    2  503  501  0.34113028910E+02  0.36787324902E+02 -0.17321715289E+01  0.50199665667E+02  0.00000000000E+00 0.  1.
</event>
<event>
 4    1  0.5843276E+002  0.3270832E+02  0.7546771E-02  0.1397432E+00
          2   -1    0    0  502    0  0.00000000000E+00  0.00000000000E+00  0.16735108191E+02  0.16735108191E+02  0.00000000000E+00 0.  1.
         -2   -1    0    0    0  501 -0.00000000000E+00 -0.00000000000E+00 -0.16890514559E+03  0.16890514559E+03  0.00000000000E+00 0. -1.
         21    1    1    2  502  503  0.31980550014E+02  0.68613643065E+01 -0.29089458603E+01  0.32837415631E+02  0.00000000000E+00 0.  1.
         21    1    1    2  503  501 -0.31980550014E+02 -0.68613643065E+01 -0.14926109154E+03  0.15280283815E+03  0.00000000000E+00 0. -1.
</event>
<event>
 4    1  0.5843276E+002  0.2271097E+02  0.7546771E-02  0.1496160E+00
          2   -1    0    0  503    0  0.00000000000E+00  0.00000000000E+00  0.11153100966E+03  0.11153100966E+03  0.00000000000E+00 0.  1.
         -2   -1    0    0    0  501 -0.00000000000E+00 -0.00000000000E+00 -0.15930044952E+02  0.15930044952E+02  0.00000000000E+00 0. -1.
         21    1    1    2  502  501 -0.20879460172E+02  0.89351137305E+01 -0.58881733369E+01  0.23461856272E+02  0.00000000000E+00 0. -1.
         21    1    1    2  503  502  0.20879460172E+02 -0.89351137305E+01  0.10148913804E+03  0.10399919834E+03  0.00000000000E+00 0.  1.
</event>
<event>
 4    1  0.5843276E+002  0.3177618E+02  0.7546771E-02  0.1404765E+00
          2   -1    0    0  502    0  0.00000000000E+00  0.00000000000E+00  0.13083144401E+02  0.13083144401E+02  0.00000000000E+00 0. -1.
         -2   -1    0    0    0  501 -0.00000000000E+00 -0.00000000000E+00 -0.22292066861E+03  0.22292066861E+03  0.00000000000E+00 0.  1.
         21    1    1    2  502  503  0.29035173822E+02  0.12910632088E+02 -0.95057065686E+01  0.33167517199E+02  0.00000000000E+00 0. -1.
         21    1    1    2  503  501 -0.29035173822E+02 -0.12910632088E+02 -0.20033181764E+03  0.20283629582E+03  0.00000000000E+00 0.  1.
</event>
<event>
 4    1  0.5843276E+002  0.3290513E+02  0.7546771E-02  0.1395921E+00
          2   -1    0    0  502    0  0.00000000000E+00  0.00000000000E+00  0.22481920075E+02  0.22481920075E+02  0.00000000000E+00 0.  1.
         -2   -1    0    0    0  501 -0.00000000000E+00 -0.00000000000E+00 -0.64023494477E+02  0.64023494477E+02  0.00000000000E+00 0. -1.
         21    1    1    2  502  503 -0.12109059560E+02  0.30596051280E+02  0.75860810918E+00  0.32913874941E+02  0.00000000000E+00 0.  1.
         21    1    1    2  503  501  0.12109059560E+02 -0.30596051280E+02 -0.42300182511E+02  0.53591539611E+02  0.00000000000E+00 0. -1.
</event>
<event>
 4    1  0.5843276E+002  0.2329456E+02  0.7546771E-02  0.1488832E+00
          2   -1    0    0  502    0  0.00000000000E+00  0.00000000000E+00  0.10275043216E+03  0.10275043216E+03  0.00000000000E+00 0. -1.
         -2   -1    0    0    0  501 -0.00000000000E+00 -0.00000000000E+00 -0.11346935519E+02  0.11346935519E+02  0.00000000000E+00 0.  1.
         21    1    1    2  502  503  0.42445666521E+01 -0.22904585800E+02  0.87412812603E+02  0.90463452310E+02  0.00000000000E+00 0. -1.
         21    1    1    2  503  501 -0.42445666521E+01  0.22904585800E+02  0.39906840425E+01  0.23633915373E+02  0.00000000000E+00 0.  1.
</event>
<event>
 4    1  0.5843276E+002  0.2020997E+02  0.7546771E-02  0.1530850E+00
          2   -1    0    0  502    0  0.00000000000E+00  0.00000000000E+00  0.14487697322E+03  0.14487697322E+03  0.00000000000E+00 0. -1.
         -2   -1    0    0    0  501 -0.00000000000E+00 -0.00000000000E+00 -0.43785752140E+01  0.43785752140E+01  0.00000000000E+00 0.  1.
         21    1    1    2  502  503 -0.17101399436E+02 -0.10769642920E+02  0.11478443070E+03  0.11655002618E+03  0.00000000000E+00 0. -1.
         21    1    1    2  503  501  0.17101399436E+02  0.10769642920E+02  0.25713967303E+02  0.32705522252E+02  0.00000000000E+00 0.  1.
</event>
<event>
 4    1  0.5843276E+002  0.2535811E+02  0.7546771E-02  0.1464837E+00
          2   -1    0    0  503    0  0.00000000000E+00  0.00000000000E+00  0.61744586548E+03  0.61744586548E+03  0.00000000000E+00 0.  1.
         -2   -1    0    0    0  501 -0.00000000000E+00 -0.00000000000E+00 -0.15651380223E+01  0.15651380223E+01  0.00000000000E+00 0. -1.
         21    1    1    2  502  501 -0.22959137632E+02  0.10766235999E+02  0.12890787991E+03  0.13137836710E+03  0.00000000000E+00 0. -1.
         21    1    1    2  503  502  0.22959137632E+02 -0.10766235999E+02  0.48697284754E+03  0.48763263640E+03  0.00000000000E+00 0.  1.
</event>
<event>
 4    1  0.5843276E+002  0.3518207E+02  0.7546771E-02  0.1379288E+00
          2   -1    0    0  502    0  0.00000000000E+00  0.00000000000E+00  0.37761484068E+03  0.37761484068E+03  0.00000000000E+00 0. -1.
         -2   -1    0    0    0  501 -0.00000000000E+00 -0.00000000000E+00 -0.88111590212E+01  0.88111590212E+01  0.00000000000E+00 0.  1.
         21    1    1    2  502  503 -0.17235548216E+02 -0.30671059755E+02  0.33751443408E+03  0.33934314674E+03  0.00000000000E+00 0. -1.
         21    1    1    2  503  501  0.17235548216E+02  0.30671059755E+02  0.31289247581E+02  0.47082852961E+02  0.00000000000E+00 0.  1.
</event>
<event>
 4    1  0.5843276E+002  0.2041023E+02  0.7546771E-02  0.1527854E+00
          2   -1    0    0  503    0  0.00000000000E+00  0.00000000000E+00  0.37602362505E+01  0.37602362505E+01  0.00000000000E+00 0.  1.
         -2   -1    0    0    0  501 -0.00000000000E+00 -0.00000000000E+00 -0.38551069417E+03  0.38551069417E+03  0.00000000000E+00 0. -1.
         21    1    1    2  502  501 -0.72507801200E+01 -0.19078876882E+02 -0.35518125431E+03  0.35576720024E+03  0.00000000000E+00 0. -1.
         21    1    1    2  503  502  0.72507801200E+01  0.19078876882E+02 -0.26569203614E+02  0.33503730182E+02  0.00000000000E+00 0.  1.
</event>
<event>
 4    1  0.5843276E+002  0.3004337E+02  0.7546771E-02  0.1419220E+00
          2   -1    0    0  502    0  0.00000000000E+00  0.00000000000E+00  0.40096441993E+02  0.40096441993E+02  0.00000000000E+00 0. -1.
         -2   -1    0    0    0  501 -0.00000000000E+00 -0.00000000000E+00 -0.35490808011E+02  0.35490808011E+02  0.00000000000E+00 0.  1.
         21    1    1    2  502  503 -0.74916619215E+01 -0.29094316776E+02  0.25158676195E+02  0.39186263600E+02  0.00000000000E+00 0. -1.
         21    1    1    2  503  501  0.74916619215E+01  0.29094316776E+02 -0.20553042213E+02  0.36400986405E+02  0.00000000000E+00 0.  1.
</event>
<event>
 4    1  0.5843276E+002  0.2049987E+02  0.7546771E-02  0.1526527E+00
          2   -1    0    0  503    0  0.00000000000E+00  0.00000000000E+00  0.90408751937E+03  0.90408751937E+03  0.00000000000E+00 0.  1.
         -2   -1    0    0    0  501 -0.00000000000E+00 -0.00000000000E+00 -0.46511922861E+00  0.46511922861E+00  0.00000000000E+00 0. -1.
         21    1    1    2  502  501 -0.46771865868E+01  0.19959177155E+02  0.44048613567E+03  0.44096290156E+03  0.00000000000E+00 0. -1.
         21    1    1    2  503  502  0.46771865868E+01 -0.19959177155E+02  0.46313626447E+03  0.46358973704E+03  0.00000000000E+00 0.  1.
</event>
<event>
 4    1  0.5843276E+002  0.4876186E+02  0.7546771E-02  0.1303632E+00
          2   -1    0    0  502    0  0.00000000000E+00  0.00000000000E+00  0.10115332431E+03  0.10115332431E+03  0.00000000000E+00 0.  1.
         -2   -1    0    0    0  501 -0.00000000000E+00 -0.00000000000E+00 -0.34095834378E+02  0.34095834378E+02  0.00000000000E+00 0. -1.
         21    1    1    2  502  503 -0.44817276301E+02 -0.19212786567E+02  0.71216181433E+02  0.86310277028E+02  0.00000000000E+00 0.  1.
         21    1    1    2  503  501  0.44817276301E+02  0.19212786567E+02 -0.41586915060E+01  0.48938881656E+02  0.00000000000E+00 0. -1.
</event>
<event>
 4    1  0.5843276E+002  0.2634623E+02  0.7546771E-02  0.1454288E+00
          2   -1    0    0  502    0  0.00000000000E+00  0.00000000000E+00  0.29595024242E+03  0.29595024242E+03  0.00000000000E+00 0.  1.
         -2   -1    0    0    0  501 -0.00000000000E+00 -0.00000000000E+00 -0.93562647001E+01  0.93562647001E+01  0.00000000000E+00 0. -1.
         21    1    1    2  502  503  0.12163597797E+02  0.23370292037E+02  0.27543884491E+03  0.27669600819E+03  0.00000000000E+00 0.  1.
         21    1    1    2  503  501 -0.12163597797E+02 -0.23370292037E+02  0.11155132812E+02  0.28610498935E+02  0.00000000000E+00 0. -1.
</event>
<event>
 4    1  0.5843276E+002  0.4318093E+02  0.7546771E-02  0.1330790E+00
          2   -1    0    0  502    0  0.00000000000E+00  0.00000000000E+00  0.20575776951E+02  0.20575776951E+02  0.00000000000E+00 0. -1.
         -2   -1    0    0    0  501 -0.00000000000E+00 -0.00000000000E+00 -0.15388432172E+03  0.15388432172E+03  0.00000000000E+00 0.  1.
         21    1    1    2  502  503  0.37517595286E+02 -0.21378096747E+02 -0.10724161772E+02  0.44492703023E+02  0.00000000000E+00 0. -1.
         21    1    1    2  503  501 -0.37517595286E+02  0.21378096747E+02 -0.12258438300E+03  0.12996739565E+03  0.00000000000E+00 0.  1.
</event>
<event>
 4    1  0.5843276E+002  0.2660991E+02  0.7546771E-02  0.1451567E+00
          2   -1    0    0  502    0  0.00000000000E+00  0.00000000000E+00  0.32724133587E+03  0.32724133587E+03  0.00000000000E+00 0. -1.
         -2   -1    0    0    0  501 -0.00000000000E+00 -0.00000000000E+00 -0.10003542721E+02  0.10003542721E+02  0.00000000000E+00 0.  1.
         21    1    1    2  502  503 -0.12488445593E+02  0.23497358735E+02  0.30789461132E+03  0.30904235765E+03  0.00000000000E+00 0. -1.
         21    1    1    2  503  501  0.12488445593E+02 -0.23497358735E+02  0.93431818299E+01  0.28202520943E+02  0.00000000000E+00 0.  1.
</event>
<event>
 4    1  0.5843276E+002  0.2220134E+02  0.7546771E-02  0.1502778E+00
          2   -1    0    0  503    0  0.00000000000E+00  0.00000000000E+00  0.30724364445E+02  0.30724364445E+02  0.00000000000E+00 0.  1.
         -2   -1    0    0    0  501 -0.00000000000E+00 -0.00000000000E+00 -0.64780125078E+02  0.64780125078E+02  0.00000000000E+00 0. -1.
         21    1    1    2  502  501 -0.81999193663E+01  0.20631553433E+02 -0.58447346152E+02  0.62521931727E+02  0.00000000000E+00 0. -1.
         21    1    1    2  503  502  0.81999193663E+01 -0.20631553433E+02  0.24391585518E+02  0.32982557796E+02  0.00000000000E+00 0.  1.
</event>
<event>
 4    1  0.5843276E+002  0.2836843E+02  0.7546771E-02  0.1434326E+00
          2   -1    0    0  503    0  0.00000000000E+00  0.00000000000E+00  0.50159869702E+03  0.50159869702E+03  0.00000000000E+00 0. -1.
         -2   -1    0    0    0  501 -0.00000000000E+00 -0.00000000000E+00 -0.17473083346E+01  0.17473083346E+01  0.00000000000E+00 0.  1.
         21    1    1    2  502  501  0.10881690077E+02  0.26198406045E+02  0.17795222629E+03  0.18019923002E+03  0.00000000000E+00 0.  1.
         21    1    1    2  503  502 -0.10881690077E+02 -0.26198406045E+02  0.32189916240E+03  0.32314677533E+03  0.00000000000E+00 0. -1.
</event>
<event>
 4    1  0.5843276E+002  0.2351603E+02  0.7546771E-02  0.1486118E+00
          2   -1    0    0  502    0  0.00000000000E+00  0.00000000000E+00  0.92182685348E+01  0.92182685348E+01  0.00000000000E+00 0.  1.
         -2   -1    0    0    0  501 -0.00000000000E+00 -0.00000000000E+00 -0.90352463378E+02  0.90352463378E+02  0.00000000000E+00 0. -1.
         21    1    1    2  502  503 -0.77547404658E+01  0.22200619274E+02 -0.69427377626E+02  0.73301870780E+02  0.00000000000E+00 0. -1.
         21    1    1    2  503  501  0.77547404658E+01 -0.22200619274E+02 -0.11706817217E+02  0.26268861133E+02  0.00000000000E+00 0.  1.
</event>
<event>
 4    1  0.5843276E+002  0.2046873E+02  0.7546771E-02  0.1526987E+00
          2   -1    0    0  503    0  0.00000000000E+00  0.00000000000E+00  0.14703495536E+04  0.14703495536E+04  0.00000000000E+00 0.  1.
         -2   -1    0    0    0  501 -0.00000000000E+00 -0.00000000000E+00 -0.63992588454E+00  0.63992588454E+00  0.00000000000E+00 0. -1.
         21    1    1    2  502  501  0.19479584457E+02  0.62860769055E+01  0.18706099889E+03  0.18817753925E+03  0.00000000000E+00 0. -1.
         21    1    1    2  503  502 -0.19479584457E+02 -0.62860769055E+01  0.12826486288E+04  0.12828119402E+04  0.00000000000E+00 0.  1.
</event>
<event>
 4    1  0.5843276E+002  0.2359071E+02  0.7546771E-02  0.1485211E+00
          2   -1    0    0  502    0  0.00000000000E+00  0.00000000000E+00  0.12573925409E+03  0.12573925409E+03  0.00000000000E+00 0. -1.
         -2   -1    0    0    0  501 -0.00000000000E+00 -0.00000000000E+00 -0.54155159068E+01  0.54155159068E+01  0.00000000000E+00 0.  1.
         21    1    1    2  502  503 -0.54167351564E+01  0.22960413635E+02  0.88193355857E+02  0.91293973686E+02  0.00000000000E+00 0. -1.
         21    1    1    2  503  501  0.54167351564E+01 -0.22960413635E+02  0.32130382323E+02  0.39860796308E+02  0.00000000000E+00 0.  1.
</event>
<event>
 4    1  0.5843276E+002  0.2453002E+02  0.7546771E-02  0.1474130E+00
          2   -1    0    0  503    0  0.00000000000E+00  0.00000000000E+00  0.11160183842E+02  0.11160183842E+02  0.00000000000E+00 0.  1.
         -2   -1    0    0    0  501 -0.00000000000E+00 -0.00000000000E+00 -0.63321786381E+02  0.63321786381E+02  0.00000000000E+00 0. -1.
         21    1    1    2  502  501 -0.14783168373E+02 -0.19574985044E+02 -0.40433124459E+02  0.47292279075E+02  0.00000000000E+00 0. -1.
         21    1    1    2  503  502  0.14783168373E+02  0.19574985044E+02 -0.11728478080E+02  0.27189691147E+02  0.00000000000E+00 0.  1.
</event>
<event>
 4    1  0.5843276E+002  0.2853834E+02  0.7546771E-02  0.1432738E+00
          2   -1    0    0  502    0  0.00000000000E+00  0.00000000000E+00  0.11134247838E+04  0.11134247838E+04  0.00000000000E+00 0. -1.
         -2   -1    0    0    0  501 -0.00000000000E+00 -0.00000000000E+00 -0.14082342603E+01  0.14082342603E+01  0.00000000000E+00 0.  1.
         21    1    1    2  502  503  0.28536842640E+02 -0.29265488321E+00  0.94242954344E+03  0.94286153882E+03  0.00000000000E+00 0. -1.
         21    1    1    2  503  501 -0.28536842640E+02  0.29265488321E+00  0.16958700610E+03  0.17197147924E+03  0.00000000000E+00 0.  1.
</event>
<event>
 4    1  0.5843276E+002  0.3528039E+02  0.7546771E-02  0.1378603E+00
          2   -1    0    0  503    0  0.00000000000E+00  0.00000000000E+00  0.23191515473E+02  0.23191515473E+02  0.00000000000E+00 0.  1.
         -2   -1    0    0    0  501 -0.00000000000E+00 -0.00000000000E+00 -0.17261243881E+03  0.17261243881E+03  0.00000000000E+00 0. -1.
         21    1    1    2  502  501 -0.31271813017E+02 -0.16333395365E+02 -0.15597900274E+03  0.15991921520E+03  0.00000000000E+00 0. -1.
         21    1    1    2  503  502  0.31271813017E+02  0.16333395365E+02  0.65580794066E+01  0.35884739083E+02  0.00000000000E+00 0.  1.
</event>
<event>
 4    1  0.5843276E+002  0.2060731E+02  0.7546771E-02  0.1524946E+00
          2   -1    0    0  503    0  0.00000000000E+00  0.00000000000E+00  0.45879188828E+01  0.45879188828E+01  0.00000000000E+00 0. -1.
         -2   -1    0    0    0  501 -0.00000000000E+00 -0.00000000000E+00 -0.14326079811E+03  0.14326079811E+03  0.00000000000E+00 0.  1.
         21    1    1    2  502  501  0.32512895037E+01 -0.20349208922E+02 -0.11331369189E+03  0.11517227946E+03  0.00000000000E+00 0.  1.
         21    1    1    2  503  502 -0.32512895037E+01  0.20349208922E+02 -0.25359187338E+02  0.32676437529E+02  0.00000000000E+00 0. -1.
</event>
<event>
 4    1  0.5843276E+002  0.2094792E+02  0.7546771E-02  0.1520010E+00
          2   -1    0    0  503    0  0.00000000000E+00  0.00000000000E+00  0.24657326791E+02  0.24657326791E+02  0.00000000000E+00 0. -1.
         -2   -1    0    0    0  501 -0.00000000000E+00 -0.00000000000E+00 -0.24892065023E+02  0.24892065023E+02  0.00000000000E+00 0.  1.
         21    1    1    2  502  501  0.20582539106E+01  0.20846560124E+02 -0.13344622434E+02  0.24837359483E+02  0.00000000000E+00 0.  1.
         21    1    1    2  503  502 -0.20582539106E+01 -0.20846560124E+02  0.13109884201E+02  0.24712032331E+02  0.00000000000E+00 0. -1.
</event>
<event>
 4    1  0.5843276E+002  0.2460501E+02  0.7546771E-02  0.1473271E+00
          2   -1    0    0  502    0  0.00000000000E+00  0.00000000000E+00  0.14832701454E+02  0.14832701454E+02  0.00000000000E+00 0. -1.
         -2   -1    0    0    0  501 -0.00000000000E+00 -0.00000000000E+00 -0.42440922487E+02  0.42440922487E+02  0.00000000000E+00 0.  1.
         21    1    1    2  502  503  0.24520638497E+02 -0.20358342708E+01 -0.82001442655E+01  0.25935471838E+02  0.00000000000E+00 0. -1.
         21    1    1    2  503  501 -0.24520638497E+02  0.20358342708E+01 -0.19408076767E+02  0.31338152104E+02  0.00000000000E+00 0.  1.
</event>
<event>
 4    1  0.5843276E+002  0.2326565E+02  0.7546771E-02  0.1489189E+00
          2   -1    0    0  502    0  0.00000000000E+00  0.00000000000E+00  0.28708118807E+03  0.28708118807E+03  0.00000000000E+00 0.  1.
         -2   -1    0    0    0  501 -0.00000000000E+00 -0.00000000000E+00 -0.18948863117E+01  0.18948863117E+01  0.00000000000E+00 0. -1.
         21    1    1    2  502  503  0.20658210087E+02 -0.10701817343E+02  0.15276433983E+03  0.15452583623E+03  0.00000000000E+00 0.  1.
         21    1    1    2  503  501 -0.20658210087E+02  0.10701817343E+02  0.13242196192E+03  0.13445023814E+03  0.00000000000E+00 0. -1.
</event>
<event>
 4    1  0.5843276E+002  0.2729507E+02  0.7546771E-02  0.1444666E+00
          2   -1    0    0  502    0  0.00000000000E+00  0.00000000000E+00  0.15416636558E+03  0.15416636558E+03  0.00000000000E+00 0.  1.
         -2   -1    0    0    0  501 -0.00000000000E+00 -0.00000000000E+00 -0.95639028213E+01  0.95639028213E+01  0.00000000000E+00 0. -1.
         21    1    1    2  502  503 -0.26764589217E+02  0.53551730334E+01  0.12988137519E+03  0.13271847172E+03  0.00000000000E+00 0.  1.
         21    1    1    2  503  501  0.26764589217E+02 -0.53551730334E+01  0.14721087567E+02  0.31011796680E+02  0.00000000000E+00 0. -1.
</event>
<event>
 4    1  0.5843276E+002  0.2324182E+02  0.7546771E-02  0.1489484E+00
          2   -1    0    0  502    0  0.00000000000E+00  0.00000000000E+00  0.18712504208E+03  0.18712504208E+03  0.00000000000E+00 0. -1.
         -2   -1    0    0    0  501 -0.00000000000E+00 -0.00000000000E+00 -0.49250856443E+01  0.49250856443E+01  0.00000000000E+00 0.  1.
         21    1    1    2  502  503 -0.55288545677E+01  0.22574633938E+02  0.15287544911E+03  0.15463209650E+03  0.00000000000E+00 0. -1.
         21    1    1    2  503  501  0.55288545677E+01 -0.22574633938E+02  0.29324507334E+02  0.37418031223E+02  0.00000000000E+00 0.  1.
</event>
<event>
 4    1  0.5843276E+002  0.2575947E+02  0.7546771E-02  0.1460484E+00
          2   -1    0    0  503    0  0.00000000000E+00  0.00000000000E+00  0.12421051794E+02  0.12421051794E+02  0.00000000000E+00 0. -1.
         -2   -1    0    0    0  501 -0.00000000000E+00 -0.00000000000E+00 -0.11045651484E+03  0.11045651484E+03  0.00000000000E+00 0.  1.
         21    1    1    2  502  501 -0.15623662117E+01 -0.25712042196E+02 -0.48690172519E+01  0.26215595188E+02  0.00000000000E+00 0. -1.
         21    1    1    2  503  502  0.15623662117E+01  0.25712042196E+02 -0.93166445793E+02  0.96661971446E+02  0.00000000000E+00 0.  1.
</event>
<event>
 4    1  0.5843276E+002  0.2168901E+02  0.7546771E-02  0.1509651E+00
          2   -1    0    0  503    0  0.00000000000E+00  0.00000000000E+00  0.42565891346E+03  0.42565891346E+03  0.00000000000E+00 0.  1.
         -2   -1    0    0    0  501 -0.00000000000E+00 -0.00000000000E+00 -0.80105813665E+01  0.80105813665E+01  0.00000000000E+00 0. -1.
         21    1    1    2  502  501  0.21510961091E+02  0.27734050368E+01  0.75015606256E+01  0.22949654341E+02  0.00000000000E+00 0. -1.
         21    1    1    2  503  502 -0.21510961091E+02 -0.27734050368E+01  0.41014677147E+03  0.41071984048E+03  0.00000000000E+00 0.  1.
</event>
<event>
 4    1  0.5843276E+002  0.4922462E+02  0.7546771E-02  0.1301570E+00
          2   -1    0    0  503    0  0.00000000000E+00  0.00000000000E+00  0.23682189091E+03  0.23682189091E+03  0.00000000000E+00 0. -1.
         -2   -1    0    0    0  501 -0.00000000000E+00 -0.00000000000E+00 -0.11359032496E+02  0.11359032496E+02  0.00000000000E+00 0.  1.
         21    1    1    2  502  501  0.34322311000E+02 -0.35285148461E+02  0.73636866638E+02  0.88574549745E+02  0.00000000000E+00 0.  1.
         21    1    1    2  503  502 -0.34322311000E+02  0.35285148461E+02  0.15182599178E+03  0.15960637367E+03  0.00000000000E+00 0. -1.
</event>
<event>
 4    1  0.5843276E+002  0.2319526E+02  0.7546771E-02  0.1490061E+00
          2   -1    0    0  502    0  0.00000000000E+00  0.00000000000E+00  0.17823772946E+03  0.17823772946E+03  0.00000000000E+00 0.  1.
         -2   -1    0    0    0  501 -0.00000000000E+00 -0.00000000000E+00 -0.37329447904E+01  0.37329447904E+01  0.00000000000E+00 0. -1.
         21    1    1    2  502  503 -0.15924308954E+02  0.16865240402E+02  0.12705522631E+03  0.12915514113E+03  0.00000000000E+00 0.  1.
         21    1    1    2  503  501  0.15924308954E+02 -0.16865240402E+02  0.47449558357E+02  0.52815533111E+02  0.00000000000E+00 0. -1.
</event>
<event>
 4    1  0.5843276E+002  0.2399866E+02  0.7546771E-02  0.1480325E+00
          2   -1    0    0  502    0  0.00000000000E+00  0.00000000000E+00  0.23917158155E+04  0.23917158155E+04  0.00000000000E+00 0.  1.
         -2   -1    0    0    0  501 -0.00000000000E+00 -0.00000000000E+00 -0.30231473465E+00  0.30231473465E+00  0.00000000000E+00 0. -1.
         21    1    1    2  502  503 -0.18729174470E+02  0.15005123982E+02  0.17351910553E+04  0.17353570048E+04  0.00000000000E+00 0.  1.
         21    1    1    2  503  501  0.18729174470E+02 -0.15005123982E+02  0.65622244552E+03  0.65666112549E+03  0.00000000000E+00 0. -1.
</event>
<event>
 4    1  0.5843276E+002  0.2557016E+02  0.7546771E-02  0.1462525E+00
          2   -1    0    0  502    0  0.00000000000E+00  0.00000000000E+00  0.24658678320E+02  0.24658678320E+02  0.00000000000E+00 0. -1.
         -2   -1    0    0    0  501 -0.00000000000E+00 -0.00000000000E+00 -0.60617593883E+02  0.60617593883E+02  0.00000000000E+00 0.  1.
         21    1    1    2  502  503 -0.20735587650E+02  0.14962234114E+02  0.14001425663E+02  0.29152580769E+02  0.00000000000E+00 0. -1.
         21    1    1    2  503  501  0.20735587650E+02 -0.14962234114E+02 -0.49960341226E+02  0.56123691435E+02  0.00000000000E+00 0.  1.
</event>
<event>
 4    1  0.5843276E+002  0.4199447E+02  0.7546771E-02  0.1337179E+00
          2   -1    0    0  503    0  0.00000000000E+00  0.00000000000E+00  0.24837269622E+03  0.24837269622E+03  0.00000000000E+00 0.  1.
         -2   -1    0    0    0  501 -0.00000000000E+00 -0.00000000000E+00 -0.16982340445E+02  0.16982340445E+02  0.00000000000E+00 0. -1.
         21    1    1    2  502  501 -0.39035041392E+01  0.41812651600E+02  0.14485836951E+02  0.44422681713E+02  0.00000000000E+00 0. -1.
         21    1    1    2  503  502  0.39035041392E+01 -0.41812651600E+02  0.21690451882E+03  0.22093235495E+03  0.00000000000E+00 0.  1.
</event>
<event>
 4    1  0.5843276E+002  0.7071561E+02  0.7546771E-02  0.1227215E+00
          2   -1    0    0  503    0  0.00000000000E+00  0.00000000000E+00  0.96901184155E+02  0.96901184155E+02  0.00000000000E+00 0. -1.
         -2   -1    0    0    0  501 -0.00000000000E+00 -0.00000000000E+00 -0.73539137181E+02  0.73539137181E+02  0.00000000000E+00 0.  1.
         21    1    1    2  502  501  0.69669268629E+02 -0.12119828221E+02  0.58221621284E+02  0.91599423646E+02  0.00000000000E+00 0. -1.
         21    1    1    2  503  502 -0.69669268629E+02  0.12119828221E+02 -0.34859574310E+02  0.78840897690E+02  0.00000000000E+00 0.  1.
</event>
<event>
 4    1  0.5843276E+002  0.5787526E+02  0.7546771E-02  0.1267228E+00
          2   -1    0    0  502    0  0.00000000000E+00  0.00000000000E+00  0.23733626968E+03  0.23733626968E+03  0.00000000000E+00 0.  1.
         -2   -1    0    0    0  501 -0.00000000000E+00 -0.00000000000E+00 -0.19307265568E+02  0.19307265568E+02  0.00000000000E+00 0. -1.
         21    1    1    2  502  503  0.35077284205E+02  0.46034008254E+02  0.17557225862E+03  0.18486525844E+03  0.00000000000E+00 0.  1.
         21    1    1    2  503  501 -0.35077284205E+02 -0.46034008254E+02  0.42456745493E+02  0.71778276804E+02  0.00000000000E+00 0. -1.
</event>
<event>
 4    1  0.5843276E+002  0.2469690E+02  0.7546771E-02  0.1472223E+00
          2   -1    0    0  503    0  0.00000000000E+00  0.00000000000E+00  0.13859959875E+03  0.13859959875E+03  0.00000000000E+00 0. -1.
         -2   -1    0    0    0  501 -0.00000000000E+00 -0.00000000000E+00 -0.42990677494E+02  0.42990677494E+02  0.00000000000E+00 0.  1.
         21    1    1    2  502  501 -0.12606450308E+02 -0.21237097672E+02 -0.38218155170E+02  0.45503453622E+02  0.00000000000E+00 0.  1.
         21    1    1    2  503  502  0.12606450308E+02  0.21237097672E+02  0.13382707643E+03  0.13608682262E+03  0.00000000000E+00 0. -1.
</event>
<event>
 4    1  0.5843276E+002  0.6299816E+02  0.7546771E-02  0.1249973E+00
          2   -1    0    0  502    0  0.00000000000E+00  0.00000000000E+00  0.23682746958E+03  0.23682746958E+03  0.00000000000E+00 0.  1.
         -2   -1    0    0    0  501 -0.00000000000E+00 -0.00000000000E+00 -0.16761537835E+02  0.16761537835E+02  0.00000000000E+00 0. -1.
         21    1    1    2  502  503  0.32245628875E+02  0.54120118678E+02  0.10820531845E+03  0.12520846125E+03  0.00000000000E+00 0.  1.
         21    1    1    2  503  501 -0.32245628875E+02 -0.54120118678E+02  0.11186061329E+03  0.12838054617E+03  0.00000000000E+00 0. -1.
</event>
<event>
 4    1  0.5843276E+002  0.4076426E+02  0.7546771E-02  0.1344065E+00
          2   -1    0    0  502    0  0.00000000000E+00  0.00000000000E+00  0.11217206106E+03  0.11217206106E+03  0.00000000000E+00 0.  1.
         -2   -1    0    0    0  501 -0.00000000000E+00 -0.00000000000E+00 -0.15509600579E+02  0.15509600579E+02  0.00000000000E+00 0. -1.
         21    1    1    2  502  503  0.38193706009E+02  0.14246617220E+02  0.34811908590E+02  0.53605916283E+02  0.00000000000E+00 0. -1.
         21    1    1    2  503  501 -0.38193706009E+02 -0.14246617220E+02  0.61850551896E+02  0.74075745361E+02  0.00000000000E+00 0.  1.
</event>
<event>
 4    1  0.5843276E+002  0.2068976E+02  0.7546771E-02  0.1523741E+00
          2   -1    0    0  502    0  0.00000000000E+00  0.00000000000E+00  0.38850270156E+01  0.38850270156E+01  0.00000000000E+00 0.  1.
         -2   -1    0    0    0  501 -0.00000000000E+00 -0.00000000000E+00 -0.52135921171E+03  0.52135921171E+03  0.00000000000E+00 0. -1.
         21    1    1    2  502  503 -0.16423641079E+02  0.12582925337E+02 -0.25511349023E+02  0.32846535971E+02  0.00000000000E+00 0.  1.
         21    1    1    2  503  501  0.16423641079E+02 -0.12582925337E+02 -0.49196283567E+03  0.49239770276E+03  0.00000000000E+00 0. -1.
</event>
<event>
 4    1  0.5843276E+002  0.4886705E+02  0.7546771E-02  0.1303161E+00
          2   -1    0    0  502    0  0.00000000000E+00  0.00000000000E+00  0.14867190539E+03  0.14867190539E+03  0.00000000000E+00 0. -1.
         -2   -1    0    0    0  501 -0.00000000000E+00 -0.00000000000E+00 -0.20932904053E+02  0.20932904053E+02  0.00000000000E+00 0.  1.
         21    1    1    2  502  503 -0.42499510411E+02 -0.24120129760E+02  0.10477596525E+03  0.11561138326E+03  0.00000000000E+00 0. -1.
         21    1    1    2  503  501  0.42499510411E+02  0.24120129760E+02  0.22963036088E+02  0.53993426185E+02  0.00000000000E+00 0.  1.
</event>
<event>
 4    1  0.5843276E+002  0.2365632E+02  0.7546771E-02  0.1484417E+00
          2   -1    0    0  502    0  0.00000000000E+00  0.00000000000E+00  0.38373356230E+03  0.38373356230E+03  0.00000000000E+00 0.  1.
         -2   -1    0    0    0  501 -0.00000000000E+00 -0.00000000000E+00 -0.14679589009E+01  0.14679589009E+01  0.00000000000E+00 0. -1.
         21    1    1    2  502  503  0.16506590022E+01  0.23598660086E+02  0.17555786674E+03  0.17714453423E+03  0.00000000000E+00 0.  1.
         21    1    1    2  503  501 -0.16506590022E+01 -0.23598660086E+02  0.20670773666E+03  0.20805698698E+03  0.00000000000E+00 0. -1.
</event>
<event>
 4    1  0.5843276E+002  0.2114236E+02  0.7546771E-02  0.1517242E+00
          2   -1    0    0  502    0  0.00000000000E+00  0.00000000000E+00  0.21777967598E+01  0.21777967598E+01  0.00000000000E+00 0.  1.
         -2   -1    0    0    0  501 -0.00000000000E+00 -0.00000000000E+00 -0.52961668072E+03  0.52961668072E+03  0.00000000000E+00 0. -1.
         21    1    1    2  502  503  0.20271281189E+02  0.60062054261E+01 -0.55630452272E+02  0.59512574845E+02  0.00000000000E+00 0.  1.
         21    1    1    2  503  501 -0.20271281189E+02 -0.60062054261E+01 -0.47180843169E+03  0.47228190263E+03  0.00000000000E+00 0. -1.
</event>
<event>
 4    1  0.5843276E+002  0.3418511E+02  0.7546771E-02  0.1386384E+00
          2   -1    0    0  502    0  0.00000000000E+00  0.00000000000E+00  0.20287926868E+02  0.20287926868E+02  0.00000000000E+00 0.  1.
         -2   -1    0    0    0  501 -0.00000000000E+00 -0.00000000000E+00 -0.14765139976E+03  0.14765139976E+03  0.00000000000E+00 0. -1.
         21    1    1    2  502  503 -0.21570157304E+02  0.26520741340E+02  0.18941975854E+01  0.34237543600E+02  0.00000000000E+00 0.  1.
         21    1    1    2  503  501  0.21570157304E+02 -0.26520741340E+02 -0.12925767047E+03  0.13370178302E+03  0.00000000000E+00 0. -1.
</event>
<event>
 4    1  0.5843276E+002  0.3706741E+02  0.7546771E-02  0.1366584E+00
          2   -1    0    0  502    0  0.00000000000E+00  0.00000000000E+00  0.72569642172E+03  0.72569642172E+03  0.00000000000E+00 0.  1.
         -2   -1    0    0    0  501 -0.00000000000E+00 -0.00000000000E+00 -0.20479324258E+01  0.20479324258E+01  0.00000000000E+00 0. -1.
         21    1    1    2  502  503 -0.58308640914E+01  0.36605929403E+02  0.26185201571E+03  0.26446260827E+03  0.00000000000E+00 0. -1.
         21    1    1    2  503  501  0.58308640914E+01 -0.36605929403E+02  0.46179647358E+03  0.46328174587E+03  0.00000000000E+00 0.  1.
</event>
<event>
 4    1  0.5843276E+002  0.3006453E+02  0.7546771E-02  0.1419037E+00
          2   -1    0    0  503    0  0.00000000000E+00  0.00000000000E+00  0.29438144166E+03  0.29438144166E+03  0.00000000000E+00 0. -1.
         -2   -1    0    0    0  501 -0.00000000000E+00 -0.00000000000E+00 -0.51693777239E+01  0.51693777239E+01  0.00000000000E+00 0.  1.
         21    1    1    2  502  501 -0.16905097213E+02 -0.24861485151E+02  0.49167698866E+02  0.57631053847E+02  0.00000000000E+00 0.  1.
         21    1    1    2  503  502  0.16905097213E+02  0.24861485151E+02  0.24004436507E+03  0.24191976554E+03  0.00000000000E+00 0. -1.
</event>
<event>
 4    1  0.5843276E+002  0.2991381E+02  0.7546771E-02  0.1420347E+00
          2   -1    0    0  503    0  0.00000000000E+00  0.00000000000E+00  0.14446391285E+04  0.14446391285E+04  0.00000000000E+00 0. -1.
         -2   -1    0    0    0  501 -0.00000000000E+00 -0.00000000000E+00 -0.70147464895E+00  0.70147464895E+00  0.00000000000E+00 0.  1.
         21    1    1    2  502  501 -0.23675914626E+02 -0.18283524775E+02  0.47480223733E+03  0.47574362926E+03  0.00000000000E+00 0.  1.
         21    1    1    2  503  502  0.23675914626E+02  0.18283524775E+02  0.96913541647E+03  0.96959697384E+03  0.00000000000E+00 0. -1.
</event>
<event>
 4    1  0.5843276E+002  0.2394265E+02  0.7546771E-02  0.1480989E+00
          2   -1    0    0  502    0  0.00000000000E+00  0.00000000000E+00  0.71907338998E+02  0.71907338998E+02  0.00000000000E+00 0. -1.
         -2   -1    0    0    0  501 -0.00000000000E+00 -0.00000000000E+00 -0.15027311826E+02  0.15027311826E+02  0.00000000000E+00 0.  1.
         21    1    1    2  502  503 -0.18720236450E+02  0.14926589650E+02  0.58223684532E+02  0.62954330842E+02  0.00000000000E+00 0. -1.
         21    1    1    2  503  501  0.18720236450E+02 -0.14926589650E+02 -0.13436573604E+01  0.23980319982E+02  0.00000000000E+00 0.  1.
</event>
<event>
 4    1  0.5843276E+002  0.2512449E+02  0.7546771E-02  0.1467415E+00
          2   -1    0    0  503    0  0.00000000000E+00  0.00000000000E+00  0.42013634050E+03  0.42013634050E+03  0.00000000000E+00 0.  1.
         -2   -1    0    0    0  501 -0.00000000000E+00 -0.00000000000E+00 -0.27722655802E+01  0.27722655802E+01  0.00000000000E+00 0. -1.
         21    1    1    2  502  501  0.24714302947E+02 -0.45214294373E+01  0.65573055304E+02  0.70221547094E+02  0.00000000000E+00 0. -1.
         21    1    1    2  503  502 -0.24714302947E+02  0.45214294373E+01  0.35179101962E+03  0.35268705899E+03  0.00000000000E+00 0.  1.
</event>
<event>
 4    1  0.5843276E+002  0.2048555E+02  0.7546771E-02  0.1526738E+00
          2   -1    0    0  503    0  0.00000000000E+00  0.00000000000E+00  0.11913560472E+03  0.11913560472E+03  0.00000000000E+00 0.  1.
         -2   -1    0    0    0  501 -0.00000000000E+00 -0.00000000000E+00 -0.45877433912E+01  0.45877433912E+01  0.00000000000E+00 0. -1.
         21    1    1    2  502  501  0.20474691569E+02  0.66676790672E+00  0.27465273269E+02  0.34263666033E+02  0.00000000000E+00 0. -1.
         21    1    1    2  503  502 -0.20474691569E+02 -0.66676790672E+00  0.87082588064E+02  0.89459682082E+02  0.00000000000E+00 0.  1.
</event>
<event>
 4    1  0.5843276E+002  0.2358716E+02  0.7546771E-02  0.1485254E+00
          2   -1    0    0  503    0  0.00000000000E+00  0.00000000000E+00  0.11578077481E+03  0.11578077481E+03  0.00000000000E+00 0. -1.
         -2   -1    0    0    0  501 -0.00000000000E+00 -0.00000000000E+00 -0.57468376021E+01  0.57468376021E+01  0.00000000000E+00 0.  1.
         21    1    1    2  502  501 -0.23586080902E+02  0.22532080913E+00  0.30420994161E+02  0.38494036779E+02  0.00000000000E+00 0.  1.
         21    1    1    2  503  502  0.23586080902E+02 -0.22532080913E+00  0.79612943042E+02  0.83033575628E+02  0.00000000000E+00 0. -1.
</event>
<event>
 4    1  0.5843276E+002  0.2040018E+02  0.7546771E-02  0.1528004E+00
          2   -1    0    0  503    0  0.00000000000E+00  0.00000000000E+00  0.17904027289E+02  0.17904027289E+02  0.00000000000E+00 0.  1.
         -2   -1    0    0    0  501 -0.00000000000E+00 -0.00000000000E+00 -0.31143770434E+02  0.31143770434E+02  0.00000000000E+00 0. -1.
         21    1    1    2  502  501  0.12098037162E+02 -0.16425736149E+02 -0.18970862148E+02  0.27857870016E+02  0.00000000000E+00 0. -1.
         21    1    1    2  503  502 -0.12098037162E+02  0.16425736149E+02  0.57311190026E+01  0.21189927707E+02  0.00000000000E+00 0.  1.
</event>
<event>
 4    1  0.5843276E+002  0.2279608E+02  0.7546771E-02  0.1495075E+00
          2   -1    0    0  502    0  0.00000000000E+00  0.00000000000E+00  0.69770894660E+00  0.69770894660E+00  0.00000000000E+00 0. -1.
         -2   -1    0    0    0  501 -0.00000000000E+00 -0.00000000000E+00 -0.74883665981E+03  0.74883665981E+03  0.00000000000E+00 0.  1.
         21    1    1    2  502  503 -0.22013817282E+02  0.59205513838E+01 -0.40154863281E+03  0.40219518345E+03  0.00000000000E+00 0.  1.
         21    1    1    2  503  501  0.22013817282E+02 -0.59205513838E+01 -0.34659031806E+03  0.34733918531E+03  0.00000000000E+00 0. -1.
</event>
<event>
 4    1  0.5843276E+002  0.2713739E+02  0.7546771E-02  0.1446233E+00
          2   -1    0    0  503    0  0.00000000000E+00  0.00000000000E+00  0.76458883470E+02  0.76458883470E+02  0.00000000000E+00 0.  1.
         -2   -1    0    0    0  501 -0.00000000000E+00 -0.00000000000E+00 -0.96947145529E+01  0.96947145529E+01  0.00000000000E+00 0. -1.
         21    1    1    2  502  501 -0.22643513429E+02  0.14956904699E+02  0.36851890527E+02  0.45765702595E+02  0.00000000000E+00 0. -1.
         21    1    1    2  503  502  0.22643513429E+02 -0.14956904699E+02  0.29912278390E+02  0.40387895427E+02  0.00000000000E+00 0.  1.
</event>
<event>
 4    1  0.5843276E+002  0.2387540E+02  0.7546771E-02  0.1481789E+00
          2   -1    0    0  502    0  0.00000000000E+00  0.00000000000E+00  0.12892353681E+03  0.12892353681E+03  0.00000000000E+00 0. -1.
         -2   -1    0    0    0  501 -0.00000000000E+00 -0.00000000000E+00 -0.44258238161E+01  0.44258238161E+01  0.00000000000E+00 0.  1.
         21    1    1    2  502  503  0.22615337339E+02 -0.76538462666E+01  0.60163787951E+02  0.64728017320E+02  0.00000000000E+00 0.  1.
         21    1    1    2  503  501 -0.22615337339E+02  0.76538462666E+01  0.64333925040E+02  0.68621343303E+02  0.00000000000E+00 0. -1.
</event>
<event>
 4    1  0.5843276E+002  0.3824431E+02  0.7546771E-02  0.1359093E+00
          2   -1    0    0  503    0  0.00000000000E+00  0.00000000000E+00  0.53746447881E+01  0.53746447881E+01  0.00000000000E+00 0. -1.
         -2   -1    0    0    0  501 -0.00000000000E+00 -0.00000000000E+00 -0.31299644929E+03  0.31299644929E+03  0.00000000000E+00 0.  1.
         21    1    1    2  502  501  0.37125216312E+02 -0.91839792463E+01 -0.21132742075E+03  0.21476011250E+03  0.00000000000E+00 0.  1.
         21    1    1    2  503  502 -0.37125216312E+02  0.91839792463E+01 -0.96294383752E+02  0.10361098158E+03  0.00000000000E+00 0. -1.
</event>
<event>
 4    1  0.5843276E+002  0.5553121E+02  0.7546771E-02  0.1275822E+00
          2   -1    0    0  503    0  0.00000000000E+00  0.00000000000E+00  0.15508416376E+04  0.15508416376E+04  0.00000000000E+00 0. -1.
         -2   -1    0    0    0  501 -0.00000000000E+00 -0.00000000000E+00 -0.32828237886E+01  0.32828237886E+01  0.00000000000E+00 0.  1.
         21    1    1    2  502  501 -0.48238452038E+02  0.27509397277E+02  0.28583773257E+03  0.29118194407E+03  0.00000000000E+00 0.  1.
         21    1    1    2  503  502  0.48238452038E+02 -0.27509397277E+02  0.12617210813E+04  0.12629425173E+04  0.00000000000E+00 0. -1.
</event>
<event>
 4    1  0.5843276E+002  0.3904319E+02  0.7546771E-02  0.1354186E+00
          2   -1    0    0  503    0  0.00000000000E+00  0.00000000000E+00  0.22005474780E+03  0.22005474780E+03  0.00000000000E+00 0. -1.
         -2   -1    0    0    0  501 -0.00000000000E+00 -0.00000000000E+00 -0.13558238295E+02  0.13558238295E+02  0.00000000000E+00 0.  1.
         21    1    1    2  502  501  0.70082441393E+01  0.38409046646E+02  0.21560856316E+02  0.44600906664E+02  0.00000000000E+00 0.  1.
         21    1    1    2  503  502 -0.70082441393E+01 -0.38409046646E+02  0.18493565319E+03  0.18901207943E+03  0.00000000000E+00 0. -1.
</event>
<event>
 4    1  0.5843276E+002  0.3479561E+02  0.7546771E-02  0.1382006E+00
          2   -1    0    0  503    0  0.00000000000E+00  0.00000000000E+00  0.29007895229E+03  0.29007895229E+03  0.00000000000E+00 0. -1.
         -2   -1    0    0    0  501 -0.00000000000E+00 -0.00000000000E+00 -0.51819671692E+01  0.51819671692E+01  0.00000000000E+00 0.  1.
         21    1    1    2  502  501  0.29493568352E+02 -0.18462492556E+02  0.77331710106E+02  0.84799337223E+02  0.00000000000E+00 0.  1.
         21    1    1    2  503  502 -0.29493568352E+02  0.18462492556E+02  0.20756527501E+03  0.21046158224E+03  0.00000000000E+00 0. -1.
</event>
<event>
 4    1  0.5843276E+002  0.2605303E+02  0.7546771E-02  0.1457360E+00
          2   -1    0    0  503    0  0.00000000000E+00  0.00000000000E+00  0.49777741369E+03  0.49777741369E+03  0.00000000000E+00 0.  1.
         -2   -1    0    0    0  501 -0.00000000000E+00 -0.00000000000E+00 -0.13816188288E+01  0.13816188288E+01  0.00000000000E+00 0. -1.
         21    1    1    2  502  501  0.19936025313E+02  0.16772459267E+02  0.21968175968E+03  0.22122123775E+03  0.00000000000E+00 0.  1.
         21    1    1    2  503  502 -0.19936025313E+02 -0.16772459267E+02  0.27671403518E+03  0.27793779477E+03  0.00000000000E+00 0. -1.
</event>
<event>
 4    1  0.5843276E+002  0.2530321E+02  0.7546771E-02  0.1465440E+00
          2   -1    0    0  503    0  0.00000000000E+00  0.00000000000E+00  0.35890608516E+01  0.35890608516E+01  0.00000000000E+00 0. -1.
         -2   -1    0    0    0  501 -0.00000000000E+00 -0.00000000000E+00 -0.22644568401E+03  0.22644568401E+03  0.00000000000E+00 0.  1.
         21    1    1    2  502  501 -0.25076021533E+02  0.33831190485E+01 -0.16441344965E+03  0.16634913518E+03  0.00000000000E+00 0.  1.
         21    1    1    2  503  502  0.25076021533E+02 -0.33831190485E+01 -0.58443173511E+02  0.63685609681E+02  0.00000000000E+00 0. -1.
</event>
<event>
 4    1  0.5843276E+002  0.2002596E+02  0.7546771E-02  0.1533639E+00
          2   -1    0    0  502    0  0.00000000000E+00  0.00000000000E+00  0.11821831277E+03  0.11821831277E+03  0.00000000000E+00 0. -1.
         -2   -1    0    0    0  501 -0.00000000000E+00 -0.00000000000E+00 -0.49715950410E+01  0.49715950410E+01  0.00000000000E+00 0.  1.
         21    1    1    2  502  503 -0.11068311486E+02 -0.16689267821E+02  0.91338627184E+02  0.93508202825E+02  0.00000000000E+00 0. -1.
         21    1    1    2  503  501  0.11068311486E+02  0.16689267821E+02  0.21908090543E+02  0.29681704985E+02  0.00000000000E+00 0.  1.
</event>
<event>
 4    1  0.5843276E+002  0.2113367E+02  0.7546771E-02  0.1517365E+00
          2   -1    0    0  503    0  0.00000000000E+00  0.00000000000E+00  0.37196479697E+03  0.37196479697E+03  0.00000000000E+00 0. -1.
         -2   -1    0    0    0  501 -0.00000000000E+00 -0.00000000000E+00 -0.12599828908E+01  0.12599828908E+01  0.00000000000E+00 0.  1.
         21    1    1    2  502  501 -0.20112231667E+02  0.64907791830E+01  0.14488685511E+03  0.14642005621E+03  0.00000000000E+00 0.  1.
         21    1    1    2  503  502  0.20112231667E+02 -0.64907791830E+01  0.22581795897E+03  0.22680472365E+03  0.00000000000E+00 0. -1.
</event>
<event>
 4    1  0.5843276E+002  0.2731278E+02  0.7546771E-02  0.1444491E+00
          2   -1    0    0  502    0  0.00000000000E+00  0.00000000000E+00  0.10525136017E+02  0.10525136017E+02  0.00000000000E+00 0.  1.
         -2   -1    0    0    0  501 -0.00000000000E+00 -0.00000000000E+00 -0.74189323729E+02  0.74189323729E+02  0.00000000000E+00 0. -1.
         21    1    1    2  502  503  0.22476511216E+02  0.15517543642E+02 -0.22881788381E+02  0.35630941001E+02  0.00000000000E+00 0.  1.
         21    1    1    2  503  501 -0.22476511216E+02 -0.15517543642E+02 -0.40782399332E+02  0.49083518745E+02  0.00000000000E+00 0. -1.
</event>
<event>
 4    1  0.5843276E+002  0.2089976E+02  0.7546771E-02  0.1520701E+00
          2   -1    0    0  502    0  0.00000000000E+00  0.00000000000E+00  0.13607405499E+04  0.13607405499E+04  0.00000000000E+00 0. -1.
         -2   -1    0    0    0  501 -0.00000000000E+00 -0.00000000000E+00 -0.53079638144E+00  0.53079638144E+00  0.00000000000E+00 0.  1.
         21    1    1    2  502  503 -0.14064005048E+02  0.15459745610E+02  0.11080105174E+04  0.11082076099E+04  0.00000000000E+00 0. -1.
         21    1    1    2  503  501  0.14064005048E+02 -0.15459745610E+02  0.25219923614E+03  0.25306373640E+03  0.00000000000E+00 0.  1.
</event>
<event>
 4    1  0.5843276E+002  0.2454463E+02  0.7546771E-02  0.1473962E+00
          2   -1    0    0  502    0  0.00000000000E+00  0.00000000000E+00  0.30611749578E+04  0.30611749578E+04  0.00000000000E+00 0. -1.
         -2   -1    0    0    0  501 -0.00000000000E+00 -0.00000000000E+00 -0.20019495274E+00  0.20019495274E+00  0.00000000000E+00 0.  1.
         21    1    1    2  502  503  0.24298738968E+02 -0.34655996701E+01  0.13311541596E+04  0.13313804249E+04  0.00000000000E+00 0.  1.
         21    1    1    2  503  501 -0.24298738968E+02  0.34655996701E+01  0.17298206032E+04  0.17299947278E+04  0.00000000000E+00 0. -1.
</event>
<event>
 4    1  0.5843276E+002  0.3781992E+02  0.7546771E-02  0.1361757E+00
          2   -1    0    0  503    0  0.00000000000E+00  0.00000000000E+00  0.66138152213E+03  0.66138152213E+03  0.00000000000E+00 0.  1.
         -2   -1    0    0    0  501 -0.00000000000E+00 -0.00000000000E+00 -0.23597992923E+01  0.23597992923E+01  0.00000000000E+00 0. -1.
         21    1    1    2  502  501  0.10328544214E+02 -0.36382239152E+02  0.23358995392E+03  0.23663180835E+03  0.00000000000E+00 0. -1.
         21    1    1    2  503  502 -0.10328544214E+02  0.36382239152E+02  0.42543176891E+03  0.42710951306E+03  0.00000000000E+00 0.  1.
</event>
<event>
 4    1  0.5843276E+002  0.2882227E+02  0.7546771E-02  0.1430114E+00
          2   -1    0    0  502    0  0.00000000000E+00  0.00000000000E+00  0.86489039042E+03  0.86489039042E+03  0.00000000000E+00 0.  1.
         -2   -1    0    0    0  501 -0.00000000000E+00 -0.00000000000E+00 -0.18563297267E+01  0.18563297267E+01  0.00000000000E+00 0. -1.
         21    1    1    2  502  503 -0.27084168695E+02 -0.98575514325E+01  0.73257381922E+03  0.73314058960E+03  0.00000000000E+00 0.  1.
         21    1    1    2  503  501  0.27084168695E+02  0.98575514325E+01  0.13046024148E+03  0.13360613055E+03  0.00000000000E+00 0. -1.
</event>
<event>
 4    1  0.5843276E+002  0.2123757E+02  0.7546771E-02  0.1515900E+00
          2   -1    0    0  503    0  0.00000000000E+00  0.00000000000E+00  0.15127895484E+04  0.15127895484E+04  0.00000000000E+00 0. -1.
         -2   -1    0    0    0  501 -0.00000000000E+00 -0.00000000000E+00 -0.55313730616E+00  0.55313730616E+00  0.00000000000E+00 0.  1.
         21    1    1    2  502  501 -0.16750312832E+02 -0.13056083248E+02  0.12698687498E+04  0.12700463283E+04  0.00000000000E+00 0. -1.
         21    1    1    2  503  502  0.16750312832E+02  0.13056083248E+02  0.24236766123E+03  0.24329635735E+03  0.00000000000E+00 0.  1.
</event>
<event>
 4    1  0.5843276E+002  0.2380251E+02  0.7546771E-02  0.1482660E+00
          2   -1    0    0  502    0  0.00000000000E+00  0.00000000000E+00  0.64055149028E+03  0.64055149028E+03  0.00000000000E+00 0.  1.
         -2   -1    0    0    0  501 -0.00000000000E+00 -0.00000000000E+00 -0.10662187174E+01  0.10662187174E+01  0.00000000000E+00 0. -1.
         21    1    1    2  502  503  0.96321532593E+01 -0.21766514913E+02  0.45218850200E+03  0.45281453256E+03  0.00000000000E+00 0. -1.
         21    1    1    2  503  501 -0.96321532593E+01  0.21766514913E+02  0.18729676956E+03  0.18880317644E+03  0.00000000000E+00 0.  1.
</event>
<event>
 4    1  0.5843276E+002  0.2438346E+02  0.7546771E-02  0.1475820E+00
          2   -1    0    0  502    0  0.00000000000E+00  0.00000000000E+00  0.11009422234E+04  0.11009422234E+04  0.00000000000E+00 0.  1.
         -2   -1    0    0    0  501 -0.00000000000E+00 -0.00000000000E+00 -0.15674793939E+01  0.15674793939E+01  0.00000000000E+00 0. -1.
         21    1    1    2  502  503  0.83291414950E+01  0.22916769823E+02  0.99599015212E+03  0.99628858071E+03  0.00000000000E+00 0.  1.
         21    1    1    2  503  501 -0.83291414950E+01 -0.22916769823E+02  0.10338459193E+03  0.10622112213E+03  0.00000000000E+00 0. -1.
</event>
<event>
 4    1  0.5843276E+002  0.3309450E+02  0.7546771E-02  0.1394478E+00
          2   -1    0    0  502    0  0.00000000000E+00  0.00000000000E+00  0.73627890601E+03  0.73627890601E+03  0.00000000000E+00 0. -1.
         -2   -1    0    0    0  501 -0.00000000000E+00 -0.00000000000E+00 -0.27365144427E+01  0.27365144427E+01  0.00000000000E+00 0.  1.
         21    1    1    2  502  503 -0.85282651590E+01  0.31976786848E+02  0.61640360293E+03  0.61729138007E+03  0.00000000000E+00 0.  1.
         21    1    1    2  503  501  0.85282651590E+01 -0.31976786848E+02  0.11713878864E+03  0.12172404039E+03  0.00000000000E+00 0. -1.
</event>
<event>
 4    1  0.5843276E+002  0.2422732E+02  0.7546771E-02  0.1477636E+00
          2   -1    0    0  503    0  0.00000000000E+00  0.00000000000E+00  0.10065515177E+03  0.10065515177E+03  0.00000000000E+00 0.  1.
         -2   -1    0    0    0  501 -0.00000000000E+00 -0.00000000000E+00 -0.85876762117E+01  0.85876762117E+01  0.00000000000E+00 0. -1.
         21    1    1    2  502  501  0.16312989884E+02 -0.17912272523E+02  0.15089173795E+02  0.28542009595E+02  0.00000000000E+00 0. -1.
         21    1    1    2  503  502 -0.16312989884E+02  0.17912272523E+02  0.76978301760E+02  0.80700818384E+02  0.00000000000E+00 0.  1.
</event>
<event>
 4    1  0.5843276E+002  0.2875165E+02  0.7546771E-02  0.1430764E+00
          2   -1    0    0  503    0  0.00000000000E+00  0.00000000000E+00  0.45992650549E+03  0.45992650549E+03  0.00000000000E+00 0. -1.
         -2   -1    0    0    0  501 -0.00000000000E+00 -0.00000000000E+00 -0.23143407674E+01  0.23143407674E+01  0.00000000000E+00 0.  1.
         21    1    1    2  502  501  0.26140963924E+02  0.11971111508E+02  0.11957198860E+03  0.12298015273E+03  0.00000000000E+00 0.  1.
         21    1    1    2  503  502 -0.26140963924E+02 -0.11971111508E+02  0.33804017612E+03  0.33926069353E+03  0.00000000000E+00 0. -1.
</event>
<event>
 4    1  0.5843276E+002  0.2979525E+02  0.7546771E-02  0.1421384E+00
          2   -1    0    0  502    0  0.00000000000E+00  0.00000000000E+00  0.18003436013E+02  0.18003436013E+02  0.00000000000E+00 0.  1.
         -2   -1    0    0    0  501 -0.00000000000E+00 -0.00000000000E+00 -0.89930203051E+02  0.89930203051E+02  0.00000000000E+00 0. -1.
         21    1    1    2  502  503 -0.10207076947E+01 -0.29777765657E+02 -0.72232984972E+02  0.78136811361E+02  0.00000000000E+00 0. -1.
         21    1    1    2  503  501  0.10207076947E+01  0.29777765657E+02  0.30621793394E+00  0.29796827702E+02  0.00000000000E+00 0.  1.
</event>
<event>
 4    1  0.5843276E+002  0.2011287E+02  0.7546771E-02  0.1532317E+00
          2   -1    0    0  503    0  0.00000000000E+00  0.00000000000E+00  0.13480518948E+04  0.13480518948E+04  0.00000000000E+00 0. -1.
         -2   -1    0    0    0  501 -0.00000000000E+00 -0.00000000000E+00 -0.30108011055E+00  0.30108011055E+00  0.00000000000E+00 0.  1.
         21    1    1    2  502  501  0.70757146339E+01 -0.18827156642E+02  0.63507942375E+03  0.63539782974E+03  0.00000000000E+00 0. -1.
         21    1    1    2  503  502 -0.70757146339E+01  0.18827156642E+02  0.71267139093E+03  0.71295514516E+03  0.00000000000E+00 0.  1.
</event>
<event>
 4    1  0.5843276E+002  0.2702104E+02  0.7546771E-02  0.1447397E+00
          2   -1    0    0  502    0  0.00000000000E+00  0.00000000000E+00  0.71571151700E+03  0.71571151700E+03  0.00000000000E+00 0.  1.
         -2   -1    0    0    0  501 -0.00000000000E+00 -0.00000000000E+00 -0.10977775918E+01  0.10977775918E+01  0.00000000000E+00 0. -1.
         21    1    1    2  502  503 -0.10653636593E+01  0.27000034393E+02  0.26200315252E+03  0.26339284119E+03  0.00000000000E+00 0.  1.
         21    1    1    2  503  501  0.10653636593E+01 -0.27000034393E+02  0.45261058689E+03  0.45341645340E+03  0.00000000000E+00 0. -1.
</event>
<event>
 4    1  0.5843276E+002  0.2247324E+02  0.7546771E-02  0.1499221E+00
          2   -1    0    0  503    0  0.00000000000E+00  0.00000000000E+00  0.54248405846E+01  0.54248405846E+01  0.00000000000E+00 0.  1.
         -2   -1    0    0    0  501 -0.00000000000E+00 -0.00000000000E+00 -0.47590400990E+03  0.47590400990E+03  0.00000000000E+00 0. -1.
         21    1    1    2  502  501 -0.19096415202E+01  0.22391956541E+02 -0.45108414322E+03  0.45164361029E+03  0.00000000000E+00 0. -1.
         21    1    1    2  503  502  0.19096415202E+01 -0.22391956541E+02 -0.19395026100E+02  0.29685240203E+02  0.00000000000E+00 0.  1.
</event>
<event>
 4    1  0.5843276E+002  0.3050328E+02  0.7546771E-02  0.1415272E+00
          2   -1    0    0  503    0  0.00000000000E+00  0.00000000000E+00  0.19522806374E+04  0.19522806374E+04  0.00000000000E+00 0. -1.
         -2   -1    0    0    0  501 -0.00000000000E+00 -0.00000000000E+00 -0.49507875938E+00  0.49507875938E+00  0.00000000000E+00 0.  1.
         21    1    1    2  502  501 -0.30352861673E+02  0.30255121248E+01  0.11645458408E+04  0.11649452627E+04  0.00000000000E+00 0. -1.
         21    1    1    2  503  502  0.30352861673E+02 -0.30255121248E+01  0.78723971785E+03  0.78783045339E+03  0.00000000000E+00 0.  1.
</event>
<event>
 4    1  0.5843276E+002  0.4250206E+02  0.7546771E-02  0.1334416E+00
          2   -1    0    0  503    0  0.00000000000E+00  0.00000000000E+00  0.22351221716E+04  0.22351221716E+04  0.00000000000E+00 0. -1.
         -2   -1    0    0    0  501 -0.00000000000E+00 -0.00000000000E+00 -0.10392909248E+01  0.10392909248E+01  0.00000000000E+00 0.  1.
         21    1    1    2  502  501 -0.11305338476E+02  0.40970892866E+02  0.58981587559E+03  0.59134523913E+03  0.00000000000E+00 0.  1.
         21    1    1    2  503  502  0.11305338476E+02 -0.40970892866E+02  0.16442670051E+04  0.16448162234E+04  0.00000000000E+00 0. -1.
</event>
<event>
 4    1  0.5843276E+002  0.2762309E+02  0.7546771E-02  0.1441448E+00
          2   -1    0    0  503    0  0.00000000000E+00  0.00000000000E+00  0.25489802486E+02  0.25489802486E+02  0.00000000000E+00 0. -1.
         -2   -1    0    0    0  501 -0.00000000000E+00 -0.00000000000E+00 -0.42040519983E+02  0.42040519983E+02  0.00000000000E+00 0.  1.
         21    1    1    2  502  501  0.17401210818E+02  0.21453037246E+02 -0.26394104300E+02  0.38205806978E+02  0.00000000000E+00 0.  1.
         21    1    1    2  503  502 -0.17401210818E+02 -0.21453037246E+02  0.98433868028E+01  0.29324515491E+02  0.00000000000E+00 0. -1.
</event>
<event>
 4    1  0.5843276E+002  0.3289441E+02  0.7546771E-02  0.1396003E+00
          2   -1    0    0  503    0  0.00000000000E+00  0.00000000000E+00  0.44739864685E+03  0.44739864685E+03  0.00000000000E+00 0.  1.
         -2   -1    0    0    0  501 -0.00000000000E+00 -0.00000000000E+00 -0.24285230418E+01  0.24285230418E+01  0.00000000000E+00 0. -1.
         21    1    1    2  502  501  0.74812020366E+01 -0.32032382404E+02  0.20804918821E+03  0.21063358380E+03  0.00000000000E+00 0.  1.
         21    1    1    2  503  502 -0.74812020366E+01  0.32032382404E+02  0.23692093559E+03  0.23919358610E+03  0.00000000000E+00 0. -1.
</event>
<event>
 4    1  0.5843276E+002  0.2513566E+02  0.7546771E-02  0.1467291E+00
          2   -1    0    0  502    0  0.00000000000E+00  0.00000000000E+00  0.13149805983E+01  0.13149805983E+01  0.00000000000E+00 0.  1.
         -2   -1    0    0    0  501 -0.00000000000E+00 -0.00000000000E+00 -0.51807120732E+03  0.51807120732E+03  0.00000000000E+00 0. -1.
         21    1    1    2  502  503  0.22030272402E+02  0.12102425481E+02 -0.18841037289E+03  0.19007964178E+03  0.00000000000E+00 0. -1.
         21    1    1    2  503  501 -0.22030272402E+02 -0.12102425481E+02 -0.32834585383E+03  0.32930654614E+03  0.00000000000E+00 0.  1.
</event>
<event>
 4    1  0.5843276E+002  0.3818597E+02  0.7546771E-02  0.1359457E+00
          2   -1    0    0  503    0  0.00000000000E+00  0.00000000000E+00  0.63282935636E+02  0.63282935636E+02  0.00000000000E+00 0. -1.
         -2   -1    0    0    0  501 -0.00000000000E+00 -0.00000000000E+00 -0.65492823365E+02  0.65492823365E+02  0.00000000000E+00 0.  1.
         21    1    1    2  502  501 -0.26964741681E+02  0.27038329798E+02 -0.52943162489E+02  0.65277461857E+02  0.00000000000E+00 0.  1.
         21    1    1    2  503  502  0.26964741681E+02 -0.27038329798E+02  0.50733274761E+02  0.63498297143E+02  0.00000000000E+00 0. -1.
</event>
<event>
 4    1  0.5843276E+002  0.3266657E+02  0.7546771E-02  0.1397754E+00
          2   -1    0    0  502    0  0.00000000000E+00  0.00000000000E+00  0.13026756713E+04  0.13026756713E+04  0.00000000000E+00 0. -1.
         -2   -1    0    0    0  501 -0.00000000000E+00 -0.00000000000E+00 -0.87502384957E+00  0.87502384957E+00  0.00000000000E+00 0.  1.
         21    1    1    2  502  503 -0.26144484431E+02  0.19584961056E+02  0.81557946950E+03  0.81623340769E+03  0.00000000000E+00 0. -1.
         21    1    1    2  503  501  0.26144484431E+02 -0.19584961056E+02  0.48622117799E+03  0.48731728750E+03  0.00000000000E+00 0.  1.
</event>
<event>
 4    1  0.5843276E+002  0.2327484E+02  0.7546771E-02  0.1489075E+00
          2   -1    0    0  502    0  0.00000000000E+00  0.00000000000E+00  0.13031885490E+03  0.13031885490E+03  0.00000000000E+00 0.  1.
         -2   -1    0    0    0  501 -0.00000000000E+00 -0.00000000000E+00 -0.42335982805E+01  0.42335982805E+01  0.00000000000E+00 0. -1.
         21    1    1    2  502  503  0.40186343684E+01 -0.22925287775E+02  0.72099766107E+02  0.75763411449E+02  0.00000000000E+00 0.  1.
         21    1    1    2  503  501 -0.40186343684E+01  0.22925287775E+02  0.53985490508E+02  0.58789041727E+02  0.00000000000E+00 0. -1.
</event>
<event>
 4    1  0.5843276E+002  0.2278790E+02  0.7546771E-02  0.1495179E+00
          2   -1    0    0  503    0  0.00000000000E+00  0.00000000000E+00  0.32842666225E+03  0.32842666225E+03  0.00000000000E+00 0. -1.
         -2   -1    0    0    0  501 -0.00000000000E+00 -0.00000000000E+00 -0.24038578842E+01  0.24038578842E+01  0.00000000000E+00 0.  1.
         21    1    1    2  502  501  0.22768284690E+02  0.94533331486E+00  0.66240070140E+02  0.70050234367E+02  0.00000000000E+00 0.  1.
         21    1    1    2  503  502 -0.22768284690E+02 -0.94533331486E+00  0.25978273423E+03  0.26078028577E+03  0.00000000000E+00 0. -1.
</event>
<event>
 4    1  0.5843276E+002  0.2825297E+02  0.7546771E-02  0.1435412E+00
          2   -1    0    0  503    0  0.00000000000E+00  0.00000000000E+00  0.13924685746E+02  0.13924685746E+02  0.00000000000E+00 0.  1.
         -2   -1    0    0    0  501 -0.00000000000E+00 -0.00000000000E+00 -0.20828004900E+03  0.20828004900E+03  0.00000000000E+00 0. -1.
         21    1    1    2  502  501 -0.13942270507E+02  0.24573227698E+02 -0.19176295530E+03  0.19383307625E+03  0.00000000000E+00 0. -1.
         21    1    1    2  503  502  0.13942270507E+02 -0.24573227698E+02 -0.25924079546E+01  0.28371658488E+02  0.00000000000E+00 0.  1.
</event>
<event>
 4    1  0.5843276E+002  0.2667707E+02  0.7546771E-02  0.1450879E+00
          2   -1    0    0  503    0  0.00000000000E+00  0.00000000000E+00  0.17324838565E+03  0.17324838565E+03  0.00000000000E+00 0.  1.
         -2   -1    0    0    0  501 -0.00000000000E+00 -0.00000000000E+00 -0.73308223636E+01  0.73308223636E+01  0.00000000000E+00 0. -1.
         21    1    1    2  502  501  0.20218027970E+02 -0.17403948452E+02  0.23090819412E+02  0.35282460484E+02  0.00000000000E+00 0.  1.
         21    1    1    2  503  502 -0.20218027970E+02  0.17403948452E+02  0.14282674387E+03  0.14529674753E+03  0.00000000000E+00 0. -1.
</event>
<event>
 4    1  0.5843276E+002  0.2445571E+02  0.7546771E-02  0.1474985E+00
          2   -1    0    0  502    0  0.00000000000E+00  0.00000000000E+00  0.75334920530E+03  0.75334920530E+03  0.00000000000E+00 0. -1.
         -2   -1    0    0    0  501 -0.00000000000E+00 -0.00000000000E+00 -0.15577591910E+02  0.15577591910E+02  0.00000000000E+00 0.  1.
         21    1    1    2  502  503 -0.20099610837E+02  0.13931529254E+02  0.74342419008E+03  0.74382632936E+03  0.00000000000E+00 0. -1.
         21    1    1    2  503  501  0.20099610837E+02 -0.13931529254E+02 -0.56525766835E+01  0.25100467850E+02  0.00000000000E+00 0.  1.
</event>
<event>
 4    1  0.5843276E+002  0.2753898E+02  0.7546771E-02  0.1442268E+00
          2   -1    0    0  502    0  0.00000000000E+00  0.00000000000E+00  0.19776197611E+03  0.19776197611E+03  0.00000000000E+00 0. -1.
         -2   -1    0    0    0  501 -0.00000000000E+00 -0.00000000000E+00 -0.58281371208E+01  0.58281371208E+01  0.00000000000E+00 0.  1.
         21    1    1    2  502  503  0.39676365369E+01  0.27251668481E+02  0.36436040137E+02  0.45672536557E+02  0.00000000000E+00 0.  1.
         21    1    1    2  503  501 -0.39676365369E+01 -0.27251668481E+02  0.15549779886E+03  0.15791757668E+03  0.00000000000E+00 0. -1.
</event>
<event>
 4    1  0.5843276E+002  0.2100373E+02  0.7546771E-02  0.1519211E+00
          2   -1    0    0  503    0  0.00000000000E+00  0.00000000000E+00  0.22939638609E+04  0.22939638609E+04  0.00000000000E+00 0. -1.
         -2   -1    0    0    0  501 -0.00000000000E+00 -0.00000000000E+00 -0.19816864200E+00  0.19816864200E+00  0.00000000000E+00 0.  1.
         21    1    1    2  502  501  0.14683201994E+02 -0.15018668292E+02  0.94968584015E+03  0.94991807636E+03  0.00000000000E+00 0.  1.
         21    1    1    2  503  502 -0.14683201994E+02  0.15018668292E+02  0.13440798521E+04  0.13442439531E+04  0.00000000000E+00 0. -1.
</event>
<event>
 4    1  0.5843276E+002  0.2429574E+02  0.7546771E-02  0.1476838E+00
          2   -1    0    0  502    0  0.00000000000E+00  0.00000000000E+00  0.59026416339E+02  0.59026416339E+02  0.00000000000E+00 0. -1.
         -2   -1    0    0    0  501 -0.00000000000E+00 -0.00000000000E+00 -0.31532281915E+02  0.31532281915E+02  0.00000000000E+00 0.  1.
         21    1    1    2  502  503  0.17233770385E+02 -0.17125428113E+02  0.51163662221E+02  0.56639239592E+02  0.00000000000E+00 0. -1.
         21    1    1    2  503  501 -0.17233770385E+02  0.17125428113E+02 -0.23669527797E+02  0.33919458661E+02  0.00000000000E+00 0.  1.
</event>
<event>
 4    1  0.5843276E+002  0.3843595E+02  0.7546771E-02  0.1357903E+00
          2   -1    0    0  503    0  0.00000000000E+00  0.00000000000E+00  0.53235533849E+02  0.53235533849E+02  0.00000000000E+00 0. -1.
         -2   -1    0    0    0  501 -0.00000000000E+00 -0.00000000000E+00 -0.39279964801E+02  0.39279964801E+02  0.00000000000E+00 0.  1.
         21    1    1    2  502  501  0.10589734206E+02  0.36948336858E+02 -0.18083319944E+02  0.42477388424E+02  0.00000000000E+00 0.  1.
         21    1    1    2  503  502 -0.10589734206E+02 -0.36948336858E+02  0.32038888992E+02  0.50038110226E+02  0.00000000000E+00 0. -1.
</event>
<event>
 4    1  0.5843276E+002  0.2271382E+02  0.7546771E-02  0.1496123E+00
          2   -1    0    0  502    0  0.00000000000E+00  0.00000000000E+00  0.57895899389E+03  0.57895899389E+03  0.00000000000E+00 0. -1.
         -2   -1    0    0    0  501 -0.00000000000E+00 -0.00000000000E+00 -0.46738494845E+02  0.46738494845E+02  0.00000000000E+00 0.  1.
         21    1    1    2  502  503  0.11902834392E+02  0.19345282952E+02  0.57596226734E+03  0.57640996768E+03  0.00000000000E+00 0. -1.
         21    1    1    2  503  501 -0.11902834392E+02 -0.19345282952E+02 -0.43741768291E+02  0.49287521060E+02  0.00000000000E+00 0.  1.
</event>
<event>
 4    1  0.5843276E+002  0.2388483E+02  0.7546771E-02  0.1481676E+00
          2   -1    0    0  503    0  0.00000000000E+00  0.00000000000E+00  0.50966767145E+01  0.50966767145E+01  0.00000000000E+00 0.  1.
         -2   -1    0    0    0  501 -0.00000000000E+00 -0.00000000000E+00 -0.18652825101E+03  0.18652825101E+03  0.00000000000E+00 0. -1.
         21    1    1    2  502  501  0.15007474331E+02 -0.18581194280E+02 -0.15130649163E+03  0.15318008838E+03  0.00000000000E+00 0. -1.
         21    1    1    2  503  502 -0.15007474331E+02  0.18581194280E+02 -0.30125082667E+02  0.38444839346E+02  0.00000000000E+00 0.  1.
</event>
<event>
 4    1  0.5843276E+002  0.2148996E+02  0.7546771E-02  0.1512383E+00
          2   -1    0    0  502    0  0.00000000000E+00  0.00000000000E+00  0.93304143060E+02  0.93304143060E+02  0.00000000000E+00 0. -1.
         -2   -1    0    0    0  501 -0.00000000000E+00 -0.00000000000E+00 -0.88709526845E+01  0.88709526845E+01  0.00000000000E+00 0.  1.
         21    1    1    2  502  503  0.16030346410E+01 -0.21430083033E+02  0.76182867176E+02  0.79155842678E+02  0.00000000000E+00 0. -1.
         21    1    1    2  503  501 -0.16030346410E+01  0.21430083033E+02  0.82503231996E+01  0.23019253067E+02  0.00000000000E+00 0.  1.
</event>
<event>
 4    1  0.5843276E+002  0.2252345E+02  0.7546771E-02  0.1498571E+00
          2   -1    0    0  503    0  0.00000000000E+00  0.00000000000E+00  0.18804863880E+03  0.18804863880E+03  0.00000000000E+00 0. -1.
         -2   -1    0    0    0  501 -0.00000000000E+00 -0.00000000000E+00 -0.46010332437E+01  0.46010332437E+01  0.00000000000E+00 0.  1.
         21    1    1    2  502  501 -0.11127927115E+02  0.19582515432E+02  0.29770587920E+02  0.37330866286E+02  0.00000000000E+00 0.  1.
         21    1    1    2  503  502  0.11127927115E+02 -0.19582515432E+02  0.15367701764E+03  0.15531880576E+03  0.00000000000E+00 0. -1.
</event>
<event>
 4    1  0.5843276E+002  0.3907829E+02  0.7546771E-02  0.1353973E+00
          2   -1    0    0  503    0  0.00000000000E+00  0.00000000000E+00  0.12140949629E+04  0.12140949629E+04  0.00000000000E+00 0.  1.
         -2   -1    0    0    0  501 -0.00000000000E+00 -0.00000000000E+00 -0.13051400215E+01  0.13051400215E+01  0.00000000000E+00 0. -1.
         21    1    1    2  502  501  0.30353557217E+02 -0.24612486228E+02  0.49068162410E+03  0.49223527824E+03  0.00000000000E+00 0. -1.
         21    1    1    2  503  502 -0.30353557217E+02  0.24612486228E+02  0.72210819874E+03  0.72316482465E+03  0.00000000000E+00 0.  1.
</event>
<event>
 4    1  0.5843276E+002  0.2564987E+02  0.7546771E-02  0.1461663E+00
          2   -1    0    0  502    0  0.00000000000E+00  0.00000000000E+00  0.36113112272E+01  0.36113112272E+01  0.00000000000E+00 0.  1.
         -2   -1    0    0    0  501 -0.00000000000E+00 -0.00000000000E+00 -0.26593177195E+03  0.26593177195E+03  0.00000000000E+00 0. -1.
         21    1    1    2  502  503 -0.25358642864E+02 -0.38542360614E+01 -0.55528350016E+02  0.61166277956E+02  0.00000000000E+00 0.  1.
         21    1    1    2  503  501  0.25358642864E+02  0.38542360614E+01 -0.20679211071E+03  0.20837680522E+03  0.00000000000E+00 0. -1.
</event>
<event>
 4    1  0.5843276E+002  0.2156464E+02  0.7546771E-02  0.1511354E+00
          2   -1    0    0  502    0  0.00000000000E+00  0.00000000000E+00  0.16210870609E+02  0.16210870609E+02  0.00000000000E+00 0.  1.
         -2   -1    0    0    0  501 -0.00000000000E+00 -0.00000000000E+00 -0.21458899869E+03  0.21458899869E+03  0.00000000000E+00 0. -1.
         21    1    1    2  502  503 -0.17273379843E+02 -0.12909842206E+02  0.82208604031E+01  0.23078479646E+02  0.00000000000E+00 0.  1.
         21    1    1    2  503  501  0.17273379843E+02  0.12909842206E+02 -0.20659898848E+03  0.20772138965E+03  0.00000000000E+00 0. -1.
</event>
<event>
 4    1  0.5843276E+002  0.3754568E+02  0.7546771E-02  0.1363501E+00
          2   -1    0    0  503    0  0.00000000000E+00  0.00000000000E+00  0.80227803322E+01  0.80227803322E+01  0.00000000000E+00 0.  1.
         -2   -1    0    0    0  501 -0.00000000000E+00 -0.00000000000E+00 -0.31107470059E+03  0.31107470059E+03  0.00000000000E+00 0. -1.
         21    1    1    2  502  501  0.36188329241E+02  0.10004156482E+02 -0.25677414868E+03  0.25950460834E+03  0.00000000000E+00 0. -1.
         21    1    1    2  503  502 -0.36188329241E+02 -0.10004156482E+02 -0.46277771576E+02  0.59592872579E+02  0.00000000000E+00 0.  1.
</event>
<event>
 4    1  0.5843276E+002  0.2560246E+02  0.7546771E-02  0.1462175E+00
          2   -1    0    0  503    0  0.00000000000E+00  0.00000000000E+00  0.82857935009E+03  0.82857935009E+03  0.00000000000E+00 0. -1.
         -2   -1    0    0    0  501 -0.00000000000E+00 -0.00000000000E+00 -0.63611905879E+01  0.63611905879E+01  0.00000000000E+00 0.  1.
         21    1    1    2  502  501  0.16640784750E+02  0.19456876977E+02  0.20459253195E+02  0.32772958672E+02  0.00000000000E+00 0.  1.
         21    1    1    2  503  502 -0.16640784750E+02 -0.19456876977E+02  0.80175890631E+03  0.80216758201E+03  0.00000000000E+00 0. -1.
</event>
<event>
 4    1  0.5843276E+002  0.3864947E+02  0.7546771E-02  0.1356587E+00
          2   -1    0    0  502    0  0.00000000000E+00  0.00000000000E+00  0.17246204637E+03  0.17246204637E+03  0.00000000000E+00 0.  1.
         -2   -1    0    0    0  501 -0.00000000000E+00 -0.00000000000E+00 -0.11283855311E+02  0.11283855311E+02  0.00000000000E+00 0. -1.
         21    1    1    2  502  503 -0.20655180055E+02 -0.32667188165E+02  0.12487891354E+03  0.13072308401E+03  0.00000000000E+00 0.  1.
         21    1    1    2  503  501  0.20655180055E+02  0.32667188165E+02  0.36299277521E+02  0.53022817675E+02  0.00000000000E+00 0. -1.
</event>
<event>
 4    1  0.5843276E+002  0.5164244E+02  0.7546771E-02  0.1291204E+00
          2   -1    0    0  503    0  0.00000000000E+00  0.00000000000E+00  0.12496047584E+04  0.12496047584E+04  0.00000000000E+00 0.  1.
         -2   -1    0    0    0  501 -0.00000000000E+00 -0.00000000000E+00 -0.14577054292E+02  0.14577054292E+02  0.00000000000E+00 0. -1.
         21    1    1    2  502  501 -0.28579506339E+02 -0.43013406140E+02  0.33525509086E+02  0.61570293566E+02  0.00000000000E+00 0. -1.
         21    1    1    2  503  502  0.28579506339E+02  0.43013406140E+02  0.12015021950E+04  0.12026115191E+04  0.00000000000E+00 0.  1.
</event>
<event>
 4    1  0.5843276E+002  0.2115964E+02  0.7546771E-02  0.1516998E+00
          2   -1    0    0  502    0  0.00000000000E+00  0.00000000000E+00  0.15060546235E+04  0.15060546235E+04  0.00000000000E+00 0. -1.
         -2   -1    0    0    0  501 -0.00000000000E+00 -0.00000000000E+00 -0.42125565190E+00  0.42125565190E+00  0.00000000000E+00 0.  1.
         21    1    1    2  502  503  0.87082713702E+01 -0.19284617341E+02  0.34420078475E+03  0.34485056282E+03  0.00000000000E+00 0.  1.
         21    1    1    2  503  501 -0.87082713702E+01  0.19284617341E+02  0.11614325831E+04  0.11616253163E+04  0.00000000000E+00 0. -1.
</event>
<event>
 4    1  0.5843276E+002  0.3798410E+02  0.7546771E-02  0.1360722E+00
          2   -1    0    0  502    0  0.00000000000E+00  0.00000000000E+00  0.66850440571E+02  0.66850440571E+02  0.00000000000E+00 0.  1.
         -2   -1    0    0    0  501 -0.00000000000E+00 -0.00000000000E+00 -0.28231817462E+02  0.28231817462E+02  0.00000000000E+00 0. -1.
         21    1    1    2  502  503 -0.40402495355E-01  0.37984078692E+02  0.42381691824E+02  0.56912210186E+02  0.00000000000E+00 0.  1.
         21    1    1    2  503  501  0.40402495355E-01 -0.37984078692E+02 -0.37630687141E+01  0.38170047846E+02  0.00000000000E+00 0. -1.
</event>
<event>
 4    1  0.5843276E+002  0.2487248E+02  0.7546771E-02  0.1470235E+00
          2   -1    0    0  502    0  0.00000000000E+00  0.00000000000E+00  0.42884288054E+01  0.42884288054E+01  0.00000000000E+00 0.  1.
         -2   -1    0    0    0  501 -0.00000000000E+00 -0.00000000000E+00 -0.14849161375E+03  0.14849161375E+03  0.00000000000E+00 0. -1.
         21    1    1    2  502  503 -0.24215495211E+02 -0.56789134114E+01 -0.59203067490E+02  0.64215601422E+02  0.00000000000E+00 0.  1.
         21    1    1    2  503  501  0.24215495211E+02  0.56789134114E+01 -0.85000117450E+02  0.88564441128E+02  0.00000000000E+00 0. -1.
</event>
<event>
 4    1  0.5843276E+002  0.3703111E+02  0.7546771E-02  0.1366820E+00
          2   -1    0    0  502    0  0.00000000000E+00  0.00000000000E+00  0.19469873408E+03  0.19469873408E+03  0.00000000000E+00 0.  1.
         -2   -1    0    0    0  501 -0.00000000000E+00 -0.00000000000E+00 -0.11612394078E+02  0.11612394078E+02  0.00000000000E+00 0. -1.
         21    1    1    2  502  503  0.18411378385E+02  0.32129801348E+02  0.15625018517E+03  0.16057840251E+03  0.00000000000E+00 0.  1.
         21    1    1    2  503  501 -0.18411378385E+02 -0.32129801348E+02  0.26836154835E+02  0.45732725647E+02  0.00000000000E+00 0. -1.
</event>
<event>
 4    1  0.5843276E+002  0.2451985E+02  0.7546771E-02  0.1474247E+00
          2   -1    0    0  502    0  0.00000000000E+00  0.00000000000E+00  0.11803853246E+04  0.11803853246E+04  0.00000000000E+00 0. -1.
         -2   -1    0    0    0  501 -0.00000000000E+00 -0.00000000000E+00 -0.58783377729E+00  0.58783377729E+00  0.00000000000E+00 0.  1.
         21    1    1    2  502  503 -0.43458507758E+01 -0.24131651927E+02  0.80566687314E+03  0.80603990814E+03  0.00000000000E+00 0. -1.
         21    1    1    2  503  501  0.43458507758E+01  0.24131651927E+02  0.37413061766E+03  0.37493325021E+03  0.00000000000E+00 0.  1.
</event>
<event>
 4    1  0.5843276E+002  0.2883567E+02  0.7546771E-02  0.1429992E+00
          2   -1    0    0  502    0  0.00000000000E+00  0.00000000000E+00  0.22648442048E+04  0.22648442048E+04  0.00000000000E+00 0.  1.
         -2   -1    0    0    0  501 -0.00000000000E+00 -0.00000000000E+00 -0.53000716878E+00  0.53000716878E+00  0.00000000000E+00 0. -1.
         21    1    1    2  502  503  0.28814505729E+02  0.11045707102E+01  0.17600666550E+04  0.17603028506E+04  0.00000000000E+00 0.  1.
         21    1    1    2  503  501 -0.28814505729E+02 -0.11045707102E+01  0.50424754263E+03  0.50507136136E+03  0.00000000000E+00 0. -1.
</event>
<event>
 4    1  0.5843276E+002  0.2438495E+02  0.7546771E-02  0.1475803E+00
          2   -1    0    0  503    0  0.00000000000E+00  0.00000000000E+00  0.12305768450E+01  0.12305768450E+01  0.00000000000E+00 0.  1.
         -2   -1    0    0    0  501 -0.00000000000E+00 -0.00000000000E+00 -0.71620129871E+03  0.71620129871E+03  0.00000000000E+00 0. -1.
         21    1    1    2  502  501 -0.96262844634E+01  0.22404475564E+02 -0.56208452262E+03  0.56261322100E+03  0.00000000000E+00 0. -1.
         21    1    1    2  503  502  0.96262844634E+01 -0.22404475564E+02 -0.15288619925E+03  0.15481865456E+03  0.00000000000E+00 0.  1.
</event>
<event>
 4    1  0.5843276E+002  0.2946398E+02  0.7546771E-02  0.1424312E+00
          2   -1    0    0  502    0  0.00000000000E+00  0.00000000000E+00  0.57367958810E+02  0.57367958810E+02  0.00000000000E+00 0.  1.
         -2   -1    0    0    0  501 -0.00000000000E+00 -0.00000000000E+00 -0.61911845689E+02  0.61911845689E+02  0.00000000000E+00 0. -1.
         21    1    1    2  502  503 -0.43620900713E+01  0.29139291540E+02  0.49569450843E+02  0.57665037918E+02  0.00000000000E+00 0.  1.
         21    1    1    2  503  501  0.43620900713E+01 -0.29139291540E+02 -0.54113337723E+02  0.61614766580E+02  0.00000000000E+00 0. -1.
</event>
<event>
 4    1  0.5843276E+002  0.4678827E+02  0.7546771E-02  0.1312732E+00
          2   -1    0    0  502    0  0.00000000000E+00  0.00000000000E+00  0.21018801797E+03  0.21018801797E+03  0.00000000000E+00 0.  1.
         -2   -1    0    0    0  501 -0.00000000000E+00 -0.00000000000E+00 -0.33305467125E+02  0.33305467125E+02  0.00000000000E+00 0. -1.
         21    1    1    2  502  503  0.35099468970E+02 -0.30938162770E+02  0.18937245740E+03  0.19506683537E+03  0.00000000000E+00 0.  1.
         21    1    1    2  503  501 -0.35099468970E+02  0.30938162770E+02 -0.12489906561E+02  0.48426649724E+02  0.00000000000E+00 0. -1.
</event>
<event>
 4    1  0.5843276E+002  0.2804335E+02  0.7546771E-02  0.1437400E+00
          2   -1    0    0  503    0  0.00000000000E+00  0.00000000000E+00  0.78871996878E+02  0.78871996878E+02  0.00000000000E+00 0. -1.
         -2   -1    0    0    0  501 -0.00000000000E+00 -0.00000000000E+00 -0.19397321318E+02  0.19397321318E+02  0.00000000000E+00 0.  1.
         21    1    1    2  502  501  0.27659925941E+02  0.46214906278E+01 -0.45149089630E+01  0.28404472916E+02  0.00000000000E+00 0.  1.
         21    1    1    2  503  502 -0.27659925941E+02 -0.46214906278E+01  0.63989584523E+02  0.69864845281E+02  0.00000000000E+00 0. -1.
</event>
<event>
 4    1  0.5843276E+002  0.2153671E+02  0.7546771E-02  0.1511738E+00
          2   -1    0    0  502    0  0.00000000000E+00  0.00000000000E+00  0.45034479278E+03  0.45034479278E+03  0.00000000000E+00 0.  1.
         -2   -1    0    0    0  501 -0.00000000000E+00 -0.00000000000E+00 -0.15649980052E+01  0.15649980052E+01  0.00000000000E+00 0. -1.
         21    1    1    2  502  503  0.18509128246E+02  0.11011004998E+02  0.35650836938E+03  0.35715829474E+03  0.00000000000E+00 0.  1.
         21    1    1    2  503  501 -0.18509128246E+02 -0.11011004998E+02  0.92271425392E+02  0.94751496048E+02  0.00000000000E+00 0. -1.
</event>
<event>
 4    1  0.5843276E+002  0.2267511E+02  0.7546771E-02  0.1496619E+00
          2   -1    0    0  502    0  0.00000000000E+00  0.00000000000E+00  0.10430133557E+03  0.10430133557E+03  0.00000000000E+00 0.  1.
         -2   -1    0    0    0  501 -0.00000000000E+00 -0.00000000000E+00 -0.12210158346E+02  0.12210158346E+02  0.00000000000E+00 0. -1.
         21    1    1    2  502  503  0.18911601285E+02  0.12510468047E+02  0.91029937602E+02  0.93811566525E+02  0.00000000000E+00 0.  1.
         21    1    1    2  503  501 -0.18911601285E+02 -0.12510468047E+02  0.10612396186E+01  0.22699927389E+02  0.00000000000E+00 0. -1.
</event>
<event>
 4    1  0.5843276E+002  0.3440439E+02  0.7546771E-02  0.1384799E+00
          2   -1    0    0  503    0  0.00000000000E+00  0.00000000000E+00  0.26052535927E+04  0.26052535927E+04  0.00000000000E+00 0.  1.
         -2   -1    0    0    0  501 -0.00000000000E+00 -0.00000000000E+00 -0.77172229764E+00  0.77172229764E+00  0.00000000000E+00 0. -1.
         21    1    1    2  502  501 -0.33965995752E+02  0.54748072577E+01  0.21378664681E+04  0.21381432828E+04  0.00000000000E+00 0. -1.
         21    1    1    2  503  502  0.33965995752E+02 -0.54748072577E+01  0.46661540227E+03  0.46788203216E+03  0.00000000000E+00 0.  1.
</event>
<event>
 4    1  0.5843276E+002  0.2437314E+02  0.7546771E-02  0.1475940E+00
          2   -1    0    0  503    0  0.00000000000E+00  0.00000000000E+00  0.23173539365E+03  0.23173539365E+03  0.00000000000E+00 0. -1.
         -2   -1    0    0    0  501 -0.00000000000E+00 -0.00000000000E+00 -0.26020535531E+01  0.26020535531E+01  0.00000000000E+00 0.  1.
         21    1    1    2  502  501  0.17104113969E+01  0.24313049274E+02  0.10030145385E+03  0.10322030574E+03  0.00000000000E+00 0. -1.
         21    1    1    2  503  502 -0.17104113969E+01 -0.24313049274E+02  0.12883188625E+03  0.13111714147E+03  0.00000000000E+00 0.  1.
</event>
<event>
 4    1  0.5843276E+002  0.8009832E+02  0.7546771E-02  0.1203620E+00
          2   -1    0    0  503    0  0.00000000000E+00  0.00000000000E+00  0.21714770414E+04  0.21714770414E+04  0.00000000000E+00 0. -1.
         -2   -1    0    0    0  501 -0.00000000000E+00 -0.00000000000E+00 -0.49310945001E+01  0.49310945001E+01  0.00000000000E+00 0.  1.
         21    1    1    2  502  501  0.73487289188E+02 -0.31864699181E+02  0.39431644945E+03  0.40236948572E+03  0.00000000000E+00 0.  1.
         21    1    1    2  503  502 -0.73487289188E+02  0.31864699181E+02  0.17722294974E+04  0.17740386502E+04  0.00000000000E+00 0. -1.
</event>
<event>
 4    1  0.5843276E+002  0.2522686E+02  0.7546771E-02  0.1466281E+00
          2   -1    0    0  502    0  0.00000000000E+00  0.00000000000E+00  0.45765783156E+03  0.45765783156E+03  0.00000000000E+00 0. -1.
         -2   -1    0    0    0  501 -0.00000000000E+00 -0.00000000000E+00 -0.15383743343E+01  0.15383743343E+01  0.00000000000E+00 0.  1.
         21    1    1    2  502  503  0.16364934305E+02  0.19198529404E+02  0.29923268994E+03  0.30029418465E+03  0.00000000000E+00 0. -1.
         21    1    1    2  503  501 -0.16364934305E+02 -0.19198529404E+02  0.15688676729E+03  0.15890202125E+03  0.00000000000E+00 0.  1.
</event>
<event>
 4    1  0.5843276E+002  0.3246407E+02  0.7546771E-02  0.1399325E+00
          2   -1    0    0  503    0  0.00000000000E+00  0.00000000000E+00  0.11397765921E+04  0.11397765921E+04  0.00000000000E+00 0.  1.
         -2   -1    0    0    0  501 -0.00000000000E+00 -0.00000000000E+00 -0.18274082241E+01  0.18274082241E+01  0.00000000000E+00 0. -1.
         21    1    1    2  502  501 -0.31329832454E+02  0.85063354672E+01  0.16778575349E+03  0.17089755768E+03  0.00000000000E+00 0. -1.
         21    1    1    2  503  502  0.31329832454E+02 -0.85063354672E+01  0.97016343036E+03  0.97070644263E+03  0.00000000000E+00 0.  1.
</event>
<event>
 4    1  0.5843276E+002  0.3099360E+02  0.7546771E-02  0.1411154E+00
          2   -1    0    0  503    0  0.00000000000E+00  0.00000000000E+00  0.18073544040E+04  0.18073544040E+04  0.00000000000E+00 0.  1.
         -2   -1    0    0    0  501 -0.00000000000E+00 -0.00000000000E+00 -0.91193422169E+00  0.91193422169E+00  0.00000000000E+00 0. -1.
         21    1    1    2  502  501 -0.30902288442E+02 -0.23773077214E+01  0.31924889254E+03  0.32074983774E+03  0.00000000000E+00 0. -1.
         21    1    1    2  503  502  0.30902288442E+02  0.23773077214E+01  0.14871935773E+04  0.14875165005E+04  0.00000000000E+00 0.  1.
</event>
<event>
 4    1  0.5843276E+002  0.2096697E+02  0.7546771E-02  0.1519737E+00
          2   -1    0    0  503    0  0.00000000000E+00  0.00000000000E+00  0.69104351412E+03  0.69104351412E+03  0.00000000000E+00 0. -1.
         -2   -1    0    0    0  501 -0.00000000000E+00 -0.00000000000E+00 -0.12235113369E+01  0.12235113369E+01  0.00000000000E+00 0.  1.
         21    1    1    2  502  501 -0.32992085504E+00  0.20964376473E+02  0.10508812351E+03  0.10715935625E+03  0.00000000000E+00 0.  1.
         21    1    1    2  503  502  0.32992085504E+00 -0.20964376473E+02  0.58473187927E+03  0.58510766921E+03  0.00000000000E+00 0. -1.
</event>
<event>
 4    1  0.5843276E+002  0.3395069E+02  0.7546771E-02  0.1388094E+00
          2   -1    0    0  503    0  0.00000000000E+00  0.00000000000E+00  0.37680821749E+03  0.37680821749E+03  0.00000000000E+00 0. -1.
         -2   -1    0    0    0  501 -0.00000000000E+00 -0.00000000000E+00 -0.33153854695E+01  0.33153854695E+01  0.00000000000E+00 0.  1.
         21    1    1    2  502  501  0.24762055519E+02 -0.23226918394E+02  0.23960198182E+03  0.24199536943E+03  0.00000000000E+00 0. -1.
         21    1    1    2  503  502 -0.24762055519E+02  0.23226918394E+02  0.13389085020E+03  0.13812823353E+03  0.00000000000E+00 0.  1.
</event>
<event>
 4    1  0.5843276E+002  0.2150360E+02  0.7546771E-02  0.1512195E+00
          2   -1    0    0  503    0  0.00000000000E+00  0.00000000000E+00  0.59291040280E+02  0.59291040280E+02  0.00000000000E+00 0. -1.
         -2   -1    0    0    0  501 -0.00000000000E+00 -0.00000000000E+00 -0.48490367727E+02  0.48490367727E+02  0.00000000000E+00 0.  1.
         21    1    1    2  502  501 -0.20528533453E+02  0.64018828649E+01 -0.43966785225E+02  0.48943671634E+02  0.00000000000E+00 0.  1.
         21    1    1    2  503  502  0.20528533453E+02 -0.64018828649E+01  0.54767457778E+02  0.58837736373E+02  0.00000000000E+00 0. -1.
</event>
<event>
 4    1  0.5843276E+002  0.2135481E+02  0.7546771E-02  0.1514259E+00
          2   -1    0    0  502    0  0.00000000000E+00  0.00000000000E+00  0.16135907693E+01  0.16135907693E+01  0.00000000000E+00 0. -1.
         -2   -1    0    0    0  501 -0.00000000000E+00 -0.00000000000E+00 -0.39844280802E+03  0.39844280802E+03  0.00000000000E+00 0.  1.
         21    1    1    2  502  503 -0.20981581192E+02  0.39750813253E+01 -0.90566859230E+02  0.93050437998E+02  0.00000000000E+00 0. -1.
         21    1    1    2  503  501  0.20981581192E+02 -0.39750813253E+01 -0.30626235802E+03  0.30700596079E+03  0.00000000000E+00 0.  1.
</event>
<event>
 4    1  0.5843276E+002  0.2433182E+02  0.7546771E-02  0.1476419E+00
          2   -1    0    0  502    0  0.00000000000E+00  0.00000000000E+00  0.31449492779E+03  0.31449492779E+03  0.00000000000E+00 0.  1.
         -2   -1    0    0    0  501 -0.00000000000E+00 -0.00000000000E+00 -0.76479495817E+01  0.76479495817E+01  0.00000000000E+00 0. -1.
         21    1    1    2  502  503  0.12236107179E+02  0.21031288212E+02  0.29327350982E+03  0.29428113933E+03  0.00000000000E+00 0.  1.
         21    1    1    2  503  501 -0.12236107179E+02 -0.21031288212E+02  0.13573468391E+02  0.27861738045E+02  0.00000000000E+00 0. -1.
</event>
<event>
 4    1  0.5843276E+002  0.6697843E+02  0.7546771E-02  0.1237803E+00
          2   -1    0    0  503    0  0.00000000000E+00  0.00000000000E+00  0.52101057412E+02  0.52101057412E+02  0.00000000000E+00 0. -1.
         -2   -1    0    0    0  501 -0.00000000000E+00 -0.00000000000E+00 -0.10032992145E+03  0.10032992145E+03  0.00000000000E+00 0.  1.
         21    1    1    2  502  501  0.48106977134E+02  0.46602886975E+02 -0.52813510598E+02  0.85295821850E+02  0.00000000000E+00 0.  1.
         21    1    1    2  503  502 -0.48106977134E+02 -0.46602886975E+02  0.45846465563E+01  0.67135157015E+02  0.00000000000E+00 0. -1.
</event>
<event>
 4    1  0.5843276E+002  0.2088674E+02  0.7546771E-02  0.1520888E+00
          2   -1    0    0  503    0  0.00000000000E+00  0.00000000000E+00  0.11878047967E+03  0.11878047967E+03  0.00000000000E+00 0. -1.
         -2   -1    0    0    0  501 -0.00000000000E+00 -0.00000000000E+00 -0.15419885877E+02  0.15419885877E+02  0.00000000000E+00 0.  1.
         21    1    1    2  502  501 -0.12725408014E+02  0.16562601614E+02 -0.68860824840E+01  0.21992587691E+02  0.00000000000E+00 0.  1.
         21    1    1    2  503  502  0.12725408014E+02 -0.16562601614E+02  0.11024667627E+03  0.11220777785E+03  0.00000000000E+00 0. -1.
</event>
<event>
 4    1  0.5843276E+002  0.2541203E+02  0.7546771E-02  0.1464246E+00
          2   -1    0    0  502    0  0.00000000000E+00  0.00000000000E+00  0.24276292738E+04  0.24276292738E+04  0.00000000000E+00 0. -1.
         -2   -1    0    0    0  501 -0.00000000000E+00 -0.00000000000E+00 -0.26611792123E+00  0.26611792123E+00  0.00000000000E+00 0.  1.
         21    1    1    2  502  503 -0.38777355032E+01  0.25114428354E+02  0.11891271462E+04  0.11893986468E+04  0.00000000000E+00 0. -1.
         21    1    1    2  503  501  0.38777355032E+01 -0.25114428354E+02  0.12382360097E+04  0.12384967449E+04  0.00000000000E+00 0.  1.
</event>
<event>
 4    1  0.5843276E+002  0.4177008E+02  0.7546771E-02  0.1338414E+00
          2   -1    0    0  502    0  0.00000000000E+00  0.00000000000E+00  0.44314887874E+03  0.44314887874E+03  0.00000000000E+00 0.  1.
         -2   -1    0    0    0  501 -0.00000000000E+00 -0.00000000000E+00 -0.69276914055E+01  0.69276914055E+01  0.00000000000E+00 0. -1.
         21    1    1    2  502  503  0.40062555205E+02  0.11820805865E+02  0.36596616020E+03  0.36834219171E+03  0.00000000000E+00 0.  1.
         21    1    1    2  503  501 -0.40062555205E+02 -0.11820805865E+02  0.70255027131E+02  0.81734378434E+02  0.00000000000E+00 0. -1.
</event>
<event>
 4    1  0.5843276E+002  0.2068318E+02  0.7546771E-02  0.1523837E+00
          2   -1    0    0  503    0  0.00000000000E+00  0.00000000000E+00  0.37049152758E+03  0.37049152758E+03  0.00000000000E+00 0. -1.
         -2   -1    0    0    0  501 -0.00000000000E+00 -0.00000000000E+00 -0.14782719394E+01  0.14782719394E+01  0.00000000000E+00 0.  1.
         21    1    1    2  502  501  0.13639403826E+02 -0.15548657298E+02  0.97488735375E+02  0.99658655447E+02  0.00000000000E+00 0.  1.
         21    1    1    2  503  502 -0.13639403826E+02  0.15548657298E+02  0.27152452027E+03  0.27231114408E+03  0.00000000000E+00 0. -1.
</event>
<event>
 4    1  0.5843276E+002  0.2202015E+02  0.7546771E-02  0.1505183E+00
          2   -1    0    0  503    0  0.00000000000E+00  0.00000000000E+00  0.56405098665E+03  0.56405098665E+03  0.00000000000E+00 0. -1.
         -2   -1    0    0    0  501 -0.00000000000E+00 -0.00000000000E+00 -0.11103576550E+01  0.11103576550E+01  0.00000000000E+00 0.  1.
         21    1    1    2  502  501 -0.21898970329E+02 -0.23069335144E+01  0.14719562047E+03  0.14883359006E+03  0.00000000000E+00 0. -1.
         21    1    1    2  503  502  0.21898970329E+02  0.23069335144E+01  0.41574500853E+03  0.41632775425E+03  0.00000000000E+00 0.  1.
</event>
<event>
 4    1  0.5843276E+002  0.2779388E+02  0.7546771E-02  0.1439792E+00
          2   -1    0    0  503    0  0.00000000000E+00  0.00000000000E+00  0.34625303210E+03  0.34625303210E+03  0.00000000000E+00 0. -1.
         -2   -1    0    0    0  501 -0.00000000000E+00 -0.00000000000E+00 -0.29527540340E+01  0.29527540340E+01  0.00000000000E+00 0.  1.
         21    1    1    2  502  501 -0.24705663818E+02 -0.12733020574E+02  0.85327545031E+02  0.89740122458E+02  0.00000000000E+00 0.  1.
         21    1    1    2  503  502  0.24705663818E+02  0.12733020574E+02  0.25797273304E+03  0.25946566368E+03  0.00000000000E+00 0. -1.
</event>
<event>
 4    1  0.5843276E+002  0.2322354E+02  0.7546771E-02  0.1489710E+00
          2   -1    0    0  502    0  0.00000000000E+00  0.00000000000E+00  0.13830804960E+02  0.13830804960E+02  0.00000000000E+00 0. -1.
         -2   -1    0    0    0  501 -0.00000000000E+00 -0.00000000000E+00 -0.11212540202E+03  0.11212540202E+03  0.00000000000E+00 0.  1.
         21    1    1    2  502  503 -0.10552055034E+02 -0.20687848866E+02  0.17138775394E+01  0.23286698615E+02  0.00000000000E+00 0.  1.
         21    1    1    2  503  501  0.10552055034E+02  0.20687848866E+02 -0.10000847460E+03  0.10266950836E+03  0.00000000000E+00 0. -1.
</event>
<event>
 4    1  0.5843276E+002  0.2465108E+02  0.7546771E-02  0.1472745E+00
          2   -1    0    0  503    0  0.00000000000E+00  0.00000000000E+00  0.54259215067E+02  0.54259215067E+02  0.00000000000E+00 0. -1.
         -2   -1    0    0    0  501 -0.00000000000E+00 -0.00000000000E+00 -0.11318247453E+02  0.11318247453E+02  0.00000000000E+00 0.  1.
         21    1    1    2  502  501  0.22427314009E+02 -0.10231878365E+02  0.18111883572E+02  0.30589476541E+02  0.00000000000E+00 0.  1.
         21    1    1    2  503  502 -0.22427314009E+02  0.10231878365E+02  0.24829084042E+02  0.34987985979E+02  0.00000000000E+00 0. -1.
</event>
<event>
 4    1  0.5843276E+002  0.2737652E+02  0.7546771E-02  0.1443862E+00
          2   -1    0    0  503    0  0.00000000000E+00  0.00000000000E+00  0.44581693682E+03  0.44581693682E+03  0.00000000000E+00 0.  1.
         -2   -1    0    0    0  501 -0.00000000000E+00 -0.00000000000E+00 -0.17045713929E+01  0.17045713929E+01  0.00000000000E+00 0. -1.
         21    1    1    2  502  501  0.22948283074E+02 -0.14928162151E+02  0.19581278356E+03  0.19771727271E+03  0.00000000000E+00 0. -1.
         21    1    1    2  503  502 -0.22948283074E+02  0.14928162151E+02  0.24829958187E+03  0.24980423550E+03  0.00000000000E+00 0.  1.
</event>
<event>
 4    1  0.5843276E+002  0.2026311E+02  0.7546771E-02  0.1530051E+00
          2   -1    0    0  502    0  0.00000000000E+00  0.00000000000E+00  0.66237324872E+03  0.66237324872E+03  0.00000000000E+00 0.  1.
         -2   -1    0    0    0  501 -0.00000000000E+00 -0.00000000000E+00 -0.64324523944E+00  0.64324523944E+00  0.00000000000E+00 0. -1.
         21    1    1    2  502  503 -0.17993593297E+02 -0.93179564163E+01  0.39404304321E+03  0.39456370032E+03  0.00000000000E+00 0.  1.
         21    1    1    2  503  501  0.17993593297E+02  0.93179564163E+01  0.26768696027E+03  0.26845279363E+03  0.00000000000E+00 0. -1.
</event>
<event>
 4    1  0.5843276E+002  0.2706134E+02  0.7546771E-02  0.1446993E+00
          2   -1    0    0  502    0  0.00000000000E+00  0.00000000000E+00  0.61903176715E+02  0.61903176715E+02  0.00000000000E+00 0.  1.
         -2   -1    0    0    0  501 -0.00000000000E+00 -0.00000000000E+00 -0.46543598656E+02  0.46543598656E+02  0.00000000000E+00 0. -1.
         21    1    1    2  502  503 -0.67574392533E+01 -0.26204066697E+02  0.54507867083E+02  0.60855761195E+02  0.00000000000E+00 0.  1.
         21    1    1    2  503  501  0.67574392533E+01  0.26204066697E+02 -0.39148289025E+02  0.47591014176E+02  0.00000000000E+00 0. -1.
</event>
<event>
 4    1  0.5843276E+002  0.2463634E+02  0.7546771E-02  0.1472913E+00
          2   -1    0    0  503    0  0.00000000000E+00  0.00000000000E+00  0.46558062123E+03  0.46558062123E+03  0.00000000000E+00 0. -1.
         -2   -1    0    0    0  501 -0.00000000000E+00 -0.00000000000E+00 -0.16548105608E+02  0.16548105608E+02  0.00000000000E+00 0.  1.
         21    1    1    2  502  501 -0.16023767125E+02  0.18713313110E+02 -0.68579706766E+01  0.25573051484E+02  0.00000000000E+00 0.  1.
         21    1    1    2  503  502  0.16023767125E+02 -0.18713313110E+02  0.45589048630E+03  0.45655567535E+03  0.00000000000E+00 0. -1.
</event>
<event>
 4    1  0.5843276E+002  0.2091558E+02  0.7546771E-02  0.1520474E+00
          2   -1    0    0  503    0  0.00000000000E+00  0.00000000000E+00  0.91511721710E+01  0.91511721710E+01  0.00000000000E+00 0. -1.
         -2   -1    0    0    0  501 -0.00000000000E+00 -0.00000000000E+00 -0.48111689424E+02  0.48111689424E+02  0.00000000000E+00 0.  1.
         21    1    1    2  502  501  0.93045876404E+01 -0.18731957346E+02 -0.17190152786E+02  0.27073288127E+02  0.00000000000E+00 0.  1.
         21    1    1    2  503  502 -0.93045876404E+01  0.18731957346E+02 -0.21770364466E+02  0.30189573468E+02  0.00000000000E+00 0. -1.
</event>
<event>
 4    1  0.5843276E+002  0.2758817E+02  0.7546771E-02  0.1441788E+00
          2   -1    0    0  502    0  0.00000000000E+00  0.00000000000E+00  0.70873985190E+02  0.70873985190E+02  0.00000000000E+00 0.  1.
         -2   -1    0    0    0  501 -0.00000000000E+00 -0.00000000000E+00 -0.10774150170E+02  0.10774150170E+02  0.00000000000E+00 0. -1.
         21    1    1    2  502  503 -0.29753568162E+01  0.27427257961E+02  0.27714158277E+02  0.39104754141E+02  0.00000000000E+00 0. -1.
         21    1    1    2  503  501  0.29753568162E+01 -0.27427257961E+02  0.32385676742E+02  0.42543381218E+02  0.00000000000E+00 0.  1.
</event>
<event>
 4    1  0.5843276E+002  0.2155171E+02  0.7546771E-02  0.1511532E+00
          2   -1    0    0  503    0  0.00000000000E+00  0.00000000000E+00  0.51002821189E+03  0.51002821189E+03  0.00000000000E+00 0. -1.
         -2   -1    0    0    0  501 -0.00000000000E+00 -0.00000000000E+00 -0.34089951391E+01  0.34089951391E+01  0.00000000000E+00 0.  1.
         21    1    1    2  502  501  0.19615710391E+02 -0.89274883743E+01  0.33540250966E+02  0.39867588060E+02  0.00000000000E+00 0.  1.
         21    1    1    2  503  502 -0.19615710391E+02  0.89274883743E+01  0.47307896579E+03  0.47356961897E+03  0.00000000000E+00 0. -1.
</event>
<event>
 4    1  0.5843276E+002  0.2093033E+02  0.7546771E-02  0.1520262E+00
          2   -1    0    0  503    0  0.00000000000E+00  0.00000000000E+00  0.39826768133E+03  0.39826768133E+03  0.00000000000E+00 0.  1.
         -2   -1    0    0    0  501 -0.00000000000E+00 -0.00000000000E+00 -0.18253170343E+01  0.18253170343E+01  0.00000000000E+00 0. -1.
         21    1    1    2  502  501  0.20819283302E+02  0.21532091191E+01  0.72114687396E+02  0.75090658573E+02  0.00000000000E+00 0. -1.
         21    1    1    2  503  502 -0.20819283302E+02 -0.21532091191E+01  0.32432767690E+03  0.32500233979E+03  0.00000000000E+00 0.  1.
</event>
<event>
 4    1  0.5843276E+002  0.2153528E+02  0.7546771E-02  0.1511758E+00
          2   -1    0    0  502    0  0.00000000000E+00  0.00000000000E+00  0.59410298270E+02  0.59410298270E+02  0.00000000000E+00 0.  1.
         -2   -1    0    0    0  501 -0.00000000000E+00 -0.00000000000E+00 -0.13948731938E+02  0.13948731938E+02  0.00000000000E+00 0. -1.
         21    1    1    2  502  503  0.65838258477E+01  0.20504179729E+02  0.47071325098E+02  0.51763672548E+02  0.00000000000E+00 0.  1.
         21    1    1    2  503  501 -0.65838258477E+01 -0.20504179729E+02 -0.16097587668E+01  0.21595357660E+02  0.00000000000E+00 0. -1.
</event>
<event>
 4    1  0.5843276E+002  0.2197957E+02  0.7546771E-02  0.1505725E+00
          2   -1    0    0  502    0  0.00000000000E+00  0.00000000000E+00  0.21772396151E+04  0.21772396151E+04  0.00000000000E+00 0. -1.
         -2   -1    0    0    0  501 -0.00000000000E+00 -0.00000000000E+00 -0.23286653113E+00  0.23286653113E+00  0.00000000000E+00 0.  1.
         21    1    1    2  502  503 -0.13686822576E+01  0.21936916501E+02  0.13249086322E+04  0.13250909347E+04  0.00000000000E+00 0. -1.
         21    1    1    2  503  501  0.13686822576E+01 -0.21936916501E+02  0.85209811634E+03  0.85238154689E+03  0.00000000000E+00 0.  1.
</event>
<event>
 4    1  0.5843276E+002  0.3241292E+02  0.7546771E-02  0.1399724E+00
          2   -1    0    0  503    0  0.00000000000E+00  0.00000000000E+00  0.55296046167E+02  0.55296046167E+02  0.00000000000E+00 0.  1.
         -2   -1    0    0    0  501 -0.00000000000E+00 -0.00000000000E+00 -0.35064577661E+02  0.35064577661E+02  0.00000000000E+00 0. -1.
         21    1    1    2  502  501 -0.31794308507E+02  0.63023333112E+01 -0.20465589272E+02  0.38333246704E+02  0.00000000000E+00 0. -1.
         21    1    1    2  503  502  0.31794308507E+02 -0.63023333112E+01  0.40697057778E+02  0.52027377124E+02  0.00000000000E+00 0.  1.
</event>
<event>
 4    1  0.5843276E+002  0.2096523E+02  0.7546771E-02  0.1519762E+00
          2   -1    0    0  503    0  0.00000000000E+00  0.00000000000E+00  0.15696854018E+03  0.15696854018E+03  0.00000000000E+00 0. -1.
         -2   -1    0    0    0  501 -0.00000000000E+00 -0.00000000000E+00 -0.11002716420E+02  0.11002716420E+02  0.00000000000E+00 0.  1.
         21    1    1    2  502  501 -0.12053883407E+02 -0.17153568280E+02  0.46772723329E+00  0.20970450131E+02  0.00000000000E+00 0.  1.
         21    1    1    2  503  502  0.12053883407E+02  0.17153568280E+02  0.14549809652E+03  0.14700080647E+03  0.00000000000E+00 0. -1.
</event>
<event>
 4    1  0.5843276E+002  0.6078704E+02  0.7546771E-02  0.1257182E+00
          2   -1    0    0  502    0  0.00000000000E+00  0.00000000000E+00  0.79110667748E+02  0.79110667748E+02  0.00000000000E+00 0.  1.
         -2   -1    0    0    0  501 -0.00000000000E+00 -0.00000000000E+00 -0.10802488599E+03  0.10802488599E+03  0.00000000000E+00 0. -1.
         21    1    1    2  502  503  0.46287416494E+02 -0.39402270366E+02  0.56037533765E+02  0.82675685822E+02  0.00000000000E+00 0.  1.
         21    1    1    2  503  501 -0.46287416494E+02  0.39402270366E+02 -0.84951752006E+02  0.10445986791E+03  0.00000000000E+00 0. -1.
</event>
<event>
 4    1  0.5843276E+002  0.2194150E+02  0.7546771E-02  0.1506235E+00
          2   -1    0    0  502    0  0.00000000000E+00  0.00000000000E+00  0.14981384106E+04  0.14981384106E+04  0.00000000000E+00 0. -1.
         -2   -1    0    0    0  501 -0.00000000000E+00 -0.00000000000E+00 -0.49765164745E+00  0.49765164745E+00  0.00000000000E+00 0.  1.
         21    1    1    2  502  503  0.56726438705E+01 -0.21195528769E+02  0.11948149267E+04  0.11950163758E+04  0.00000000000E+00 0. -1.
         21    1    1    2  503  501 -0.56726438705E+01  0.21195528769E+02  0.30282583220E+03  0.30361968641E+03  0.00000000000E+00 0.  1.
</event>
<event>
 4    1  0.5843276E+002  0.2072871E+02  0.7546771E-02  0.1523174E+00
          2   -1    0    0  503    0  0.00000000000E+00  0.00000000000E+00  0.14456863442E+04  0.14456863442E+04  0.00000000000E+00 0.  1.
         -2   -1    0    0    0  501 -0.00000000000E+00 -0.00000000000E+00 -0.34763688983E+00  0.34763688983E+00  0.00000000000E+00 0. -1.
         21    1    1    2  502  501  0.19214142501E+02  0.77779137877E+01  0.44731212575E+03  0.44779215832E+03  0.00000000000E+00 0. -1.
         21    1    1    2  503  502 -0.19214142501E+02 -0.77779137877E+01  0.99802658158E+03  0.99824182278E+03  0.00000000000E+00 0.  1.
</event>
<event>
 4    1  0.5843276E+002  0.6542858E+02  0.7546771E-02  0.1242426E+00
          2   -1    0    0  503    0  0.00000000000E+00  0.00000000000E+00  0.11003185636E+03  0.11003185636E+03  0.00000000000E+00 0. -1.
         -2   -1    0    0    0  501 -0.00000000000E+00 -0.00000000000E+00 -0.65316148125E+02  0.65316148125E+02  0.00000000000E+00 0.  1.
         21    1    1    2  502  501 -0.48036114941E+02  0.44423309053E+02 -0.33392293118E+02  0.73457089280E+02  0.00000000000E+00 0.  1.
         21    1    1    2  503  502  0.48036114941E+02 -0.44423309053E+02  0.78108001352E+02  0.10189091520E+03  0.00000000000E+00 0. -1.
</event>
<event>
 4    1  0.5843276E+002  0.3604368E+02  0.7546771E-02  0.1373371E+00
          2   -1    0    0  502    0  0.00000000000E+00  0.00000000000E+00  0.30678686161E+04  0.30678686161E+04  0.00000000000E+00 0.  1.
         -2   -1    0    0    0  501 -0.00000000000E+00 -0.00000000000E+00 -0.67127882211E+00  0.67127882211E+00  0.00000000000E+00 0. -1.
         21    1    1    2  502  503 -0.33602368862E+02  0.13039478682E+02  0.24657997015E+04  0.24660631206E+04  0.00000000000E+00 0.  1.
         21    1    1    2  503  501  0.33602368862E+02 -0.13039478682E+02  0.60139763582E+03  0.60247677430E+03  0.00000000000E+00 0. -1.
</event>
<event>
 4    1  0.5843276E+002  0.2216134E+02  0.7546771E-02  0.1503307E+00
          2   -1    0    0  502    0  0.00000000000E+00  0.00000000000E+00  0.13745267084E+02  0.13745267084E+02  0.00000000000E+00 0.  1.
         -2   -1    0    0    0  501 -0.00000000000E+00 -0.00000000000E+00 -0.14959120118E+03  0.14959120118E+03  0.00000000000E+00 0. -1.
         21    1    1    2  502  503  0.21590091516E+02  0.49993066661E+01  0.33273970185E+01  0.22409745418E+02  0.00000000000E+00 0.  1.
         21    1    1    2  503  501 -0.21590091516E+02 -0.49993066661E+01 -0.13917333111E+03  0.14092672284E+03  0.00000000000E+00 0. -1.
</event>
<event>
 4    1  0.5843276E+002  0.2726721E+02  0.7546771E-02  0.1444942E+00
          2   -1    0    0  502    0  0.00000000000E+00  0.00000000000E+00  0.13302916125E+04  0.13302916125E+04  0.00000000000E+00 0. -1.
         -2   -1    0    0    0  501 -0.00000000000E+00 -0.00000000000E+00 -0.20605402235E+01  0.20605402235E+01  0.00000000000E+00 0.  1.
         21    1    1    2  502  503  0.20674156133E+02 -0.17778633561E+02  0.12328131020E+04  0.12331146115E+04  0.00000000000E+00 0. -1.
         21    1    1    2  503  501 -0.20674156133E+02  0.17778633561E+02  0.95417970226E+02  0.99237541209E+02  0.00000000000E+00 0.  1.
</event>
<event>
 4    1  0.5843276E+002  0.2217316E+02  0.7546771E-02  0.1503150E+00
          2   -1    0    0  502    0  0.00000000000E+00  0.00000000000E+00  0.42031501739E+03  0.42031501739E+03  0.00000000000E+00 0. -1.
         -2   -1    0    0    0  501 -0.00000000000E+00 -0.00000000000E+00 -0.10236430654E+02  0.10236430654E+02  0.00000000000E+00 0.  1.
         21    1    1    2  502  503  0.21125280195E+02 -0.67358409058E+01  0.40764224526E+03  0.40824483970E+03  0.00000000000E+00 0. -1.
         21    1    1    2  503  501 -0.21125280195E+02  0.67358409058E+01  0.24363414687E+01  0.22306608343E+02  0.00000000000E+00 0.  1.
</event>
<event>
 4    1  0.5843276E+002  0.2857047E+02  0.7546771E-02  0.1432440E+00
          2   -1    0    0  502    0  0.00000000000E+00  0.00000000000E+00  0.29342627494E+01  0.29342627494E+01  0.00000000000E+00 0.  1.
         -2   -1    0    0    0  501 -0.00000000000E+00 -0.00000000000E+00 -0.31381916732E+03  0.31381916732E+03  0.00000000000E+00 0. -1.
         21    1    1    2  502  503 -0.68884958234E+01 -0.27727608396E+02 -0.10207492283E+03  0.10599793165E+03  0.00000000000E+00 0.  1.
         21    1    1    2  503  501  0.68884958234E+01  0.27727608396E+02 -0.20880998173E+03  0.21075549842E+03  0.00000000000E+00 0. -1.
</event>
<event>
 4    1  0.5843276E+002  0.2555543E+02  0.7546771E-02  0.1462685E+00
          2   -1    0    0  502    0  0.00000000000E+00  0.00000000000E+00  0.30667113777E+01  0.30667113777E+01  0.00000000000E+00 0.  1.
         -2   -1    0    0    0  501 -0.00000000000E+00 -0.00000000000E+00 -0.30054076710E+03  0.30054076710E+03  0.00000000000E+00 0. -1.
         21    1    1    2  502  503  0.25473640353E+02 -0.20429707214E+01 -0.66788600804E+02  0.71510819318E+02  0.00000000000E+00 0.  1.
         21    1    1    2  503  501 -0.25473640353E+02  0.20429707214E+01 -0.23068545491E+03  0.23209665915E+03  0.00000000000E+00 0. -1.
</event>
<event>
 4    1  0.5843276E+002  0.2644743E+02  0.7546771E-02  0.1453239E+00
          2   -1    0    0  502    0  0.00000000000E+00  0.00000000000E+00  0.14326932647E+04  0.14326932647E+04  0.00000000000E+00 0. -1.
         -2   -1    0    0    0  501 -0.00000000000E+00 -0.00000000000E+00 -0.21519246902E+01  0.21519246902E+01  0.00000000000E+00 0.  1.
         21    1    1    2  502  503 -0.85417602381E+01 -0.25030082122E+02  0.13460825941E+04  0.13463423846E+04  0.00000000000E+00 0. -1.
         21    1    1    2  503  501  0.85417602381E+01  0.25030082122E+02  0.84458745935E+02  0.88502804724E+02  0.00000000000E+00 0.  1.
</event>
<event>
 4    1  0.5843276E+002  0.2905325E+02  0.7546771E-02  0.1428006E+00
          2   -1    0    0  502    0  0.00000000000E+00  0.00000000000E+00  0.29231197350E+03  0.29231197350E+03  0.00000000000E+00 0. -1.
         -2   -1    0    0    0  501 -0.00000000000E+00 -0.00000000000E+00 -0.28886907999E+01  0.28886907999E+01  0.00000000000E+00 0.  1.
         21    1    1    2  502  503  0.52727561470E+01 -0.28570779497E+02  0.14752835806E+03  0.15036192281E+03  0.00000000000E+00 0. -1.
         21    1    1    2  503  501 -0.52727561470E+01  0.28570779497E+02  0.14189492463E+03  0.14483874149E+03  0.00000000000E+00 0.  1.
</event>
<event>
 4    1  0.5843276E+002  0.3878044E+02  0.7546771E-02  0.1355784E+00
          2   -1    0    0  502    0  0.00000000000E+00  0.00000000000E+00  0.26587816060E+04  0.26587816060E+04  0.00000000000E+00 0.  1.
         -2   -1    0    0    0  501 -0.00000000000E+00 -0.00000000000E+00 -0.85631774506E+00  0.85631774506E+00  0.00000000000E+00 0. -1.
         21    1    1    2  502  503 -0.28412119641E+02 -0.26394581675E+02  0.21037425341E+04  0.21040999436E+04  0.00000000000E+00 0.  1.
         21    1    1    2  503  501  0.28412119641E+02  0.26394581675E+02  0.55418275413E+03  0.55553798022E+03  0.00000000000E+00 0. -1.
</event>
<event>
 4    1  0.5843276E+002  0.2054960E+02  0.7546771E-02  0.1525794E+00
          2   -1    0    0  503    0  0.00000000000E+00  0.00000000000E+00  0.67254960507E+03  0.67254960507E+03  0.00000000000E+00 0.  1.
         -2   -1    0    0    0  501 -0.00000000000E+00 -0.00000000000E+00 -0.62925106554E+00  0.62925106554E+00  0.00000000000E+00 0. -1.
         21    1    1    2  502  501  0.17754942907E+02  0.10346393783E+02  0.32029488667E+03  0.32095342386E+03  0.00000000000E+00 0.  1.
         21    1    1    2  503  502 -0.17754942907E+02 -0.10346393783E+02  0.35162546733E+03  0.35222543227E+03  0.00000000000E+00 0. -1.
</event>
<event>
 4    1  0.5843276E+002  0.2667688E+02  0.7546771E-02  0.1450881E+00
          2   -1    0    0  502    0  0.00000000000E+00  0.00000000000E+00  0.24431231407E+03  0.24431231407E+03  0.00000000000E+00 0.  1.
         -2   -1    0    0    0  501 -0.00000000000E+00 -0.00000000000E+00 -0.31202530004E+01  0.31202530004E+01  0.00000000000E+00 0. -1.
         21    1    1    2  502  503  0.19044857918E+02 -0.18680179283E+02  0.15248893727E+03  0.15480481808E+03  0.00000000000E+00 0.  1.
         21    1    1    2  503  501 -0.19044857918E+02  0.18680179283E+02  0.88703123802E+02  0.92627748993E+02  0.00000000000E+00 0. -1.
</event>
<event>
 4    1  0.5843276E+002  0.2098639E+02  0.7546771E-02  0.1519459E+00
          2   -1    0    0  502    0  0.00000000000E+00  0.00000000000E+00  0.13098395095E+03  0.13098395095E+03  0.00000000000E+00 0.  1.
         -2   -1    0    0    0  501 -0.00000000000E+00 -0.00000000000E+00 -0.41993223141E+02  0.41993223141E+02  0.00000000000E+00 0. -1.
         21    1    1    2  502  503 -0.17410406218E+02 -0.11717784150E+02  0.12744907568E+03  0.12916538081E+03  0.00000000000E+00 0.  1.
         21    1    1    2  503  501  0.17410406218E+02  0.11717784150E+02 -0.38458347863E+02  0.43811793280E+02  0.00000000000E+00 0. -1.
</event>
<event>
 4    1  0.5843276E+002  0.2562639E+02  0.7546771E-02  0.1461917E+00
          2   -1    0    0  502    0  0.00000000000E+00  0.00000000000E+00  0.53180415478E+03  0.53180415478E+03  0.00000000000E+00 0.  1.
         -2   -1    0    0    0  501 -0.00000000000E+00 -0.00000000000E+00 -0.21218660632E+01  0.21218660632E+01  0.00000000000E+00 0. -1.
         21    1    1    2  502  503  0.21350867973E+02  0.14172233192E+02  0.43744547305E+03  0.43819545143E+03  0.00000000000E+00 0.  1.
         21    1    1    2  503  501 -0.21350867973E+02 -0.14172233192E+02  0.92236815658E+02  0.95730569410E+02  0.00000000000E+00 0. -1.
</event>
<event>
 4    1  0.5843276E+002  0.2111233E+02  0.7546771E-02  0.1517667E+00
          2   -1    0    0  503    0  0.00000000000E+00  0.00000000000E+00  0.15357454354E+04  0.15357454354E+04  0.00000000000E+00 0. -1.
         -2   -1    0    0    0  501 -0.00000000000E+00 -0.00000000000E+00 -0.37468910959E+02  0.37468910959E+02  0.00000000000E+00 0.  1.
         21    1    1    2  502  501 -0.17623451881E+02  0.11625162217E+02 -0.34416427049E+02  0.40375994150E+02  0.00000000000E+00 0.  1.
         21    1    1    2  503  502  0.17623451881E+02 -0.11625162217E+02  0.15326929515E+04  0.15328383522E+04  0.00000000000E+00 0. -1.
</event>
<event>
 4    1  0.5843276E+002  0.2069942E+02  0.7546771E-02  0.1523600E+00
          2   -1    0    0  502    0  0.00000000000E+00  0.00000000000E+00  0.86353794048E+02  0.86353794048E+02  0.00000000000E+00 0.  1.
         -2   -1    0    0    0  501 -0.00000000000E+00 -0.00000000000E+00 -0.61041373738E+01  0.61041373738E+01  0.00000000000E+00 0. -1.
         21    1    1    2  502  503  0.19631666011E+02  0.65623039682E+01  0.60123827909E+02  0.63587269372E+02  0.00000000000E+00 0.  1.
         21    1    1    2  503  501 -0.19631666011E+02 -0.65623039682E+01  0.20125828765E+02  0.28870662050E+02  0.00000000000E+00 0. -1.
</event>
<event>
 4    1  0.5843276E+002  0.2754161E+02  0.7546771E-02  0.1442242E+00
          2   -1    0    0  502    0  0.00000000000E+00  0.00000000000E+00  0.33462618867E+01  0.33462618867E+01  0.00000000000E+00 0. -1.
         -2   -1    0    0    0  501 -0.00000000000E+00 -0.00000000000E+00 -0.79900041343E+03  0.79900041343E+03  0.00000000000E+00 0.  1.
         21    1    1    2  502  503  0.96794782891E+01  0.25784644171E+02 -0.58297901445E+02  0.64476239715E+02  0.00000000000E+00 0. -1.
         21    1    1    2  503  501 -0.96794782891E+01 -0.25784644171E+02 -0.73735625010E+03  0.73787043560E+03  0.00000000000E+00 0.  1.
</event>
<event>
 4    1  0.5843276E+002  0.2939420E+02  0.7546771E-02  0.1424935E+00
          2   -1    0    0  503    0  0.00000000000E+00  0.00000000000E+00  0.54823207067E+01  0.54823207067E+01  0.00000000000E+00 0.  1.
         -2   -1    0    0    0  501 -0.00000000000E+00 -0.00000000000E+00 -0.15760206780E+03  0.15760206780E+03  0.00000000000E+00 0. -1.
         21    1    1    2  502  501  0.73983866300E+01 -0.28447895733E+02 -0.75841735377E+02  0.81338722152E+02  0.00000000000E+00 0.  1.
         21    1    1    2  503  502 -0.73983866300E+01  0.28447895733E+02 -0.76278011721E+02  0.81745666359E+02  0.00000000000E+00 0. -1.
</event>
<event>
 4    1  0.5843276E+002  0.2639061E+02  0.7546771E-02  0.1453828E+00
          2   -1    0    0  502    0  0.00000000000E+00  0.00000000000E+00  0.15071686937E+04  0.15071686937E+04  0.00000000000E+00 0.  1.
         -2   -1    0    0    0  501 -0.00000000000E+00 -0.00000000000E+00 -0.11680829121E+01  0.11680829121E+01  0.00000000000E+00 0. -1.
         21    1    1    2  502  503  0.25248720214E+02 -0.76789430100E+01  0.13393116552E+04  0.13395716381E+04  0.00000000000E+00 0.  1.
         21    1    1    2  503  501 -0.25248720214E+02  0.76789430100E+01  0.16668895565E+03  0.16876513850E+03  0.00000000000E+00 0. -1.
</event>
<event>
 4    1  0.5843276E+002  0.3486163E+02  0.7546771E-02  0.1381539E+00
          2   -1    0    0  502    0  0.00000000000E+00  0.00000000000E+00  0.62419352105E+03  0.62419352105E+03  0.00000000000E+00 0.  1.
         -2   -1    0    0    0  501 -0.00000000000E+00 -0.00000000000E+00 -0.42142690741E+01  0.42142690741E+01  0.00000000000E+00 0. -1.
         21    1    1    2  502  503 -0.34707773679E+02  0.32716584439E+01  0.54045070473E+03  0.54157390774E+03  0.00000000000E+00 0.  1.
         21    1    1    2  503  501  0.34707773679E+02 -0.32716584439E+01  0.79528547250E+02  0.86833882387E+02  0.00000000000E+00 0. -1.
</event>
<event>
 4    1  0.5843276E+002  0.6508482E+02  0.7546771E-02  0.1243470E+00
          2   -1    0    0  503    0  0.00000000000E+00  0.00000000000E+00  0.76175294961E+03  0.76175294961E+03  0.00000000000E+00 0. -1.
         -2   -1    0    0    0  501 -0.00000000000E+00 -0.00000000000E+00 -0.62461177593E+01  0.62461177593E+01  0.00000000000E+00 0.  1.
         21    1    1    2  502  501 -0.19368908081E+02 -0.62135972253E+02  0.25056744103E+03  0.25888235968E+03  0.00000000000E+00 0.  1.
         21    1    1    2  503  502  0.19368908081E+02  0.62135972253E+02  0.50493939082E+03  0.50911670769E+03  0.00000000000E+00 0. -1.
</event>
<event>
 4    1  0.5843276E+002  0.2649462E+02  0.7546771E-02  0.1452752E+00
          2   -1    0    0  502    0  0.00000000000E+00  0.00000000000E+00  0.36893711801E+03  0.36893711801E+03  0.00000000000E+00 0. -1.
         -2   -1    0    0    0  501 -0.00000000000E+00 -0.00000000000E+00 -0.77126806100E+01  0.77126806100E+01  0.00000000000E+00 0.  1.
         21    1    1    2  502  503 -0.17982247216E+02 -0.19457747281E+02  0.34406547533E+03  0.34508407158E+03  0.00000000000E+00 0. -1.
         21    1    1    2  503  501  0.17982247216E+02  0.19457747281E+02  0.17158962067E+02  0.31565727037E+02  0.00000000000E+00 0.  1.
</event>
<event>
 4    1  0.5843276E+002  0.3414599E+02  0.7546771E-02  0.1386669E+00
          2   -1    0    0  503    0  0.00000000000E+00  0.00000000000E+00  0.98966265049E+03  0.98966265049E+03  0.00000000000E+00 0. -1.
         -2   -1    0    0    0  501 -0.00000000000E+00 -0.00000000000E+00 -0.12301223663E+01  0.12301223663E+01  0.00000000000E+00 0.  1.
         21    1    1    2  502  501 -0.29464918100E+02  0.17255934292E+02  0.39235636633E+03  0.39383939223E+03  0.00000000000E+00 0. -1.
         21    1    1    2  503  502  0.29464918100E+02 -0.17255934292E+02  0.59607616179E+03  0.59705338063E+03  0.00000000000E+00 0.  1.
</event>
<event>
 4    1  0.5843276E+002  0.2657554E+02  0.7546771E-02  0.1451919E+00
          2   -1    0    0  502    0  0.00000000000E+00  0.00000000000E+00  0.16645258741E+03  0.16645258741E+03  0.00000000000E+00 0.  1.
         -2   -1    0    0    0  501 -0.00000000000E+00 -0.00000000000E+00 -0.53427926718E+01  0.53427926718E+01  0.00000000000E+00 0. -1.
         21    1    1    2  502  503  0.12174315422E+02 -0.23622986436E+02  0.11952678228E+03  0.12244554351E+03  0.00000000000E+00 0.  1.
         21    1    1    2  503  501 -0.12174315422E+02  0.23622986436E+02  0.41583012458E+02  0.49349836568E+02  0.00000000000E+00 0. -1.
</event>
<event>
 4    1  0.5843276E+002  0.2049795E+02  0.7546771E-02  0.1526555E+00
          2   -1    0    0  502    0  0.00000000000E+00  0.00000000000E+00  0.31911502441E+03  0.31911502441E+03  0.00000000000E+00 0.  1.
         -2   -1    0    0    0  501 -0.00000000000E+00 -0.00000000000E+00 -0.13695425999E+01  0.13695425999E+01  0.00000000000E+00 0. -1.
         21    1    1    2  502  503  0.20353867563E+02  0.24261101108E+01  0.12738464251E+03  0.12902330442E+03  0.00000000000E+00 0. -1.
         21    1    1    2  503  501 -0.20353867563E+02 -0.24261101108E+01  0.19036083930E+03  0.19146126259E+03  0.00000000000E+00 0.  1.
</event>
<event>
 4    1  0.5843276E+002  0.2539485E+02  0.7546771E-02  0.1464434E+00
          2   -1    0    0  502    0  0.00000000000E+00  0.00000000000E+00  0.75223907819E+01  0.75223907819E+01  0.00000000000E+00 0.  1.
         -2   -1    0    0    0  501 -0.00000000000E+00 -0.00000000000E+00 -0.17573335781E+03  0.17573335781E+03  0.00000000000E+00 0. -1.
         21    1    1    2  502  503  0.36904440712E+01 -0.25125268599E+02 -0.18531947890E+02  0.31437741525E+02  0.00000000000E+00 0.  1.
         21    1    1    2  503  501 -0.36904440712E+01  0.25125268599E+02 -0.14967901914E+03  0.15181800707E+03  0.00000000000E+00 0. -1.
</event>
<event>
 4    1  0.5843276E+002  0.2666916E+02  0.7546771E-02  0.1450960E+00
          2   -1    0    0  502    0  0.00000000000E+00  0.00000000000E+00  0.45903332674E+03  0.45903332674E+03  0.00000000000E+00 0. -1.
         -2   -1    0    0    0  501 -0.00000000000E+00 -0.00000000000E+00 -0.72138976851E+01  0.72138976851E+01  0.00000000000E+00 0.  1.
         21    1    1    2  502  503  0.24902170095E+02 -0.95459811702E+01  0.43248602047E+03  0.43330751405E+03  0.00000000000E+00 0. -1.
         21    1    1    2  503  501 -0.24902170095E+02  0.95459811702E+01  0.19333408584E+02  0.32939710372E+02  0.00000000000E+00 0.  1.
</event>
<event>
 4    1  0.5843276E+002  0.2386094E+02  0.7546771E-02  0.1481961E+00
          2   -1    0    0  503    0  0.00000000000E+00  0.00000000000E+00  0.36488706307E+02  0.36488706307E+02  0.00000000000E+00 0.  1.
         -2   -1    0    0    0  501 -0.00000000000E+00 -0.00000000000E+00 -0.18251058585E+02  0.18251058585E+02  0.00000000000E+00 0. -1.
         21    1    1    2  502  501 -0.22936479355E+02  0.65774091491E+01 -0.13059759447E+01  0.23896651847E+02  0.00000000000E+00 0. -1.
         21    1    1    2  503  502  0.22936479355E+02 -0.65774091491E+01  0.19543623666E+02  0.30843113045E+02  0.00000000000E+00 0.  1.
</event>
<event>
 4    1  0.5843276E+002  0.2321844E+02  0.7546771E-02  0.1489773E+00
          2   -1    0    0  503    0  0.00000000000E+00  0.00000000000E+00  0.96185054857E+03  0.96185054857E+03  0.00000000000E+00 0.  1.
         -2   -1    0    0    0  501 -0.00000000000E+00 -0.00000000000E+00 -0.23864387243E+01  0.23864387243E+01  0.00000000000E+00 0. -1.
         21    1    1    2  502  501 -0.17587329055E+02  0.15158560969E+02  0.58011899569E+02  0.62485811233E+02  0.00000000000E+00 0. -1.
         21    1    1    2  503  502  0.17587329055E+02 -0.15158560969E+02  0.90145221028E+03  0.90175117606E+03  0.00000000000E+00 0.  1.
</event>
<event>
 4    1  0.5843276E+002  0.2001269E+02  0.7546771E-02  0.1533842E+00
          2   -1    0    0  503    0  0.00000000000E+00  0.00000000000E+00  0.19739629875E+03  0.19739629875E+03  0.00000000000E+00 0. -1.
         -2   -1    0    0    0  501 -0.00000000000E+00 -0.00000000000E+00 -0.21568948797E+01  0.21568948797E+01  0.00000000000E+00 0.  1.
         21    1    1    2  502  501 -0.10522047626E+02  0.17023340287E+02  0.73318800642E+02  0.76001013996E+02  0.00000000000E+00 0.  1.
         21    1    1    2  503  502  0.10522047626E+02 -0.17023340287E+02  0.12192060323E+03  0.12355217963E+03  0.00000000000E+00 0. -1.
</event>
<event>
 4    1  0.5843276E+002  0.3058364E+02  0.7546771E-02  0.1414591E+00
          2   -1    0    0  502    0  0.00000000000E+00  0.00000000000E+00  0.60483488844E+02  0.60483488844E+02  0.00000000000E+00 0.  1.
         -2   -1    0    0    0  501 -0.00000000000E+00 -0.00000000000E+00 -0.25499441104E+02  0.25499441104E+02  0.00000000000E+00 0. -1.
         21    1    1    2  502  503  0.19474782202E+02 -0.23581597524E+02  0.44461346878E+02  0.53964527699E+02  0.00000000000E+00 0.  1.
         21    1    1    2  503  501 -0.19474782202E+02  0.23581597524E+02 -0.94772991376E+01  0.32018402248E+02  0.00000000000E+00 0. -1.
</event>
<event>
 4    1  0.5843276E+002  0.3343350E+02  0.7546771E-02  0.1391924E+00
          2   -1    0    0  503    0  0.00000000000E+00  0.00000000000E+00  0.24403828114E+03  0.24403828114E+03  0.00000000000E+00 0. -1.
         -2   -1    0    0    0  501 -0.00000000000E+00 -0.00000000000E+00 -0.53437808067E+01  0.53437808067E+01  0.00000000000E+00 0.  1.
         21    1    1    2  502  501 -0.32906472913E+02 -0.59129674847E+01  0.72219762559E+02  0.79583247283E+02  0.00000000000E+00 0. -1.
         21    1    1    2  503  502  0.32906472913E+02  0.59129674847E+01  0.16647473778E+03  0.16979881466E+03  0.00000000000E+00 0.  1.
</event>
<event>
 4    1  0.5843276E+002  0.2020834E+02  0.7546771E-02  0.1530874E+00
          2   -1    0    0  502    0  0.00000000000E+00  0.00000000000E+00  0.57079073360E+03  0.57079073360E+03  0.00000000000E+00 0. -1.
         -2   -1    0    0    0  501 -0.00000000000E+00 -0.00000000000E+00 -0.12051752188E+01  0.12051752188E+01  0.00000000000E+00 0.  1.
         21    1    1    2  502  503 -0.34793179232E+01 -0.19906568821E+02  0.46710267983E+03  0.46753961398E+03  0.00000000000E+00 0. -1.
         21    1    1    2  503  501  0.34793179232E+01  0.19906568821E+02  0.10248287855E+03  0.10445629484E+03  0.00000000000E+00 0.  1.
</event>
<event>
 4    1  0.5843276E+002  0.3000538E+02  0.7546771E-02  0.1419550E+00
          2   -1    0    0  503    0  0.00000000000E+00  0.00000000000E+00  0.91875951821E+03  0.91875951821E+03  0.00000000000E+00 0.  1.
         -2   -1    0    0    0  501 -0.00000000000E+00 -0.00000000000E+00 -0.12517766694E+01  0.12517766694E+01  0.00000000000E+00 0. -1.
         21    1    1    2  502  501 -0.13742386793E+02  0.26673391682E+02  0.24438627674E+03  0.24622139484E+03  0.00000000000E+00 0. -1.
         21    1    1    2  503  502  0.13742386793E+02 -0.26673391682E+02  0.67312146480E+03  0.67378990004E+03  0.00000000000E+00 0.  1.
</event>
<event>
 4    1  0.5843276E+002  0.2683333E+02  0.7546771E-02  0.1449290E+00
          2   -1    0    0  502    0  0.00000000000E+00  0.00000000000E+00  0.36832293388E+02  0.36832293388E+02  0.00000000000E+00 0.  1.
         -2   -1    0    0    0  501 -0.00000000000E+00 -0.00000000000E+00 -0.24074596556E+02  0.24074596556E+02  0.00000000000E+00 0. -1.
         21    1    1    2  502  503  0.24378360436E+02 -0.11212635074E+02  0.19582795467E+02  0.33219173999E+02  0.00000000000E+00 0.  1.
         21    1    1    2  503  501 -0.24378360436E+02  0.11212635074E+02 -0.68250986347E+01  0.27687715945E+02  0.00000000000E+00 0. -1.
</event>
<event>
 4    1  0.5843276E+002  0.2036738E+02  0.7546771E-02  0.1528492E+00
          2   -1    0    0  503    0  0.00000000000E+00  0.00000000000E+00  0.15560244375E+04  0.15560244375E+04  0.00000000000E+00 0. -1.
         -2   -1    0    0    0  501 -0.00000000000E+00 -0.00000000000E+00 -0.19097820359E+01  0.19097820359E+01  0.00000000000E+00 0.  1.
         21    1    1    2  502  501 -0.11689520818E+02  0.16678887963E+02  0.54502910414E+02  0.58184168329E+02  0.00000000000E+00 0.  1.
         21    1    1    2  503  502  0.11689520818E+02 -0.16678887963E+02  0.14996117451E+04  0.14997500512E+04  0.00000000000E+00 0. -1.
</event>
<event>
 4    1  0.5843276E+002  0.3416642E+02  0.7546771E-02  0.1386520E+00
          2   -1    0    0  502    0  0.00000000000E+00  0.00000000000E+00  0.66226713468E+03  0.66226713468E+03  0.00000000000E+00 0. -1.
         -2   -1    0    0    0  501 -0.00000000000E+00 -0.00000000000E+00 -0.20022493249E+01  0.20022493249E+01  0.00000000000E+00 0.  1.
         21    1    1    2  502  503 -0.33278169673E+02  0.77399904313E+01  0.44502701498E+03  0.44633663090E+03  0.00000000000E+00 0. -1.
         21    1    1    2  503  501  0.33278169673E+02 -0.77399904313E+01  0.21523787038E+03  0.21793275310E+03  0.00000000000E+00 0.  1.
</event>
<event>
 4    1  0.5843276E+002  0.2025655E+02  0.7546771E-02  0.1530149E+00
          2   -1    0    0  503    0  0.00000000000E+00  0.00000000000E+00  0.72316738790E+03  0.72316738790E+03  0.00000000000E+00 0. -1.
         -2   -1    0    0    0  501 -0.00000000000E+00 -0.00000000000E+00 -0.62255186106E+00  0.62255186106E+00  0.00000000000E+00 0.  1.
         21    1    1    2  502  501 -0.16949447073E+01 -0.20185518124E+02  0.25356153155E+03  0.25436937367E+03  0.00000000000E+00 0. -1.
         21    1    1    2  503  502  0.16949447073E+01  0.20185518124E+02  0.46898330449E+03  0.46942056609E+03  0.00000000000E+00 0.  1.
</event>
<event>
 4    1  0.5843276E+002  0.2915066E+02  0.7546771E-02  0.1427124E+00
          2   -1    0    0  502    0  0.00000000000E+00  0.00000000000E+00  0.49485647017E+03  0.49485647017E+03  0.00000000000E+00 0. -1.
         -2   -1    0    0    0  501 -0.00000000000E+00 -0.00000000000E+00 -0.51765006753E+01  0.51765006753E+01  0.00000000000E+00 0.  1.
         21    1    1    2  502  503  0.18206473795E+02  0.22765875066E+02  0.44922333957E+03  0.45016815700E+03  0.00000000000E+00 0. -1.
         21    1    1    2  503  501 -0.18206473795E+02 -0.22765875066E+02  0.40456629916E+02  0.49864813845E+02  0.00000000000E+00 0.  1.
</event>
<event>
 4    1  0.5843276E+002  0.3232294E+02  0.7546771E-02  0.1400428E+00
          2   -1    0    0  502    0  0.00000000000E+00  0.00000000000E+00  0.83967497017E+01  0.83967497017E+01  0.00000000000E+00 0.  1.
         -2   -1    0    0    0  501 -0.00000000000E+00 -0.00000000000E+00 -0.34500752074E+03  0.34500752074E+03  0.00000000000E+00 0. -1.
         21    1    1    2  502  503 -0.30129232562E+02 -0.11704782359E+02 -0.27015119456E+02  0.42125874045E+02  0.00000000000E+00 0.  1.
         21    1    1    2  503  501  0.30129232562E+02  0.11704782359E+02 -0.30959565159E+03  0.31127839640E+03  0.00000000000E+00 0. -1.
</event>
<event>
 4    1  0.5843276E+002  0.3513956E+02  0.7546771E-02  0.1379585E+00
          2   -1    0    0  502    0  0.00000000000E+00  0.00000000000E+00  0.15678392829E+04  0.15678392829E+04  0.00000000000E+00 0. -1.
         -2   -1    0    0    0  501 -0.00000000000E+00 -0.00000000000E+00 -0.51582268899E+01  0.51582268899E+01  0.00000000000E+00 0.  1.
         21    1    1    2  502  503  0.15439524514E+02 -0.31565960658E+02  0.15053112419E+04  0.15057213300E+04  0.00000000000E+00 0. -1.
         21    1    1    2  503  501 -0.15439524514E+02  0.31565960658E+02  0.57369814146E+02  0.67276179772E+02  0.00000000000E+00 0.  1.
</event>
<event>
 4    1  0.5843276E+002  0.2381214E+02  0.7546771E-02  0.1482544E+00
          2   -1    0    0  502    0  0.00000000000E+00  0.00000000000E+00  0.12539289336E+02  0.12539289336E+02  0.00000000000E+00 0. -1.
         -2   -1    0    0    0  501 -0.00000000000E+00 -0.00000000000E+00 -0.70492768023E+02  0.70492768023E+02  0.00000000000E+00 0.  1.
         21    1    1    2  502  503  0.96559415285E+00  0.23792552497E+02 -0.41181824183E+01  0.24165623369E+02  0.00000000000E+00 0. -1.
         21    1    1    2  503  501 -0.96559415285E+00 -0.23792552497E+02 -0.53835296269E+02  0.58866433990E+02  0.00000000000E+00 0.  1.
</event>
<event>
 4    1  0.5843276E+002  0.2466434E+02  0.7546771E-02  0.1472594E+00
          2   -1    0    0  503    0  0.00000000000E+00  0.00000000000E+00  0.18049888298E+04  0.18049888298E+04  0.00000000000E+00 0.  1.
         -2   -1    0    0    0  501 -0.00000000000E+00 -0.00000000000E+00 -0.34200275353E+00  0.34200275353E+00  0.00000000000E+00 0. -1.
         21    1    1    2  502  501  0.77550090377E+01 -0.23413446514E+02  0.79344310315E+03  0.79382635858E+03  0.00000000000E+00 0.  1.
         21    1    1    2  503  502 -0.77550090377E+01  0.23413446514E+02  0.10112037239E+04  0.10115044740E+04  0.00000000000E+00 0. -1.
</event>
<event>
 4    1  0.5843276E+002  0.2741368E+02  0.7546771E-02  0.1443496E+00
          2   -1    0    0  503    0  0.00000000000E+00  0.00000000000E+00  0.83502965720E+03  0.83502965720E+03  0.00000000000E+00 0.  1.
         -2   -1    0    0    0  501 -0.00000000000E+00 -0.00000000000E+00 -0.94319855646E+00  0.94319855646E+00  0.00000000000E+00 0. -1.
         21    1    1    2  502  501 -0.14123328732E+01 -0.27377273831E+02  0.50651722951E+03  0.50725852738E+03  0.00000000000E+00 0.  1.
         21    1    1    2  503  502  0.14123328732E+01  0.27377273831E+02  0.32756922913E+03  0.32871432837E+03  0.00000000000E+00 0. -1.
</event>
<event>
 4    1  0.5843276E+002  0.2049164E+02  0.7546771E-02  0.1526648E+00
          2   -1    0    0  502    0  0.00000000000E+00  0.00000000000E+00  0.53249158662E+03  0.53249158662E+03  0.00000000000E+00 0. -1.
         -2   -1    0    0    0  501 -0.00000000000E+00 -0.00000000000E+00 -0.19312592211E+01  0.19312592211E+01  0.00000000000E+00 0.  1.
         21    1    1    2  502  503  0.20331215934E+02 -0.25590777352E+01  0.47082126643E+03  0.47126698605E+03  0.00000000000E+00 0. -1.
         21    1    1    2  503  501 -0.20331215934E+02  0.25590777352E+01  0.59739060968E+02  0.63155859788E+02  0.00000000000E+00 0.  1.
</event>
<event>
 4    1  0.5843276E+002  0.7527128E+02  0.7546771E-02  0.1215272E+00
          2   -1    0    0  503    0  0.00000000000E+00  0.00000000000E+00  0.64468520449E+03  0.64468520449E+03  0.00000000000E+00 0.  1.
         -2   -1    0    0    0  501 -0.00000000000E+00 -0.00000000000E+00 -0.95132280287E+01  0.95132280287E+01  0.00000000000E+00 0. -1.
         21    1    1    2  502  501  0.74113672870E+02  0.13150252291E+02  0.40787324237E+03  0.41476059056E+03  0.00000000000E+00 0. -1.
         21    1    1    2  503  502 -0.74113672870E+02 -0.13150252291E+02  0.22729873409E+03  0.23943784196E+03  0.00000000000E+00 0.  1.
</event>
<event>
 4    1  0.5843276E+002  0.2076996E+02  0.7546771E-02  0.1522575E+00
          2   -1    0    0  502    0  0.00000000000E+00  0.00000000000E+00  0.21776271629E+02  0.21776271629E+02  0.00000000000E+00 0.  1.
         -2   -1    0    0    0  501 -0.00000000000E+00 -0.00000000000E+00 -0.23647370855E+02  0.23647370855E+02  0.00000000000E+00 0. -1.
         21    1    1    2  502  503  0.13998953967E+02  0.15343421601E+02  0.82133463981E+01  0.22334958197E+02  0.00000000000E+00 0.  1.
         21    1    1    2  503  501 -0.13998953967E+02 -0.15343421601E+02 -0.10084445624E+02  0.23088684288E+02  0.00000000000E+00 0. -1.
</event>
<event>
 4    1  0.5843276E+002  0.2037978E+02  0.7546771E-02  0.1528307E+00
          2   -1    0    0  502    0  0.00000000000E+00  0.00000000000E+00  0.39071486524E+02  0.39071486524E+02  0.00000000000E+00 0.  1.
         -2   -1    0    0    0  501 -0.00000000000E+00 -0.00000000000E+00 -0.14117566907E+02  0.14117566907E+02  0.00000000000E+00 0. -1.
         21    1    1    2  502  503 -0.62537364927E+01  0.19396547051E+02  0.25694939414E+02  0.32795810237E+02  0.00000000000E+00 0.  1.
         21    1    1    2  503  501  0.62537364927E+01 -0.19396547051E+02 -0.74101979614E+00  0.20393243194E+02  0.00000000000E+00 0. -1.
</event>
<event>
 4    1  0.5843276E+002  0.2268998E+02  0.7546771E-02  0.1496428E+00
          2   -1    0    0  503    0  0.00000000000E+00  0.00000000000E+00  0.42525932338E+03  0.42525932338E+03  0.00000000000E+00 0.  1.
         -2   -1    0    0    0  501 -0.00000000000E+00 -0.00000000000E+00 -0.13737076709E+01  0.13737076709E+01  0.00000000000E+00 0. -1.
         21    1    1    2  502  501  0.16414089892E+02  0.15665658936E+02  0.28543878026E+03  0.28633919134E+03  0.00000000000E+00 0.  1.
         21    1    1    2  503  502 -0.16414089892E+02 -0.15665658936E+02  0.13844683545E+03  0.14029383972E+03  0.00000000000E+00 0. -1.
</event>
<event>
 4    1  0.5843276E+002  0.2317636E+02  0.7546771E-02  0.1490295E+00
          2   -1    0    0  503    0  0.00000000000E+00  0.00000000000E+00  0.15627991412E+02  0.15627991412E+02  0.00000000000E+00 0. -1.
         -2   -1    0    0    0  501 -0.00000000000E+00 -0.00000000000E+00 -0.34466978419E+02  0.34466978419E+02  0.00000000000E+00 0.  1.
         21    1    1    2  502  501 -0.21375773649E+02  0.89565508849E+01 -0.10743967973E+02  0.25545573993E+02  0.00000000000E+00 0.  1.
         21    1    1    2  503  502  0.21375773649E+02 -0.89565508849E+01 -0.80950190334E+01  0.24549395838E+02  0.00000000000E+00 0. -1.
</event>
<event>
 4    1  0.5843276E+002  0.2605758E+02  0.7546771E-02  0.1457312E+00
          2   -1    0    0  502    0  0.00000000000E+00  0.00000000000E+00  0.16248712536E+04  0.16248712536E+04  0.00000000000E+00 0. -1.
         -2   -1    0    0    0  501 -0.00000000000E+00 -0.00000000000E+00 -0.60719998783E+00  0.60719998783E+00  0.00000000000E+00 0.  1.
         21    1    1    2  502  503  0.38313214669E+01 -0.25774373612E+02  0.12659548039E+04  0.12662229515E+04  0.00000000000E+00 0. -1.
         21    1    1    2  503  501 -0.38313214669E+01  0.25774373612E+02  0.35830924975E+03  0.35925550214E+03  0.00000000000E+00 0.  1.
</event>
<event>
 4    1  0.5843276E+002  0.2071842E+02  0.7546771E-02  0.1523323E+00
          2   -1    0    0  502    0  0.00000000000E+00  0.00000000000E+00  0.19378803359E+02  0.19378803359E+02  0.00000000000E+00 0.  1.
         -2   -1    0    0    0  501 -0.00000000000E+00 -0.00000000000E+00 -0.37138950307E+02  0.37138950307E+02  0.00000000000E+00 0. -1.
         21    1    1    2  502  503  0.20683952616E+02 -0.11945048199E+01  0.90720795350E+01  0.22617589719E+02  0.00000000000E+00 0.  1.
         21    1    1    2  503  501 -0.20683952616E+02  0.11945048199E+01 -0.26832226483E+02  0.33900163947E+02  0.00000000000E+00 0. -1.
</event>
<event>
 4    1  0.5843276E+002  0.4378135E+02  0.7546771E-02  0.1327647E+00
          2   -1    0    0  503    0  0.00000000000E+00  0.00000000000E+00  0.41468989362E+01  0.41468989362E+01  0.00000000000E+00 0.  1.
         -2   -1    0    0    0  501 -0.00000000000E+00 -0.00000000000E+00 -0.46245959178E+03  0.46245959178E+03  0.00000000000E+00 0. -1.
         21    1    1    2  502  501 -0.33592802306E+02 -0.28077220442E+02 -0.23439387474E+03  0.23844767810E+03  0.00000000000E+00 0.  1.
         21    1    1    2  503  502  0.33592802306E+02  0.28077220442E+02 -0.22391881810E+03  0.22815881262E+03  0.00000000000E+00 0. -1.
</event>
<event>
 4    1  0.5843276E+002  0.2028803E+02  0.7546771E-02  0.1529677E+00
          2   -1    0    0  503    0  0.00000000000E+00  0.00000000000E+00  0.41478557164E+02  0.41478557164E+02  0.00000000000E+00 0.  1.
         -2   -1    0    0    0  501 -0.00000000000E+00 -0.00000000000E+00 -0.17097952644E+02  0.17097952644E+02  0.00000000000E+00 0. -1.
         21    1    1    2  502  501  0.18105688964E+02  0.91535856598E+01 -0.67820826335E+01  0.21391604618E+02  0.00000000000E+00 0. -1.
         21    1    1    2  503  502 -0.18105688964E+02 -0.91535856598E+01  0.31162687154E+02  0.37184905189E+02  0.00000000000E+00 0.  1.
</event>
<event>
 4    1  0.5843276E+002  0.2613814E+02  0.7546771E-02  0.1456463E+00
          2   -1    0    0  502    0  0.00000000000E+00  0.00000000000E+00  0.12636218600E+04  0.12636218600E+04  0.00000000000E+00 0. -1.
         -2   -1    0    0    0  501 -0.00000000000E+00 -0.00000000000E+00 -0.62412134364E+00  0.62412134364E+00  0.00000000000E+00 0.  1.
         21    1    1    2  502  503 -0.17957243208E+02 -0.18993147785E+02  0.86264366295E+03  0.86303956542E+03  0.00000000000E+00 0. -1.
         21    1    1    2  503  501  0.17957243208E+02  0.18993147785E+02  0.40035407567E+03  0.40120641590E+03  0.00000000000E+00 0.  1.
</event>
<event>
 4    1  0.5843276E+002  0.4521937E+02  0.7546771E-02  0.1320346E+00
          2   -1    0    0  502    0  0.00000000000E+00  0.00000000000E+00  0.59022204633E+03  0.59022204633E+03  0.00000000000E+00 0. -1.
         -2   -1    0    0    0  501 -0.00000000000E+00 -0.00000000000E+00 -0.35606735394E+01  0.35606735394E+01  0.00000000000E+00 0.  1.
         21    1    1    2  502  503  0.44277841945E+02  0.91795282208E+01  0.24452319864E+03  0.24866922949E+03  0.00000000000E+00 0.  1.
         21    1    1    2  503  501 -0.44277841945E+02 -0.91795282208E+01  0.34213817415E+03  0.34511349037E+03  0.00000000000E+00 0. -1.
</event>
<event>
 4    1  0.5843276E+002  0.3630995E+02  0.7546771E-02  0.1371581E+00
          2   -1    0    0  502    0  0.00000000000E+00  0.00000000000E+00  0.98586905574E+02  0.98586905574E+02  0.00000000000E+00 0. -1.
         -2   -1    0    0    0  501 -0.00000000000E+00 -0.00000000000E+00 -0.17458082968E+02  0.17458082968E+02  0.00000000000E+00 0.  1.
         21    1    1    2  502  503  0.35757363939E+02  0.63105997242E+01  0.68631226569E+02  0.77644433189E+02  0.00000000000E+00 0. -1.
         21    1    1    2  503  501 -0.35757363939E+02 -0.63105997242E+01  0.12497596037E+02  0.38400555354E+02  0.00000000000E+00 0.  1.
</event>
<event>
 4    1  0.5843276E+002  0.2924940E+02  0.7546771E-02  0.1426233E+00
          2   -1    0    0  502    0  0.00000000000E+00  0.00000000000E+00  0.26858712598E+01  0.26858712598E+01  0.00000000000E+00 0. -1.
         -2   -1    0    0    0  501 -0.00000000000E+00 -0.00000000000E+00 -0.34175255406E+03  0.34175255406E+03  0.00000000000E+00 0.  1.
         21    1    1    2  502  503 -0.27853097208E+02 -0.89292991212E+01 -0.12463898743E+03  0.12802501550E+03  0.00000000000E+00 0.  1.
         21    1    1    2  503  501  0.27853097208E+02  0.89292991212E+01 -0.21442769538E+03  0.21641340982E+03  0.00000000000E+00 0. -1.
</event>
<event>
 4    1  0.5843276E+002  0.2359795E+02  0.7546771E-02  0.1485123E+00
          2   -1    0    0  503    0  0.00000000000E+00  0.00000000000E+00  0.19487906546E+03  0.19487906546E+03  0.00000000000E+00 0.  1.
         -2   -1    0    0    0  501 -0.00000000000E+00 -0.00000000000E+00 -0.35601902515E+01  0.35601902515E+01  0.00000000000E+00 0. -1.
         21    1    1    2  502  501 -0.66732406050E+01 -0.22634728177E+02  0.51578675842E+02  0.56720568240E+02  0.00000000000E+00 0.  1.
         21    1    1    2  503  502  0.66732406050E+01  0.22634728177E+02  0.13974019937E+03  0.14171868747E+03  0.00000000000E+00 0. -1.
</event>
<event>
 4    1  0.5843276E+002  0.2305369E+02  0.7546771E-02  0.1491825E+00
          2   -1    0    0  502    0  0.00000000000E+00  0.00000000000E+00  0.50826624413E+03  0.50826624413E+03  0.00000000000E+00 0.  1.
         -2   -1    0    0    0  501 -0.00000000000E+00 -0.00000000000E+00 -0.40723319448E+01  0.40723319448E+01  0.00000000000E+00 0. -1.
         21    1    1    2  502  503  0.16514165723E+02 -0.16085860133E+02  0.47294233115E+03  0.47350387660E+03  0.00000000000E+00 0.  1.
         21    1    1    2  503  501 -0.16514165723E+02  0.16085860133E+02  0.31251581034E+02  0.38834699469E+02  0.00000000000E+00 0. -1.
</event>
<event>
 4    1  0.5843276E+002  0.2614973E+02  0.7546771E-02  0.1456341E+00
          2   -1    0    0  503    0  0.00000000000E+00  0.00000000000E+00  0.19194780624E+04  0.19194780624E+04  0.00000000000E+00 0.  1.
         -2   -1    0    0    0  501 -0.00000000000E+00 -0.00000000000E+00 -0.89725492228E+00  0.89725492228E+00  0.00000000000E+00 0. -1.
         21    1    1    2  502  501 -0.23972846409E+02  0.10445629476E+02  0.21370060493E+03  0.21529458211E+03  0.00000000000E+00 0. -1.
         21    1    1    2  503  502  0.23972846409E+02 -0.10445629476E+02  0.17048802026E+04  0.17050807352E+04  0.00000000000E+00 0.  1.
</event>
<event>
 4    1  0.5843276E+002  0.2465317E+02  0.7546771E-02  0.1472721E+00
          2   -1    0    0  503    0  0.00000000000E+00  0.00000000000E+00  0.13630493456E+04  0.13630493456E+04  0.00000000000E+00 0.  1.
         -2   -1    0    0    0  501 -0.00000000000E+00 -0.00000000000E+00 -0.13756618015E+01  0.13756618015E+01  0.00000000000E+00 0. -1.
         21    1    1    2  502  501 -0.22983610947E+02 -0.89180938886E+01  0.11998192605E+03  0.12248853558E+03  0.00000000000E+00 0. -1.
         21    1    1    2  503  502  0.22983610947E+02  0.89180938886E+01  0.12416917577E+04  0.12419364718E+04  0.00000000000E+00 0.  1.
</event>
<event>
 4    1  0.5843276E+002  0.3580022E+02  0.7546771E-02  0.1375023E+00
          2   -1    0    0  502    0  0.00000000000E+00  0.00000000000E+00  0.76536411484E+02  0.76536411484E+02  0.00000000000E+00 0. -1.
         -2   -1    0    0    0  501 -0.00000000000E+00 -0.00000000000E+00 -0.19648892984E+02  0.19648892984E+02  0.00000000000E+00 0.  1.
         21    1    1    2  502  503  0.13000342280E+01  0.35776609494E+02  0.46929955088E+02  0.59026066788E+02  0.00000000000E+00 0. -1.
         21    1    1    2  503  501 -0.13000342280E+01 -0.35776609494E+02  0.99575634124E+01  0.37159237680E+02  0.00000000000E+00 0.  1.
</event>
<event>
 4    1  0.5843276E+002  0.2476494E+02  0.7546771E-02  0.1471450E+00
          2   -1    0    0  502    0  0.00000000000E+00  0.00000000000E+00  0.25071417573E+02  0.25071417573E+02  0.00000000000E+00 0.  1.
         -2   -1    0    0    0  501 -0.00000000000E+00 -0.00000000000E+00 -0.34733636755E+02  0.34733636755E+02  0.00000000000E+00 0. -1.
         21    1    1    2  502  503 -0.24748623693E+02  0.89873870875E+00 -0.21092148892E+02  0.32529691834E+02  0.00000000000E+00 0. -1.
         21    1    1    2  503  501  0.24748623693E+02 -0.89873870875E+00  0.11429929710E+02  0.27275362493E+02  0.00000000000E+00 0.  1.
</event>
<event>
 4    1  0.5843276E+002  0.3344204E+02  0.7546771E-02  0.1391860E+00
          2   -1    0    0  503    0  0.00000000000E+00  0.00000000000E+00  0.46132569016E+01  0.46132569016E+01  0.00000000000E+00 0. -1.
         -2   -1    0    0    0  501 -0.00000000000E+00 -0.00000000000E+00 -0.35203864221E+03  0.35203864221E+03  0.00000000000E+00 0.  1.
         21    1    1    2  502  501 -0.13979119046E+02 -0.30380158812E+02 -0.74206239741E+02  0.81393708819E+02  0.00000000000E+00 0. -1.
         21    1    1    2  503  502  0.13979119046E+02  0.30380158812E+02 -0.27321914557E+03  0.27525819029E+03  0.00000000000E+00 0.  1.
</event>
<event>
 4    1  0.5843276E+002  0.2076423E+02  0.7546771E-02  0.1522658E+00
          2   -1    0    0  503    0  0.00000000000E+00  0.00000000000E+00  0.28541601459E+01  0.28541601459E+01  0.00000000000E+00 0. -1.
         -2   -1    0    0    0  501 -0.00000000000E+00 -0.00000000000E+00 -0.22333840855E+03  0.22333840855E+03  0.00000000000E+00 0.  1.
         21    1    1    2  502  501 -0.18496994633E+02 -0.94347508997E+01 -0.17458001369E+03  0.17581050740E+03  0.00000000000E+00 0.  1.
         21    1    1    2  503  502  0.18496994633E+02  0.94347508997E+01 -0.45904234722E+02  0.50382061296E+02  0.00000000000E+00 0. -1.
</event>
<event>
 4    1  0.5843276E+002  0.2112324E+02  0.7546771E-02  0.1517512E+00
          2   -1    0    0  502    0  0.00000000000E+00  0.00000000000E+00  0.31409691064E+02  0.31409691064E+02  0.00000000000E+00 0. -1.
         -2   -1    0    0    0  501 -0.00000000000E+00 -0.00000000000E+00 -0.27194658572E+02  0.27194658572E+02  0.00000000000E+00 0.  1.
         21    1    1    2  502  503  0.49292178306E+01 -0.20540062505E+02  0.22358588925E+02  0.30758703725E+02  0.00000000000E+00 0. -1.
         21    1    1    2  503  501 -0.49292178306E+01  0.20540062505E+02 -0.18143556434E+02  0.27845645911E+02  0.00000000000E+00 0.  1.
</event>
<event>
 4    1  0.5843276E+002  0.3053155E+02  0.7546771E-02  0.1415032E+00
          2   -1    0    0  502    0  0.00000000000E+00  0.00000000000E+00  0.49591579228E+02  0.49591579228E+02  0.00000000000E+00 0. -1.
         -2   -1    0    0    0  501 -0.00000000000E+00 -0.00000000000E+00 -0.19041226456E+02  0.19041226456E+02  0.00000000000E+00 0.  1.
         21    1    1    2  502  503  0.28124884326E+02  0.11881351089E+02  0.19161170223E+02  0.36046165765E+02  0.00000000000E+00 0.  1.
         21    1    1    2  503  501 -0.28124884326E+02 -0.11881351089E+02  0.11389182550E+02  0.32586639919E+02  0.00000000000E+00 0. -1.
</event>
<event>
 4    1  0.5843276E+002  0.3600502E+02  0.7546771E-02  0.1373632E+00
          2   -1    0    0  503    0  0.00000000000E+00  0.00000000000E+00  0.23472555107E+03  0.23472555107E+03  0.00000000000E+00 0.  1.
         -2   -1    0    0    0  501 -0.00000000000E+00 -0.00000000000E+00 -0.55229070601E+01  0.55229070601E+01  0.00000000000E+00 0. -1.
         21    1    1    2  502  501  0.33244032483E+02 -0.13827352574E+02  0.11434228501E+03  0.11987710171E+03  0.00000000000E+00 0. -1.
         21    1    1    2  503  502 -0.33244032483E+02  0.13827352574E+02  0.11486035900E+03  0.12037135642E+03  0.00000000000E+00 0.  1.
</event>
<event>
 4    1  0.5843276E+002  0.4055716E+02  0.7546771E-02  0.1345251E+00
          2   -1    0    0  503    0  0.00000000000E+00  0.00000000000E+00  0.16984953330E+02  0.16984953330E+02  0.00000000000E+00 0. -1.
         -2   -1    0    0    0  501 -0.00000000000E+00 -0.00000000000E+00 -0.11245308878E+03  0.11245308878E+03  0.00000000000E+00 0.  1.
         21    1    1    2  502  501 -0.37699722554E+02  0.14953723138E+02 -0.71846526274E+02  0.82503371167E+02  0.00000000000E+00 0.  1.
         21    1    1    2  503  502  0.37699722554E+02 -0.14953723138E+02 -0.23621609172E+02  0.46934670940E+02  0.00000000000E+00 0. -1.
</event>
<event>
 4    1  0.5843276E+002  0.2309498E+02  0.7546771E-02  0.1491309E+00
          2   -1    0    0  503    0  0.00000000000E+00  0.00000000000E+00  0.18830176109E+03  0.18830176109E+03  0.00000000000E+00 0. -1.
         -2   -1    0    0    0  501 -0.00000000000E+00 -0.00000000000E+00 -0.59724734797E+01  0.59724734797E+01  0.00000000000E+00 0.  1.
         21    1    1    2  502  501 -0.37564283426E+01 -0.22787438010E+02  0.20733266027E+02  0.31036211191E+02  0.00000000000E+00 0.  1.
         21    1    1    2  503  502  0.37564283426E+01  0.22787438010E+02  0.16159602158E+03  0.16323802338E+03  0.00000000000E+00 0. -1.
</event>
<event>
 4    1  0.5843276E+002  0.4043990E+02  0.7546771E-02  0.1345927E+00
          2   -1    0    0  502    0  0.00000000000E+00  0.00000000000E+00  0.18485722339E+02  0.18485722339E+02  0.00000000000E+00 0.  1.
         -2   -1    0    0    0  501 -0.00000000000E+00 -0.00000000000E+00 -0.17487829920E+03  0.17487829920E+03  0.00000000000E+00 0. -1.
         21    1    1    2  502  503  0.30879141119E+02  0.26112529705E+02 -0.10234979433E+02  0.41714989726E+02  0.00000000000E+00 0. -1.
         21    1    1    2  503  501 -0.30879141119E+02 -0.26112529705E+02 -0.14615759742E+03  0.15164903181E+03  0.00000000000E+00 0.  1.
</event>
<event>
 4    1  0.5843276E+002  0.2055120E+02  0.7546771E-02  0.1525770E+00
          2   -1    0    0  502    0  0.00000000000E+00  0.00000000000E+00  0.16035389832E+03  0.16035389832E+03  0.00000000000E+00 0.  1.
         -2   -1    0    0    0  501 -0.00000000000E+00 -0.00000000000E+00 -0.31277394516E+01  0.31277394516E+01  0.00000000000E+00 0. -1.
         21    1    1    2  502  503  0.20500059305E+02  0.14488918674E+01  0.11109402722E+03  0.11297891220E+03  0.00000000000E+00 0.  1.
         21    1    1    2  503  501 -0.20500059305E+02 -0.14488918674E+01  0.46132131648E+02  0.50502725566E+02  0.00000000000E+00 0. -1.
</event>
<event>
 4    1  0.5843276E+002  0.2215213E+02  0.7546771E-02  0.1503428E+00
          2   -1    0    0  502    0  0.00000000000E+00  0.00000000000E+00  0.48584749105E+00  0.48584749105E+00  0.00000000000E+00 0.  1.
         -2   -1    0    0    0  501 -0.00000000000E+00 -0.00000000000E+00 -0.10717579355E+04  0.10717579355E+04  0.00000000000E+00 0. -1.
         21    1    1    2  502  503  0.86046684017E+01 -0.20412656859E+02 -0.40696447873E+03  0.40756693172E+03  0.00000000000E+00 0.  1.
         21    1    1    2  503  501 -0.86046684017E+01  0.20412656859E+02 -0.66430760925E+03  0.66467685125E+03  0.00000000000E+00 0. -1.
</event>
<event>
 4    1  0.5843276E+002  0.2241775E+02  0.7546771E-02  0.1499942E+00
          2   -1    0    0  502    0  0.00000000000E+00  0.00000000000E+00  0.13453800690E+04  0.13453800690E+04  0.00000000000E+00 0. -1.
         -2   -1    0    0    0  501 -0.00000000000E+00 -0.00000000000E+00 -0.42298259965E+00  0.42298259965E+00  0.00000000000E+00 0.  1.
         21    1    1    2  502  503 -0.18945268352E+02  0.11984671895E+02  0.90253448784E+03  0.90281285840E+03  0.00000000000E+00 0. -1.
         21    1    1    2  503  501  0.18945268352E+02 -0.11984671895E+02  0.44242259855E+03  0.44299019319E+03  0.00000000000E+00 0.  1.
</event>
<event>
 4    1  0.5843276E+002  0.2285180E+02  0.7546771E-02  0.1494368E+00
          2   -1    0    0  502    0  0.00000000000E+00  0.00000000000E+00  0.16024852289E+04  0.16024852289E+04  0.00000000000E+00 0.  1.
         -2   -1    0    0    0  501 -0.00000000000E+00 -0.00000000000E+00 -0.82062630628E+00  0.82062630628E+00  0.00000000000E+00 0. -1.
         21    1    1    2  502  503  0.17362796210E+02 -0.14857251937E+02  0.14232881862E+04  0.14234716245E+04  0.00000000000E+00 0.  1.
         21    1    1    2  503  501 -0.17362796210E+02  0.14857251937E+02  0.17837641632E+03  0.17983423069E+03  0.00000000000E+00 0. -1.
</event>
<event>
 4    1  0.5843276E+002  0.2092524E+02  0.7546771E-02  0.1520335E+00
          2   -1    0    0  503    0  0.00000000000E+00  0.00000000000E+00  0.33056795047E+02  0.33056795047E+02  0.00000000000E+00 0.  1.
         -2   -1    0    0    0  501 -0.00000000000E+00 -0.00000000000E+00 -0.22793337964E+02  0.22793337964E+02  0.00000000000E+00 0. -1.
         21    1    1    2  502  501  0.17412030927E+02  0.11605461499E+02 -0.12941455335E+02  0.24603796938E+02  0.00000000000E+00 0. -1.
         21    1    1    2  503  502 -0.17412030927E+02 -0.11605461499E+02  0.23204912418E+02  0.31246336072E+02  0.00000000000E+00 0.  1.
</event>
<event>
 4    1  0.5843276E+002  0.2510729E+02  0.7546771E-02  0.1467607E+00
          2   -1    0    0  502    0  0.00000000000E+00  0.00000000000E+00  0.12707723319E+03  0.12707723319E+03  0.00000000000E+00 0.  1.
         -2   -1    0    0    0  501 -0.00000000000E+00 -0.00000000000E+00 -0.19371856623E+02  0.19371856623E+02  0.00000000000E+00 0. -1.
         21    1    1    2  502  503  0.24231820832E+02  0.65722896916E+01  0.11700981478E+03  0.11967319201E+03  0.00000000000E+00 0.  1.
         21    1    1    2  503  501 -0.24231820832E+02 -0.65722896916E+01 -0.93044382097E+01  0.26775897800E+02  0.00000000000E+00 0. -1.
</event>
<event>
 4    1  0.5843276E+002  0.2780144E+02  0.7546771E-02  0.1439719E+00
          2   -1    0    0  503    0  0.00000000000E+00  0.00000000000E+00  0.16595379223E+04  0.16595379223E+04  0.00000000000E+00 0. -1.
         -2   -1    0    0    0  501 -0.00000000000E+00 -0.00000000000E+00 -0.46954327624E+00  0.46954327624E+00  0.00000000000E+00 0.  1.
         21    1    1    2  502  501  0.23361148701E+02 -0.15072380008E+02  0.90419453496E+03  0.90462184196E+03  0.00000000000E+00 0.  1.
         21    1    1    2  503  502 -0.23361148701E+02  0.15072380008E+02  0.75487384412E+03  0.75538562366E+03  0.00000000000E+00 0. -1.
</event>
<event>
 4    1  0.5843276E+002  0.2293601E+02  0.7546771E-02  0.1493303E+00
          2   -1    0    0  502    0  0.00000000000E+00  0.00000000000E+00  0.10542122968E+04  0.10542122968E+04  0.00000000000E+00 0.  1.
         -2   -1    0    0    0  501 -0.00000000000E+00 -0.00000000000E+00 -0.35312045753E+01  0.35312045753E+01  0.00000000000E+00 0. -1.
         21    1    1    2  502  503 -0.53449398047E+01  0.22304531310E+02  0.10154212447E+04  0.10156802473E+04  0.00000000000E+00 0.  1.
         21    1    1    2  503  501  0.53449398047E+01 -0.22304531310E+02  0.35259847503E+02  0.42063254087E+02  0.00000000000E+00 0. -1.
</event>
<event>
 4    1  0.5843276E+002  0.5407079E+02  0.7546771E-02  0.1281426E+00
          2   -1    0    0  503    0  0.00000000000E+00  0.00000000000E+00  0.10310038360E+02  0.10310038360E+02  0.00000000000E+00 0.  1.
         -2   -1    0    0    0  501 -0.00000000000E+00 -0.00000000000E+00 -0.32889630352E+03  0.32889630352E+03  0.00000000000E+00 0. -1.
         21    1    1    2  502  501 -0.47327398793E+02 -0.26148944825E+02 -0.22225310953E+03  0.22873586227E+03  0.00000000000E+00 0. -1.
         21    1    1    2  503  502  0.47327398793E+02  0.26148944825E+02 -0.96333155637E+02  0.11047047962E+03  0.00000000000E+00 0.  1.
</event>
<event>
 4    1  0.5843276E+002  0.2021749E+02  0.7546771E-02  0.1530737E+00
          2   -1    0    0  503    0  0.00000000000E+00  0.00000000000E+00  0.98667162607E+03  0.98667162607E+03  0.00000000000E+00 0.  1.
         -2   -1    0    0    0  501 -0.00000000000E+00 -0.00000000000E+00 -0.44883378925E+00  0.44883378925E+00  0.00000000000E+00 0. -1.
         21    1    1    2  502  501  0.19244436769E+02  0.61966627364E+01  0.35614391264E+03  0.35671730192E+03  0.00000000000E+00 0. -1.
         21    1    1    2  503  502 -0.19244436769E+02 -0.61966627364E+01  0.63007887964E+03  0.63040315794E+03  0.00000000000E+00 0.  1.
</event>
<event>
 4    1  0.5843276E+002  0.2460238E+02  0.7546771E-02  0.1473301E+00
          2   -1    0    0  503    0  0.00000000000E+00  0.00000000000E+00  0.15140219112E+03  0.15140219112E+03  0.00000000000E+00 0. -1.
         -2   -1    0    0    0  501 -0.00000000000E+00 -0.00000000000E+00 -0.50335043426E+02  0.50335043426E+02  0.00000000000E+00 0.  1.
         21    1    1    2  502  501  0.22347012440E+02  0.10290194358E+02 -0.46246488586E+02  0.52383344409E+02  0.00000000000E+00 0.  1.
         21    1    1    2  503  502 -0.22347012440E+02 -0.10290194358E+02  0.14731363628E+03  0.14935389014E+03  0.00000000000E+00 0. -1.
</event>
<event>
 4    1  0.5843276E+002  0.4036809E+02  0.7546771E-02  0.1346342E+00
          2   -1    0    0  502    0  0.00000000000E+00  0.00000000000E+00  0.26504230580E+04  0.26504230580E+04  0.00000000000E+00 0. -1.
         -2   -1    0    0    0  501 -0.00000000000E+00 -0.00000000000E+00 -0.64194018048E+00  0.64194018048E+00  0.00000000000E+00 0.  1.
         21    1    1    2  502  503 -0.29928584857E+02  0.27089889801E+02  0.10525322334E+04  0.10533060736E+04  0.00000000000E+00 0.  1.
         21    1    1    2  503  501  0.29928584857E+02 -0.27089889801E+02  0.15972488844E+04  0.15977589246E+04  0.00000000000E+00 0. -1.
</event>
<event>
 4    1  0.5843276E+002  0.2238357E+02  0.7546771E-02  0.1500387E+00
          2   -1    0    0  503    0  0.00000000000E+00  0.00000000000E+00  0.18286655227E+04  0.18286655227E+04  0.00000000000E+00 0. -1.
         -2   -1    0    0    0  501 -0.00000000000E+00 -0.00000000000E+00 -0.54318787963E+00  0.54318787963E+00  0.00000000000E+00 0.  1.
         21    1    1    2  502  501 -0.70810675400E+01  0.21233993959E+02  0.27018942997E+03  0.27111501634E+03  0.00000000000E+00 0.  1.
         21    1    1    2  503  502  0.70810675400E+01 -0.21233993959E+02  0.15579329049E+04  0.15580936943E+04  0.00000000000E+00 0. -1.
</event>
<event>
 4    1  0.5843276E+002  0.4277874E+02  0.7546771E-02  0.1332929E+00
          2   -1    0    0  503    0  0.00000000000E+00  0.00000000000E+00  0.10157016956E+03  0.10157016956E+03  0.00000000000E+00 0. -1.
         -2   -1    0    0    0  501 -0.00000000000E+00 -0.00000000000E+00 -0.19649613987E+02  0.19649613987E+02  0.00000000000E+00 0.  1.
         21    1    1    2  502  501 -0.42598955777E+02 -0.39178415646E+01  0.58429274185E+02  0.72415472087E+02  0.00000000000E+00 0. -1.
         21    1    1    2  503  502  0.42598955777E+02  0.39178415646E+01  0.23491281388E+02  0.48804311459E+02  0.00000000000E+00 0.  1.
</event>
<event>
 4    1  0.5843276E+002  0.3086732E+02  0.7546771E-02  0.1412206E+00
          2   -1    0    0  502    0  0.00000000000E+00  0.00000000000E+00  0.27899272743E+03  0.27899272743E+03  0.00000000000E+00 0. -1.
         -2   -1    0    0    0  501 -0.00000000000E+00 -0.00000000000E+00 -0.12995368883E+02  0.12995368883E+02  0.00000000000E+00 0.  1.
         21    1    1    2  502  503 -0.21788372781E+02  0.21864545579E+02  0.25835014359E+03  0.26018760200E+03  0.00000000000E+00 0. -1.
         21    1    1    2  503  501  0.21788372781E+02 -0.21864545579E+02  0.76472149546E+01  0.31800494311E+02  0.00000000000E+00 0.  1.
</event>
<event>
 4    1  0.5843276E+002  0.2337217E+02  0.7546771E-02  0.1487877E+00
          2   -1    0    0  503    0  0.00000000000E+00  0.00000000000E+00  0.23243446562E+04  0.23243446562E+04  0.00000000000E+00 0.  1.
         -2   -1    0    0    0  501 -0.00000000000E+00 -0.00000000000E+00 -0.23552164905E+00  0.23552164905E+00  0.00000000000E+00 0. -1.
         21    1    1    2  502  501  0.15953182456E+02  0.17080820912E+02  0.12159026402E+04  0.12161272503E+04  0.00000000000E+00 0.  1.
         21    1    1    2  503  502 -0.15953182456E+02 -0.17080820912E+02  0.11082064944E+04  0.11084529276E+04  0.00000000000E+00 0. -1.
</event>
<event>
 4    1  0.5843276E+002  0.3602386E+02  0.7546771E-02  0.1373505E+00
          2   -1    0    0  503    0  0.00000000000E+00  0.00000000000E+00  0.27491560422E+02  0.27491560422E+02  0.00000000000E+00 0.  1.
         -2   -1    0    0    0  501 -0.00000000000E+00 -0.00000000000E+00 -0.47243765862E+02  0.47243765862E+02  0.00000000000E+00 0. -1.
         21    1    1    2  502  501  0.35909045689E+02  0.28737734988E+01 -0.10956989715E+02  0.37653336638E+02  0.00000000000E+00 0.  1.
         21    1    1    2  503  502 -0.35909045689E+02 -0.28737734988E+01 -0.87952157255E+01  0.37081989645E+02  0.00000000000E+00 0. -1.
</event>
<event>
 4    1  0.5843276E+002  0.2680809E+02  0.7546771E-02  0.1449545E+00
          2   -1    0    0  503    0  0.00000000000E+00  0.00000000000E+00  0.13129107177E+02  0.13129107177E+02  0.00000000000E+00 0.  1.
         -2   -1    0    0    0  501 -0.00000000000E+00 -0.00000000000E+00 -0.12931600103E+03  0.12931600103E+03  0.00000000000E+00 0. -1.
         21    1    1    2  502  501 -0.16797118297E+02 -0.20893311289E+02 -0.11218058376E+03  0.11533931252E+03  0.00000000000E+00 0. -1.
         21    1    1    2  503  502  0.16797118297E+02  0.20893311289E+02 -0.40063101013E+01  0.27105795697E+02  0.00000000000E+00 0.  1.
</event>
<event>
 4    1  0.5843276E+002  0.2145396E+02  0.7546771E-02  0.1512881E+00
          2   -1    0    0  502    0  0.00000000000E+00  0.00000000000E+00  0.83682185591E+01  0.83682185591E+01  0.00000000000E+00 0.  1.
         -2   -1    0    0    0  501 -0.00000000000E+00 -0.00000000000E+00 -0.33240495001E+03  0.33240495001E+03  0.00000000000E+00 0. -1.
         21    1    1    2  502  503 -0.16448782763E+01 -0.21390811839E+02 -0.63655980998E+01  0.22378411357E+02  0.00000000000E+00 0.  1.
         21    1    1    2  503  501  0.16448782763E+01  0.21390811839E+02 -0.31767113335E+03  0.31839475721E+03  0.00000000000E+00 0. -1.
</event>
<event>
 4    1  0.5843276E+002  0.3612545E+02  0.7546771E-02  0.1372819E+00
          2   -1    0    0  503    0  0.00000000000E+00  0.00000000000E+00  0.25674941762E+02  0.25674941762E+02  0.00000000000E+00 0.  1.
         -2   -1    0    0    0  501 -0.00000000000E+00 -0.00000000000E+00 -0.51092938770E+02  0.51092938770E+02  0.00000000000E+00 0. -1.
         21    1    1    2  502  501 -0.14867057788E+02 -0.32924438616E+02 -0.99535460047E+01  0.37471604496E+02  0.00000000000E+00 0.  1.
         21    1    1    2  503  502  0.14867057788E+02  0.32924438616E+02 -0.15464451003E+02  0.39296276036E+02  0.00000000000E+00 0. -1.
</event>
<event>
 4    1  0.5843276E+002  0.2337264E+02  0.7546771E-02  0.1487871E+00
          2   -1    0    0  503    0  0.00000000000E+00  0.00000000000E+00  0.48769776042E+03  0.48769776042E+03  0.00000000000E+00 0.  1.
         -2   -1    0    0    0  501 -0.00000000000E+00 -0.00000000000E+00 -0.15683708802E+01  0.15683708802E+01  0.00000000000E+00 0. -1.
         21    1    1    2  502  501  0.81998794283E+01  0.21887031005E+02  0.11228171877E+03  0.11468855444E+03  0.00000000000E+00 0. -1.
         21    1    1    2  503  502 -0.81998794283E+01 -0.21887031005E+02  0.37384767077E+03  0.37457757686E+03  0.00000000000E+00 0.  1.
</event>
<event>
 4    1  0.5843276E+002  0.3623072E+02  0.7546771E-02  0.1372111E+00
          2   -1    0    0  503    0  0.00000000000E+00  0.00000000000E+00  0.58212281391E+01  0.58212281391E+01  0.00000000000E+00 0.  1.
         -2   -1    0    0    0  501 -0.00000000000E+00 -0.00000000000E+00 -0.30204441292E+03  0.30204441292E+03  0.00000000000E+00 0. -1.
         21    1    1    2  502  501  0.20902116137E+02 -0.29593359628E+02 -0.22560469957E+03  0.22849539571E+03  0.00000000000E+00 0. -1.
         21    1    1    2  503  502 -0.20902116137E+02  0.29593359628E+02 -0.70618485210E+02  0.79370245347E+02  0.00000000000E+00 0.  1.
</event>
<event>
 4    1  0.5843276E+002  0.2741442E+02  0.7546771E-02  0.1443489E+00
          2   -1    0    0  502    0  0.00000000000E+00  0.00000000000E+00  0.47615250462E+01  0.47615250462E+01  0.00000000000E+00 0.  1.
         -2   -1    0    0    0  501 -0.00000000000E+00 -0.00000000000E+00 -0.16048467448E+03  0.16048467448E+03  0.00000000000E+00 0. -1.
         21    1    1    2  502  503  0.23254536021E+02 -0.14518162813E+02 -0.67251478033E+02  0.72624457276E+02  0.00000000000E+00 0.  1.
         21    1    1    2  503  501 -0.23254536021E+02  0.14518162813E+02 -0.88471671398E+02  0.92621742248E+02  0.00000000000E+00 0. -1.
</event>
<event>
 4    1  0.5843276E+002  0.4175227E+02  0.7546771E-02  0.1338513E+00
          2   -1    0    0  502    0  0.00000000000E+00  0.00000000000E+00  0.99971355578E+03  0.99971355578E+03  0.00000000000E+00 0. -1.
         -2   -1    0    0    0  501 -0.00000000000E+00 -0.00000000000E+00 -0.18050566945E+01  0.18050566945E+01  0.00000000000E+00 0.  1.
         21    1    1    2  502  503 -0.34947410684E+02 -0.22845796955E+02  0.59123953435E+03  0.59271193588E+03  0.00000000000E+00 0. -1.
         21    1    1    2  503  501  0.34947410684E+02  0.22845796955E+02  0.40666896473E+03  0.40880667659E+03  0.00000000000E+00 0.  1.
</event>
<event>
 4    1  0.5843276E+002  0.2741584E+02  0.7546771E-02  0.1443475E+00
          2   -1    0    0  503    0  0.00000000000E+00  0.00000000000E+00  0.86745549531E+01  0.86745549531E+01  0.00000000000E+00 0.  1.
         -2   -1    0    0    0  501 -0.00000000000E+00 -0.00000000000E+00 -0.13258999262E+03  0.13258999262E+03  0.00000000000E+00 0. -1.
         21    1    1    2  502  501 -0.26666204687E+02  0.63672332553E+01 -0.10353492394E+03  0.10710326142E+03  0.00000000000E+00 0.  1.
         21    1    1    2  503  502  0.26666204687E+02 -0.63672332553E+01 -0.20380513724E+02  0.34161286150E+02  0.00000000000E+00 0. -1.
</event>
<event>
 4    1  0.5843276E+002  0.2142535E+02  0.7546771E-02  0.1513278E+00
          2   -1    0    0  502    0  0.00000000000E+00  0.00000000000E+00  0.43151646895E+03  0.43151646895E+03  0.00000000000E+00 0. -1.
         -2   -1    0    0    0  501 -0.00000000000E+00 -0.00000000000E+00 -0.16195255535E+01  0.16195255535E+01  0.00000000000E+00 0.  1.
         21    1    1    2  502  503  0.49634998079E+01 -0.20842490743E+02  0.34181057037E+03  0.34248140353E+03  0.00000000000E+00 0. -1.
         21    1    1    2  503  501 -0.49634998079E+01  0.20842490743E+02  0.88086373027E+02  0.90654590969E+02  0.00000000000E+00 0.  1.
</event>
<event>
 4    1  0.5843276E+002  0.2078986E+02  0.7546771E-02  0.1522286E+00
          2   -1    0    0  503    0  0.00000000000E+00  0.00000000000E+00  0.85618603252E+02  0.85618603252E+02  0.00000000000E+00 0. -1.
         -2   -1    0    0    0  501 -0.00000000000E+00 -0.00000000000E+00 -0.52984467595E+01  0.52984467595E+01  0.00000000000E+00 0.  1.
         21    1    1    2  502  501  0.12160869806E+02 -0.16862129896E+02  0.50039739294E+02  0.54186655993E+02  0.00000000000E+00 0. -1.
         21    1    1    2  503  502 -0.12160869806E+02  0.16862129896E+02  0.30280417198E+02  0.36730394019E+02  0.00000000000E+00 0.  1.
</event>
<event>
 4    1  0.5843276E+002  0.3024504E+02  0.7546771E-02  0.1417479E+00
          2   -1    0    0  503    0  0.00000000000E+00  0.00000000000E+00  0.61382510785E+03  0.61382510785E+03  0.00000000000E+00 0. -1.
         -2   -1    0    0    0  501 -0.00000000000E+00 -0.00000000000E+00 -0.14978324929E+01  0.14978324929E+01  0.00000000000E+00 0.  1.
         21    1    1    2  502  501  0.17211014703E+01  0.30196029937E+02  0.28429601316E+03  0.28590030694E+03  0.00000000000E+00 0.  1.
         21    1    1    2  503  502 -0.17211014703E+01 -0.30196029937E+02  0.32803126220E+03  0.32942263340E+03  0.00000000000E+00 0. -1.
</event>
<event>
 4    1  0.5843276E+002  0.2667805E+02  0.7546771E-02  0.1450869E+00
          2   -1    0    0  503    0  0.00000000000E+00  0.00000000000E+00  0.13563183451E+04  0.13563183451E+04  0.00000000000E+00 0. -1.
         -2   -1    0    0    0  501 -0.00000000000E+00 -0.00000000000E+00 -0.25219506287E+01  0.25219506287E+01  0.00000000000E+00 0.  1.
         21    1    1    2  502  501 -0.10646018605E+02 -0.24461823292E+02  0.72279263276E+02  0.77045508699E+02  0.00000000000E+00 0.  1.
         21    1    1    2  503  502  0.10646018605E+02  0.24461823292E+02  0.12815171312E+04  0.12817947870E+04  0.00000000000E+00 0. -1.
</event>
<event>
 4    1  0.5843276E+002  0.3168806E+02  0.7546771E-02  0.1405473E+00
          2   -1    0    0  502    0  0.00000000000E+00  0.00000000000E+00  0.80534808168E+03  0.80534808168E+03  0.00000000000E+00 0. -1.
         -2   -1    0    0    0  501 -0.00000000000E+00 -0.00000000000E+00 -0.24685902299E+01  0.24685902299E+01  0.00000000000E+00 0.  1.
         21    1    1    2  502  503  0.29565329444E+02 -0.11402816890E+02  0.68559201665E+03  0.68632393680E+03  0.00000000000E+00 0. -1.
         21    1    1    2  503  501 -0.29565329444E+02  0.11402816890E+02  0.11728747480E+03  0.12149273511E+03  0.00000000000E+00 0.  1.
</event>
<event>
 4    1  0.5843276E+002  0.2414424E+02  0.7546771E-02  0.1478609E+00
          2   -1    0    0  503    0  0.00000000000E+00  0.00000000000E+00  0.10907095275E+04  0.10907095275E+04  0.00000000000E+00 0. -1.
         -2   -1    0    0    0  501 -0.00000000000E+00 -0.00000000000E+00 -0.59993944376E+00  0.59993944376E+00  0.00000000000E+00 0.  1.
         21    1    1    2  502  501 -0.15412628934E+02 -0.18584813977E+02  0.72531716252E+03  0.72571890612E+03  0.00000000000E+00 0. -1.
         21    1    1    2  503  502  0.15412628934E+02  0.18584813977E+02  0.36479242550E+03  0.36559056080E+03  0.00000000000E+00 0.  1.
</event>
<event>
 4    1  0.5843276E+002  0.2145220E+02  0.7546771E-02  0.1512906E+00
          2   -1    0    0  502    0  0.00000000000E+00  0.00000000000E+00  0.64332288249E+03  0.64332288249E+03  0.00000000000E+00 0.  1.
         -2   -1    0    0    0  501 -0.00000000000E+00 -0.00000000000E+00 -0.11233736012E+01  0.11233736012E+01  0.00000000000E+00 0. -1.
         21    1    1    2  502  503  0.15955729476E+02  0.14339163982E+02  0.51529591269E+03  0.51574225594E+03  0.00000000000E+00 0.  1.
         21    1    1    2  503  501 -0.15955729476E+02 -0.14339163982E+02  0.12690359620E+03  0.12870400015E+03  0.00000000000E+00 0. -1.
</event>
<event>
 4    1  0.5843276E+002  0.2894918E+02  0.7546771E-02  0.1428953E+00
          2   -1    0    0  503    0  0.00000000000E+00  0.00000000000E+00  0.48037358676E+01  0.48037358676E+01  0.00000000000E+00 0.  1.
         -2   -1    0    0    0  501 -0.00000000000E+00 -0.00000000000E+00 -0.35741823745E+03  0.35741823745E+03  0.00000000000E+00 0. -1.
         21    1    1    2  502  501 -0.28943670764E+02 -0.56492336292E+00 -0.30588592992E+03  0.30725275807E+03  0.00000000000E+00 0. -1.
         21    1    1    2  503  502  0.28943670764E+02  0.56492336292E+00 -0.46728571654E+02  0.54969215244E+02  0.00000000000E+00 0.  1.
</event>
<event>
 4    1  0.5843276E+002  0.2440012E+02  0.7546771E-02  0.1475627E+00
          2   -1    0    0  503    0  0.00000000000E+00  0.00000000000E+00  0.88492032354E+03  0.88492032354E+03  0.00000000000E+00 0.  1.
         -2   -1    0    0    0  501 -0.00000000000E+00 -0.00000000000E+00 -0.11099522143E+01  0.11099522143E+01  0.00000000000E+00 0. -1.
         21    1    1    2  502  501  0.12757395432E+02 -0.20799393396E+02  0.16387782802E+03  0.16568436384E+03  0.00000000000E+00 0. -1.
         21    1    1    2  503  502 -0.12757395432E+02  0.20799393396E+02  0.71993254330E+03  0.72034591191E+03  0.00000000000E+00 0.  1.
</event>
<event>
 4    1  0.5843276E+002  0.2307218E+02  0.7546771E-02  0.1491594E+00
          2   -1    0    0  502    0  0.00000000000E+00  0.00000000000E+00  0.54641983327E+03  0.54641983327E+03  0.00000000000E+00 0.  1.
         -2   -1    0    0    0  501 -0.00000000000E+00 -0.00000000000E+00 -0.31231574592E+01  0.31231574592E+01  0.00000000000E+00 0. -1.
         21    1    1    2  502  503 -0.22833889966E+02  0.33074273805E+01  0.49957126645E+03  0.50010376510E+03  0.00000000000E+00 0.  1.
         21    1    1    2  503  501  0.22833889966E+02 -0.33074273805E+01  0.43725409361E+02  0.49439225628E+02  0.00000000000E+00 0. -1.
</event>
<event>
 4    1  0.5843276E+002  0.2005848E+02  0.7546771E-02  0.1533144E+00
          2   -1    0    0  502    0  0.00000000000E+00  0.00000000000E+00  0.12217283605E+03  0.12217283605E+03  0.00000000000E+00 0. -1.
         -2   -1    0    0    0  501 -0.00000000000E+00 -0.00000000000E+00 -0.38137347754E+01  0.38137347754E+01  0.00000000000E+00 0.  1.
         21    1    1    2  502  503 -0.11518743151E+02 -0.16421366117E+02  0.82451524414E+02  0.84856329093E+02  0.00000000000E+00 0.  1.
         21    1    1    2  503  501  0.11518743151E+02  0.16421366117E+02  0.35907576859E+02  0.41130241731E+02  0.00000000000E+00 0. -1.
</event>
<event>
 4    1  0.5843276E+002  0.2384768E+02  0.7546771E-02  0.1482119E+00
          2   -1    0    0  503    0  0.00000000000E+00  0.00000000000E+00  0.69138586855E+02  0.69138586855E+02  0.00000000000E+00 0. -1.
         -2   -1    0    0    0  501 -0.00000000000E+00 -0.00000000000E+00 -0.87095368890E+01  0.87095368890E+01  0.00000000000E+00 0.  1.
         21    1    1    2  502  501 -0.18443628487E+02  0.15117691983E+02  0.21040115851E+02  0.31802492319E+02  0.00000000000E+00 0.  1.
         21    1    1    2  503  502  0.18443628487E+02 -0.15117691983E+02  0.39388934115E+02  0.46045631425E+02  0.00000000000E+00 0. -1.
</event>
<event>
 4    1  0.5843276E+002  0.2619089E+02  0.7546771E-02  0.1455910E+00
          2   -1    0    0  502    0  0.00000000000E+00  0.00000000000E+00  0.36244991663E+03  0.36244991663E+03  0.00000000000E+00 0.  1.
         -2   -1    0    0    0  501 -0.00000000000E+00 -0.00000000000E+00 -0.24436842899E+01  0.24436842899E+01  0.00000000000E+00 0. -1.
         21    1    1    2  502  503  0.12888322710E+02  0.22800300905E+02  0.26664616568E+03  0.26792935684E+03  0.00000000000E+00 0.  1.
         21    1    1    2  503  501 -0.12888322710E+02 -0.22800300905E+02  0.93360066662E+02  0.96964244084E+02  0.00000000000E+00 0. -1.
</event>
<event>
 4    1  0.5843276E+002  0.2091194E+02  0.7546771E-02  0.1520526E+00
          2   -1    0    0  503    0  0.00000000000E+00  0.00000000000E+00  0.64792375117E+03  0.64792375117E+03  0.00000000000E+00 0. -1.
         -2   -1    0    0    0  501 -0.00000000000E+00 -0.00000000000E+00 -0.33516846820E+01  0.33516846820E+01  0.00000000000E+00 0.  1.
         21    1    1    2  502  501 -0.13650391442E+02 -0.15842227094E+02  0.31276887260E+02  0.37623835829E+02  0.00000000000E+00 0.  1.
         21    1    1    2  503  502  0.13650391442E+02  0.15842227094E+02  0.61329517922E+03  0.61365160002E+03  0.00000000000E+00 0. -1.
</event>
<event>
 4    1  0.5843276E+002  0.2071478E+02  0.7546771E-02  0.1523376E+00
          2   -1    0    0  503    0  0.00000000000E+00  0.00000000000E+00  0.70962162255E+03  0.70962162255E+03  0.00000000000E+00 0.  1.
         -2   -1    0    0    0  501 -0.00000000000E+00 -0.00000000000E+00 -0.92801066299E+00  0.92801066299E+00  0.00000000000E+00 0. -1.
         21    1    1    2  502  501 -0.20200558786E+02 -0.45868824696E+01  0.14464423459E+03  0.14612000776E+03  0.00000000000E+00 0. -1.
         21    1    1    2  503  502  0.20200558786E+02  0.45868824696E+01  0.56404937730E+03  0.56442962546E+03  0.00000000000E+00 0.  1.
</event>
<event>
 4    1  0.5843276E+002  0.2135818E+02  0.7546771E-02  0.1514212E+00
          2   -1    0    0  502    0  0.00000000000E+00  0.00000000000E+00  0.17842016287E+04  0.17842016287E+04  0.00000000000E+00 0. -1.
         -2   -1    0    0    0  501 -0.00000000000E+00 -0.00000000000E+00 -0.29127415822E+00  0.29127415822E+00  0.00000000000E+00 0.  1.
         21    1    1    2  502  503  0.18136886199E+02  0.11279410004E+02  0.12038925861E+04  0.12040820281E+04  0.00000000000E+00 0. -1.
         21    1    1    2  503  501 -0.18136886199E+02 -0.11279410004E+02  0.58001776846E+03  0.58041087469E+03  0.00000000000E+00 0.  1.
</event>
<event>
 4    1  0.5843276E+002  0.2063845E+02  0.7546771E-02  0.1524490E+00
          2   -1    0    0  503    0  0.00000000000E+00  0.00000000000E+00  0.21143357875E+03  0.21143357875E+03  0.00000000000E+00 0. -1.
         -2   -1    0    0    0  501 -0.00000000000E+00 -0.00000000000E+00 -0.39414556883E+01  0.39414556883E+01  0.00000000000E+00 0.  1.
         21    1    1    2  502  501  0.20484940830E+02  0.25125558257E+01  0.28451070590E+02  0.35148387663E+02  0.00000000000E+00 0.  1.
         21    1    1    2  503  502 -0.20484940830E+02 -0.25125558257E+01  0.17904105247E+03  0.18022664677E+03  0.00000000000E+00 0. -1.
</event>
<event>
 4    1  0.5843276E+002  0.2437511E+02  0.7546771E-02  0.1475917E+00
          2   -1    0    0  503    0  0.00000000000E+00  0.00000000000E+00  0.31893691839E+02  0.31893691839E+02  0.00000000000E+00 0. -1.
         -2   -1    0    0    0  501 -0.00000000000E+00 -0.00000000000E+00 -0.22186134911E+02  0.22186134911E+02  0.00000000000E+00 0.  1.
         21    1    1    2  502  501  0.70246300357E+01  0.23340962634E+02  0.15681017954E+02  0.28983448516E+02  0.00000000000E+00 0. -1.
         21    1    1    2  503  502 -0.70246300357E+01 -0.23340962634E+02 -0.59734610261E+01  0.25096378234E+02  0.00000000000E+00 0.  1.
</event>
<event>
 4    1  0.5843276E+002  0.2010643E+02  0.7546771E-02  0.1532415E+00
          2   -1    0    0  503    0  0.00000000000E+00  0.00000000000E+00  0.47273797104E+01  0.47273797104E+01  0.00000000000E+00 0.  1.
         -2   -1    0    0    0  501 -0.00000000000E+00 -0.00000000000E+00 -0.20381083354E+03  0.20381083354E+03  0.00000000000E+00 0. -1.
         21    1    1    2  502  501 -0.15796612754E+02 -0.12439276343E+02 -0.17897896663E+03  0.18010480023E+03  0.00000000000E+00 0. -1.
         21    1    1    2  503  502  0.15796612754E+02  0.12439276343E+02 -0.20104487203E+02  0.28433413023E+02  0.00000000000E+00 0.  1.
</event>
<event>
 4    1  0.5843276E+002  0.2046772E+02  0.7546771E-02  0.1527002E+00
          2   -1    0    0  502    0  0.00000000000E+00  0.00000000000E+00  0.21688201717E+03  0.21688201717E+03  0.00000000000E+00 0. -1.
         -2   -1    0    0    0  501 -0.00000000000E+00 -0.00000000000E+00 -0.61205926336E+01  0.61205926336E+01  0.00000000000E+00 0.  1.
         21    1    1    2  502  503 -0.17834308507E+02 -0.10043156332E+02  0.19762477664E+03  0.19868185597E+03  0.00000000000E+00 0. -1.
         21    1    1    2  503  501  0.17834308507E+02  0.10043156332E+02  0.13136647891E+02  0.24320753830E+02  0.00000000000E+00 0.  1.
</event>
<event>
 4    1  0.5843276E+002  0.6540628E+02  0.7546771E-02  0.1242493E+00
          2   -1    0    0  502    0  0.00000000000E+00  0.00000000000E+00  0.45555943930E+03  0.45555943930E+03  0.00000000000E+00 0.  1.
         -2   -1    0    0    0  501 -0.00000000000E+00 -0.00000000000E+00 -0.28041410124E+02  0.28041410124E+02  0.00000000000E+00 0. -1.
         21    1    1    2  502  503  0.58926998983E+02  0.28382922597E+02  0.41095853592E+03  0.41613086853E+03  0.00000000000E+00 0.  1.
         21    1    1    2  503  501 -0.58926998983E+02 -0.28382922597E+02  0.16559493259E+02  0.67469980890E+02  0.00000000000E+00 0. -1.
</event>
<event>
 4    1  0.5843276E+002  0.3519704E+02  0.7546771E-02  0.1379183E+00
          2   -1    0    0  503    0  0.00000000000E+00  0.00000000000E+00  0.80066003673E+02  0.80066003673E+02  0.00000000000E+00 0. -1.
         -2   -1    0    0    0  501 -0.00000000000E+00 -0.00000000000E+00 -0.24419412106E+02  0.24419412106E+02  0.00000000000E+00 0.  1.
         21    1    1    2  502  501  0.42773540399E+01 -0.34936172332E+02 -0.37988570739E+01  0.35401457736E+02  0.00000000000E+00 0. -1.
         21    1    1    2  503  502 -0.42773540399E+01  0.34936172332E+02  0.59445448640E+02  0.69083958043E+02  0.00000000000E+00 0.  1.
</event>
<event>
 4    1  0.5843276E+002  0.2023501E+02  0.7546771E-02  0.1530473E+00
          2   -1    0    0  503    0  0.00000000000E+00  0.00000000000E+00  0.16367215581E+03  0.16367215581E+03  0.00000000000E+00 0. -1.
         -2   -1    0    0    0  501 -0.00000000000E+00 -0.00000000000E+00 -0.52715873767E+01  0.52715873767E+01  0.00000000000E+00 0.  1.
         21    1    1    2  502  501  0.20156558290E+02 -0.17801170212E+01  0.17968926163E+02  0.27061743591E+02  0.00000000000E+00 0.  1.
         21    1    1    2  503  502 -0.20156558290E+02  0.17801170212E+01  0.14043164227E+03  0.14188199960E+03  0.00000000000E+00 0. -1.
</event>
<event>
 4    1  0.5843276E+002  0.2097593E+02  0.7546771E-02  0.1519609E+00
          2   -1    0    0  503    0  0.00000000000E+00  0.00000000000E+00  0.62598793714E+03  0.62598793714E+03  0.00000000000E+00 0.  1.
         -2   -1    0    0    0  501 -0.00000000000E+00 -0.00000000000E+00 -0.88360075593E+00  0.88360075593E+00  0.00000000000E+00 0. -1.
         21    1    1    2  502  501 -0.20677224636E+02  0.35273319105E+01  0.17079873738E+03  0.17208195251E+03  0.00000000000E+00 0. -1.
         21    1    1    2  503  502  0.20677224636E+02 -0.35273319105E+01  0.45430559900E+03  0.45478958538E+03  0.00000000000E+00 0.  1.
</event>
<event>
 4    1  0.5843276E+002  0.3864152E+02  0.7546771E-02  0.1356636E+00
          2   -1    0    0  503    0  0.00000000000E+00  0.00000000000E+00  0.12540276847E+04  0.12540276847E+04  0.00000000000E+00 0.  1.
         -2   -1    0    0    0  501 -0.00000000000E+00 -0.00000000000E+00 -0.23271977668E+01  0.23271977668E+01  0.00000000000E+00 0. -1.
         21    1    1    2  502  501  0.17625903544E+01 -0.38601301859E+02  0.18686439287E+03  0.19081789369E+03  0.00000000000E+00 0. -1.
         21    1    1    2  503  502 -0.17625903544E+01  0.38601301859E+02  0.10648360940E+04  0.10655369888E+04  0.00000000000E+00 0.  1.
</event>
<event>
 4    1  0.5843276E+002  0.3282849E+02  0.7546771E-02  0.1396508E+00
          2   -1    0    0  502    0  0.00000000000E+00  0.00000000000E+00  0.56587310797E+03  0.56587310797E+03  0.00000000000E+00 0. -1.
         -2   -1    0    0    0  501 -0.00000000000E+00 -0.00000000000E+00 -0.20842992668E+01  0.20842992668E+01  0.00000000000E+00 0.  1.
         21    1    1    2  502  503  0.23643117428E+01 -0.32743240994E+02  0.36529903422E+03  0.36677117417E+03  0.00000000000E+00 0. -1.
         21    1    1    2  503  501 -0.23643117428E+01  0.32743240994E+02  0.19848977449E+03  0.20118623307E+03  0.00000000000E+00 0.  1.
</event>
<event>
 4    1  0.5843276E+002  0.5865615E+02  0.7546771E-02  0.1264468E+00
          2   -1    0    0  503    0  0.00000000000E+00  0.00000000000E+00  0.26044864255E+02  0.26044864255E+02  0.00000000000E+00 0.  1.
         -2   -1    0    0    0  501 -0.00000000000E+00 -0.00000000000E+00 -0.22148493445E+03  0.22148493445E+03  0.00000000000E+00 0. -1.
         21    1    1    2  502  501  0.50678289894E+01  0.58436811234E+02 -0.17634418333E+03  0.18584352233E+03  0.00000000000E+00 0. -1.
         21    1    1    2  503  502 -0.50678289894E+01 -0.58436811234E+02 -0.19095886866E+02  0.61686276375E+02  0.00000000000E+00 0.  1.
</event>
<event>
 4    1  0.5843276E+002  0.2030842E+02  0.7546771E-02  0.1529372E+00
          2   -1    0    0  502    0  0.00000000000E+00  0.00000000000E+00  0.68995956372E+03  0.68995956372E+03  0.00000000000E+00 0.  1.
         -2   -1    0    0    0  501 -0.00000000000E+00 -0.00000000000E+00 -0.68291062906E+00  0.68291062906E+00  0.00000000000E+00 0. -1.
         21    1    1    2  502  503 -0.20305439911E+02  0.34790665383E+00  0.46657349939E+03  0.46701526984E+03  0.00000000000E+00 0.  1.
         21    1    1    2  503  501  0.20305439911E+02 -0.34790665383E+00  0.22270315371E+03  0.22362720452E+03  0.00000000000E+00 0. -1.
</event>
<event>
 4    1  0.5843276E+002  0.2651699E+02  0.7546771E-02  0.1452521E+00
          2   -1    0    0  503    0  0.00000000000E+00  0.00000000000E+00  0.89110373102E+03  0.89110373102E+03  0.00000000000E+00 0. -1.
         -2   -1    0    0    0  501 -0.00000000000E+00 -0.00000000000E+00 -0.89599389930E+00  0.89599389930E+00  0.00000000000E+00 0.  1.
         21    1    1    2  502  501 -0.13862630017E+02  0.22604832251E+02  0.59916815349E+03  0.59975463908E+03  0.00000000000E+00 0. -1.
         21    1    1    2  503  502  0.13862630017E+02 -0.22604832251E+02  0.29103958364E+03  0.29224508584E+03  0.00000000000E+00 0.  1.
</event>
<event>
 4    1  0.5843276E+002  0.2935760E+02  0.7546771E-02  0.1425262E+00
          2   -1    0    0  502    0  0.00000000000E+00  0.00000000000E+00  0.23818770387E+04  0.23818770387E+04  0.00000000000E+00 0. -1.
         -2   -1    0    0    0  501 -0.00000000000E+00 -0.00000000000E+00 -0.44199651276E+00  0.44199651276E+00  0.00000000000E+00 0.  1.
         21    1    1    2  502  503 -0.88533197411E+01 -0.27990848184E+02  0.16979627941E+04  0.16982165701E+04  0.00000000000E+00 0. -1.
         21    1    1    2  503  501  0.88533197411E+01  0.27990848184E+02  0.68347224806E+03  0.68410246507E+03  0.00000000000E+00 0.  1.
</event>
<event>
 4    1  0.5843276E+002  0.2896108E+02  0.7546771E-02  0.1428845E+00
          2   -1    0    0  503    0  0.00000000000E+00  0.00000000000E+00  0.59989338005E+03  0.59989338005E+03  0.00000000000E+00 0.  1.
         -2   -1    0    0    0  501 -0.00000000000E+00 -0.00000000000E+00 -0.72688767885E+01  0.72688767885E+01  0.00000000000E+00 0. -1.
         21    1    1    2  502  501 -0.10403353155E+02 -0.27028024749E+02  0.23485551497E+02  0.37286928109E+02  0.00000000000E+00 0. -1.
         21    1    1    2  503  502  0.10403353155E+02  0.27028024749E+02  0.56913895177E+03  0.56987532873E+03  0.00000000000E+00 0.  1.
</event>
<event>
 4    1  0.5843276E+002  0.2786638E+02  0.7546771E-02  0.1439094E+00
          2   -1    0    0  503    0  0.00000000000E+00  0.00000000000E+00  0.14398309670E+04  0.14398309670E+04  0.00000000000E+00 0.  1.
         -2   -1    0    0    0  501 -0.00000000000E+00 -0.00000000000E+00 -0.33844344076E+01  0.33844344076E+01  0.00000000000E+00 0. -1.
         21    1    1    2  502  501 -0.14776375069E+02 -0.23626129519E+02  0.56604708992E+02  0.63092220886E+02  0.00000000000E+00 0. -1.
         21    1    1    2  503  502  0.14776375069E+02  0.23626129519E+02  0.13798418236E+04  0.13801231805E+04  0.00000000000E+00 0.  1.
</event>
<event>
 4    1  0.5843276E+002  0.2078065E+02  0.7546771E-02  0.1522420E+00
          2   -1    0    0  502    0  0.00000000000E+00  0.00000000000E+00  0.80803849111E+02  0.80803849111E+02  0.00000000000E+00 0. -1.
         -2   -1    0    0    0  501 -0.00000000000E+00 -0.00000000000E+00 -0.99793102286E+01  0.99793102286E+01  0.00000000000E+00 0.  1.
         21    1    1    2  502  503 -0.14239580067E+02  0.15135053384E+02  0.66347475235E+02  0.69525699936E+02  0.00000000000E+00 0. -1.
         21    1    1    2  503  501  0.14239580067E+02 -0.15135053384E+02  0.44770636476E+01  0.21257459404E+02  0.00000000000E+00 0.  1.
</event>
<event>
 4    1  0.5843276E+002  0.2719647E+02  0.7546771E-02  0.1445644E+00
          2   -1    0    0  503    0  0.00000000000E+00  0.00000000000E+00  0.62024229942E+01  0.62024229942E+01  0.00000000000E+00 0. -1.
         -2   -1    0    0    0  501 -0.00000000000E+00 -0.00000000000E+00 -0.23134501670E+03  0.23134501670E+03  0.00000000000E+00 0.  1.
         21    1    1    2  502  501  0.21140526913E+02  0.17109234744E+02 -0.19524752838E+03  0.19713255726E+03  0.00000000000E+00 0.  1.
         21    1    1    2  503  502 -0.21140526913E+02 -0.17109234744E+02 -0.29895065325E+02  0.40414882438E+02  0.00000000000E+00 0. -1.
</event>
<event>
 4    1  0.5843276E+002  0.2253158E+02  0.7546771E-02  0.1498465E+00
          2   -1    0    0  502    0  0.00000000000E+00  0.00000000000E+00  0.33287182597E+02  0.33287182597E+02  0.00000000000E+00 0.  1.
         -2   -1    0    0    0  501 -0.00000000000E+00 -0.00000000000E+00 -0.58073337324E+02  0.58073337324E+02  0.00000000000E+00 0. -1.
         21    1    1    2  502  503  0.13914546252E+02 -0.17721666394E+02  0.26832916107E+02  0.35038228322E+02  0.00000000000E+00 0.  1.
         21    1    1    2  503  501 -0.13914546252E+02  0.17721666394E+02 -0.51619070833E+02  0.56322291598E+02  0.00000000000E+00 0. -1.
</event>
<event>
 4    1  0.5843276E+002  0.2336628E+02  0.7546771E-02  0.1487949E+00
          2   -1    0    0  502    0  0.00000000000E+00  0.00000000000E+00  0.63750638705E+03  0.63750638705E+03  0.00000000000E+00 0. -1.
         -2   -1    0    0    0  501 -0.00000000000E+00 -0.00000000000E+00 -0.91298514924E+00  0.91298514924E+00  0.00000000000E+00 0.  1.
         21    1    1    2  502  503 -0.56396259644E+01  0.22675485124E+02  0.39774045035E+03  0.39842621506E+03  0.00000000000E+00 0. -1.
         21    1    1    2  503  501  0.56396259644E+01 -0.22675485124E+02  0.23885295155E+03  0.23999315713E+03  0.00000000000E+00 0.  1.
</event>
<event>
 4    1  0.5843276E+002  0.2170076E+02  0.7546771E-02  0.1509491E+00
          2   -1    0    0  503    0  0.00000000000E+00  0.00000000000E+00  0.55837397843E+01  0.55837397843E+01  0.00000000000E+00 0. -1.
         -2   -1    0    0    0  501 -0.00000000000E+00 -0.00000000000E+00 -0.95906364062E+02  0.95906364062E+02  0.00000000000E+00 0.  1.
         21    1    1    2  502  501  0.90698777391E+01 -0.19714468354E+02 -0.27537456639E+02  0.35060440140E+02  0.00000000000E+00 0.  1.
         21    1    1    2  503  502 -0.90698777391E+01  0.19714468354E+02 -0.62785167638E+02  0.66429663706E+02  0.00000000000E+00 0. -1.
</event>
<event>
 4    1  0.5843276E+002  0.2545237E+02  0.7546771E-02  0.1463806E+00
          2   -1    0    0  503    0  0.00000000000E+00  0.00000000000E+00  0.28616934917E+02  0.28616934917E+02  0.00000000000E+00 0. -1.
         -2   -1    0    0    0  501 -0.00000000000E+00 -0.00000000000E+00 -0.25370352985E+02  0.25370352985E+02  0.00000000000E+00 0.  1.
         21    1    1    2  502  501 -0.76565161144E+01  0.24273458396E+02 -0.72357461440E+01  0.26460896504E+02  0.00000000000E+00 0.  1.
         21    1    1    2  503  502  0.76565161144E+01 -0.24273458396E+02  0.10482328076E+02  0.27526391398E+02  0.00000000000E+00 0. -1.
</event>
<event>
 4    1  0.5843276E+002  0.2684311E+02  0.7546771E-02  0.1449190E+00
          2   -1    0    0  503    0  0.00000000000E+00  0.00000000000E+00  0.29629861652E+03  0.29629861652E+03  0.00000000000E+00 0.  1.
         -2   -1    0    0    0  501 -0.00000000000E+00 -0.00000000000E+00 -0.81022929295E+01  0.81022929295E+01  0.00000000000E+00 0. -1.
         21    1    1    2  502  501  0.14974029921E+00 -0.26842695639E+02  0.16771131928E+02  0.31651597076E+02  0.00000000000E+00 0. -1.
         21    1    1    2  503  502 -0.14974029921E+00  0.26842695639E+02  0.27142519167E+03  0.27274931238E+03  0.00000000000E+00 0.  1.
</event>
<event>
 4    1  0.5843276E+002  0.2200322E+02  0.7546771E-02  0.1505409E+00
          2   -1    0    0  503    0  0.00000000000E+00  0.00000000000E+00  0.18546862662E+03  0.18546862662E+03  0.00000000000E+00 0. -1.
         -2   -1    0    0    0  501 -0.00000000000E+00 -0.00000000000E+00 -0.26106634349E+01  0.26106634349E+01  0.00000000000E+00 0.  1.
         21    1    1    2  502  501 -0.99138996621E+01 -0.19643225907E+02  0.92426049109E+02  0.95009032647E+02  0.00000000000E+00 0. -1.
         21    1    1    2  503  502  0.99138996621E+01  0.19643225907E+02  0.90431914075E+02  0.93070257408E+02  0.00000000000E+00 0.  1.
</event>
<event>
 4    1  0.5843276E+002  0.2442819E+02  0.7546771E-02  0.1475303E+00
          2   -1    0    0  503    0  0.00000000000E+00  0.00000000000E+00  0.48394557119E+03  0.48394557119E+03  0.00000000000E+00 0. -1.
         -2   -1    0    0    0  501 -0.00000000000E+00 -0.00000000000E+00 -0.15826346186E+01  0.15826346186E+01  0.00000000000E+00 0.  1.
         21    1    1    2  502  501 -0.19397194169E+02 -0.14848751882E+02  0.35527491111E+03  0.35611374453E+03  0.00000000000E+00 0. -1.
         21    1    1    2  503  502  0.19397194169E+02  0.14848751882E+02  0.12708802546E+03  0.12941446129E+03  0.00000000000E+00 0.  1.
</event>
<event>
 4    1  0.5843276E+002  0.2017119E+02  0.7546771E-02  0.1531435E+00
          2   -1    0    0  503    0  0.00000000000E+00  0.00000000000E+00  0.13431636354E+03  0.13431636354E+03  0.00000000000E+00 0.  1.
         -2   -1    0    0    0  501 -0.00000000000E+00 -0.00000000000E+00 -0.95313388620E+01  0.95313388620E+01  0.00000000000E+00 0. -1.
         21    1    1    2  502  501 -0.32395166012E+01  0.19909352676E+02  0.29875546590E+01  0.20391230337E+02  0.00000000000E+00 0. -1.
         21    1    1    2  503  502  0.32395166012E+01 -0.19909352676E+02  0.12179747002E+03  0.12345647206E+03  0.00000000000E+00 0.  1.
</event>
<event>
 4    1  0.5843276E+002  0.2614059E+02  0.7546771E-02  0.1456437E+00
          2   -1    0    0  503    0  0.00000000000E+00  0.00000000000E+00  0.29204783085E+01  0.29204783085E+01  0.00000000000E+00 0. -1.
         -2   -1    0    0    0  501 -0.00000000000E+00 -0.00000000000E+00 -0.38874877154E+03  0.38874877154E+03  0.00000000000E+00 0.  1.
         21    1    1    2  502  501 -0.25520882670E+02  0.56581637471E+01 -0.31647992024E+03  0.31755766435E+03  0.00000000000E+00 0.  1.
         21    1    1    2  503  502  0.25520882670E+02 -0.56581637471E+01 -0.69348372989E+02  0.74111585501E+02  0.00000000000E+00 0. -1.
</event>
<event>
 4    1  0.5843276E+002  0.2101766E+02  0.7546771E-02  0.1519013E+00
          2   -1    0    0  503    0  0.00000000000E+00  0.00000000000E+00  0.14771993740E+04  0.14771993740E+04  0.00000000000E+00 0.  1.
         -2   -1    0    0    0  501 -0.00000000000E+00 -0.00000000000E+00 -0.38310494682E+00  0.38310494682E+00  0.00000000000E+00 0. -1.
         21    1    1    2  502  501 -0.17758807390E+02 -0.11241303152E+02  0.39233366131E+03  0.39289622540E+03  0.00000000000E+00 0. -1.
         21    1    1    2  503  502  0.17758807390E+02  0.11241303152E+02  0.10844826077E+04  0.10846862535E+04  0.00000000000E+00 0.  1.
</event>
<event>
 4    1  0.5843276E+002  0.4663050E+02  0.7546771E-02  0.1313482E+00
          2   -1    0    0  503    0  0.00000000000E+00  0.00000000000E+00  0.25430741361E+04  0.25430741361E+04  0.00000000000E+00 0. -1.
         -2   -1    0    0    0  501 -0.00000000000E+00 -0.00000000000E+00 -0.89087170857E+00  0.89087170857E+00  0.00000000000E+00 0.  1.
         21    1    1    2  502  501  0.30398448289E+02  0.35360115606E+02  0.10159561441E+04  0.10170257077E+04  0.00000000000E+00 0.  1.
         21    1    1    2  503  502 -0.30398448289E+02 -0.35360115606E+02  0.15262271204E+04  0.15269393002E+04  0.00000000000E+00 0. -1.
</event>
<event>
 4    1  0.5843276E+002  0.2414629E+02  0.7546771E-02  0.1478585E+00
          2   -1    0    0  503    0  0.00000000000E+00  0.00000000000E+00  0.13659509325E+04  0.13659509325E+04  0.00000000000E+00 0.  1.
         -2   -1    0    0    0  501 -0.00000000000E+00 -0.00000000000E+00 -0.43633310217E+00  0.43633310217E+00  0.00000000000E+00 0. -1.
         21    1    1    2  502  501 -0.12337843994E+02 -0.20756221833E+02  0.78352655190E+03  0.78389852703E+03  0.00000000000E+00 0.  1.
         21    1    1    2  503  502  0.12337843994E+02  0.20756221833E+02  0.58198804746E+03  0.58248873854E+03  0.00000000000E+00 0. -1.
</event>
<event>
 4    1  0.5843276E+002  0.2531721E+02  0.7546771E-02  0.1465286E+00
          2   -1    0    0  502    0  0.00000000000E+00  0.00000000000E+00  0.21041357659E+04  0.21041357659E+04  0.00000000000E+00 0.  1.
         -2   -1    0    0    0  501 -0.00000000000E+00 -0.00000000000E+00 -0.41034550609E+00  0.41034550609E+00  0.00000000000E+00 0. -1.
         21    1    1    2  502  503  0.25263469768E+02 -0.16486675059E+01  0.15859894293E+04  0.15861914862E+04  0.00000000000E+00 0. -1.
         21    1    1    2  503  501 -0.25263469768E+02  0.16486675059E+01  0.51773599112E+03  0.51835462525E+03  0.00000000000E+00 0.  1.
</event>
<event>
 4    1  0.5843276E+002  0.2364824E+02  0.7546771E-02  0.1484515E+00
          2   -1    0    0  503    0  0.00000000000E+00  0.00000000000E+00  0.64617565450E+03  0.64617565450E+03  0.00000000000E+00 0.  1.
         -2   -1    0    0    0  501 -0.00000000000E+00 -0.00000000000E+00 -0.12834105856E+01  0.12834105856E+01  0.00000000000E+00 0. -1.
         21    1    1    2  502  501 -0.82209917128E+01 -0.22173281275E+02  0.13770565343E+03  0.13972145896E+03  0.00000000000E+00 0. -1.
         21    1    1    2  503  502  0.82209917128E+01  0.22173281275E+02  0.50718659048E+03  0.50773760612E+03  0.00000000000E+00 0.  1.
</event>
<event>
 4    1  0.5843276E+002  0.2652348E+02  0.7546771E-02  0.1452454E+00
          2   -1    0    0  502    0  0.00000000000E+00  0.00000000000E+00  0.54284954125E+03  0.54284954125E+03  0.00000000000E+00 0.  1.
         -2   -1    0    0    0  501 -0.00000000000E+00 -0.00000000000E+00 -0.22392601028E+01  0.22392601028E+01  0.00000000000E+00 0. -1.
         21    1    1    2  502  503 -0.26508717177E+02  0.88494429079E+00  0.44720062707E+03  0.44798649094E+03  0.00000000000E+00 0.  1.
         21    1    1    2  503  501  0.26508717177E+02 -0.88494429079E+00  0.93409654083E+02  0.97102310418E+02  0.00000000000E+00 0. -1.
</event>
<event>
 4    1  0.5843276E+002  0.2058900E+02  0.7546771E-02  0.1525215E+00
          2   -1    0    0  502    0  0.00000000000E+00  0.00000000000E+00  0.78035002895E+03  0.78035002895E+03  0.00000000000E+00 0. -1.
         -2   -1    0    0    0  501 -0.00000000000E+00 -0.00000000000E+00 -0.68863638934E+00  0.68863638934E+00  0.00000000000E+00 0.  1.
         21    1    1    2  502  503  0.91043917027E+01  0.18466642357E+02  0.21038026722E+03  0.21138534401E+03  0.00000000000E+00 0.  1.
         21    1    1    2  503  501 -0.91043917027E+01 -0.18466642357E+02  0.56928112534E+03  0.56965332133E+03  0.00000000000E+00 0. -1.
</event>
<event>
 4    1  0.5843276E+002  0.2295389E+02  0.7546771E-02  0.1493078E+00
          2   -1    0    0  503    0  0.00000000000E+00  0.00000000000E+00  0.29515319584E+02  0.29515319584E+02  0.00000000000E+00 0. -1.
         -2   -1    0    0    0  501 -0.00000000000E+00 -0.00000000000E+00 -0.57225050160E+02  0.57225050160E+02  0.00000000000E+00 0.  1.
         21    1    1    2  502  501  0.10217391607E+02  0.20554465758E+02 -0.49830016874E+02  0.54862662491E+02  0.00000000000E+00 0.  1.
         21    1    1    2  503  502 -0.10217391607E+02 -0.20554465758E+02  0.22120286297E+02  0.31877707253E+02  0.00000000000E+00 0. -1.
</event>
<event>
 4    1  0.5843276E+002  0.6393868E+02  0.7546771E-02  0.1247007E+00
          2   -1    0    0  503    0  0.00000000000E+00  0.00000000000E+00  0.24179644059E+04  0.24179644059E+04  0.00000000000E+00 0.  1.
         -2   -1    0    0    0  501 -0.00000000000E+00 -0.00000000000E+00 -0.22052352340E+01  0.22052352340E+01  0.00000000000E+00 0. -1.
         21    1    1    2  502  501 -0.20428648008E+02 -0.60587338434E+02  0.62338840093E+03  0.62665880162E+03  0.00000000000E+00 0. -1.
         21    1    1    2  503  502  0.20428648008E+02  0.60587338434E+02  0.17923707698E+04  0.17935108396E+04  0.00000000000E+00 0.  1.
</event>
<event>
 4    1  0.5843276E+002  0.2537046E+02  0.7546771E-02  0.1464701E+00
          2   -1    0    0  503    0  0.00000000000E+00  0.00000000000E+00  0.31718674390E+01  0.31718674390E+01  0.00000000000E+00 0. -1.
         -2   -1    0    0    0  501 -0.00000000000E+00 -0.00000000000E+00 -0.38248839842E+03  0.38248839842E+03  0.00000000000E+00 0.  1.
         21    1    1    2  502  501  0.82106065125E+01  0.24005126434E+02 -0.32177908579E+03  0.32277769472E+03  0.00000000000E+00 0.  1.
         21    1    1    2  503  502 -0.82106065125E+01 -0.24005126434E+02 -0.57537445191E+02  0.62882571143E+02  0.00000000000E+00 0. -1.
</event>
<event>
 4    1  0.5843276E+002  0.2560414E+02  0.7546771E-02  0.1462157E+00
          2   -1    0    0  503    0  0.00000000000E+00  0.00000000000E+00  0.41353498264E+03  0.41353498264E+03  0.00000000000E+00 0.  1.
         -2   -1    0    0    0  501 -0.00000000000E+00 -0.00000000000E+00 -0.29367571962E+01  0.29367571962E+01  0.00000000000E+00 0. -1.
         21    1    1    2  502  501 -0.91826266959E+01 -0.23900868396E+02  0.64037370414E+02  0.68966346522E+02  0.00000000000E+00 0. -1.
         21    1    1    2  503  502  0.91826266959E+01  0.23900868396E+02  0.34656085503E+03  0.34750539331E+03  0.00000000000E+00 0.  1.
</event>
<event>
 4    1  0.5843276E+002  0.4983325E+02  0.7546771E-02  0.1298897E+00
          2   -1    0    0  503    0  0.00000000000E+00  0.00000000000E+00  0.46552281032E+02  0.46552281032E+02  0.00000000000E+00 0.  1.
         -2   -1    0    0    0  501 -0.00000000000E+00 -0.00000000000E+00 -0.86129647117E+02  0.86129647117E+02  0.00000000000E+00 0. -1.
         21    1    1    2  502  501 -0.35642991251E+02 -0.34827146151E+02 -0.60718296374E+02  0.78549757790E+02  0.00000000000E+00 0. -1.
         21    1    1    2  503  502  0.35642991251E+02  0.34827146151E+02  0.21140930288E+02  0.54132170359E+02  0.00000000000E+00 0.  1.
</event>
<event>
 4    1  0.5843276E+002  0.3767148E+02  0.7546771E-02  0.1362699E+00
          2   -1    0    0  502    0  0.00000000000E+00  0.00000000000E+00  0.23319461474E+04  0.23319461474E+04  0.00000000000E+00 0.  1.
         -2   -1    0    0    0  501 -0.00000000000E+00 -0.00000000000E+00 -0.24873168309E+01  0.24873168309E+01  0.00000000000E+00 0. -1.
         21    1    1    2  502  503  0.30416359119E+02 -0.22225789287E+02  0.21791561081E+04  0.21794817008E+04  0.00000000000E+00 0.  1.
         21    1    1    2  503  501 -0.30416359119E+02  0.22225789287E+02  0.15030272246E+03  0.15495176343E+03  0.00000000000E+00 0. -1.
</event>
<event>
 4    1  0.5843276E+002  0.2168505E+02  0.7546771E-02  0.1509705E+00
          2   -1    0    0  503    0  0.00000000000E+00  0.00000000000E+00  0.65247471590E+03  0.65247471590E+03  0.00000000000E+00 0. -1.
         -2   -1    0    0    0  501 -0.00000000000E+00 -0.00000000000E+00 -0.27118926291E+02  0.27118926291E+02  0.00000000000E+00 0.  1.
         21    1    1    2  502  501  0.21108641183E+02 -0.49665447944E+01 -0.22573354570E+02  0.31301719383E+02  0.00000000000E+00 0.  1.
         21    1    1    2  503  502 -0.21108641183E+02  0.49665447944E+01  0.64792914418E+03  0.64829192281E+03  0.00000000000E+00 0. -1.
</event>
<event>
 4    1  0.5843276E+002  0.2763504E+02  0.7546771E-02  0.1441331E+00
          2   -1    0    0  503    0  0.00000000000E+00  0.00000000000E+00  0.14940126994E+03  0.14940126994E+03  0.00000000000E+00 0. -1.
         -2   -1    0    0    0  501 -0.00000000000E+00 -0.00000000000E+00 -0.32003399463E+02  0.32003399463E+02  0.00000000000E+00 0.  1.
         21    1    1    2  502  501 -0.97733048918E+01  0.25849133421E+02 -0.24444793181E+02  0.36895028131E+02  0.00000000000E+00 0.  1.
         21    1    1    2  503  502  0.97733048918E+01 -0.25849133421E+02  0.14184266365E+03  0.14450964127E+03  0.00000000000E+00 0. -1.
</event>
<event>
 4    1  0.5843276E+002  0.3701570E+02  0.7546771E-02  0.1366921E+00
          2   -1    0    0  502    0  0.00000000000E+00  0.00000000000E+00  0.23597441944E+03  0.23597441944E+03  0.00000000000E+00 0. -1.
         -2   -1    0    0    0  501 -0.00000000000E+00 -0.00000000000E+00 -0.87965759072E+01  0.87965759072E+01  0.00000000000E+00 0.  1.
         21    1    1    2  502  503 -0.28270838094E+02 -0.23893974770E+02  0.18494342091E+03  0.18861132324E+03  0.00000000000E+00 0. -1.
         21    1    1    2  503  501  0.28270838094E+02  0.23893974770E+02  0.42234422625E+02  0.56159672108E+02  0.00000000000E+00 0.  1.
</event>
<event>
 4    1  0.5843276E+002  0.2392189E+02  0.7546771E-02  0.1481235E+00
          2   -1    0    0  503    0  0.00000000000E+00  0.00000000000E+00  0.10631944906E+04  0.10631944906E+04  0.00000000000E+00 0.  1.
         -2   -1    0    0    0  501 -0.00000000000E+00 -0.00000000000E+00 -0.28763531027E+01  0.28763531027E+01  0.00000000000E+00 0. -1.
         21    1    1    2  502  501  0.16879831614E+02  0.16950755327E+02  0.49577108289E+02  0.55046766370E+02  0.00000000000E+00 0. -1.
         21    1    1    2  503  502 -0.16879831614E+02 -0.16950755327E+02  0.10107410293E+04  0.10110240774E+04  0.00000000000E+00 0.  1.
</event>
<event>
 4    1  0.5843276E+002  0.5450060E+02  0.7546771E-02  0.1279756E+00
          2   -1    0    0  503    0  0.00000000000E+00  0.00000000000E+00  0.98711105261E+03  0.98711105261E+03  0.00000000000E+00 0.  1.
         -2   -1    0    0    0  501 -0.00000000000E+00 -0.00000000000E+00 -0.12226602254E+02  0.12226602254E+02  0.00000000000E+00 0. -1.
         21    1    1    2  502  501 -0.37791508012E+02 -0.39269808432E+02  0.53595834497E+02  0.76438402701E+02  0.00000000000E+00 0. -1.
         21    1    1    2  503  502  0.37791508012E+02  0.39269808432E+02  0.92128861586E+03  0.92289925216E+03  0.00000000000E+00 0.  1.
</event>
<event>
 4    1  0.5843276E+002  0.3184523E+02  0.7546771E-02  0.1404211E+00
          2   -1    0    0  502    0  0.00000000000E+00  0.00000000000E+00  0.20860963640E+03  0.20860963640E+03  0.00000000000E+00 0. -1.
         -2   -1    0    0    0  501 -0.00000000000E+00 -0.00000000000E+00 -0.49747226398E+01  0.49747226398E+01  0.00000000000E+00 0.  1.
         21    1    1    2  502  503 -0.23531805780E+02  0.21456306442E+02  0.11794096393E+03  0.12216460184E+03  0.00000000000E+00 0. -1.
         21    1    1    2  503  501  0.23531805780E+02 -0.21456306442E+02  0.85693949827E+02  0.91419757199E+02  0.00000000000E+00 0.  1.
</event>
<event>
 4    1  0.5843276E+002  0.2039589E+02  0.7546771E-02  0.1528067E+00
          2   -1    0    0  503    0  0.00000000000E+00  0.00000000000E+00  0.39240095349E+01  0.39240095349E+01  0.00000000000E+00 0. -1.
         -2   -1    0    0    0  501 -0.00000000000E+00 -0.00000000000E+00 -0.10736840271E+03  0.10736840271E+03  0.00000000000E+00 0.  1.
         21    1    1    2  502  501  0.29295707579E+00 -0.20393787167E+02 -0.57976518236E+02  0.61459491095E+02  0.00000000000E+00 0. -1.
         21    1    1    2  503  502 -0.29295707579E+00  0.20393787167E+02 -0.45467874940E+02  0.49832921151E+02  0.00000000000E+00 0.  1.
</event>
<event>
 4    1  0.5843276E+002  0.2762013E+02  0.7546771E-02  0.1441476E+00
          2   -1    0    0  502    0  0.00000000000E+00  0.00000000000E+00  0.24569793953E+04  0.24569793953E+04  0.00000000000E+00 0. -1.
         -2   -1    0    0    0  501 -0.00000000000E+00 -0.00000000000E+00 -0.46585747989E+00  0.46585747989E+00  0.00000000000E+00 0.  1.
         21    1    1    2  502  503 -0.25919734735E+02  0.95414197441E+01  0.19378430564E+04  0.19380398816E+04  0.00000000000E+00 0.  1.
         21    1    1    2  503  501  0.25919734735E+02 -0.95414197441E+01  0.51867048145E+03  0.51940537124E+03  0.00000000000E+00 0. -1.
</event>
<event>
 4    1  0.5843276E+002  0.2345808E+02  0.7546771E-02  0.1486825E+00
          2   -1    0    0  502    0  0.00000000000E+00  0.00000000000E+00  0.10938403963E+04  0.10938403963E+04  0.00000000000E+00 0.  1.
         -2   -1    0    0    0  501 -0.00000000000E+00 -0.00000000000E+00 -0.74118632835E+00  0.74118632835E+00  0.00000000000E+00 0. -1.
         21    1    1    2  502  503  0.16806351012E+02  0.16365456924E+02  0.85675279248E+03  0.85707387607E+03  0.00000000000E+00 0.  1.
         21    1    1    2  503  501 -0.16806351012E+02 -0.16365456924E+02  0.23634641745E+03  0.23750770652E+03  0.00000000000E+00 0. -1.
</event>
<event>
 4    1  0.5843276E+002  0.2377091E+02  0.7546771E-02  0.1483038E+00
          2   -1    0    0  502    0  0.00000000000E+00  0.00000000000E+00  0.98166839224E+02  0.98166839224E+02  0.00000000000E+00 0. -1.
         -2   -1    0    0    0  501 -0.00000000000E+00 -0.00000000000E+00 -0.58708207580E+01  0.58708207580E+01  0.00000000000E+00 0.  1.
         21    1    1    2  502  503  0.13085516968E+02  0.19845030503E+02  0.53420341091E+02  0.58470409886E+02  0.00000000000E+00 0. -1.
         21    1    1    2  503  501 -0.13085516968E+02 -0.19845030503E+02  0.38875677375E+02  0.45567250096E+02  0.00000000000E+00 0.  1.
</event>
<event>
 4    1  0.5843276E+002  0.2378630E+02  0.7546771E-02  0.1482854E+00
          2   -1    0    0  502    0  0.00000000000E+00  0.00000000000E+00  0.48103651489E+03  0.48103651489E+03  0.00000000000E+00 0.  1.
         -2   -1    0    0    0  501 -0.00000000000E+00 -0.00000000000E+00 -0.16058706187E+01  0.16058706187E+01  0.00000000000E+00 0. -1.
         21    1    1    2  502  503  0.22637427073E+02 -0.73030809693E+01  0.36454430310E+03  0.36531949991E+03  0.00000000000E+00 0.  1.
         21    1    1    2  503  501 -0.22637427073E+02  0.73030809693E+01  0.11488634117E+03  0.11732288560E+03  0.00000000000E+00 0. -1.
</event>
<event>
 4    1  0.5843276E+002  0.2245498E+02  0.7546771E-02  0.1499458E+00
          2   -1    0    0  502    0  0.00000000000E+00  0.00000000000E+00  0.61712752872E+02  0.61712752872E+02  0.00000000000E+00 0. -1.
         -2   -1    0    0    0  501 -0.00000000000E+00 -0.00000000000E+00 -0.83113720220E+01  0.83113720220E+01  0.00000000000E+00 0.  1.
         21    1    1    2  502  503  0.15299915599E+00 -0.22454457048E+02  0.22143012017E+02  0.31536312899E+02  0.00000000000E+00 0. -1.
         21    1    1    2  503  501 -0.15299915599E+00  0.22454457048E+02  0.31258368833E+02  0.38487811995E+02  0.00000000000E+00 0.  1.
</event>
<event>
 4    1  0.5843276E+002  0.1162246E+03  0.7546771E-02  0.1138328E+00
          2   -1    0    0  503    0  0.00000000000E+00  0.00000000000E+00  0.32334748400E+03  0.32334748400E+03  0.00000000000E+00 0.  1.
         -2   -1    0    0    0  501 -0.00000000000E+00 -0.00000000000E+00 -0.57223059644E+02  0.57223059644E+02  0.00000000000E+00 0. -1.
         21    1    1    2  502  501 -0.20218919188E+02  0.11445241323E+03  0.34197168563E+02  0.12115116972E+03  0.00000000000E+00 0. -1.
         21    1    1    2  503  502  0.20218919188E+02 -0.11445241323E+03  0.23192725580E+03  0.25941937393E+03  0.00000000000E+00 0.  1.
</event>
<event>
 4    1  0.5843276E+002  0.3735652E+02  0.7546771E-02  0.1364714E+00
          2   -1    0    0  502    0  0.00000000000E+00  0.00000000000E+00  0.11105283974E+04  0.11105283974E+04  0.00000000000E+00 0.  1.
         -2   -1    0    0    0  501 -0.00000000000E+00 -0.00000000000E+00 -0.41160041822E+01  0.41160041822E+01  0.00000000000E+00 0. -1.
         21    1    1    2  502  503 -0.34585657951E+02 -0.14118849167E+02  0.10177266805E+04  0.10184120512E+04  0.00000000000E+00 0.  1.
         21    1    1    2  503  501  0.34585657951E+02  0.14118849167E+02  0.88685712713E+02  0.96232350471E+02  0.00000000000E+00 0. -1.
</event>
<event>
 4    1  0.5843276E+002  0.2753564E+02  0.7546771E-02  0.1442300E+00
          2   -1    0    0  503    0  0.00000000000E+00  0.00000000000E+00  0.14619837276E+04  0.14619837276E+04  0.00000000000E+00 0. -1.
         -2   -1    0    0    0  501 -0.00000000000E+00 -0.00000000000E+00 -0.78523258163E+00  0.78523258163E+00  0.00000000000E+00 0.  1.
         21    1    1    2  502  501  0.23700095385E+02 -0.14018452542E+02  0.30442394349E+03  0.30566672848E+03  0.00000000000E+00 0.  1.
         21    1    1    2  503  502 -0.23700095385E+02  0.14018452542E+02  0.11567745516E+04  0.11571022317E+04  0.00000000000E+00 0. -1.
</event>
<event>
 4    1  0.5843276E+002  0.2920280E+02  0.7546771E-02  0.1426653E+00
          2   -1    0    0  502    0  0.00000000000E+00  0.00000000000E+00  0.23634630431E+03  0.23634630431E+03  0.00000000000E+00 0. -1.
         -2   -1    0    0    0  501 -0.00000000000E+00 -0.00000000000E+00 -0.11817800125E+02  0.11817800125E+02  0.00000000000E+00 0.  1.
         21    1    1    2  502  503  0.18052503660E+02  0.22954531841E+02  0.21568306736E+03  0.21765107159E+03  0.00000000000E+00 0. -1.
         21    1    1    2  503  501 -0.18052503660E+02 -0.22954531841E+02  0.88454368220E+01  0.30513032838E+02  0.00000000000E+00 0.  1.
</event>
<event>
 4    1  0.5843276E+002  0.3163864E+02  0.7546771E-02  0.1405872E+00
          2   -1    0    0  502    0  0.00000000000E+00  0.00000000000E+00  0.12065637915E+02  0.12065637915E+02  0.00000000000E+00 0. -1.
         -2   -1    0    0    0  501 -0.00000000000E+00 -0.00000000000E+00 -0.90796612877E+02  0.90796612877E+02  0.00000000000E+00 0.  1.
         21    1    1    2  502  503  0.31455192068E+02 -0.34021271420E+01 -0.54472115193E+02  0.62993768824E+02  0.00000000000E+00 0.  1.
         21    1    1    2  503  501 -0.31455192068E+02  0.34021271420E+01 -0.24258859769E+02  0.39868481968E+02  0.00000000000E+00 0. -1.
</event>
<event>
 4    1  0.5843276E+002  0.2318908E+02  0.7546771E-02  0.1490137E+00
          2   -1    0    0  503    0  0.00000000000E+00  0.00000000000E+00  0.20489422590E+04  0.20489422590E+04  0.00000000000E+00 0. -1.
         -2   -1    0    0    0  501 -0.00000000000E+00 -0.00000000000E+00 -0.35928372579E+00  0.35928372579E+00  0.00000000000E+00 0.  1.
         21    1    1    2  502  501  0.12640688572E+02 -0.19440844732E+02  0.49232662821E+03  0.49287244018E+03  0.00000000000E+00 0.  1.
         21    1    1    2  503  502 -0.12640688572E+02  0.19440844732E+02  0.15562563470E+04  0.15564291025E+04  0.00000000000E+00 0. -1.
</event>
<event>
 4    1  0.5843276E+002  0.2202013E+02  0.7546771E-02  0.1505183E+00
          2   -1    0    0  502    0  0.00000000000E+00  0.00000000000E+00  0.12520815882E+01  0.12520815882E+01  0.00000000000E+00 0. -1.
         -2   -1    0    0    0  501 -0.00000000000E+00 -0.00000000000E+00 -0.39287804182E+03  0.39287804182E+03  0.00000000000E+00 0.  1.
         21    1    1    2  502  503 -0.20280806320E+02 -0.85775967851E+01 -0.17225630337E+03  0.17365805573E+03  0.00000000000E+00 0. -1.
         21    1    1    2  503  501  0.20280806320E+02  0.85775967851E+01 -0.21936965686E+03  0.22047206767E+03  0.00000000000E+00 0.  1.
</event>
<event>
 4    1  0.5843276E+002  0.2523986E+02  0.7546771E-02  0.1466138E+00
          2   -1    0    0  503    0  0.00000000000E+00  0.00000000000E+00  0.27892613335E+02  0.27892613335E+02  0.00000000000E+00 0.  1.
         -2   -1    0    0    0  501 -0.00000000000E+00 -0.00000000000E+00 -0.74604607384E+02  0.74604607384E+02  0.00000000000E+00 0. -1.
         21    1    1    2  502  501 -0.15000563232E+02 -0.20298615428E+02 -0.66045217876E+02  0.70703758668E+02  0.00000000000E+00 0. -1.
         21    1    1    2  503  502  0.15000563232E+02  0.20298615428E+02  0.19333223827E+02  0.31793462050E+02  0.00000000000E+00 0.  1.
</event>
<event>
 4    1  0.5843276E+002  0.2041653E+02  0.7546771E-02  0.1527761E+00
          2   -1    0    0  502    0  0.00000000000E+00  0.00000000000E+00  0.94578559225E+02  0.94578559225E+02  0.00000000000E+00 0. -1.
         -2   -1    0    0    0  501 -0.00000000000E+00 -0.00000000000E+00 -0.64279220598E+01  0.64279220598E+01  0.00000000000E+00 0.  1.
         21    1    1    2  502  503  0.17016799934E+01 -0.20345491833E+02  0.72391064265E+02  0.75215031331E+02  0.00000000000E+00 0. -1.
         21    1    1    2  503  501 -0.17016799934E+01  0.20345491833E+02  0.15759572901E+02  0.25791449954E+02  0.00000000000E+00 0.  1.
</event>
<event>
 4    1  0.5843276E+002  0.2296384E+02  0.7546771E-02  0.1492953E+00
          2   -1    0    0  503    0  0.00000000000E+00  0.00000000000E+00  0.12872091934E+02  0.12872091934E+02  0.00000000000E+00 0.  1.
         -2   -1    0    0    0  501 -0.00000000000E+00 -0.00000000000E+00 -0.54415666350E+02  0.54415666350E+02  0.00000000000E+00 0. -1.
         21    1    1    2  502  501 -0.22475070453E+02  0.47126587682E+01 -0.40464464583E+01  0.23317625811E+02  0.00000000000E+00 0.  1.
         21    1    1    2  503  502  0.22475070453E+02 -0.47126587682E+01 -0.37497127958E+02  0.43970132473E+02  0.00000000000E+00 0. -1.
</event>
<event>
 4    1  0.5843276E+002  0.2745937E+02  0.7546771E-02  0.1443047E+00
          2   -1    0    0  502    0  0.00000000000E+00  0.00000000000E+00  0.27603637089E+03  0.27603637089E+03  0.00000000000E+00 0. -1.
         -2   -1    0    0    0  501 -0.00000000000E+00 -0.00000000000E+00 -0.55820009962E+01  0.55820009962E+01  0.00000000000E+00 0.  1.
         21    1    1    2  502  503  0.27392709491E+02 -0.19122119043E+01  0.23584852100E+03  0.23744166008E+03  0.00000000000E+00 0. -1.
         21    1    1    2  503  501 -0.27392709491E+02  0.19122119043E+01  0.34605848895E+02  0.44176711799E+02  0.00000000000E+00 0.  1.
</event>
<event>
 4    1  0.5843276E+002  0.2805540E+02  0.7546771E-02  0.1437285E+00
          2   -1    0    0  503    0  0.00000000000E+00  0.00000000000E+00  0.19595722663E+04  0.19595722663E+04  0.00000000000E+00 0.  1.
         -2   -1    0    0    0  501 -0.00000000000E+00 -0.00000000000E+00 -0.42589527288E+00  0.42589527288E+00  0.00000000000E+00 0. -1.
         21    1    1    2  502  501 -0.27079271147E+02 -0.73361182367E+01  0.12132897788E+04  0.12136141038E+04  0.00000000000E+00 0.  1.
         21    1    1    2  503  502  0.27079271147E+02  0.73361182367E+01  0.74585659222E+03  0.74638405778E+03  0.00000000000E+00 0. -1.
</event>
<event>
 4    1  0.5843276E+002  0.2289394E+02  0.7546771E-02  0.1493834E+00
          2   -1    0    0  503    0  0.00000000000E+00  0.00000000000E+00  0.16565332511E+04  0.16565332511E+04  0.00000000000E+00 0. -1.
         -2   -1    0    0    0  501 -0.00000000000E+00 -0.00000000000E+00 -0.37615997155E+00  0.37615997155E+00  0.00000000000E+00 0.  1.
         21    1    1    2  502  501 -0.86157172807E+01  0.21210893303E+02  0.49787958844E+03  0.49840567530E+03  0.00000000000E+00 0. -1.
         21    1    1    2  503  502  0.86157172807E+01 -0.21210893303E+02  0.11582775027E+04  0.11585037357E+04  0.00000000000E+00 0.  1.
</event>
<event>
 4    1  0.5843276E+002  0.2546835E+02  0.7546771E-02  0.1463632E+00
          2   -1    0    0  502    0  0.00000000000E+00  0.00000000000E+00  0.10933488628E+02  0.10933488628E+02  0.00000000000E+00 0. -1.
         -2   -1    0    0    0  501 -0.00000000000E+00 -0.00000000000E+00 -0.63742125062E+02  0.63742125062E+02  0.00000000000E+00 0.  1.
         21    1    1    2  502  503 -0.24516983074E+01 -0.25350069038E+02 -0.36232454161E+02  0.44288006947E+02  0.00000000000E+00 0.  1.
         21    1    1    2  503  501  0.24516983074E+01  0.25350069038E+02 -0.16576182273E+02  0.30387606743E+02  0.00000000000E+00 0. -1.
</event>
<event>
 4    1  0.5843276E+002  0.2250474E+02  0.7546771E-02  0.1498813E+00
          2   -1    0    0  503    0  0.00000000000E+00  0.00000000000E+00  0.90949073453E+03  0.90949073453E+03  0.00000000000E+00 0.  1.
         -2   -1    0    0    0  501 -0.00000000000E+00 -0.00000000000E+00 -0.54727351077E+01  0.54727351077E+01  0.00000000000E+00 0. -1.
         21    1    1    2  502  501  0.14100576703E+01 -0.22460526766E+02  0.18426498381E+02  0.29086068277E+02  0.00000000000E+00 0. -1.
         21    1    1    2  503  502 -0.14100576703E+01  0.22460526766E+02  0.88559150104E+03  0.88587740136E+03  0.00000000000E+00 0.  1.
</event>
<event>
 4    1  0.5843276E+002  0.2776687E+02  0.7546771E-02  0.1440053E+00
          2   -1    0    0  503    0  0.00000000000E+00  0.00000000000E+00  0.44673604160E+03  0.44673604160E+03  0.00000000000E+00 0.  1.
         -2   -1    0    0    0  501 -0.00000000000E+00 -0.00000000000E+00 -0.25375550470E+01  0.25375550470E+01  0.00000000000E+00 0. -1.
         21    1    1    2  502  501 -0.19275501793E+02  0.19986341306E+02  0.95049836791E+02  0.99022574609E+02  0.00000000000E+00 0. -1.
         21    1    1    2  503  502  0.19275501793E+02 -0.19986341306E+02  0.34914864976E+03  0.35025102204E+03  0.00000000000E+00 0.  1.
</event>
<event>
 4    1  0.5843276E+002  0.5913853E+02  0.7546771E-02  0.1262788E+00
          2   -1    0    0  502    0  0.00000000000E+00  0.00000000000E+00  0.62013082807E+03  0.62013082807E+03  0.00000000000E+00 0.  1.
         -2   -1    0    0    0  501 -0.00000000000E+00 -0.00000000000E+00 -0.96712756394E+01  0.96712756394E+01  0.00000000000E+00 0. -1.
         21    1    1    2  502  503  0.18976170591E+02 -0.56011342164E+02  0.50854432150E+03  0.51197137853E+03  0.00000000000E+00 0.  1.
         21    1    1    2  503  501 -0.18976170591E+02  0.56011342164E+02  0.10191523093E+03  0.11783072518E+03  0.00000000000E+00 0. -1.
</event>
<event>
 4    1  0.5843276E+002  0.2578145E+02  0.7546771E-02  0.1460248E+00
          2   -1    0    0  502    0  0.00000000000E+00  0.00000000000E+00  0.36014417271E+03  0.36014417271E+03  0.00000000000E+00 0.  1.
         -2   -1    0    0    0  501 -0.00000000000E+00 -0.00000000000E+00 -0.46674292664E+01  0.46674292664E+01  0.00000000000E+00 0. -1.
         21    1    1    2  502  503 -0.22890510703E+02 -0.11862032612E+02  0.31956731952E+03  0.32060560663E+03  0.00000000000E+00 0.  1.
         21    1    1    2  503  501  0.22890510703E+02  0.11862032612E+02  0.35909423923E+02  0.44205995344E+02  0.00000000000E+00 0. -1.
</event>
<event>
 4    1  0.5843276E+002  0.3241562E+02  0.7546771E-02  0.1399703E+00
          2   -1    0    0  503    0  0.00000000000E+00  0.00000000000E+00  0.48395962456E+02  0.48395962456E+02  0.00000000000E+00 0. -1.
         -2   -1    0    0    0  501 -0.00000000000E+00 -0.00000000000E+00 -0.32799176668E+02  0.32799176668E+02  0.00000000000E+00 0.  1.
         21    1    1    2  502  501 -0.27456932097E+02 -0.17230472259E+02 -0.15805269182E+02  0.36063538766E+02  0.00000000000E+00 0.  1.
         21    1    1    2  503  502  0.27456932097E+02  0.17230472259E+02  0.31402054970E+02  0.45131600357E+02  0.00000000000E+00 0. -1.
</event>
<event>
 4    1  0.5843276E+002  0.2437666E+02  0.7546771E-02  0.1475899E+00
          2   -1    0    0  502    0  0.00000000000E+00  0.00000000000E+00  0.33706466348E+04  0.33706466348E+04  0.00000000000E+00 0.  1.
         -2   -1    0    0    0  501 -0.00000000000E+00 -0.00000000000E+00 -0.17644783036E+00  0.17644783036E+00  0.00000000000E+00 0. -1.
         21    1    1    2  502  503  0.16681180836E+02  0.17775262637E+02  0.16353258812E+04  0.16355075541E+04  0.00000000000E+00 0.  1.
         21    1    1    2  503  501 -0.16681180836E+02 -0.17775262637E+02  0.17351443057E+04  0.17353155285E+04  0.00000000000E+00 0. -1.
</event>
<event>
 4    1  0.5843276E+002  0.2865332E+02  0.7546771E-02  0.1431672E+00
          2   -1    0    0  502    0  0.00000000000E+00  0.00000000000E+00  0.39691347885E+01  0.39691347885E+01  0.00000000000E+00 0.  1.
         -2   -1    0    0    0  501 -0.00000000000E+00 -0.00000000000E+00 -0.25792957087E+03  0.25792957087E+03  0.00000000000E+00 0. -1.
         21    1    1    2  502  503 -0.23163679518E+01 -0.28559536023E+02 -0.68705593324E+02  0.74441058646E+02  0.00000000000E+00 0.  1.
         21    1    1    2  503  501  0.23163679518E+01  0.28559536023E+02 -0.18525484276E+03  0.18745764702E+03  0.00000000000E+00 0. -1.
</event>
<event>
 4    1  0.5843276E+002  0.2210912E+02  0.7546771E-02  0.1503999E+00
          2   -1    0    0  503    0  0.00000000000E+00  0.00000000000E+00  0.79059370496E+00  0.79059370496E+00  0.00000000000E+00 0. -1.
         -2   -1    0    0    0  501 -0.00000000000E+00 -0.00000000000E+00 -0.74509805208E+03  0.74509805208E+03  0.00000000000E+00 0.  1.
         21    1    1    2  502  501 -0.14596500108E+02 -0.16605882431E+02 -0.52601073487E+03  0.52647517163E+03  0.00000000000E+00 0.  1.
         21    1    1    2  503  502  0.14596500108E+02  0.16605882431E+02 -0.21829672350E+03  0.21941347415E+03  0.00000000000E+00 0. -1.
</event>
<event>
 4    1  0.5843276E+002  0.3137319E+02  0.7546771E-02  0.1408027E+00
          2   -1    0    0  503    0  0.00000000000E+00  0.00000000000E+00  0.12035262056E+04  0.12035262056E+04  0.00000000000E+00 0.  1.
         -2   -1    0    0    0  501 -0.00000000000E+00 -0.00000000000E+00 -0.94156586748E+00  0.94156586748E+00  0.00000000000E+00 0. -1.
         21    1    1    2  502  501 -0.20441616683E+02 -0.23799527457E+02  0.81961129485E+03  0.82021152872E+03  0.00000000000E+00 0. -1.
         21    1    1    2  503  502  0.20441616683E+02  0.23799527457E+02  0.38297334489E+03  0.38425624276E+03  0.00000000000E+00 0.  1.
</event>
<event>
 4    1  0.5843276E+002  0.2342824E+02  0.7546771E-02  0.1487190E+00
          2   -1    0    0  503    0  0.00000000000E+00  0.00000000000E+00  0.14699238774E+02  0.14699238774E+02  0.00000000000E+00 0.  1.
         -2   -1    0    0    0  501 -0.00000000000E+00 -0.00000000000E+00 -0.93948284100E+02  0.93948284100E+02  0.00000000000E+00 0. -1.
         21    1    1    2  502  501 -0.23394459287E+02 -0.12575861499E+01 -0.81792434526E+02  0.85081634880E+02  0.00000000000E+00 0. -1.
         21    1    1    2  503  502  0.23394459287E+02  0.12575861499E+01  0.25433892000E+01  0.23565887993E+02  0.00000000000E+00 0.  1.
</event>
<event>
 4    1  0.5843276E+002  0.2096354E+02  0.7546771E-02  0.1519786E+00
          2   -1    0    0  502    0  0.00000000000E+00  0.00000000000E+00  0.16821245570E+03  0.16821245570E+03  0.00000000000E+00 0. -1.
         -2   -1    0    0    0  501 -0.00000000000E+00 -0.00000000000E+00 -0.15317631414E+02  0.15317631414E+02  0.00000000000E+00 0.  1.
         21    1    1    2  502  503  0.16729429302E+02 -0.12633135857E+02  0.16002109406E+03  0.16138841492E+03  0.00000000000E+00 0. -1.
         21    1    1    2  503  501 -0.16729429302E+02  0.12633135857E+02 -0.71262697798E+01  0.22141672189E+02  0.00000000000E+00 0.  1.
</event>
<event>
 4    1  0.5843276E+002  0.2765536E+02  0.7546771E-02  0.1441134E+00
          2   -1    0    0  502    0  0.00000000000E+00  0.00000000000E+00  0.57516193093E+03  0.57516193093E+03  0.00000000000E+00 0.  1.
         -2   -1    0    0    0  501 -0.00000000000E+00 -0.00000000000E+00 -0.16945730538E+02  0.16945730538E+02  0.00000000000E+00 0. -1.
         21    1    1    2  502  503  0.13822867584E+02 -0.23953024221E+02  0.56330885548E+03  0.56398730988E+03  0.00000000000E+00 0.  1.
         21    1    1    2  503  501 -0.13822867584E+02  0.23953024221E+02 -0.50926550923E+01  0.28120351589E+02  0.00000000000E+00 0. -1.
</event>
<event>
 4    1  0.5843276E+002  0.2760325E+02  0.7546771E-02  0.1441641E+00
          2   -1    0    0  502    0  0.00000000000E+00  0.00000000000E+00  0.29580995610E+03  0.29580995610E+03  0.00000000000E+00 0. -1.
         -2   -1    0    0    0  501 -0.00000000000E+00 -0.00000000000E+00 -0.91477497398E+01  0.91477497398E+01  0.00000000000E+00 0.  1.
         21    1    1    2  502  503  0.31367258150E+00 -0.27601467971E+02  0.27257215190E+03  0.27396627058E+03  0.00000000000E+00 0. -1.
         21    1    1    2  503  501 -0.31367258150E+00  0.27601467971E+02  0.14090054458E+02  0.30991435257E+02  0.00000000000E+00 0.  1.
</event>
<event>
 4    1  0.5843276E+002  0.2636602E+02  0.7546771E-02  0.1454083E+00
          2   -1    0    0  503    0  0.00000000000E+00  0.00000000000E+00  0.59667850161E+03  0.59667850161E+03  0.00000000000E+00 0. -1.
         -2   -1    0    0    0  501 -0.00000000000E+00 -0.00000000000E+00 -0.21497748838E+01  0.21497748838E+01  0.00000000000E+00 0.  1.
         21    1    1    2  502  501  0.17842851285E+02 -0.19411322240E+02  0.94621706386E+02  0.98226442939E+02  0.00000000000E+00 0.  1.
         21    1    1    2  503  502 -0.17842851285E+02  0.19411322240E+02  0.49990702034E+03  0.50060183355E+03  0.00000000000E+00 0. -1.
</event>
<event>
 4    1  0.5843276E+002  0.2172011E+02  0.7546771E-02  0.1509227E+00
          2   -1    0    0  502    0  0.00000000000E+00  0.00000000000E+00  0.83703977372E+03  0.83703977372E+03  0.00000000000E+00 0. -1.
         -2   -1    0    0    0  501 -0.00000000000E+00 -0.00000000000E+00 -0.65320873068E+00  0.65320873068E+00  0.00000000000E+00 0.  1.
         21    1    1    2  502  503 -0.15782631831E+02 -0.14922192657E+02  0.26306827873E+03  0.26396341143E+03  0.00000000000E+00 0.  1.
         21    1    1    2  503  501  0.15782631831E+02  0.14922192657E+02  0.57331828626E+03  0.57372957102E+03  0.00000000000E+00 0. -1.
</event>
<event>
 4    1  0.5843276E+002  0.2310523E+02  0.7546771E-02  0.1491181E+00
          2   -1    0    0  502    0  0.00000000000E+00  0.00000000000E+00  0.35075570009E+02  0.35075570009E+02  0.00000000000E+00 0.  1.
         -2   -1    0    0    0  501 -0.00000000000E+00 -0.00000000000E+00 -0.17816900771E+03  0.17816900771E+03  0.00000000000E+00 0. -1.
         21    1    1    2  502  503 -0.21856661713E+02 -0.74925195416E+01  0.30419832242E+02  0.38199708166E+02  0.00000000000E+00 0.  1.
         21    1    1    2  503  501  0.21856661713E+02  0.74925195416E+01 -0.17351326994E+03  0.17504486955E+03  0.00000000000E+00 0. -1.
</event>
<event>
 4    1  0.5843276E+002  0.2222012E+02  0.7546771E-02  0.1502530E+00
          2   -1    0    0  502    0  0.00000000000E+00  0.00000000000E+00  0.31304394611E+03  0.31304394611E+03  0.00000000000E+00 0.  1.
         -2   -1    0    0    0  501 -0.00000000000E+00 -0.00000000000E+00 -0.26941329128E+01  0.26941329128E+01  0.00000000000E+00 0. -1.
         21    1    1    2  502  503 -0.21862665055E+02 -0.39695805694E+01  0.25682329957E+03  0.25778273971E+03  0.00000000000E+00 0.  1.
         21    1    1    2  503  501  0.21862665055E+02  0.39695805694E+01  0.53526513633E+02  0.57955339313E+02  0.00000000000E+00 0. -1.
</event>
<event>
 4    1  0.5843276E+002  0.3768075E+02  0.7546771E-02  0.1362640E+00
          2   -1    0    0  503    0  0.00000000000E+00  0.00000000000E+00  0.16038183081E+02  0.16038183081E+02  0.00000000000E+00 0.  1.
         -2   -1    0    0    0  501 -0.00000000000E+00 -0.00000000000E+00 -0.90420898130E+02  0.90420898130E+02  0.00000000000E+00 0. -1.
         21    1    1    2  502  501  0.49822731955E+01  0.37349912471E+02 -0.44891612844E+02  0.58609691277E+02  0.00000000000E+00 0. -1.
         21    1    1    2  503  502 -0.49822731955E+01 -0.37349912471E+02 -0.29491102205E+02  0.47849389935E+02  0.00000000000E+00 0.  1.
</event>
<event>
 4    1  0.5843276E+002  0.2053738E+02  0.7546771E-02  0.1525973E+00
          2   -1    0    0  502    0  0.00000000000E+00  0.00000000000E+00  0.12997084414E+03  0.12997084414E+03  0.00000000000E+00 0.  1.
         -2   -1    0    0    0  501 -0.00000000000E+00 -0.00000000000E+00 -0.77768652800E+01  0.77768652800E+01  0.00000000000E+00 0. -1.
         21    1    1    2  502  503  0.18001940490E+02  0.98850420156E+01  0.11367208615E+03  0.11551245425E+03  0.00000000000E+00 0.  1.
         21    1    1    2  503  501 -0.18001940490E+02 -0.98850420156E+01  0.85218927071E+01  0.22235255168E+02  0.00000000000E+00 0. -1.
</event>
<event>
 4    1  0.5843276E+002  0.2225766E+02  0.7546771E-02  0.1502036E+00
          2   -1    0    0  503    0  0.00000000000E+00  0.00000000000E+00  0.66527936557E+01  0.66527936557E+01  0.00000000000E+00 0. -1.
         -2   -1    0    0    0  501 -0.00000000000E+00 -0.00000000000E+00 -0.96225459848E+02  0.96225459848E+02  0.00000000000E+00 0.  1.
         21    1    1    2  502  501 -0.15811963101E+02  0.15664782489E+02 -0.69247527667E+02  0.72736673525E+02  0.00000000000E+00 0.  1.
         21    1    1    2  503  502  0.15811963101E+02 -0.15664782489E+02 -0.20325138525E+02  0.30141579978E+02  0.00000000000E+00 0. -1.
</event>
<event>
 4    1  0.5843276E+002  0.4569209E+02  0.7546771E-02  0.1318014E+00
          2   -1    0    0  503    0  0.00000000000E+00  0.00000000000E+00  0.10845378017E+03  0.10845378017E+03  0.00000000000E+00 0.  1.
         -2   -1    0    0    0  501 -0.00000000000E+00 -0.00000000000E+00 -0.21646276962E+02  0.21646276962E+02  0.00000000000E+00 0. -1.
         21    1    1    2  502  501  0.30404079713E+02  0.34108054428E+02  0.21761745783E+02  0.50609692942E+02  0.00000000000E+00 0.  1.
         21    1    1    2  503  502 -0.30404079713E+02 -0.34108054428E+02  0.65045757424E+02  0.79490364189E+02  0.00000000000E+00 0. -1.
</event>
<event>
 4    1  0.5843276E+002  0.2370052E+02  0.7546771E-02  0.1483884E+00
          2   -1    0    0  502    0  0.00000000000E+00  0.00000000000E+00  0.22202673853E+04  0.22202673853E+04  0.00000000000E+00 0.  1.
         -2   -1    0    0    0  501 -0.00000000000E+00 -0.00000000000E+00 -0.30251955865E+00  0.30251955865E+00  0.00000000000E+00 0. -1.
         21    1    1    2  502  503  0.23699127977E+02  0.25678392633E+00  0.15592156563E+04  0.15593957732E+04  0.00000000000E+00 0.  1.
         21    1    1    2  503  501 -0.23699127977E+02 -0.25678392633E+00  0.66074920940E+03  0.66117413163E+03  0.00000000000E+00 0. -1.
</event>
<event>
 4    1  0.5843276E+002  0.3322206E+02  0.7546771E-02  0.1393513E+00
          2   -1    0    0  502    0  0.00000000000E+00  0.00000000000E+00  0.98086961853E+03  0.98086961853E+03  0.00000000000E+00 0. -1.
         -2   -1    0    0    0  501 -0.00000000000E+00 -0.00000000000E+00 -0.36594190107E+01  0.36594190107E+01  0.00000000000E+00 0.  1.
         21    1    1    2  502  503 -0.53366012726E+00  0.33217777429E+02  0.89825403002E+03  0.89886818165E+03  0.00000000000E+00 0. -1.
         21    1    1    2  503  501  0.53366012726E+00 -0.33217777429E+02  0.78956169503E+02  0.85660855897E+02  0.00000000000E+00 0.  1.
</event>
<event>
 4    1  0.5843276E+002  0.2236910E+02  0.7546771E-02  0.1500576E+00
          2   -1    0    0  502    0  0.00000000000E+00  0.00000000000E+00  0.60633901122E+03  0.60633901122E+03  0.00000000000E+00 0.  1.
         -2   -1    0    0    0  501 -0.00000000000E+00 -0.00000000000E+00 -0.85053405586E+00  0.85053405586E+00  0.00000000000E+00 0. -1.
         21    1    1    2  502  503  0.13594884172E+02 -0.17763891145E+02  0.35509662128E+03  0.35580048785E+03  0.00000000000E+00 0.  1.
         21    1    1    2  503  501 -0.13594884172E+02  0.17763891145E+02  0.25039185588E+03  0.25138905743E+03  0.00000000000E+00 0. -1.
</event>
<event>
 4    1  0.5843276E+002  0.2169637E+02  0.7546771E-02  0.1509550E+00
          2   -1    0    0  503    0  0.00000000000E+00  0.00000000000E+00  0.21409934029E+02  0.21409934029E+02  0.00000000000E+00 0.  1.
         -2   -1    0    0    0  501 -0.00000000000E+00 -0.00000000000E+00 -0.28762941524E+02  0.28762941524E+02  0.00000000000E+00 0. -1.
         21    1    1    2  502  501 -0.21473348573E+02  0.31028841287E+01  0.84998874845E+01  0.23301945758E+02  0.00000000000E+00 0.  1.
         21    1    1    2  503  502  0.21473348573E+02 -0.31028841287E+01 -0.15852894980E+02  0.26870929796E+02  0.00000000000E+00 0. -1.
</event>
<event>
 4    1  0.5843276E+002  0.2946329E+02  0.7546771E-02  0.1424319E+00
          2   -1    0    0  502    0  0.00000000000E+00  0.00000000000E+00  0.22053905084E+04  0.22053905084E+04  0.00000000000E+00 0.  1.
         -2   -1    0    0    0  501 -0.00000000000E+00 -0.00000000000E+00 -0.42447899310E+00  0.42447899310E+00  0.00000000000E+00 0. -1.
         21    1    1    2  502  503 -0.65471700154E+01 -0.28726640624E+02  0.13998573209E+04  0.14001673487E+04  0.00000000000E+00 0. -1.
         21    1    1    2  503  501  0.65471700154E+01  0.28726640624E+02  0.80510870845E+03  0.80564763870E+03  0.00000000000E+00 0.  1.
</event>
<event>
 4    1  0.5843276E+002  0.3961126E+02  0.7546771E-02  0.1350779E+00
          2   -1    0    0  503    0  0.00000000000E+00  0.00000000000E+00  0.22149606390E+04  0.22149606390E+04  0.00000000000E+00 0. -1.
         -2   -1    0    0    0  501 -0.00000000000E+00 -0.00000000000E+00 -0.99309244760E+00  0.99309244760E+00  0.00000000000E+00 0.  1.
         21    1    1    2  502  501 -0.31831446481E+02 -0.23575649482E+02  0.51374061407E+03  0.51526543721E+03  0.00000000000E+00 0.  1.
         21    1    1    2  503  502  0.31831446481E+02  0.23575649482E+02  0.17002269325E+04  0.17006882942E+04  0.00000000000E+00 0. -1.
</event>
<event>
 4    1  0.5843276E+002  0.2934217E+02  0.7546771E-02  0.1425400E+00
          2   -1    0    0  502    0  0.00000000000E+00  0.00000000000E+00  0.66343075061E+02  0.66343075061E+02  0.00000000000E+00 0.  1.
         -2   -1    0    0    0  501 -0.00000000000E+00 -0.00000000000E+00 -0.13009825988E+02  0.13009825988E+02  0.00000000000E+00 0. -1.
         21    1    1    2  502  503 -0.29321199239E+02  0.11092514764E+01  0.28646268108E+02  0.41006973068E+02  0.00000000000E+00 0.  1.
         21    1    1    2  503  501  0.29321199239E+02 -0.11092514764E+01  0.24686980965E+02  0.38345927982E+02  0.00000000000E+00 0. -1.
</event>
<event>
 4    1  0.5843276E+002  0.4469882E+02  0.7546771E-02  0.1322952E+00
          2   -1    0    0  503    0  0.00000000000E+00  0.00000000000E+00  0.48787250325E+03  0.48787250325E+03  0.00000000000E+00 0.  1.
         -2   -1    0    0    0  501 -0.00000000000E+00 -0.00000000000E+00 -0.44812983577E+01  0.44812983577E+01  0.00000000000E+00 0. -1.
         21    1    1    2  502  501  0.22313011321E+02 -0.38731301618E+02  0.16944554918E+03  0.17524205641E+03  0.00000000000E+00 0. -1.
         21    1    1    2  503  502 -0.22313011321E+02  0.38731301618E+02  0.31394565572E+03  0.31711174520E+03  0.00000000000E+00 0.  1.
</event>
<event>
 4    1  0.5843276E+002  0.3282137E+02  0.7546771E-02  0.1396562E+00
          2   -1    0    0  503    0  0.00000000000E+00  0.00000000000E+00  0.26988204113E+03  0.26988204113E+03  0.00000000000E+00 0. -1.
         -2   -1    0    0    0  501 -0.00000000000E+00 -0.00000000000E+00 -0.75786018447E+01  0.75786018447E+01  0.00000000000E+00 0.  1.
         21    1    1    2  502  501 -0.25459143904E+02  0.20714101594E+02  0.35708091318E+02  0.48500616478E+02  0.00000000000E+00 0.  1.
         21    1    1    2  503  502  0.25459143904E+02 -0.20714101594E+02  0.22659534797E+03  0.22896002650E+03  0.00000000000E+00 0. -1.
</event>
<event>
 4    1  0.5843276E+002  0.2548091E+02  0.7546771E-02  0.1463495E+00
          2   -1    0    0  502    0  0.00000000000E+00  0.00000000000E+00  0.20676251547E+04  0.20676251547E+04  0.00000000000E+00 0.  1.
         -2   -1    0    0    0  501 -0.00000000000E+00 -0.00000000000E+00 -0.54217494619E+00  0.54217494619E+00  0.00000000000E+00 0. -1.
         21    1    1    2  502  503 -0.80759783715E+00 -0.25468107430E+02  0.17043528548E+04  0.17045433202E+04  0.00000000000E+00 0.  1.
         21    1    1    2  503  501  0.80759783715E+00  0.25468107430E+02  0.36273012503E+03  0.36362400954E+03  0.00000000000E+00 0. -1.
</event>
<event>
 4    1  0.5843276E+002  0.2137896E+02  0.7546771E-02  0.1513922E+00
          2   -1    0    0  502    0  0.00000000000E+00  0.00000000000E+00  0.40642590075E+03  0.40642590075E+03  0.00000000000E+00 0.  1.
         -2   -1    0    0    0  501 -0.00000000000E+00 -0.00000000000E+00 -0.20531308159E+01  0.20531308159E+01  0.00000000000E+00 0. -1.
         21    1    1    2  502  503 -0.21348793983E+02  0.11353628999E+01  0.33953787360E+03  0.34021026978E+03  0.00000000000E+00 0.  1.
         21    1    1    2  503  501  0.21348793983E+02 -0.11353628999E+01  0.64834896333E+02  0.68268761787E+02  0.00000000000E+00 0. -1.
</event>
<event>
 4    1  0.5843276E+002  0.2032819E+02  0.7546771E-02  0.1529076E+00
          2   -1    0    0  502    0  0.00000000000E+00  0.00000000000E+00  0.18377338103E+03  0.18377338103E+03  0.00000000000E+00 0.  1.
         -2   -1    0    0    0  501 -0.00000000000E+00 -0.00000000000E+00 -0.46373025496E+02  0.46373025496E+02  0.00000000000E+00 0. -1.
         21    1    1    2  502  503 -0.16306479691E+01  0.20262686802E+02  0.18094878151E+03  0.18208705890E+03  0.00000000000E+00 0.  1.
         21    1    1    2  503  501  0.16306479691E+01 -0.20262686802E+02 -0.43548425976E+02  0.48059347626E+02  0.00000000000E+00 0. -1.
</event>
<event>
 4    1  0.5843276E+002  0.2356673E+02  0.7546771E-02  0.1485502E+00
          2   -1    0    0  503    0  0.00000000000E+00  0.00000000000E+00  0.13534517004E+04  0.13534517004E+04  0.00000000000E+00 0. -1.
         -2   -1    0    0    0  501 -0.00000000000E+00 -0.00000000000E+00 -0.12663875648E+01  0.12663875648E+01  0.00000000000E+00 0.  1.
         21    1    1    2  502  501  0.12858006243E+02 -0.19749995135E+02  0.11918690525E+03  0.12149448141E+03  0.00000000000E+00 0.  1.
         21    1    1    2  503  502 -0.12858006243E+02  0.19749995135E+02  0.12329984075E+04  0.12332236065E+04  0.00000000000E+00 0. -1.
</event>
<event>
 4    1  0.5843276E+002  0.2258634E+02  0.7546771E-02  0.1497759E+00
          2   -1    0    0  502    0  0.00000000000E+00  0.00000000000E+00  0.48473542382E+01  0.48473542382E+01  0.00000000000E+00 0. -1.
         -2   -1    0    0    0  501 -0.00000000000E+00 -0.00000000000E+00 -0.27617779059E+03  0.27617779059E+03  0.00000000000E+00 0.  1.
         21    1    1    2  502  503 -0.11285891476E+02 -0.19564542151E+02 -0.25120501052E+02  0.33781388798E+02  0.00000000000E+00 0. -1.
         21    1    1    2  503  501  0.11285891476E+02  0.19564542151E+02 -0.24620993530E+03  0.24724375603E+03  0.00000000000E+00 0.  1.
</event>
<event>
 4    1  0.5843276E+002  0.3922312E+02  0.7546771E-02  0.1353099E+00
          2   -1    0    0  502    0  0.00000000000E+00  0.00000000000E+00  0.10291920686E+04  0.10291920686E+04  0.00000000000E+00 0. -1.
         -2   -1    0    0    0  501 -0.00000000000E+00 -0.00000000000E+00 -0.18290017462E+01  0.18290017462E+01  0.00000000000E+00 0.  1.
         21    1    1    2  502  503 -0.11006243371E+02 -0.37647251290E+02  0.73403726457E+03  0.73508445685E+03  0.00000000000E+00 0. -1.
         21    1    1    2  503  501  0.11006243371E+02  0.37647251290E+02  0.29332580224E+03  0.29593661345E+03  0.00000000000E+00 0.  1.
</event>
<event>
 4    1  0.5843276E+002  0.3990112E+02  0.7546771E-02  0.1349066E+00
          2   -1    0    0  503    0  0.00000000000E+00  0.00000000000E+00  0.14728923507E+04  0.14728923507E+04  0.00000000000E+00 0.  1.
         -2   -1    0    0    0  501 -0.00000000000E+00 -0.00000000000E+00 -0.14816601290E+01  0.14816601290E+01  0.00000000000E+00 0. -1.
         21    1    1    2  502  501 -0.19747015556E+02  0.34672100114E+02  0.35232724228E+03  0.35457944780E+03  0.00000000000E+00 0. -1.
         21    1    1    2  503  502  0.19747015556E+02 -0.34672100114E+02  0.11190834483E+04  0.11197945630E+04  0.00000000000E+00 0.  1.
</event>
<event>
 4    1  0.5843276E+002  0.2869768E+02  0.7546771E-02  0.1431261E+00
          2   -1    0    0  503    0  0.00000000000E+00  0.00000000000E+00  0.10655266761E+04  0.10655266761E+04  0.00000000000E+00 0. -1.
         -2   -1    0    0    0  501 -0.00000000000E+00 -0.00000000000E+00 -0.11742021043E+01  0.11742021043E+01  0.00000000000E+00 0.  1.
         21    1    1    2  502  501 -0.27846253676E+02 -0.69385313215E+01  0.22037982594E+03  0.22224046603E+03  0.00000000000E+00 0.  1.
         21    1    1    2  503  502  0.27846253676E+02  0.69385313215E+01  0.84397264808E+03  0.84446041220E+03  0.00000000000E+00 0. -1.
</event>
<event>
 4    1  0.5843276E+002  0.3136091E+02  0.7546771E-02  0.1408128E+00
          2   -1    0    0  503    0  0.00000000000E+00  0.00000000000E+00  0.61162096457E+03  0.61162096457E+03  0.00000000000E+00 0.  1.
         -2   -1    0    0    0  501 -0.00000000000E+00 -0.00000000000E+00 -0.20051083410E+01  0.20051083410E+01  0.00000000000E+00 0. -1.
         21    1    1    2  502  501  0.25885799860E+02 -0.17704006950E+02  0.16827370521E+03  0.17117110259E+03  0.00000000000E+00 0. -1.
         21    1    1    2  503  502 -0.25885799860E+02  0.17704006950E+02  0.44134215101E+03  0.44245497032E+03  0.00000000000E+00 0.  1.
</event>
<event>
 4    1  0.5843276E+002  0.2593795E+02  0.7546771E-02  0.1458578E+00
          2   -1    0    0  502    0  0.00000000000E+00  0.00000000000E+00  0.10612153837E+03  0.10612153837E+03  0.00000000000E+00 0. -1.
         -2   -1    0    0    0  501 -0.00000000000E+00 -0.00000000000E+00 -0.91353450044E+01  0.91353450044E+01  0.00000000000E+00 0.  1.
         21    1    1    2  502  503 -0.25923716915E+02  0.85914379324E+00  0.80372963735E+02  0.84454665509E+02  0.00000000000E+00 0.  1.
         21    1    1    2  503  501  0.25923716915E+02 -0.85914379324E+00  0.16613229635E+02  0.30802217869E+02  0.00000000000E+00 0. -1.
</event>
<event>
 4    1  0.5843276E+002  0.3523847E+02  0.7546771E-02  0.1378894E+00
          2   -1    0    0  502    0  0.00000000000E+00  0.00000000000E+00  0.88428380421E+03  0.88428380421E+03  0.00000000000E+00 0. -1.
         -2   -1    0    0    0  501 -0.00000000000E+00 -0.00000000000E+00 -0.17415846994E+01  0.17415846994E+01  0.00000000000E+00 0.  1.
         21    1    1    2  502  503 -0.16165722680E+02 -0.31311644804E+02  0.63624597625E+03  0.63722106994E+03  0.00000000000E+00 0. -1.
         21    1    1    2  503  501  0.16165722680E+02  0.31311644804E+02  0.24629624326E+03  0.24880431897E+03  0.00000000000E+00 0.  1.
</event>
<event>
 4    1  0.5843276E+002  0.2577267E+02  0.7546771E-02  0.1460342E+00
          2   -1    0    0  502    0  0.00000000000E+00  0.00000000000E+00  0.49970249012E+01  0.49970249012E+01  0.00000000000E+00 0. -1.
         -2   -1    0    0    0  501 -0.00000000000E+00 -0.00000000000E+00 -0.27721169311E+03  0.27721169311E+03  0.00000000000E+00 0.  1.
         21    1    1    2  502  503  0.16849505454E+02  0.19501910380E+02 -0.34307386537E+02  0.42909522411E+02  0.00000000000E+00 0. -1.
         21    1    1    2  503  501 -0.16849505454E+02 -0.19501910380E+02 -0.23790728167E+03  0.23929919560E+03  0.00000000000E+00 0.  1.
</event>
<event>
 4    1  0.5843276E+002  0.3585844E+02  0.7546771E-02  0.1374627E+00
          2   -1    0    0  502    0  0.00000000000E+00  0.00000000000E+00  0.11616293899E+02  0.11616293899E+02  0.00000000000E+00 0.  1.
         -2   -1    0    0    0  501 -0.00000000000E+00 -0.00000000000E+00 -0.11161449728E+03  0.11161449728E+03  0.00000000000E+00 0. -1.
         21    1    1    2  502  503 -0.34001235868E+02  0.11390505836E+02 -0.44396688771E+02  0.57069200428E+02  0.00000000000E+00 0.  1.
         21    1    1    2  503  501  0.34001235868E+02 -0.11390505836E+02 -0.55601514612E+02  0.66161590753E+02  0.00000000000E+00 0. -1.
</event>
<event>
 4    1  0.5843276E+002  0.2523097E+02  0.7546771E-02  0.1466236E+00
          2   -1    0    0  502    0  0.00000000000E+00  0.00000000000E+00  0.23006670061E+04  0.23006670061E+04  0.00000000000E+00 0. -1.
         -2   -1    0    0    0  501 -0.00000000000E+00 -0.00000000000E+00 -0.33191669265E+00  0.33191669265E+00  0.00000000000E+00 0.  1.
         21    1    1    2  502  503  0.24675869311E+02 -0.52634085264E+01  0.16194068230E+04  0.16196033651E+04  0.00000000000E+00 0. -1.
         21    1    1    2  503  501 -0.24675869311E+02  0.52634085264E+01  0.68092826644E+03  0.68139555769E+03  0.00000000000E+00 0.  1.
</event>
<event>
 4    1  0.5843276E+002  0.3618681E+02  0.7546771E-02  0.1372406E+00
          2   -1    0    0  503    0  0.00000000000E+00  0.00000000000E+00  0.17882834412E+03  0.17882834412E+03  0.00000000000E+00 0. -1.
         -2   -1    0    0    0  501 -0.00000000000E+00 -0.00000000000E+00 -0.14057225502E+03  0.14057225502E+03  0.00000000000E+00 0.  1.
         21    1    1    2  502  501  0.21907663471E+02 -0.28801722584E+02 -0.13635713640E+03  0.14107711930E+03  0.00000000000E+00 0.  1.
         21    1    1    2  503  502 -0.21907663471E+02  0.28801722584E+02  0.17461322550E+03  0.17832347984E+03  0.00000000000E+00 0. -1.
</event>
<event>
 4    1  0.5843276E+002  0.2538109E+02  0.7546771E-02  0.1464585E+00
          2   -1    0    0  503    0  0.00000000000E+00  0.00000000000E+00  0.15264776657E+02  0.15264776657E+02  0.00000000000E+00 0.  1.
         -2   -1    0    0    0  501 -0.00000000000E+00 -0.00000000000E+00 -0.46408834811E+02  0.46408834811E+02  0.00000000000E+00 0. -1.
         21    1    1    2  502  501 -0.21835224908E+02 -0.12939199938E+02 -0.24856579039E+02  0.35525335513E+02  0.00000000000E+00 0. -1.
         21    1    1    2  503  502  0.21835224908E+02  0.12939199938E+02 -0.62874791153E+01  0.26148275955E+02  0.00000000000E+00 0.  1.
</event>
<event>
 4    1  0.5843276E+002  0.2100000E+02  0.7546771E-02  0.1519265E+00
          2   -1    0    0  502    0  0.00000000000E+00  0.00000000000E+00  0.18356564081E+03  0.18356564081E+03  0.00000000000E+00 0. -1.
         -2   -1    0    0    0  501 -0.00000000000E+00 -0.00000000000E+00 -0.11166278464E+02  0.11166278464E+02  0.00000000000E+00 0.  1.
         21    1    1    2  502  503  0.17826303947E+02  0.11100584957E+02  0.17245796718E+03  0.17373183515E+03  0.00000000000E+00 0. -1.
         21    1    1    2  503  501 -0.17826303947E+02 -0.11100584957E+02 -0.58604838066E-01  0.21000084126E+02  0.00000000000E+00 0.  1.
</event>
<event>
 4    1  0.5843276E+002  0.2727159E+02  0.7546771E-02  0.1444899E+00
          2   -1    0    0  503    0  0.00000000000E+00  0.00000000000E+00  0.83091190278E+01  0.83091190278E+01  0.00000000000E+00 0.  1.
         -2   -1    0    0    0  501 -0.00000000000E+00 -0.00000000000E+00 -0.98619235075E+02  0.98619235075E+02  0.00000000000E+00 0. -1.
         21    1    1    2  502  501 -0.21662052272E+02 -0.16567888043E+02 -0.61404977043E+02  0.67188619784E+02  0.00000000000E+00 0. -1.
         21    1    1    2  503  502  0.21662052272E+02  0.16567888043E+02 -0.28905139004E+02  0.39739734318E+02  0.00000000000E+00 0.  1.
</event>
<event>
 4    1  0.5843276E+002  0.2480005E+02  0.7546771E-02  0.1471053E+00
          2   -1    0    0  502    0  0.00000000000E+00  0.00000000000E+00  0.10892093968E+02  0.10892093968E+02  0.00000000000E+00 0. -1.
         -2   -1    0    0    0  501 -0.00000000000E+00 -0.00000000000E+00 -0.60578843768E+02  0.60578843768E+02  0.00000000000E+00 0.  1.
         21    1    1    2  502  503 -0.40423151877E+00 -0.24796757043E+02 -0.34153674029E+02  0.42208008868E+02  0.00000000000E+00 0.  1.
         21    1    1    2  503  501  0.40423151877E+00  0.24796757043E+02 -0.15533075772E+02  0.29262928868E+02  0.00000000000E+00 0. -1.
</event>
<event>
 4    1  0.5843276E+002  0.2439277E+02  0.7546771E-02  0.1475712E+00
          2   -1    0    0  502    0  0.00000000000E+00  0.00000000000E+00  0.20287722472E+04  0.20287722472E+04  0.00000000000E+00 0. -1.
         -2   -1    0    0    0  501 -0.00000000000E+00 -0.00000000000E+00 -0.40904312381E+00  0.40904312381E+00  0.00000000000E+00 0.  1.
         21    1    1    2  502  503 -0.24392765695E+02  0.83225116551E-03  0.15539200866E+04  0.15541115284E+04  0.00000000000E+00 0. -1.
         21    1    1    2  503  501  0.24392765695E+02 -0.83225116551E-03  0.47444311742E+03  0.47506976191E+03  0.00000000000E+00 0.  1.
</event>
<event>
 4    1  0.5843276E+002  0.3483192E+02  0.7546771E-02  0.1381749E+00
          2   -1    0    0  502    0  0.00000000000E+00  0.00000000000E+00  0.41300861972E+01  0.41300861972E+01  0.00000000000E+00 0. -1.
         -2   -1    0    0    0  501 -0.00000000000E+00 -0.00000000000E+00 -0.51834191631E+03  0.51834191631E+03  0.00000000000E+00 0.  1.
         21    1    1    2  502  503  0.30165950122E+02  0.17414888159E+02 -0.85152738011E+02  0.92001367746E+02  0.00000000000E+00 0. -1.
         21    1    1    2  503  501 -0.30165950122E+02 -0.17414888159E+02 -0.42905909211E+03  0.43047063477E+03  0.00000000000E+00 0.  1.
</event>
<event>
 4    1  0.5843276E+002  0.2232890E+02  0.7546771E-02  0.1501102E+00
          2   -1    0    0  503    0  0.00000000000E+00  0.00000000000E+00  0.12441019950E+04  0.12441019950E+04  0.00000000000E+00 0. -1.
         -2   -1    0    0    0  501 -0.00000000000E+00 -0.00000000000E+00 -0.40171836944E+00  0.40171836944E+00  0.00000000000E+00 0.  1.
         21    1    1    2  502  501 -0.26016598713E+01  0.22176810759E+02  0.65232887565E+03  0.65271091731E+03  0.00000000000E+00 0. -1.
         21    1    1    2  503  502  0.26016598713E+01 -0.22176810759E+02  0.59137140095E+03  0.59179279603E+03  0.00000000000E+00 0.  1.
</event>
<event>
 4    1  0.5843276E+002  0.2034717E+02  0.7546771E-02  0.1528793E+00
          2   -1    0    0  502    0  0.00000000000E+00  0.00000000000E+00  0.74245478120E+03  0.74245478120E+03  0.00000000000E+00 0. -1.
         -2   -1    0    0    0  501 -0.00000000000E+00 -0.00000000000E+00 -0.85253066497E+00  0.85253066497E+00  0.00000000000E+00 0.  1.
         21    1    1    2  502  503  0.20327316615E+02 -0.89851797805E+00  0.58939054617E+03  0.58974165789E+03  0.00000000000E+00 0.  1.
         21    1    1    2  503  501 -0.20327316615E+02  0.89851797805E+00  0.15221170437E+03  0.15356565398E+03  0.00000000000E+00 0. -1.
</event>
<event>
 4    1  0.5843276E+002  0.6375894E+02  0.7546771E-02  0.1247569E+00
          2   -1    0    0  502    0  0.00000000000E+00  0.00000000000E+00  0.32763223078E+04  0.32763223078E+04  0.00000000000E+00 0.  1.
         -2   -1    0    0    0  501 -0.00000000000E+00 -0.00000000000E+00 -0.12438876934E+01  0.12438876934E+01  0.00000000000E+00 0. -1.
         21    1    1    2  502  503 -0.57821101644E+02 -0.26868628658E+02  0.17194202567E+04  0.17206019941E+04  0.00000000000E+00 0. -1.
         21    1    1    2  503  501  0.57821101644E+02  0.26868628658E+02  0.15556581634E+04  0.15569642014E+04  0.00000000000E+00 0.  1.
</event>
<event>
 4    1  0.5843276E+002  0.2078871E+02  0.7546771E-02  0.1522303E+00
          2   -1    0    0  503    0  0.00000000000E+00  0.00000000000E+00  0.68072827981E+03  0.68072827981E+03  0.00000000000E+00 0.  1.
         -2   -1    0    0    0  501 -0.00000000000E+00 -0.00000000000E+00 -0.39415000270E+01  0.39415000270E+01  0.00000000000E+00 0. -1.
         21    1    1    2  502  501  0.19563788765E+02 -0.70305499060E+01  0.24838529649E+02  0.32390168539E+02  0.00000000000E+00 0. -1.
         21    1    1    2  503  502 -0.19563788765E+02  0.70305499060E+01  0.65194825013E+03  0.65227961130E+03  0.00000000000E+00 0.  1.
</event>
<event>
 4    1  0.5843276E+002  0.3946232E+02  0.7546771E-02  0.1351666E+00
          2   -1    0    0  502    0  0.00000000000E+00  0.00000000000E+00  0.60622206672E+02  0.60622206672E+02  0.00000000000E+00 0.  1.
         -2   -1    0    0    0  501 -0.00000000000E+00 -0.00000000000E+00 -0.27188869001E+02  0.27188869001E+02  0.00000000000E+00 0. -1.
         21    1    1    2  502  503  0.13889411225E+02 -0.36937230236E+02  0.27031633209E+02  0.47832874842E+02  0.00000000000E+00 0.  1.
         21    1    1    2  503  501 -0.13889411225E+02  0.36937230236E+02  0.64017044620E+01  0.39978200831E+02  0.00000000000E+00 0. -1.
</event>
<event>
 4    1  0.5843276E+002  0.3280889E+02  0.7546771E-02  0.1396658E+00
          2   -1    0    0  503    0  0.00000000000E+00  0.00000000000E+00  0.11410402456E+02  0.11410402456E+02  0.00000000000E+00 0.  1.
         -2   -1    0    0    0  501 -0.00000000000E+00 -0.00000000000E+00 -0.72134126734E+03  0.72134126734E+03  0.00000000000E+00 0. -1.
         21    1    1    2  502  501 -0.32787861989E+02 -0.11744548977E+01 -0.69654483696E+03  0.69731709654E+03  0.00000000000E+00 0. -1.
         21    1    1    2  503  502  0.32787861989E+02  0.11744548977E+01 -0.13386027929E+02  0.35434573256E+02  0.00000000000E+00 0.  1.
</event>
<event>
 4    1  0.5843276E+002  0.2651507E+02  0.7546771E-02  0.1452541E+00
          2   -1    0    0  503    0  0.00000000000E+00  0.00000000000E+00  0.18301053443E+02  0.18301053443E+02  0.00000000000E+00 0. -1.
         -2   -1    0    0    0  501 -0.00000000000E+00 -0.00000000000E+00 -0.67119069218E+02  0.67119069218E+02  0.00000000000E+00 0.  1.
         21    1    1    2  502  501 -0.15994456108E+02 -0.21147722653E+02 -0.52339156670E+02  0.58672277274E+02  0.00000000000E+00 0. -1.
         21    1    1    2  503  502  0.15994456108E+02  0.21147722653E+02  0.35211408954E+01  0.26747845386E+02  0.00000000000E+00 0.  1.
</event>
<event>
 4    1  0.5843276E+002  0.5088225E+02  0.7546771E-02  0.1294392E+00
          2   -1    0    0  503    0  0.00000000000E+00  0.00000000000E+00  0.25545784516E+03  0.25545784516E+03  0.00000000000E+00 0.  1.
         -2   -1    0    0    0  501 -0.00000000000E+00 -0.00000000000E+00 -0.14156736272E+02  0.14156736272E+02  0.00000000000E+00 0. -1.
         21    1    1    2  502  501  0.50086787066E+02  0.89619752645E+01  0.48796428275E+02  0.70498898229E+02  0.00000000000E+00 0. -1.
         21    1    1    2  503  502 -0.50086787066E+02 -0.89619752645E+01  0.19250468061E+03  0.19911568320E+03  0.00000000000E+00 0.  1.
</event>
<event>
 4    1  0.5843276E+002  0.2140441E+02  0.7546771E-02  0.1513569E+00
          2   -1    0    0  503    0  0.00000000000E+00  0.00000000000E+00  0.17170034673E+03  0.17170034673E+03  0.00000000000E+00 0. -1.
         -2   -1    0    0    0  501 -0.00000000000E+00 -0.00000000000E+00 -0.41766226903E+01  0.41766226903E+01  0.00000000000E+00 0.  1.
         21    1    1    2  502  501  0.14837658072E+02 -0.15427007437E+02  0.30915758864E+02  0.37602297824E+02  0.00000000000E+00 0.  1.
         21    1    1    2  503  502 -0.14837658072E+02  0.15427007437E+02  0.13660796517E+03  0.13827467159E+03  0.00000000000E+00 0. -1.
</event>
<event>
 4    1  0.5843276E+002  0.2492252E+02  0.7546771E-02  0.1469672E+00
          2   -1    0    0  502    0  0.00000000000E+00  0.00000000000E+00  0.15497780677E+02  0.15497780677E+02  0.00000000000E+00 0.  1.
         -2   -1    0    0    0  501 -0.00000000000E+00 -0.00000000000E+00 -0.40894685854E+02  0.40894685854E+02  0.00000000000E+00 0. -1.
         21    1    1    2  502  503  0.13679639432E+02  0.20832656688E+02 -0.87157482290E+01  0.26402582958E+02  0.00000000000E+00 0.  1.
         21    1    1    2  503  501 -0.13679639432E+02 -0.20832656688E+02 -0.16681156948E+02  0.29989883574E+02  0.00000000000E+00 0. -1.
</event>
<event>
 4    1  0.5843276E+002  0.1005040E+03  0.7546771E-02  0.1162938E+00
          2   -1    0    0  503    0  0.00000000000E+00  0.00000000000E+00  0.56358079133E+03  0.56358079133E+03  0.00000000000E+00 0. -1.
         -2   -1    0    0    0  501 -0.00000000000E+00 -0.00000000000E+00 -0.37758981000E+02  0.37758981000E+02  0.00000000000E+00 0.  1.
         21    1    1    2  502  501  0.97118077882E+02  0.25867493752E+02  0.44986012324E+02  0.11011262230E+03  0.00000000000E+00 0.  1.
         21    1    1    2  503  502 -0.97118077882E+02 -0.25867493752E+02  0.48083579801E+03  0.49122715004E+03  0.00000000000E+00 0. -1.
</event>
<event>
 4    1  0.5843276E+002  0.2578207E+02  0.7546771E-02  0.1460242E+00
          2   -1    0    0  503    0  0.00000000000E+00  0.00000000000E+00  0.60997481213E+03  0.60997481213E+03  0.00000000000E+00 0. -1.
         -2   -1    0    0    0  501 -0.00000000000E+00 -0.00000000000E+00 -0.11996947988E+01  0.11996947988E+01  0.00000000000E+00 0.  1.
         21    1    1    2  502  501  0.24735441142E+02  0.72713769636E+01  0.21187437217E+03  0.21343726140E+03  0.00000000000E+00 0.  1.
         21    1    1    2  503  502 -0.24735441142E+02 -0.72713769636E+01  0.39690074516E+03  0.39773724553E+03  0.00000000000E+00 0. -1.
</event>
<event>
 4    1  0.5843276E+002  0.3636243E+02  0.7546771E-02  0.1371230E+00
          2   -1    0    0  502    0  0.00000000000E+00  0.00000000000E+00  0.81922568887E+03  0.81922568887E+03  0.00000000000E+00 0. -1.
         -2   -1    0    0    0  501 -0.00000000000E+00 -0.00000000000E+00 -0.18298280640E+01  0.18298280640E+01  0.00000000000E+00 0.  1.
         21    1    1    2  502  503  0.84613293287E+01  0.35364275664E+02  0.54969057943E+03  0.55089196691E+03  0.00000000000E+00 0. -1.
         21    1    1    2  503  501 -0.84613293287E+01 -0.35364275664E+02  0.26770528138E+03  0.27016355003E+03  0.00000000000E+00 0.  1.
</event>
<event>
 4    1  0.5843276E+002  0.8477206E+02  0.7546771E-02  0.1193182E+00
          2   -1    0    0  503    0  0.00000000000E+00  0.00000000000E+00  0.15897261791E+04  0.15897261791E+04  0.00000000000E+00 0. -1.
         -2   -1    0    0    0  501 -0.00000000000E+00 -0.00000000000E+00 -0.29164613733E+02  0.29164613733E+02  0.00000000000E+00 0.  1.
         21    1    1    2  502  501 -0.84772052566E+02 -0.44680687634E-01  0.36206411204E+02  0.92180296728E+02  0.00000000000E+00 0.  1.
         21    1    1    2  503  502  0.84772052566E+02  0.44680687634E-01  0.15243551541E+04  0.15267104961E+04  0.00000000000E+00 0. -1.
</event>
<event>
 4    1  0.5843276E+002  0.2172691E+02  0.7546771E-02  0.1509134E+00
          2   -1    0    0  502    0  0.00000000000E+00  0.00000000000E+00  0.79475904072E+03  0.79475904072E+03  0.00000000000E+00 0. -1.
         -2   -1    0    0    0  501 -0.00000000000E+00 -0.00000000000E+00 -0.14179676133E+01  0.14179676133E+01  0.00000000000E+00 0.  1.
         21    1    1    2  502  503 -0.13238046275E+02  0.17228259493E+02  0.70013711013E+03  0.70047414783E+03  0.00000000000E+00 0. -1.
         21    1    1    2  503  501  0.13238046275E+02 -0.17228259493E+02  0.93203962982E+02  0.95702860510E+02  0.00000000000E+00 0.  1.
</event>
<event>
 4    1  0.5843276E+002  0.2039230E+02  0.7546771E-02  0.1528121E+00
          2   -1    0    0  502    0  0.00000000000E+00  0.00000000000E+00  0.55624660015E+03  0.55624660015E+03  0.00000000000E+00 0. -1.
         -2   -1    0    0    0  501 -0.00000000000E+00 -0.00000000000E+00 -0.19770096886E+01  0.19770096886E+01  0.00000000000E+00 0.  1.
         21    1    1    2  502  503 -0.61622322810E-01  0.20392202967E+02  0.49723652808E+03  0.49765450927E+03  0.00000000000E+00 0. -1.
         21    1    1    2  503  501  0.61622322810E-01 -0.20392202967E+02  0.57033062380E+02  0.60569100568E+02  0.00000000000E+00 0.  1.
</event>
<event>
 4    1  0.5843276E+002  0.2693322E+02  0.7546771E-02  0.1448280E+00
          2   -1    0    0  502    0  0.00000000000E+00  0.00000000000E+00  0.49996167751E+02  0.49996167751E+02  0.00000000000E+00 0.  1.
         -2   -1    0    0    0  501 -0.00000000000E+00 -0.00000000000E+00 -0.28689264709E+02  0.28689264709E+02  0.00000000000E+00 0. -1.
         21    1    1    2  502  503  0.20429963435E+02 -0.17550350114E+02  0.38313035111E+02  0.46832540551E+02  0.00000000000E+00 0.  1.
         21    1    1    2  503  501 -0.20429963435E+02  0.17550350114E+02 -0.17006132068E+02  0.31852891909E+02  0.00000000000E+00 0. -1.
</event>
<event>
 4    1  0.5843276E+002  0.2671987E+02  0.7546771E-02  0.1450443E+00
          2   -1    0    0  502    0  0.00000000000E+00  0.00000000000E+00  0.60454645650E+01  0.60454645650E+01  0.00000000000E+00 0. -1.
         -2   -1    0    0    0  501 -0.00000000000E+00 -0.00000000000E+00 -0.19920713305E+03  0.19920713305E+03  0.00000000000E+00 0.  1.
         21    1    1    2  502  503 -0.21521917867E+02  0.15835348083E+02 -0.31095538297E+02  0.40998581677E+02  0.00000000000E+00 0. -1.
         21    1    1    2  503  501  0.21521917867E+02 -0.15835348083E+02 -0.16206613019E+03  0.16425401594E+03  0.00000000000E+00 0.  1.
</event>
<event>
 4    1  0.5843276E+002  0.2527501E+02  0.7546771E-02  0.1465750E+00
          2   -1    0    0  502    0  0.00000000000E+00  0.00000000000E+00  0.14718683972E+04  0.14718683972E+04  0.00000000000E+00 0. -1.
         -2   -1    0    0    0  501 -0.00000000000E+00 -0.00000000000E+00 -0.51843206212E+00  0.51843206212E+00  0.00000000000E+00 0.  1.
         21    1    1    2  502  503 -0.18429473759E+02 -0.17296844501E+02  0.10327305875E+04  0.10330398311E+04  0.00000000000E+00 0. -1.
         21    1    1    2  503  501  0.18429473759E+02  0.17296844501E+02  0.43861937769E+03  0.43934699819E+03  0.00000000000E+00 0.  1.
</event>
<event>
 4    1  0.5843276E+002  0.2321629E+02  0.7546771E-02  0.1489800E+00
          2   -1    0    0  502    0  0.00000000000E+00  0.00000000000E+00  0.46266221297E+01  0.46266221297E+01  0.00000000000E+00 0. -1.
         -2   -1    0    0    0  501 -0.00000000000E+00 -0.00000000000E+00 -0.14622491370E+03  0.14622491370E+03  0.00000000000E+00 0.  1.
         21    1    1    2  502  503 -0.19990630984E+02 -0.11805545547E+02 -0.10480687522E+03  0.10734746074E+03  0.00000000000E+00 0. -1.
         21    1    1    2  503  501  0.19990630984E+02  0.11805545547E+02 -0.36791416349E+02  0.43504075094E+02  0.00000000000E+00 0.  1.
</event>
<event>
 4    1  0.5843276E+002  0.2104459E+02  0.7546771E-02  0.1518629E+00
          2   -1    0    0  503    0  0.00000000000E+00  0.00000000000E+00  0.16354632242E+03  0.16354632242E+03  0.00000000000E+00 0. -1.
         -2   -1    0    0    0  501 -0.00000000000E+00 -0.00000000000E+00 -0.48595747530E+01  0.48595747530E+01  0.00000000000E+00 0.  1.
         21    1    1    2  502  501 -0.16930764114E+02 -0.12498966618E+02  0.23314533726E+02  0.31407680953E+02  0.00000000000E+00 0.  1.
         21    1    1    2  503  502  0.16930764114E+02  0.12498966618E+02  0.13537221394E+03  0.13699821622E+03  0.00000000000E+00 0. -1.
</event>
<event>
 4    1  0.5843276E+002  0.2416792E+02  0.7546771E-02  0.1478331E+00
          2   -1    0    0  503    0  0.00000000000E+00  0.00000000000E+00  0.10578591371E+03  0.10578591371E+03  0.00000000000E+00 0. -1.
         -2   -1    0    0    0  501 -0.00000000000E+00 -0.00000000000E+00 -0.60947996215E+01  0.60947996215E+01  0.00000000000E+00 0.  1.
         21    1    1    2  502  501 -0.21292601608E+02  0.11432997205E+02  0.32687536494E+02  0.40651732441E+02  0.00000000000E+00 0.  1.
         21    1    1    2  503  502  0.21292601608E+02 -0.11432997205E+02  0.67003577595E+02  0.71228980892E+02  0.00000000000E+00 0. -1.
</event>
<event>
 4    1  0.5843276E+002  0.2623180E+02  0.7546771E-02  0.1455481E+00
          2   -1    0    0  503    0  0.00000000000E+00  0.00000000000E+00  0.14930251252E+04  0.14930251252E+04  0.00000000000E+00 0. -1.
         -2   -1    0    0    0  501 -0.00000000000E+00 -0.00000000000E+00 -0.80265261662E+00  0.80265261662E+00  0.00000000000E+00 0.  1.
         21    1    1    2  502  501 -0.23721187963E+02 -0.11198781343E+02  0.25872362599E+03  0.26005003770E+03  0.00000000000E+00 0.  1.
         21    1    1    2  503  502  0.23721187963E+02  0.11198781343E+02  0.12334988466E+04  0.12337777401E+04  0.00000000000E+00 0. -1.
</event>
<event>
 4    1  0.5843276E+002  0.2083329E+02  0.7546771E-02  0.1521658E+00
          2   -1    0    0  503    0  0.00000000000E+00  0.00000000000E+00  0.41896729606E+02  0.41896729606E+02  0.00000000000E+00 0. -1.
         -2   -1    0    0    0  501 -0.00000000000E+00 -0.00000000000E+00 -0.12935044794E+02  0.12935044794E+02  0.00000000000E+00 0.  1.
         21    1    1    2  502  501  0.14716142927E+02  0.14746569564E+02  0.26714573054E+02  0.33877641447E+02  0.00000000000E+00 0. -1.
         21    1    1    2  503  502 -0.14716142927E+02 -0.14746569564E+02  0.22471117576E+01  0.20954132953E+02  0.00000000000E+00 0.  1.
</event>
<event>
 4    1  0.5843276E+002  0.9934681E+02  0.7546771E-02  0.1164945E+00
          2   -1    0    0  502    0  0.00000000000E+00  0.00000000000E+00  0.68349443026E+03  0.68349443026E+03  0.00000000000E+00 0. -1.
         -2   -1    0    0    0  501 -0.00000000000E+00 -0.00000000000E+00 -0.33166581245E+02  0.33166581245E+02  0.00000000000E+00 0.  1.
         21    1    1    2  502  503  0.44255458693E+02 -0.88945170657E+02  0.59441688208E+03  0.60266177804E+03  0.00000000000E+00 0. -1.
         21    1    1    2  503  501 -0.44255458693E+02  0.88945170657E+02  0.55910966935E+02  0.11399923347E+03  0.00000000000E+00 0.  1.
</event>
<event>
 4    1  0.5843276E+002  0.2145573E+02  0.7546771E-02  0.1512857E+00
          2   -1    0    0  502    0  0.00000000000E+00  0.00000000000E+00  0.82621512397E+02  0.82621512397E+02  0.00000000000E+00 0. -1.
         -2   -1    0    0    0  501 -0.00000000000E+00 -0.00000000000E+00 -0.13296952378E+02  0.13296952378E+02  0.00000000000E+00 0.  1.
         21    1    1    2  502  503  0.21218955841E+02 -0.31787404884E+01  0.71217583716E+02  0.74379383625E+02  0.00000000000E+00 0. -1.
         21    1    1    2  503  501 -0.21218955841E+02  0.31787404884E+01 -0.18930236967E+01  0.21539081150E+02  0.00000000000E+00 0.  1.
</event>
<event>
 4    1  0.5843276E+002  0.2120776E+02  0.7546771E-02  0.1516319E+00
          2   -1    0    0  502    0  0.00000000000E+00  0.00000000000E+00  0.54231797460E+03  0.54231797460E+03  0.00000000000E+00 0. -1.
         -2   -1    0    0    0  501 -0.00000000000E+00 -0.00000000000E+00 -0.93052389541E+00  0.93052389541E+00  0.00000000000E+00 0.  1.
         21    1    1    2  502  503 -0.21168996373E+02  0.12817082292E+01  0.36026068458E+03  0.36088437211E+03  0.00000000000E+00 0.  1.
         21    1    1    2  503  501  0.21168996373E+02 -0.12817082292E+01  0.18112676613E+03  0.18236412638E+03  0.00000000000E+00 0. -1.
</event>
<event>
 4    1  0.5843276E+002  0.2547572E+02  0.7546771E-02  0.1463551E+00
          2   -1    0    0  503    0  0.00000000000E+00  0.00000000000E+00  0.12794126790E+04  0.12794126790E+04  0.00000000000E+00 0. -1.
         -2   -1    0    0    0  501 -0.00000000000E+00 -0.00000000000E+00 -0.12974277218E+01  0.12974277218E+01  0.00000000000E+00 0.  1.
         21    1    1    2  502  501 -0.25459410061E+02 -0.91132890872E+00  0.13932787959E+03  0.14163781314E+03  0.00000000000E+00 0.  1.
         21    1    1    2  503  502  0.25459410061E+02  0.91132890872E+00  0.11387873717E+04  0.11390722936E+04  0.00000000000E+00 0. -1.
</event>
<event>
 4    1  0.5843276E+002  0.3441227E+02  0.7546771E-02  0.1384743E+00
          2   -1    0    0  502    0  0.00000000000E+00  0.00000000000E+00  0.17766567977E+04  0.17766567977E+04  0.00000000000E+00 0. -1.
         -2   -1    0    0    0  501 -0.00000000000E+00 -0.00000000000E+00 -0.86923931153E+01  0.86923931153E+01  0.00000000000E+00 0.  1.
         21    1    1    2  502  503  0.17320192604E+02 -0.29735753693E+02  0.17417490006E+04  0.17420889143E+04  0.00000000000E+00 0. -1.
         21    1    1    2  503  501 -0.17320192604E+02  0.29735753693E+02  0.26215403942E+02  0.43260276506E+02  0.00000000000E+00 0.  1.
</event>
<event>
 4    1  0.5843276E+002  0.2064176E+02  0.7546771E-02  0.1524442E+00
          2   -1    0    0  502    0  0.00000000000E+00  0.00000000000E+00  0.18778607515E+03  0.18778607515E+03  0.00000000000E+00 0. -1.
         -2   -1    0    0    0  501 -0.00000000000E+00 -0.00000000000E+00 -0.16105556281E+02  0.16105556281E+02  0.00000000000E+00 0.  1.
         21    1    1    2  502  503  0.42915607183E+01 -0.20190706726E+02  0.18033245086E+03  0.18150998585E+03  0.00000000000E+00 0. -1.
         21    1    1    2  503  501 -0.42915607183E+01  0.20190706726E+02 -0.86519319919E+01  0.22381645576E+02  0.00000000000E+00 0.  1.
</event>
<event>
 4    1  0.5843276E+002  0.5227102E+02  0.7546771E-02  0.1288615E+00
          2   -1    0    0  503    0  0.00000000000E+00  0.00000000000E+00  0.48193899793E+02  0.48193899793E+02  0.00000000000E+00 0. -1.
         -2   -1    0    0    0  501 -0.00000000000E+00 -0.00000000000E+00 -0.80329199525E+02  0.80329199525E+02  0.00000000000E+00 0.  1.
         21    1    1    2  502  501 -0.23138616405E+02 -0.46870710888E+02 -0.50925680796E+02  0.72977284636E+02  0.00000000000E+00 0.  1.
         21    1    1    2  503  502  0.23138616405E+02  0.46870710888E+02  0.18790381064E+02  0.55545814683E+02  0.00000000000E+00 0. -1.
</event>
<event>
 4    1  0.5843276E+002  0.2216651E+02  0.7546771E-02  0.1503238E+00
          2   -1    0    0  502    0  0.00000000000E+00  0.00000000000E+00  0.11487875217E+04  0.11487875217E+04  0.00000000000E+00 0.  1.
         -2   -1    0    0    0  501 -0.00000000000E+00 -0.00000000000E+00 -0.10823077180E+02  0.10823077180E+02  0.00000000000E+00 0. -1.
         21    1    1    2  502  503  0.97376317983E+01  0.19913125302E+02  0.11372154273E+04  0.11374314407E+04  0.00000000000E+00 0.  1.
         21    1    1    2  503  501 -0.97376317983E+01 -0.19913125302E+02  0.74901717706E+00  0.22179158213E+02  0.00000000000E+00 0. -1.
</event>
<event>
 4    1  0.5843276E+002  0.2122150E+02  0.7546771E-02  0.1516126E+00
          2   -1    0    0  502    0  0.00000000000E+00  0.00000000000E+00  0.11096327545E+03  0.11096327545E+03  0.00000000000E+00 0.  1.
         -2   -1    0    0    0  501 -0.00000000000E+00 -0.00000000000E+00 -0.48563933280E+01  0.48563933280E+01  0.00000000000E+00 0. -1.
         21    1    1    2  502  503  0.15828746401E+02  0.14135156835E+02  0.76525415229E+02  0.79413418559E+02  0.00000000000E+00 0.  1.
         21    1    1    2  503  501 -0.15828746401E+02 -0.14135156835E+02  0.29581466890E+02  0.36406250215E+02  0.00000000000E+00 0. -1.
</event>
<event>
 4    1  0.5843276E+002  0.3108423E+02  0.7546771E-02  0.1410403E+00
          2   -1    0    0  502    0  0.00000000000E+00  0.00000000000E+00  0.52659414577E+02  0.52659414577E+02  0.00000000000E+00 0.  1.
         -2   -1    0    0    0  501 -0.00000000000E+00 -0.00000000000E+00 -0.23188814401E+02  0.23188814401E+02  0.00000000000E+00 0. -1.
         21    1    1    2  502  503 -0.19856010376E+02 -0.23915851420E+02  0.32061618567E+02  0.44656203178E+02  0.00000000000E+00 0.  1.
         21    1    1    2  503  501  0.19856010376E+02  0.23915851420E+02 -0.25910183907E+01  0.31192025800E+02  0.00000000000E+00 0. -1.
</event>
<event>
 4    1  0.5843276E+002  0.2524637E+02  0.7546771E-02  0.1466066E+00
          2   -1    0    0  502    0  0.00000000000E+00  0.00000000000E+00  0.13626523338E+04  0.13626523338E+04  0.00000000000E+00 0.  1.
         -2   -1    0    0    0  501 -0.00000000000E+00 -0.00000000000E+00 -0.19756440652E+01  0.19756440652E+01  0.00000000000E+00 0. -1.
         21    1    1    2  502  503  0.18172275642E+02 -0.17525625287E+02  0.12764333685E+04  0.12766830160E+04  0.00000000000E+00 0.  1.
         21    1    1    2  503  501 -0.18172275642E+02  0.17525625287E+02  0.84243321283E+02  0.87944961905E+02  0.00000000000E+00 0. -1.
</event>
<event>
 4    1  0.5843276E+002  0.3216831E+02  0.7546771E-02  0.1401644E+00
          2   -1    0    0  502    0  0.00000000000E+00  0.00000000000E+00  0.23418505994E+04  0.23418505994E+04  0.00000000000E+00 0. -1.
         -2   -1    0    0    0  501 -0.00000000000E+00 -0.00000000000E+00 -0.44870267200E+00  0.44870267200E+00  0.00000000000E+00 0.  1.
         21    1    1    2  502  503 -0.75378368299E+01 -0.31272695342E+02  0.10262121312E+04  0.10267161919E+04  0.00000000000E+00 0. -1.
         21    1    1    2  503  501  0.75378368299E+01  0.31272695342E+02  0.13151897655E+04  0.13155831101E+04  0.00000000000E+00 0.  1.
</event>
<event>
 4    1  0.5843276E+002  0.2730683E+02  0.7546771E-02  0.1444550E+00
          2   -1    0    0  502    0  0.00000000000E+00  0.00000000000E+00  0.93703768962E+00  0.93703768962E+00  0.00000000000E+00 0.  1.
         -2   -1    0    0    0  501 -0.00000000000E+00 -0.00000000000E+00 -0.10019510493E+04  0.10019510493E+04  0.00000000000E+00 0. -1.
         21    1    1    2  502  503 -0.23031864689E+02 -0.14669564382E+02 -0.27303518072E+03  0.27439729011E+03  0.00000000000E+00 0. -1.
         21    1    1    2  503  501  0.23031864689E+02  0.14669564382E+02 -0.72797883085E+03  0.72849079684E+03  0.00000000000E+00 0.  1.
</event>
<event>
 4    1  0.5843276E+002  0.2183398E+02  0.7546771E-02  0.1507683E+00
          2   -1    0    0  502    0  0.00000000000E+00  0.00000000000E+00  0.99420266681E+03  0.99420266681E+03  0.00000000000E+00 0.  1.
         -2   -1    0    0    0  501 -0.00000000000E+00 -0.00000000000E+00 -0.87132528502E+00  0.87132528502E+00  0.00000000000E+00 0. -1.
         21    1    1    2  502  503 -0.12532682873E+02  0.17878887232E+02  0.83030713443E+03  0.83059416096E+03  0.00000000000E+00 0.  1.
         21    1    1    2  503  501  0.12532682873E+02 -0.17878887232E+02  0.16302420710E+03  0.16447983113E+03  0.00000000000E+00 0. -1.
</event>
<event>
 4    1  0.5843276E+002  0.4532576E+02  0.7546771E-02  0.1319818E+00
          2   -1    0    0  503    0  0.00000000000E+00  0.00000000000E+00  0.60604355387E+01  0.60604355387E+01  0.00000000000E+00 0. -1.
         -2   -1    0    0    0  501 -0.00000000000E+00 -0.00000000000E+00 -0.45469980073E+03  0.45469980073E+03  0.00000000000E+00 0.  1.
         21    1    1    2  502  501  0.16162175230E+02 -0.42346294854E+02 -0.34053635743E+03  0.34353956879E+03  0.00000000000E+00 0.  1.
         21    1    1    2  503  502 -0.16162175230E+02  0.42346294854E+02 -0.10810300776E+03  0.11722066747E+03  0.00000000000E+00 0. -1.
</event>
<event>
 4    1  0.5843276E+002  0.2917881E+02  0.7546771E-02  0.1426869E+00
          2   -1    0    0  502    0  0.00000000000E+00  0.00000000000E+00  0.13262828698E+04  0.13262828698E+04  0.00000000000E+00 0.  1.
         -2   -1    0    0    0  501 -0.00000000000E+00 -0.00000000000E+00 -0.80020501564E+00  0.80020501564E+00  0.00000000000E+00 0. -1.
         21    1    1    2  502  503 -0.28609098801E+02 -0.57378164197E+01  0.95782867689E+03  0.95827301817E+03  0.00000000000E+00 0.  1.
         21    1    1    2  503  501  0.28609098801E+02  0.57378164197E+01  0.36765398787E+03  0.36881005662E+03  0.00000000000E+00 0. -1.
</event>
<event>
 4    1  0.5843276E+002  0.2006087E+02  0.7546771E-02  0.1533107E+00
          2   -1    0    0  503    0  0.00000000000E+00  0.00000000000E+00  0.19711626818E+01  0.19711626818E+01  0.00000000000E+00 0.  1.
         -2   -1    0    0    0  501 -0.00000000000E+00 -0.00000000000E+00 -0.21434043004E+03  0.21434043004E+03  0.00000000000E+00 0. -1.
         21    1    1    2  502  501  0.54091465889E+01 -0.19317857293E+02 -0.12975231814E+03  0.13129395470E+03  0.00000000000E+00 0.  1.
         21    1    1    2  503  502 -0.54091465889E+01  0.19317857293E+02 -0.82616949213E+02  0.85017638020E+02  0.00000000000E+00 0. -1.
</event>
<event>
 4    1  0.5843276E+002  0.6641370E+02  0.7546771E-02  0.1239471E+00
          2   -1    0    0  502    0  0.00000000000E+00  0.00000000000E+00  0.97429619049E+03  0.97429619049E+03  0.00000000000E+00 0.  1.
         -2   -1    0    0    0  501 -0.00000000000E+00 -0.00000000000E+00 -0.57403481457E+01  0.57403481457E+01  0.00000000000E+00 0. -1.
         21    1    1    2  502  503 -0.12003872950E+02  0.65319883239E+02  0.70955132563E+03  0.71265269509E+03  0.00000000000E+00 0.  1.
         21    1    1    2  503  501  0.12003872950E+02 -0.65319883239E+02  0.25900451671E+03  0.26738384355E+03  0.00000000000E+00 0. -1.
</event>
<event>
 4    1  0.5843276E+002  0.2404619E+02  0.7546771E-02  0.1479763E+00
          2   -1    0    0  503    0  0.00000000000E+00  0.00000000000E+00  0.18987624594E+02  0.18987624594E+02  0.00000000000E+00 0. -1.
         -2   -1    0    0    0  501 -0.00000000000E+00 -0.00000000000E+00 -0.39446746055E+02  0.39446746055E+02  0.00000000000E+00 0.  1.
         21    1    1    2  502  501  0.22131851170E+02 -0.94021368750E+01 -0.24180942730E+02  0.34101862197E+02  0.00000000000E+00 0.  1.
         21    1    1    2  503  502 -0.22131851170E+02  0.94021368750E+01  0.37218212682E+01  0.24332508452E+02  0.00000000000E+00 0. -1.
</event>
<event>
 4    1  0.5843276E+002  0.2346162E+02  0.7546771E-02  0.1486782E+00
          2   -1    0    0  502    0  0.00000000000E+00  0.00000000000E+00  0.54077072341E+02  0.54077072341E+02  0.00000000000E+00 0. -1.
         -2   -1    0    0    0  501 -0.00000000000E+00 -0.00000000000E+00 -0.28056563458E+02  0.28056563458E+02  0.00000000000E+00 0.  1.
         21    1    1    2  502  503 -0.20510562036E+02 -0.11391415010E+02  0.45791742170E+02  0.51452221934E+02  0.00000000000E+00 0. -1.
         21    1    1    2  503  501  0.20510562036E+02  0.11391415010E+02 -0.19771233288E+02  0.30681413864E+02  0.00000000000E+00 0.  1.
</event>
<event>
 4    1  0.5843276E+002  0.2422236E+02  0.7546771E-02  0.1477694E+00
          2   -1    0    0  502    0  0.00000000000E+00  0.00000000000E+00  0.84580297862E+02  0.84580297862E+02  0.00000000000E+00 0. -1.
         -2   -1    0    0    0  501 -0.00000000000E+00 -0.00000000000E+00 -0.19009352800E+02  0.19009352800E+02  0.00000000000E+00 0.  1.
         21    1    1    2  502  503  0.16610368800E+02  0.17630043958E+02  0.74061790316E+02  0.77922214974E+02  0.00000000000E+00 0. -1.
         21    1    1    2  503  501 -0.16610368800E+02 -0.17630043958E+02 -0.84908452547E+01  0.25667435687E+02  0.00000000000E+00 0.  1.
</event>
<event>
 4    1  0.5843276E+002  0.2381046E+02  0.7546771E-02  0.1482564E+00
          2   -1    0    0  503    0  0.00000000000E+00  0.00000000000E+00  0.20772171734E+02  0.20772171734E+02  0.00000000000E+00 0. -1.
         -2   -1    0    0    0  501 -0.00000000000E+00 -0.00000000000E+00 -0.29711245471E+02  0.29711245471E+02  0.00000000000E+00 0.  1.
         21    1    1    2  502  501  0.12879867605E+02  0.20026156493E+02 -0.11670578560E+02  0.26516793496E+02  0.00000000000E+00 0.  1.
         21    1    1    2  503  502 -0.12879867605E+02 -0.20026156493E+02  0.27315048220E+01  0.23966623709E+02  0.00000000000E+00 0. -1.
</event>
<event>
 4    1  0.5843276E+002  0.2106161E+02  0.7546771E-02  0.1518387E+00
          2   -1    0    0  503    0  0.00000000000E+00  0.00000000000E+00  0.13485899735E+04  0.13485899735E+04  0.00000000000E+00 0.  1.
         -2   -1    0    0    0  501 -0.00000000000E+00 -0.00000000000E+00 -0.15046987680E+01  0.15046987680E+01  0.00000000000E+00 0. -1.
         21    1    1    2  502  501  0.57593466998E+00 -0.21053736811E+02  0.76822866084E+02  0.79657669359E+02  0.00000000000E+00 0. -1.
         21    1    1    2  503  502 -0.57593466998E+00  0.21053736811E+02  0.12702624086E+04  0.12704370029E+04  0.00000000000E+00 0.  1.
</event>
<event>
 4    1  0.5843276E+002  0.2048292E+02  0.7546771E-02  0.1526777E+00
          2   -1    0    0  503    0  0.00000000000E+00  0.00000000000E+00  0.11930224617E+01  0.11930224617E+01  0.00000000000E+00 0. -1.
         -2   -1    0    0    0  501 -0.00000000000E+00 -0.00000000000E+00 -0.58101707785E+03  0.58101707785E+03  0.00000000000E+00 0.  1.
         21    1    1    2  502  501  0.13913327682E+02  0.15032277552E+02 -0.47280710575E+03  0.47325057771E+03  0.00000000000E+00 0.  1.
         21    1    1    2  503  502 -0.13913327682E+02 -0.15032277552E+02 -0.10701694964E+03  0.10895952260E+03  0.00000000000E+00 0. -1.
</event>
<event>
 4    1  0.5843276E+002  0.2570514E+02  0.7546771E-02  0.1461067E+00
          2   -1    0    0  503    0  0.00000000000E+00  0.00000000000E+00  0.44251897678E+01  0.44251897678E+01  0.00000000000E+00 0. -1.
         -2   -1    0    0    0  501 -0.00000000000E+00 -0.00000000000E+00 -0.15841787272E+03  0.15841787272E+03  0.00000000000E+00 0.  1.
         21    1    1    2  502  501  0.67931913811E+01 -0.24791268258E+02 -0.57480490920E+02  0.62966350279E+02  0.00000000000E+00 0. -1.
         21    1    1    2  503  502 -0.67931913811E+01  0.24791268258E+02 -0.96512192036E+02  0.99876712213E+02  0.00000000000E+00 0.  1.
</event>
<event>
 4    1  0.5843276E+002  0.2039999E+02  0.7546771E-02  0.1528006E+00
          2   -1    0    0  502    0  0.00000000000E+00  0.00000000000E+00  0.12511187864E+04  0.12511187864E+04  0.00000000000E+00 0.  1.
         -2   -1    0    0    0  501 -0.00000000000E+00 -0.00000000000E+00 -0.13973161696E+01  0.13973161696E+01  0.00000000000E+00 0. -1.
         21    1    1    2  502  503  0.58110470152E+01 -0.19554831141E+02  0.11715200826E+04  0.11716976844E+04  0.00000000000E+00 0.  1.
         21    1    1    2  503  501 -0.58110470152E+01  0.19554831141E+02  0.78201387614E+02  0.80818418155E+02  0.00000000000E+00 0. -1.
</event>
<event>
 4    1  0.5843276E+002  0.2279933E+02  0.7546771E-02  0.1495033E+00
          2   -1    0    0  502    0  0.00000000000E+00  0.00000000000E+00  0.10264329991E+04  0.10264329991E+04  0.00000000000E+00 0.  1.
         -2   -1    0    0    0  501 -0.00000000000E+00 -0.00000000000E+00 -0.23524987143E+01  0.23524987143E+01  0.00000000000E+00 0. -1.
         21    1    1    2  502  503  0.42468325085E+01 -0.22400306531E+02  0.96771492310E+03  0.96798346149E+03  0.00000000000E+00 0.  1.
         21    1    1    2  503  501 -0.42468325085E+01  0.22400306531E+02  0.56365577294E+02  0.60802036337E+02  0.00000000000E+00 0. -1.
</event>
<event>
 4    1  0.5843276E+002  0.2055832E+02  0.7546771E-02  0.1525665E+00
          2   -1    0    0  502    0  0.00000000000E+00  0.00000000000E+00  0.11329499222E+04  0.11329499222E+04  0.00000000000E+00 0.  1.
         -2   -1    0    0    0  501 -0.00000000000E+00 -0.00000000000E+00 -0.40762379983E+00  0.40762379983E+00  0.00000000000E+00 0. -1.
         21    1    1    2  502  503  0.19482679258E+02 -0.65627647290E+01  0.40122953384E+03  0.40175587550E+03  0.00000000000E+00 0. -1.
         21    1    1    2  503  501 -0.19482679258E+02  0.65627647290E+01  0.73131276456E+03  0.73160167050E+03  0.00000000000E+00 0.  1.
</event>
<event>
 4    1  0.5843276E+002  0.3299687E+02  0.7546771E-02  0.1395220E+00
          2   -1    0    0  503    0  0.00000000000E+00  0.00000000000E+00  0.74245426699E+03  0.74245426699E+03  0.00000000000E+00 0. -1.
         -2   -1    0    0    0  501 -0.00000000000E+00 -0.00000000000E+00 -0.64725199773E+01  0.64725199773E+01  0.00000000000E+00 0.  1.
         21    1    1    2  502  501  0.24297477915E+01  0.32907286895E+02  0.38669520099E+02  0.50834289508E+02  0.00000000000E+00 0.  1.
         21    1    1    2  503  502 -0.24297477915E+01 -0.32907286895E+02  0.69731222691E+03  0.69809249746E+03  0.00000000000E+00 0. -1.
</event>
<event>
 4    1  0.5843276E+002  0.3649975E+02  0.7546771E-02  0.1370315E+00
          2   -1    0    0  503    0  0.00000000000E+00  0.00000000000E+00  0.18482280596E+03  0.18482280596E+03  0.00000000000E+00 0. -1.
         -2   -1    0    0    0  501 -0.00000000000E+00 -0.00000000000E+00 -0.33239775999E+02  0.33239775999E+02  0.00000000000E+00 0.  1.
         21    1    1    2  502  501 -0.20174728626E+02 -0.30417296735E+02 -0.20696352550E+02  0.41959154242E+02  0.00000000000E+00 0.  1.
         21    1    1    2  503  502  0.20174728626E+02  0.30417296735E+02  0.17227938251E+03  0.17610342771E+03  0.00000000000E+00 0. -1.
</event>
<event>
 4    1  0.5843276E+002  0.3194903E+02  0.7546771E-02  0.1403383E+00
          2   -1    0    0  502    0  0.00000000000E+00  0.00000000000E+00  0.24617972871E+04  0.24617972871E+04  0.00000000000E+00 0. -1.
         -2   -1    0    0    0  501 -0.00000000000E+00 -0.00000000000E+00 -0.62622957963E+00  0.62622957963E+00  0.00000000000E+00 0.  1.
         21    1    1    2  502  503 -0.10859960077E+02 -0.30046662058E+02  0.19462690562E+04  0.19465312686E+04  0.00000000000E+00 0. -1.
         21    1    1    2  503  501  0.10859960077E+02  0.30046662058E+02  0.51490200130E+03  0.51589224802E+03  0.00000000000E+00 0.  1.
</event>
<event>
 4    1  0.5843276E+002  0.3556089E+02  0.7546771E-02  0.1376662E+00
          2   -1    0    0  502    0  0.00000000000E+00  0.00000000000E+00  0.80421254360E+03  0.80421254360E+03  0.00000000000E+00 0.  1.
         -2   -1    0    0    0  501 -0.00000000000E+00 -0.00000000000E+00 -0.15772556244E+01  0.15772556244E+01  0.00000000000E+00 0. -1.
         21    1    1    2  502  503  0.30826467875E+02  0.17728669705E+02  0.37905802455E+03  0.38072242228E+03  0.00000000000E+00 0. -1.
         21    1    1    2  503  501 -0.30826467875E+02 -0.17728669705E+02  0.42357726343E+03  0.42506737695E+03  0.00000000000E+00 0.  1.
</event>
<event>
 4    1  0.5843276E+002  0.2148821E+02  0.7546771E-02  0.1512407E+00
          2   -1    0    0  503    0  0.00000000000E+00  0.00000000000E+00  0.80419693668E+02  0.80419693668E+02  0.00000000000E+00 0.  1.
         -2   -1    0    0    0  501 -0.00000000000E+00 -0.00000000000E+00 -0.74938252556E+01  0.74938252556E+01  0.00000000000E+00 0. -1.
         21    1    1    2  502  501  0.43894623151E+00  0.21483724821E+02  0.15207961836E+02  0.26325371967E+02  0.00000000000E+00 0. -1.
         21    1    1    2  503  502 -0.43894623151E+00 -0.21483724821E+02  0.57717906576E+02  0.61588146957E+02  0.00000000000E+00 0.  1.
</event>
<event>
 4    1  0.5843276E+002  0.2170031E+02  0.7546771E-02  0.1509497E+00
          2   -1    0    0  502    0  0.00000000000E+00  0.00000000000E+00  0.82030583501E+02  0.82030583501E+02  0.00000000000E+00 0. -1.
         -2   -1    0    0    0  501 -0.00000000000E+00 -0.00000000000E+00 -0.10785616641E+02  0.10785616641E+02  0.00000000000E+00 0.  1.
         21    1    1    2  502  503  0.48177529829E+01 -0.21158749667E+02  0.67362218819E+02  0.70771265040E+02  0.00000000000E+00 0. -1.
         21    1    1    2  503  501 -0.48177529829E+01  0.21158749667E+02  0.38827480420E+01  0.22044935101E+02  0.00000000000E+00 0.  1.
</event>
<event>
 4    1  0.5843276E+002  0.2778647E+02  0.7546771E-02  0.1439864E+00
          2   -1    0    0  502    0  0.00000000000E+00  0.00000000000E+00  0.76296181533E+03  0.76296181533E+03  0.00000000000E+00 0.  1.
         -2   -1    0    0    0  501 -0.00000000000E+00 -0.00000000000E+00 -0.79904931079E+01  0.79904931079E+01  0.00000000000E+00 0. -1.
         21    1    1    2  502  503  0.15980088708E+02  0.22731573092E+02  0.73772635078E+03  0.73824945397E+03  0.00000000000E+00 0.  1.
         21    1    1    2  503  501 -0.15980088708E+02 -0.22731573092E+02  0.17244971441E+02  0.32702854468E+02  0.00000000000E+00 0. -1.
</event>
<event>
 4    1  0.5843276E+002  0.3367361E+02  0.7546771E-02  0.1390136E+00
          2   -1    0    0  503    0  0.00000000000E+00  0.00000000000E+00  0.32490821120E+03  0.32490821120E+03  0.00000000000E+00 0. -1.
         -2   -1    0    0    0  501 -0.00000000000E+00 -0.00000000000E+00 -0.67691121535E+01  0.67691121535E+01  0.00000000000E+00 0.  1.
         21    1    1    2  502  501 -0.26831695300E+02 -0.20346310281E+02  0.27449501108E+03  0.27655274962E+03  0.00000000000E+00 0. -1.
         21    1    1    2  503  502  0.26831695300E+02  0.20346310281E+02  0.43644087961E+02  0.55124573727E+02  0.00000000000E+00 0.  1.
</event>
<event>
 4    1  0.5843276E+002  0.3315636E+02  0.7546771E-02  0.1394009E+00
          2   -1    0    0  502    0  0.00000000000E+00  0.00000000000E+00  0.16343159492E+02  0.16343159492E+02  0.00000000000E+00 0.  1.
         -2   -1    0    0    0  501 -0.00000000000E+00 -0.00000000000E+00 -0.78109311964E+02  0.78109311964E+02  0.00000000000E+00 0. -1.
         21    1    1    2  502  503  0.17600457371E+02 -0.28099252128E+02 -0.13287372249E+02  0.35719719079E+02  0.00000000000E+00 0.  1.
         21    1    1    2  503  501 -0.17600457371E+02  0.28099252128E+02 -0.48478780223E+02  0.58732752377E+02  0.00000000000E+00 0. -1.
</event>
<event>
 4    1  0.5843276E+002  0.4103330E+02  0.7546771E-02  0.1342535E+00
          2   -1    0    0  502    0  0.00000000000E+00  0.00000000000E+00  0.32347925167E+02  0.32347925167E+02  0.00000000000E+00 0.  1.
         -2   -1    0    0    0  501 -0.00000000000E+00 -0.00000000000E+00 -0.60835048410E+02  0.60835048410E+02  0.00000000000E+00 0. -1.
         21    1    1    2  502  503  0.37140108779E+01  0.40864875157E+02  0.34609767715E+01  0.41179002642E+02  0.00000000000E+00 0.  1.
         21    1    1    2  503  501 -0.37140108779E+01 -0.40864875157E+02 -0.31948100015E+02  0.52003970935E+02  0.00000000000E+00 0. -1.
</event>
<event>
 4    1  0.5843276E+002  0.3193884E+02  0.7546771E-02  0.1403464E+00
          2   -1    0    0  503    0  0.00000000000E+00  0.00000000000E+00  0.12937551640E+03  0.12937551640E+03  0.00000000000E+00 0. -1.
         -2   -1    0    0    0  501 -0.00000000000E+00 -0.00000000000E+00 -0.15607241078E+02  0.15607241078E+02  0.00000000000E+00 0.  1.
         21    1    1    2  502  501  0.19139345543E+02  0.25569017931E+02  0.58920316049E+01  0.32477765659E+02  0.00000000000E+00 0.  1.
         21    1    1    2  503  502 -0.19139345543E+02 -0.25569017931E+02  0.10787624372E+03  0.11250499182E+03  0.00000000000E+00 0. -1.
</event>
<event>
 4    1  0.5843276E+002  0.4700896E+02  0.7546771E-02  0.1311689E+00
          2   -1    0    0  503    0  0.00000000000E+00  0.00000000000E+00  0.59880171865E+02  0.59880171865E+02  0.00000000000E+00 0. -1.
         -2   -1    0    0    0  501 -0.00000000000E+00 -0.00000000000E+00 -0.56223138249E+02  0.56223138249E+02  0.00000000000E+00 0.  1.
         21    1    1    2  502  501  0.42231765312E+02  0.20647517000E+02 -0.32200266108E+02  0.56979813066E+02  0.00000000000E+00 0.  1.
         21    1    1    2  503  502 -0.42231765312E+02 -0.20647517000E+02  0.35857299724E+02  0.59123497048E+02  0.00000000000E+00 0. -1.
</event>
<event>
 4    1  0.5843276E+002  0.2474644E+02  0.7546771E-02  0.1471660E+00
          2   -1    0    0  503    0  0.00000000000E+00  0.00000000000E+00  0.85636509313E+03  0.85636509313E+03  0.00000000000E+00 0. -1.
         -2   -1    0    0    0  501 -0.00000000000E+00 -0.00000000000E+00 -0.89653341201E+00  0.89653341201E+00  0.00000000000E+00 0.  1.
         21    1    1    2  502  501 -0.17424469098E+02  0.17571974411E+02  0.23491113583E+03  0.23621098227E+03  0.00000000000E+00 0. -1.
         21    1    1    2  503  502  0.17424469098E+02 -0.17571974411E+02  0.62055742389E+03  0.62105064427E+03  0.00000000000E+00 0.  1.
</event>
<event>
 4    1  0.5843276E+002  0.2177409E+02  0.7546771E-02  0.1508494E+00
          2   -1    0    0  503    0  0.00000000000E+00  0.00000000000E+00  0.27944002245E+01  0.27944002245E+01  0.00000000000E+00 0. -1.
         -2   -1    0    0    0  501 -0.00000000000E+00 -0.00000000000E+00 -0.17607945012E+03  0.17607945012E+03  0.00000000000E+00 0.  1.
         21    1    1    2  502  501 -0.14829844410E+02  0.15943238400E+02 -0.10371323817E+03  0.10597427475E+03  0.00000000000E+00 0.  1.
         21    1    1    2  503  502  0.14829844410E+02 -0.15943238400E+02 -0.69571811722E+02  0.72899575597E+02  0.00000000000E+00 0. -1.
</event>
<event>
 4    1  0.5843276E+002  0.4892026E+02  0.7546771E-02  0.1302923E+00
          2   -1    0    0  503    0  0.00000000000E+00  0.00000000000E+00  0.24550245360E+03  0.24550245360E+03  0.00000000000E+00 0. -1.
         -2   -1    0    0    0  501 -0.00000000000E+00 -0.00000000000E+00 -0.45414721195E+02  0.45414721195E+02  0.00000000000E+00 0.  1.
         21    1    1    2  502  501 -0.24930745145E+02 -0.42090971511E+02 -0.28861735178E+02  0.56799574768E+02  0.00000000000E+00 0.  1.
         21    1    1    2  503  502  0.24930745145E+02  0.42090971511E+02  0.22894946759E+03  0.23411760003E+03  0.00000000000E+00 0. -1.
</event>
