<event>
 4    1  0.3593938E+003  0.2062980E+02  0.7546771E-02  0.1524617E+00
          2   -1    0    0  502    0  0.00000000000E+00  0.00000000000E+00  0.16852470236E+04  0.16852470236E+04  0.00000000000E+00 0. -1.
          1   -1    0    0  501    0 -0.00000000000E+00 -0.00000000000E+00 -0.40566152663E+00  0.40566152663E+00  0.00000000000E+00 0.  1.
          2    1    1    2  501    0  0.16085193359E+02 -0.12917243998E+02  0.13602389678E+04  0.13603953978E+04  0.00000000000E+00 0. -1.
          1    1    1    2  502    0 -0.16085193359E+02  0.12917243998E+02  0.32460239425E+03  0.32525728738E+03  0.00000000000E+00 0.  1.
</event>
<event>
 4    1  0.3593938E+003  0.2409011E+02  0.7546771E-02  0.1479245E+00
          2   -1    0    0  502    0  0.00000000000E+00  0.00000000000E+00  0.58522029823E+02  0.58522029823E+02  0.00000000000E+00 0.  1.
          1   -1    0    0  501    0 -0.00000000000E+00 -0.00000000000E+00 -0.75252189076E+03  0.75252189076E+03  0.00000000000E+00 0.  1.
          2    1    1    2  501    0  0.12802937956E+02  0.20406326052E+02  0.55841249219E+02  0.60815939339E+02  0.00000000000E+00 0.  1.
          1    1    1    2  502    0 -0.12802937956E+02 -0.20406326052E+02 -0.74984111015E+03  0.75022798124E+03  0.00000000000E+00 0.  1.
</event>
<event>
 4    1  0.3593938E+003  0.2401988E+02  0.7546771E-02  0.1480074E+00
          2   -1    0    0  502    0  0.00000000000E+00  0.00000000000E+00  0.50665646307E+02  0.50665646307E+02  0.00000000000E+00 0.  1.
          1   -1    0    0  501    0 -0.00000000000E+00 -0.00000000000E+00 -0.16447082945E+02  0.16447082945E+02  0.00000000000E+00 0.  1.
          2    1    1    2  501    0 -0.23675207700E+02 -0.40545481250E+01  0.35721066208E+02  0.43045898657E+02  0.00000000000E+00 0.  1.
          1    1    1    2  502    0  0.23675207700E+02  0.40545481250E+01 -0.15025028460E+01  0.24066830596E+02  0.00000000000E+00 0.  1.
</event>
<event>
 4    1  0.3593938E+003  0.5377992E+02  0.7546771E-02  0.1282566E+00
          2   -1    0    0  502    0  0.00000000000E+00  0.00000000000E+00  0.89885330541E+02  0.89885330541E+02  0.00000000000E+00 0. -1.
          1   -1    0    0  501    0 -0.00000000000E+00 -0.00000000000E+00 -0.34128213450E+02  0.34128213450E+02  0.00000000000E+00 0. -1.
          2    1    1    2  501    0  0.33724480711E+02 -0.41891994371E+02  0.42703255077E+02  0.68672030593E+02  0.00000000000E+00 0. -1.
          1    1    1    2  502    0 -0.33724480711E+02  0.41891994371E+02  0.13053862015E+02  0.55341513398E+02  0.00000000000E+00 0. -1.
</event>
<event>
 4    1  0.3593938E+003  0.2360692E+02  0.7546771E-02  0.1485014E+00
          2   -1    0    0  502    0  0.00000000000E+00  0.00000000000E+00  0.21617033460E+02  0.21617033460E+02  0.00000000000E+00 0. -1.
          1   -1    0    0  501    0 -0.00000000000E+00 -0.00000000000E+00 -0.70774993220E+03  0.70774993220E+03  0.00000000000E+00 0.  1.
          2    1    1    2  501    0 -0.21433328559E+02  0.98944074994E+01  0.14913574647E+02  0.27923137031E+02  0.00000000000E+00 0. -1.
          1    1    1    2  502    0  0.21433328559E+02 -0.98944074994E+01 -0.70104647338E+03  0.70144382863E+03  0.00000000000E+00 0.  1.
</event>
<event>
 4    1  0.3593938E+003  0.2020006E+02  0.7546771E-02  0.1530999E+00
          2   -1    0    0  502    0  0.00000000000E+00  0.00000000000E+00  0.66907466535E+03  0.66907466535E+03  0.00000000000E+00 0. -1.
          1   -1    0    0  501    0 -0.00000000000E+00 -0.00000000000E+00 -0.14040170807E+04  0.14040170807E+04  0.00000000000E+00 0. -1.
          2    1    1    2  501    0 -0.19939774538E+02  0.32323261981E+01  0.66884951938E+03  0.66915448300E+03  0.00000000000E+00 0. -1.
          1    1    1    2  502    0  0.19939774538E+02 -0.32323261981E+01 -0.14037919347E+04  0.14039372630E+04  0.00000000000E+00 0. -1.
</event>
<event>
 4    1  0.3593938E+003  0.2863254E+02  0.7546771E-02  0.1431864E+00
          2   -1    0    0  502    0  0.00000000000E+00  0.00000000000E+00  0.10440257992E+03  0.10440257992E+03  0.00000000000E+00 0. -1.
          1   -1    0    0  501    0 -0.00000000000E+00 -0.00000000000E+00 -0.80821788574E+01  0.80821788574E+01  0.00000000000E+00 0. -1.
          2    1    1    2  501    0  0.18668404767E+02 -0.21709740550E+02  0.57641147193E+02  0.64360888908E+02  0.00000000000E+00 0. -1.
          1    1    1    2  502    0 -0.18668404767E+02  0.21709740550E+02  0.38679253867E+02  0.48123869868E+02  0.00000000000E+00 0. -1.
</event>
<event>
 4    1  0.3593938E+003  0.2806249E+02  0.7546771E-02  0.1437218E+00
          2   -1    0    0  502    0  0.00000000000E+00  0.00000000000E+00  0.12902727744E+04  0.12902727744E+04  0.00000000000E+00 0. -1.
          1   -1    0    0  501    0 -0.00000000000E+00 -0.00000000000E+00 -0.45019466463E+02  0.45019466463E+02  0.00000000000E+00 0. -1.
          2    1    1    2  501    0 -0.53689549586E+01  0.27544104398E+02  0.12857316190E+04  0.12860378297E+04  0.00000000000E+00 0. -1.
          1    1    1    2  502    0  0.53689549586E+01 -0.27544104398E+02 -0.40478310988E+02  0.49254411222E+02  0.00000000000E+00 0. -1.
</event>
<event>
 4    1  0.3593938E+003  0.2440890E+02  0.7546771E-02  0.1475526E+00
          2   -1    0    0  502    0  0.00000000000E+00  0.00000000000E+00  0.64339454144E+03  0.64339454144E+03  0.00000000000E+00 0. -1.
          1   -1    0    0  501    0 -0.00000000000E+00 -0.00000000000E+00 -0.33502981477E+01  0.33502981477E+01  0.00000000000E+00 0.  1.
          2    1    1    2  501    0  0.24407740575E+02  0.23810611956E+00  0.59509812804E+03  0.59559850276E+03  0.00000000000E+00 0. -1.
          1    1    1    2  502    0 -0.24407740575E+02 -0.23810611956E+00  0.44946115251E+02  0.51146336825E+02  0.00000000000E+00 0.  1.
</event>
<event>
 4    1  0.3593938E+003  0.2064457E+02  0.7546771E-02  0.1524401E+00
          2   -1    0    0  502    0  0.00000000000E+00  0.00000000000E+00  0.44061572188E+02  0.44061572188E+02  0.00000000000E+00 0.  1.
          1   -1    0    0  501    0 -0.00000000000E+00 -0.00000000000E+00 -0.72816161656E+03  0.72816161656E+03  0.00000000000E+00 0.  1.
          2    1    1    2  501    0 -0.15708831700E+02 -0.13395175739E+02  0.41488475386E+02  0.46341037066E+02  0.00000000000E+00 0.  1.
          1    1    1    2  502    0  0.15708831700E+02  0.13395175739E+02 -0.72558851976E+03  0.72588215168E+03  0.00000000000E+00 0.  1.
</event>
<event>
 4    1  0.3593938E+003  0.2282311E+02  0.7546771E-02  0.1494731E+00
          2   -1    0    0  502    0  0.00000000000E+00  0.00000000000E+00  0.43146475080E+02  0.43146475080E+02  0.00000000000E+00 0. -1.
          1   -1    0    0  501    0 -0.00000000000E+00 -0.00000000000E+00 -0.42420996878E+03  0.42420996878E+03  0.00000000000E+00 0. -1.
          2    1    1    2  501    0  0.21193746376E+02 -0.84687361398E+01  0.39797320801E+02  0.45877239675E+02  0.00000000000E+00 0. -1.
          1    1    1    2  502    0 -0.21193746376E+02  0.84687361398E+01 -0.42086081450E+03  0.42147920419E+03  0.00000000000E+00 0. -1.
</event>
<event>
 4    1  0.3593938E+003  0.2626048E+02  0.7546771E-02  0.1455182E+00
          2   -1    0    0  502    0  0.00000000000E+00  0.00000000000E+00  0.64238234516E+03  0.64238234516E+03  0.00000000000E+00 0. -1.
          1   -1    0    0  501    0 -0.00000000000E+00 -0.00000000000E+00 -0.20588810520E+02  0.20588810520E+02  0.00000000000E+00 0. -1.
          2    1    1    2  501    0  0.17443486942E+02  0.19630016005E+02  0.63362464152E+03  0.63416858887E+03  0.00000000000E+00 0. -1.
          1    1    1    2  502    0 -0.17443486942E+02 -0.19630016005E+02 -0.11831106879E+02  0.28802566813E+02  0.00000000000E+00 0. -1.
</event>
<event>
 4    1  0.3593938E+003  0.2322835E+02  0.7546771E-02  0.1489650E+00
          2   -1    0    0  502    0  0.00000000000E+00  0.00000000000E+00  0.95432101362E+02  0.95432101362E+02  0.00000000000E+00 0. -1.
          1   -1    0    0  501    0 -0.00000000000E+00 -0.00000000000E+00 -0.34070268917E+02  0.34070268917E+02  0.00000000000E+00 0.  1.
          2    1    1    2  501    0  0.10411481891E+02 -0.20764329973E+02  0.89815944521E+02  0.92771009721E+02  0.00000000000E+00 0. -1.
          1    1    1    2  502    0 -0.10411481891E+02  0.20764329973E+02 -0.28454112076E+02  0.36731360558E+02  0.00000000000E+00 0.  1.
</event>
<event>
 4    1  0.3593938E+003  0.3157254E+02  0.7546771E-02  0.1406406E+00
          2   -1    0    0  502    0  0.00000000000E+00  0.00000000000E+00  0.15096101862E+04  0.15096101862E+04  0.00000000000E+00 0.  1.
          1   -1    0    0  501    0 -0.00000000000E+00 -0.00000000000E+00 -0.73854082233E+01  0.73854082233E+01  0.00000000000E+00 0. -1.
          2    1    1    2  501    0 -0.31572404631E+02 -0.91273563726E-01  0.14749082241E+04  0.14752461133E+04  0.00000000000E+00 0.  1.
          1    1    1    2  502    0  0.31572404631E+02  0.91273563726E-01  0.27316553890E+02  0.41749481212E+02  0.00000000000E+00 0. -1.
</event>
<event>
 4    1  0.3593938E+003  0.3010158E+02  0.7546771E-02  0.1418716E+00
          2   -1    0    0  502    0  0.00000000000E+00  0.00000000000E+00  0.26461498608E+02  0.26461498608E+02  0.00000000000E+00 0. -1.
          1   -1    0    0  501    0 -0.00000000000E+00 -0.00000000000E+00 -0.49389152899E+03  0.49389152899E+03  0.00000000000E+00 0. -1.
          2    1    1    2  501    0 -0.27950714359E+02  0.11174190105E+02  0.17280248774E+02  0.34708960736E+02  0.00000000000E+00 0. -1.
          1    1    1    2  502    0  0.27950714359E+02 -0.11174190105E+02 -0.48471027915E+03  0.48564406686E+03  0.00000000000E+00 0. -1.
</event>
<event>
 4    1  0.3593938E+003  0.4360596E+02  0.7546771E-02  0.1328559E+00
          2   -1    0    0  502    0  0.00000000000E+00  0.00000000000E+00  0.53471034681E+03  0.53471034681E+03  0.00000000000E+00 0.  1.
          1   -1    0    0  501    0 -0.00000000000E+00 -0.00000000000E+00 -0.91017788759E+01  0.91017788759E+01  0.00000000000E+00 0. -1.
          2    1    1    2  501    0 -0.39770571307E+02 -0.17882433274E+02  0.47504728677E+03  0.47704444702E+03  0.00000000000E+00 0.  1.
          1    1    1    2  502    0  0.39770571307E+02  0.17882433274E+02  0.50561281164E+02  0.66767678669E+02  0.00000000000E+00 0. -1.
</event>
<event>
 4    1  0.3593938E+003  0.2117268E+02  0.7546771E-02  0.1516814E+00
          2   -1    0    0  502    0  0.00000000000E+00  0.00000000000E+00  0.37685295559E+02  0.37685295559E+02  0.00000000000E+00 0. -1.
          1   -1    0    0  501    0 -0.00000000000E+00 -0.00000000000E+00 -0.18012290971E+03  0.18012290971E+03  0.00000000000E+00 0.  1.
          2    1    1    2  501    0  0.81489135476E+01 -0.19541689087E+02  0.34027834537E+02  0.40077124743E+02  0.00000000000E+00 0. -1.
          1    1    1    2  502    0 -0.81489135476E+01  0.19541689087E+02 -0.17646544869E+03  0.17773108053E+03  0.00000000000E+00 0.  1.
</event>
<event>
 4    1  0.3593938E+003  0.2309474E+02  0.7546771E-02  0.1491312E+00
          2   -1    0    0  502    0  0.00000000000E+00  0.00000000000E+00  0.83829472246E+01  0.83829472246E+01  0.00000000000E+00 0. -1.
          1   -1    0    0  501    0 -0.00000000000E+00 -0.00000000000E+00 -0.86116688827E+02  0.86116688827E+02  0.00000000000E+00 0. -1.
          2    1    1    2  501    0  0.20858559444E+02  0.99140031513E+01 -0.14719754503E+02  0.27386824080E+02  0.00000000000E+00 0. -1.
          1    1    1    2  502    0 -0.20858559444E+02 -0.99140031513E+01 -0.63013987099E+02  0.67112811971E+02  0.00000000000E+00 0. -1.
</event>
<event>
 4    1  0.3593938E+003  0.2597162E+02  0.7546771E-02  0.1458221E+00
          2   -1    0    0  502    0  0.00000000000E+00  0.00000000000E+00  0.11264504783E+03  0.11264504783E+03  0.00000000000E+00 0.  1.
          1   -1    0    0  501    0 -0.00000000000E+00 -0.00000000000E+00 -0.96045734112E+03  0.96045734112E+03  0.00000000000E+00 0. -1.
          2    1    1    2  501    0  0.66962537174E+01  0.25093525354E+02  0.11096984489E+03  0.11396855402E+03  0.00000000000E+00 0.  1.
          1    1    1    2  502    0 -0.66962537174E+01 -0.25093525354E+02 -0.95878213818E+03  0.95913383494E+03  0.00000000000E+00 0. -1.
</event>
<event>
 4    1  0.3593938E+003  0.2378484E+02  0.7546771E-02  0.1482871E+00
          2   -1    0    0  502    0  0.00000000000E+00  0.00000000000E+00  0.28891908461E+00  0.28891908461E+00  0.00000000000E+00 0.  1.
          1   -1    0    0  501    0 -0.00000000000E+00 -0.00000000000E+00 -0.19765469265E+04  0.19765469265E+04  0.00000000000E+00 0.  1.
          2    1    1    2  501    0 -0.12525607956E+02 -0.20219492168E+02 -0.89251792849E+03  0.89283479513E+03  0.00000000000E+00 0.  1.
          1    1    1    2  502    0  0.12525607956E+02  0.20219492168E+02 -0.10837400790E+04  0.10840010505E+04  0.00000000000E+00 0.  1.
</event>
<event>
 4    1  0.3593938E+003  0.2368501E+02  0.7546771E-02  0.1484071E+00
          2   -1    0    0  502    0  0.00000000000E+00  0.00000000000E+00  0.32390593929E+01  0.32390593929E+01  0.00000000000E+00 0.  1.
          1   -1    0    0  501    0 -0.00000000000E+00 -0.00000000000E+00 -0.47697823911E+03  0.47697823911E+03  0.00000000000E+00 0.  1.
          2    1    1    2  501    0  0.21958135455E+02  0.88780740209E+01 -0.45248896298E+02  0.51072913831E+02  0.00000000000E+00 0.  1.
          1    1    1    2  502    0 -0.21958135455E+02 -0.88780740209E+01 -0.42849028342E+03  0.42914438467E+03  0.00000000000E+00 0.  1.
</event>
<event>
 4    1  0.3593938E+003  0.3616249E+02  0.7546771E-02  0.1372570E+00
          2   -1    0    0  502    0  0.00000000000E+00  0.00000000000E+00  0.12531309272E+03  0.12531309272E+03  0.00000000000E+00 0. -1.
          1   -1    0    0  501    0 -0.00000000000E+00 -0.00000000000E+00 -0.11494252177E+03  0.11494252177E+03  0.00000000000E+00 0. -1.
          2    1    1    2  501    0  0.41414684399E+01 -0.35924555061E+02  0.11973013940E+03  0.12507210599E+03  0.00000000000E+00 0. -1.
          1    1    1    2  502    0 -0.41414684399E+01  0.35924555061E+02 -0.10935956846E+03  0.11518350850E+03  0.00000000000E+00 0. -1.
</event>
<event>
 4    1  0.3593938E+003  0.2118679E+02  0.7546771E-02  0.1516615E+00
          2   -1    0    0  502    0  0.00000000000E+00  0.00000000000E+00  0.14432844680E+04  0.14432844680E+04  0.00000000000E+00 0. -1.
          1   -1    0    0  501    0 -0.00000000000E+00 -0.00000000000E+00 -0.17421348314E+01  0.17421348314E+01  0.00000000000E+00 0.  1.
          2    1    1    2  501    0  0.14056133873E+02 -0.15852612043E+02  0.13756233363E+04  0.13757864818E+04  0.00000000000E+00 0. -1.
          1    1    1    2  502    0 -0.14056133873E+02  0.15852612043E+02  0.65918996819E+02  0.69240120954E+02  0.00000000000E+00 0.  1.
</event>
<event>
 4    1  0.3593938E+003  0.2102782E+02  0.7546771E-02  0.1518868E+00
          2   -1    0    0  502    0  0.00000000000E+00  0.00000000000E+00  0.14984763167E+03  0.14984763167E+03  0.00000000000E+00 0.  1.
          1   -1    0    0  501    0 -0.00000000000E+00 -0.00000000000E+00 -0.58631676429E+01  0.58631676429E+01  0.00000000000E+00 0. -1.
          2    1    1    2  501    0 -0.18893491295E+02  0.92306577104E+01  0.12686367055E+03  0.12859455650E+03  0.00000000000E+00 0.  1.
          1    1    1    2  502    0  0.18893491295E+02 -0.92306577104E+01  0.17120793471E+02  0.27116242811E+02  0.00000000000E+00 0. -1.
</event>
<event>
 4    1  0.3593938E+003  0.4579094E+02  0.7546771E-02  0.1317531E+00
          2   -1    0    0  502    0  0.00000000000E+00  0.00000000000E+00  0.38773430206E+02  0.38773430206E+02  0.00000000000E+00 0.  1.
          1   -1    0    0  501    0 -0.00000000000E+00 -0.00000000000E+00 -0.59077634918E+02  0.59077634918E+02  0.00000000000E+00 0. -1.
          2    1    1    2  501    0  0.43215870363E+02  0.15139295894E+02  0.40800491968E+01  0.45972345305E+02  0.00000000000E+00 0.  1.
          1    1    1    2  502    0 -0.43215870363E+02 -0.15139295894E+02 -0.24384253908E+02  0.51878719819E+02  0.00000000000E+00 0. -1.
</event>
<event>
 4    1  0.3593938E+003  0.2417787E+02  0.7546771E-02  0.1478215E+00
          2   -1    0    0  502    0  0.00000000000E+00  0.00000000000E+00  0.22343767285E+02  0.22343767285E+02  0.00000000000E+00 0.  1.
          1   -1    0    0  501    0 -0.00000000000E+00 -0.00000000000E+00 -0.35510494077E+02  0.35510494077E+02  0.00000000000E+00 0. -1.
          2    1    1    2  501    0 -0.24158868404E+02  0.95828839642E+00  0.82584090870E+01  0.25549374941E+02  0.00000000000E+00 0.  1.
          1    1    1    2  502    0  0.24158868404E+02 -0.95828839642E+00 -0.21425135879E+02  0.32304886421E+02  0.00000000000E+00 0. -1.
</event>
<event>
 4    1  0.3593938E+003  0.4201379E+02  0.7546771E-02  0.1337073E+00
          2   -1    0    0  502    0  0.00000000000E+00  0.00000000000E+00  0.24850976984E+04  0.24850976984E+04  0.00000000000E+00 0. -1.
          1   -1    0    0  501    0 -0.00000000000E+00 -0.00000000000E+00 -0.79787108365E+02  0.79787108365E+02  0.00000000000E+00 0. -1.
          2    1    1    2  501    0 -0.27236830958E+02 -0.31989267616E+02  0.24793765248E+04  0.24797324674E+04  0.00000000000E+00 0. -1.
          1    1    1    2  502    0  0.27236830958E+02  0.31989267616E+02 -0.74065934770E+02  0.85152339349E+02  0.00000000000E+00 0. -1.
</event>
<event>
 4    1  0.3593938E+003  0.2471533E+02  0.7546771E-02  0.1472013E+00
          2   -1    0    0  502    0  0.00000000000E+00  0.00000000000E+00  0.35605939608E+00  0.35605939608E+00  0.00000000000E+00 0. -1.
          1   -1    0    0  501    0 -0.00000000000E+00 -0.00000000000E+00 -0.20968024201E+04  0.20968024201E+04  0.00000000000E+00 0.  1.
          2    1    1    2  501    0 -0.24527848715E+02  0.30384209665E+01 -0.60111425451E+03  0.60162213584E+03  0.00000000000E+00 0. -1.
          1    1    1    2  502    0  0.24527848715E+02 -0.30384209665E+01 -0.14953321062E+04  0.14955363436E+04  0.00000000000E+00 0.  1.
</event>
<event>
 4    1  0.3593938E+003  0.2820609E+02  0.7546771E-02  0.1435855E+00
          2   -1    0    0  502    0  0.00000000000E+00  0.00000000000E+00  0.45227048077E+02  0.45227048077E+02  0.00000000000E+00 0.  1.
          1   -1    0    0  501    0 -0.00000000000E+00 -0.00000000000E+00 -0.14002814777E+03  0.14002814777E+03  0.00000000000E+00 0.  1.
          2    1    1    2  501    0  0.96828037679E+01 -0.26492015384E+02  0.39213739175E+02  0.48304253519E+02  0.00000000000E+00 0.  1.
          1    1    1    2  502    0 -0.96828037679E+01  0.26492015384E+02 -0.13401483887E+03  0.13695094233E+03  0.00000000000E+00 0.  1.
</event>
<event>
 4    1  0.3593938E+003  0.2005629E+02  0.7546771E-02  0.1533177E+00
          2   -1    0    0  502    0  0.00000000000E+00  0.00000000000E+00  0.10126733800E+04  0.10126733800E+04  0.00000000000E+00 0. -1.
          1   -1    0    0  501    0 -0.00000000000E+00 -0.00000000000E+00 -0.26201028520E+01  0.26201028520E+01  0.00000000000E+00 0. -1.
          2    1    1    2  501    0 -0.13288142403E+02 -0.15022650521E+02  0.97261173392E+03  0.97281850297E+03  0.00000000000E+00 0. -1.
          1    1    1    2  502    0  0.13288142403E+02  0.15022650521E+02  0.37441543258E+02  0.42474979914E+02  0.00000000000E+00 0. -1.
</event>
<event>
 4    1  0.3593938E+003  0.3392176E+02  0.7546771E-02  0.1388306E+00
          2   -1    0    0  502    0  0.00000000000E+00  0.00000000000E+00  0.21456100018E+04  0.21456100018E+04  0.00000000000E+00 0.  1.
          1   -1    0    0  501    0 -0.00000000000E+00 -0.00000000000E+00 -0.90407349274E+00  0.90407349274E+00  0.00000000000E+00 0. -1.
          2    1    1    2  501    0 -0.93747488272E+01 -0.32600611162E+02  0.17568844551E+04  0.17572119036E+04  0.00000000000E+00 0.  1.
          1    1    1    2  502    0  0.93747488272E+01  0.32600611162E+02  0.38782147323E+03  0.38930217166E+03  0.00000000000E+00 0. -1.
</event>
<event>
 4    1  0.3593938E+003  0.2941994E+02  0.7546771E-02  0.1424705E+00
          2   -1    0    0  502    0  0.00000000000E+00  0.00000000000E+00  0.35925582981E+03  0.35925582981E+03  0.00000000000E+00 0. -1.
          1   -1    0    0  501    0 -0.00000000000E+00 -0.00000000000E+00 -0.22425837183E+03  0.22425837183E+03  0.00000000000E+00 0.  1.
          2    1    1    2  501    0 -0.11333134661E+02  0.27149453490E+02  0.35768440497E+03  0.35889227677E+03  0.00000000000E+00 0. -1.
          1    1    1    2  502    0  0.11333134661E+02 -0.27149453490E+02 -0.22268694699E+03  0.22462192486E+03  0.00000000000E+00 0.  1.
</event>
<event>
 4    1  0.3593938E+003  0.2569815E+02  0.7546771E-02  0.1461143E+00
          2   -1    0    0  502    0  0.00000000000E+00  0.00000000000E+00  0.88575816275E+03  0.88575816275E+03  0.00000000000E+00 0. -1.
          1   -1    0    0  501    0 -0.00000000000E+00 -0.00000000000E+00 -0.15363801799E+02  0.15363801799E+02  0.00000000000E+00 0. -1.
          2    1    1    2  501    0  0.25491330037E+02  0.32537378664E+01  0.87468986851E+03  0.87506728930E+03  0.00000000000E+00 0. -1.
          1    1    1    2  502    0 -0.25491330037E+02 -0.32537378664E+01 -0.42955075649E+01  0.26054675250E+02  0.00000000000E+00 0. -1.
</event>
<event>
 4    1  0.3593938E+003  0.2059758E+02  0.7546771E-02  0.1525089E+00
          2   -1    0    0  502    0  0.00000000000E+00  0.00000000000E+00  0.85184091379E+02  0.85184091379E+02  0.00000000000E+00 0.  1.
          1   -1    0    0  501    0 -0.00000000000E+00 -0.00000000000E+00 -0.12211145194E+04  0.12211145194E+04  0.00000000000E+00 0.  1.
          2    1    1    2  501    0 -0.13657722242E+02  0.15418398047E+02  0.83850743211E+02  0.86343543547E+02  0.00000000000E+00 0.  1.
          1    1    1    2  502    0  0.13657722242E+02 -0.15418398047E+02 -0.12197811712E+04  0.12199550673E+04  0.00000000000E+00 0.  1.
</event>
<event>
 4    1  0.3593938E+003  0.5831319E+02  0.7546771E-02  0.1265674E+00
          2   -1    0    0  502    0  0.00000000000E+00  0.00000000000E+00  0.87854008477E+03  0.87854008477E+03  0.00000000000E+00 0.  1.
          1   -1    0    0  501    0 -0.00000000000E+00 -0.00000000000E+00 -0.25619039386E+02  0.25619039386E+02  0.00000000000E+00 0. -1.
          2    1    1    2  501    0  0.49591447590E+02  0.30677622867E+02  0.84299222327E+03  0.84500669625E+03  0.00000000000E+00 0.  1.
          1    1    1    2  502    0 -0.49591447590E+02 -0.30677622867E+02  0.99288221209E+01  0.59152427910E+02  0.00000000000E+00 0. -1.
</event>
<event>
 4    1  0.3593938E+003  0.2181239E+02  0.7546771E-02  0.1507975E+00
          2   -1    0    0  502    0  0.00000000000E+00  0.00000000000E+00  0.64312431259E+02  0.64312431259E+02  0.00000000000E+00 0.  1.
          1   -1    0    0  501    0 -0.00000000000E+00 -0.00000000000E+00 -0.11710771158E+03  0.11710771158E+03  0.00000000000E+00 0.  1.
          2    1    1    2  501    0 -0.12290814126E+02 -0.18019890646E+02  0.61400513762E+02  0.65159831653E+02  0.00000000000E+00 0.  1.
          1    1    1    2  502    0  0.12290814126E+02  0.18019890646E+02 -0.11419579409E+03  0.11626031119E+03  0.00000000000E+00 0.  1.
</event>
<event>
 4    1  0.3593938E+003  0.2660009E+02  0.7546771E-02  0.1451667E+00
          2   -1    0    0  502    0  0.00000000000E+00  0.00000000000E+00  0.33350215850E+02  0.33350215850E+02  0.00000000000E+00 0.  1.
          1   -1    0    0  501    0 -0.00000000000E+00 -0.00000000000E+00 -0.18061494553E+03  0.18061494553E+03  0.00000000000E+00 0.  1.
          2    1    1    2  501    0 -0.35543036425E+01 -0.26361555183E+02  0.26870556300E+02  0.37809938666E+02  0.00000000000E+00 0.  1.
          1    1    1    2  502    0  0.35543036425E+01  0.26361555183E+02 -0.17413528598E+03  0.17615522272E+03  0.00000000000E+00 0.  1.
</event>
<event>
 4    1  0.3593938E+003  0.5444993E+02  0.7546771E-02  0.1279952E+00
          2   -1    0    0  502    0  0.00000000000E+00  0.00000000000E+00  0.14703395671E+04  0.14703395671E+04  0.00000000000E+00 0.  1.
          1   -1    0    0  501    0 -0.00000000000E+00 -0.00000000000E+00 -0.34237786301E+02  0.34237786301E+02  0.00000000000E+00 0. -1.
          2    1    1    2  501    0  0.27793170051E+02 -0.46822378164E+02  0.14478507660E+04  0.14488742650E+04  0.00000000000E+00 0.  1.
          1    1    1    2  502    0 -0.27793170051E+02  0.46822378164E+02 -0.11748985179E+02  0.55703088345E+02  0.00000000000E+00 0. -1.
</event>
<event>
 4    1  0.3593938E+003  0.7699809E+02  0.7546771E-02  0.1210993E+00
          2   -1    0    0  502    0  0.00000000000E+00  0.00000000000E+00  0.19410013743E+03  0.19410013743E+03  0.00000000000E+00 0. -1.
          1   -1    0    0  501    0 -0.00000000000E+00 -0.00000000000E+00 -0.15731685582E+03  0.15731685582E+03  0.00000000000E+00 0.  1.
          2    1    1    2  501    0 -0.10196946882E+02  0.76319906739E+02  0.17612272508E+03  0.19221841790E+03  0.00000000000E+00 0. -1.
          1    1    1    2  502    0  0.10196946882E+02 -0.76319906739E+02 -0.13933944346E+03  0.15919857536E+03  0.00000000000E+00 0.  1.
</event>
<event>
 4    1  0.3593938E+003  0.2501901E+02  0.7546771E-02  0.1468591E+00
          2   -1    0    0  502    0  0.00000000000E+00  0.00000000000E+00  0.13344979889E+04  0.13344979889E+04  0.00000000000E+00 0.  1.
          1   -1    0    0  501    0 -0.00000000000E+00 -0.00000000000E+00 -0.17606209086E+02  0.17606209086E+02  0.00000000000E+00 0.  1.
          2    1    1    2  501    0  0.15512365600E+01  0.24970875989E+02  0.13254317199E+04  0.13256678298E+04  0.00000000000E+00 0.  1.
          1    1    1    2  502    0 -0.15512365600E+01 -0.24970875989E+02 -0.85399401008E+01  0.26436368122E+02  0.00000000000E+00 0.  1.
</event>
<event>
 4    1  0.3593938E+003  0.4349369E+02  0.7546771E-02  0.1329145E+00
          2   -1    0    0  502    0  0.00000000000E+00  0.00000000000E+00  0.88975136631E+02  0.88975136631E+02  0.00000000000E+00 0.  1.
          1   -1    0    0  501    0 -0.00000000000E+00 -0.00000000000E+00 -0.34874510986E+02  0.34874510986E+02  0.00000000000E+00 0. -1.
          2    1    1    2  501    0  0.41893564916E+02 -0.11688892480E+02  0.65740041151E+02  0.78825465424E+02  0.00000000000E+00 0.  1.
          1    1    1    2  502    0 -0.41893564916E+02  0.11688892480E+02 -0.11639415507E+02  0.45024182193E+02  0.00000000000E+00 0. -1.
</event>
<event>
 4    1  0.4987211E+003  0.2825633E+02  0.7546771E-02  0.1435380E+00
          2   -1    0    0  502    0  0.00000000000E+00  0.00000000000E+00  0.63755424659E+03  0.63755424659E+03  0.00000000000E+00 0. -1.
          1   -1    0    0  501    0 -0.00000000000E+00 -0.00000000000E+00 -0.12552832166E+04  0.12552832166E+04  0.00000000000E+00 0. -1.
          2    1    1    2  501    0  0.50262057991E+01  0.27805706397E+02  0.63708203759E+03  0.63770835236E+03  0.00000000000E+00 0. -1.
          1    1    1    2  502    0 -0.50262057991E+01 -0.27805706397E+02 -0.12548110076E+04  0.12551291108E+04  0.00000000000E+00 0. -1.
</event>
<event>
 4    1  0.3593938E+003  0.2033682E+02  0.7546771E-02  0.1528947E+00
          2   -1    0    0  502    0  0.00000000000E+00  0.00000000000E+00  0.25311770759E+02  0.25311770759E+02  0.00000000000E+00 0.  1.
          1   -1    0    0  501    0 -0.00000000000E+00 -0.00000000000E+00 -0.13184230174E+03  0.13184230174E+03  0.00000000000E+00 0.  1.
          2    1    1    2  501    0 -0.82069252661E+01  0.18607332351E+02  0.20281598921E+02  0.28721589342E+02  0.00000000000E+00 0.  1.
          1    1    1    2  502    0  0.82069252661E+01 -0.18607332351E+02 -0.12681212990E+03  0.12843248316E+03  0.00000000000E+00 0.  1.
</event>
<event>
 4    1  0.3593938E+003  0.3146563E+02  0.7546771E-02  0.1407274E+00
          2   -1    0    0  502    0  0.00000000000E+00  0.00000000000E+00  0.12843904247E+04  0.12843904247E+04  0.00000000000E+00 0.  1.
          1   -1    0    0  501    0 -0.00000000000E+00 -0.00000000000E+00 -0.10163047669E+01  0.10163047669E+01  0.00000000000E+00 0.  1.
          2    1    1    2  501    0  0.15674817108E+02  0.27283420837E+02  0.32584085786E+03  0.32735660921E+03  0.00000000000E+00 0.  1.
          1    1    1    2  502    0 -0.15674817108E+02 -0.27283420837E+02  0.95753326209E+03  0.95805012027E+03  0.00000000000E+00 0.  1.
</event>
<event>
 4    1  0.3593938E+003  0.3272276E+02  0.7546771E-02  0.1397321E+00
          2   -1    0    0  502    0  0.00000000000E+00  0.00000000000E+00  0.15399992414E+02  0.15399992414E+02  0.00000000000E+00 0.  1.
          1   -1    0    0  501    0 -0.00000000000E+00 -0.00000000000E+00 -0.75821145081E+02  0.75821145081E+02  0.00000000000E+00 0. -1.
          2    1    1    2  501    0 -0.15808631992E+02  0.28650766639E+02 -0.17073604612E+02  0.36909175674E+02  0.00000000000E+00 0.  1.
          1    1    1    2  502    0  0.15808631992E+02 -0.28650766639E+02 -0.43347548055E+02  0.54311961821E+02  0.00000000000E+00 0. -1.
</event>
<event>
 4    1  0.3593938E+003  0.2417130E+02  0.7546771E-02  0.1478291E+00
          2   -1    0    0  502    0  0.00000000000E+00  0.00000000000E+00  0.16283671399E+03  0.16283671399E+03  0.00000000000E+00 0. -1.
          1   -1    0    0  501    0 -0.00000000000E+00 -0.00000000000E+00 -0.37881758860E+01  0.37881758860E+01  0.00000000000E+00 0. -1.
          2    1    1    2  501    0  0.31213276877E+01 -0.23968906965E+02  0.60370822503E+02  0.65029896181E+02  0.00000000000E+00 0. -1.
          1    1    1    2  502    0 -0.31213276877E+01  0.23968906965E+02  0.98677715605E+02  0.10159499370E+03  0.00000000000E+00 0. -1.
</event>
<event>
 4    1  0.3593938E+003  0.2480829E+02  0.7546771E-02  0.1470960E+00
          2   -1    0    0  502    0  0.00000000000E+00  0.00000000000E+00  0.27262339501E+03  0.27262339501E+03  0.00000000000E+00 0.  1.
          1   -1    0    0  501    0 -0.00000000000E+00 -0.00000000000E+00 -0.10721823941E+04  0.10721823941E+04  0.00000000000E+00 0. -1.
          2    1    1    2  501    0  0.12409766142E+02 -0.21481357405E+02  0.27191513933E+03  0.27304449090E+03  0.00000000000E+00 0.  1.
          1    1    1    2  502    0 -0.12409766142E+02  0.21481357405E+02 -0.10714741384E+04  0.10717612982E+04  0.00000000000E+00 0. -1.
</event>
<event>
 4    1  0.3593938E+003  0.2241443E+02  0.7546771E-02  0.1499985E+00
          2   -1    0    0  502    0  0.00000000000E+00  0.00000000000E+00  0.28438166840E+02  0.28438166840E+02  0.00000000000E+00 0.  1.
          1   -1    0    0  501    0 -0.00000000000E+00 -0.00000000000E+00 -0.65969639240E+02  0.65969639240E+02  0.00000000000E+00 0. -1.
          2    1    1    2  501    0 -0.21589829817E+02  0.60237725618E+01  0.21626039540E+02  0.31146302727E+02  0.00000000000E+00 0.  1.
          1    1    1    2  502    0  0.21589829817E+02 -0.60237725618E+01 -0.59157511940E+02  0.63261503352E+02  0.00000000000E+00 0. -1.
</event>
<event>
 4    1  0.3593938E+003  0.3851036E+02  0.7546771E-02  0.1357443E+00
          2   -1    0    0  502    0  0.00000000000E+00  0.00000000000E+00  0.11503689576E+03  0.11503689576E+03  0.00000000000E+00 0. -1.
          1   -1    0    0  501    0 -0.00000000000E+00 -0.00000000000E+00 -0.64978073971E+02  0.64978073971E+02  0.00000000000E+00 0.  1.
          2    1    1    2  501    0 -0.33301468823E+02  0.19340626512E+02  0.10561480063E+03  0.11241678599E+03  0.00000000000E+00 0. -1.
          1    1    1    2  502    0  0.33301468823E+02 -0.19340626512E+02 -0.55555978844E+02  0.67598183740E+02  0.00000000000E+00 0.  1.
</event>
<event>
 4    1  0.3593938E+003  0.2715865E+02  0.7546771E-02  0.1446021E+00
          2   -1    0    0  502    0  0.00000000000E+00  0.00000000000E+00  0.46833045056E+03  0.46833045056E+03  0.00000000000E+00 0.  1.
          1   -1    0    0  501    0 -0.00000000000E+00 -0.00000000000E+00 -0.26818026162E+02  0.26818026162E+02  0.00000000000E+00 0.  1.
          2    1    1    2  501    0 -0.90170166714E+01  0.25618070765E+02  0.46095083212E+03  0.46175021577E+03  0.00000000000E+00 0.  1.
          1    1    1    2  502    0  0.90170166714E+01 -0.25618070765E+02 -0.19438407721E+02  0.33398260944E+02  0.00000000000E+00 0.  1.
</event>
<event>
 4    1  0.3593938E+003  0.3367941E+02  0.7546771E-02  0.1390093E+00
          2   -1    0    0  502    0  0.00000000000E+00  0.00000000000E+00  0.17307143304E+01  0.17307143304E+01  0.00000000000E+00 0.  1.
          1   -1    0    0  501    0 -0.00000000000E+00 -0.00000000000E+00 -0.14865962466E+04  0.14865962466E+04  0.00000000000E+00 0. -1.
          2    1    1    2  501    0  0.26768028344E+02  0.20439557688E+02 -0.18598458411E+03  0.18900943994E+03  0.00000000000E+00 0.  1.
          1    1    1    2  502    0 -0.26768028344E+02 -0.20439557688E+02 -0.12988809482E+04  0.12993175210E+04  0.00000000000E+00 0. -1.
</event>
<event>
 4    1  0.3593938E+003  0.3692077E+02  0.7546771E-02  0.1367540E+00
          2   -1    0    0  502    0  0.00000000000E+00  0.00000000000E+00  0.10927557741E+02  0.10927557741E+02  0.00000000000E+00 0. -1.
          1   -1    0    0  501    0 -0.00000000000E+00 -0.00000000000E+00 -0.49479992908E+03  0.49479992908E+03  0.00000000000E+00 0. -1.
          2    1    1    2  501    0 -0.32576676774E+02 -0.17375357740E+02 -0.23257897799E+02  0.43635681915E+02  0.00000000000E+00 0. -1.
          1    1    1    2  502    0  0.32576676774E+02  0.17375357740E+02 -0.46061447354E+03  0.46209180491E+03  0.00000000000E+00 0. -1.
</event>
<event>
 4    1  0.3593938E+003  0.2346045E+02  0.7546771E-02  0.1486796E+00
          2   -1    0    0  502    0  0.00000000000E+00  0.00000000000E+00  0.97692556627E+03  0.97692556627E+03  0.00000000000E+00 0.  1.
          1   -1    0    0  501    0 -0.00000000000E+00 -0.00000000000E+00 -0.85994491923E+00  0.85994491923E+00  0.00000000000E+00 0.  1.
          2    1    1    2  501    0  0.23323340575E+02 -0.25326635652E+01  0.77513002113E+03  0.77548497230E+03  0.00000000000E+00 0.  1.
          1    1    1    2  502    0 -0.23323340575E+02  0.25326635652E+01  0.20093560022E+03  0.20230053889E+03  0.00000000000E+00 0.  1.
</event>
<event>
 4    1  0.3593938E+003  0.3654774E+02  0.7546771E-02  0.1369997E+00
          2   -1    0    0  502    0  0.00000000000E+00  0.00000000000E+00  0.75332542259E+02  0.75332542259E+02  0.00000000000E+00 0.  1.
          1   -1    0    0  501    0 -0.00000000000E+00 -0.00000000000E+00 -0.53475546658E+02  0.53475546658E+02  0.00000000000E+00 0.  1.
          2    1    1    2  501    0 -0.30680170272E+02 -0.19861127678E+02  0.63583439523E+02  0.73338877971E+02  0.00000000000E+00 0.  1.
          1    1    1    2  502    0  0.30680170272E+02  0.19861127678E+02 -0.41726443921E+02  0.55469210945E+02  0.00000000000E+00 0.  1.
</event>
<event>
 4    1  0.3593938E+003  0.2966534E+02  0.7546771E-02  0.1422527E+00
          2   -1    0    0  502    0  0.00000000000E+00  0.00000000000E+00  0.10848064690E+03  0.10848064690E+03  0.00000000000E+00 0.  1.
          1   -1    0    0  501    0 -0.00000000000E+00 -0.00000000000E+00 -0.86585716249E+02  0.86585716249E+02  0.00000000000E+00 0. -1.
          2    1    1    2  501    0  0.23250363083E+02  0.18424248255E+02  0.10379928576E+03  0.10795519456E+03  0.00000000000E+00 0.  1.
          1    1    1    2  502    0 -0.23250363083E+02 -0.18424248255E+02 -0.81904355111E+02  0.87111168592E+02  0.00000000000E+00 0. -1.
</event>
<event>
 4    1  0.3593938E+003  0.2400379E+02  0.7546771E-02  0.1480264E+00
          2   -1    0    0  502    0  0.00000000000E+00  0.00000000000E+00  0.55253301421E+01  0.55253301421E+01  0.00000000000E+00 0.  1.
          1   -1    0    0  501    0 -0.00000000000E+00 -0.00000000000E+00 -0.12576544906E+03  0.12576544906E+03  0.00000000000E+00 0.  1.
          2    1    1    2  501    0  0.21576954738E+02 -0.10517458913E+02 -0.32987242964E+02  0.40796324787E+02  0.00000000000E+00 0.  1.
          1    1    1    2  502    0 -0.21576954738E+02  0.10517458913E+02 -0.87252875957E+02  0.90494454418E+02  0.00000000000E+00 0.  1.
</event>
<event>
 4    1  0.3593938E+003  0.3990246E+02  0.7546771E-02  0.1349058E+00
          2   -1    0    0  502    0  0.00000000000E+00  0.00000000000E+00  0.10581933498E+04  0.10581933498E+04  0.00000000000E+00 0.  1.
          1   -1    0    0  501    0 -0.00000000000E+00 -0.00000000000E+00 -0.20981135745E+01  0.20981135745E+01  0.00000000000E+00 0.  1.
          2    1    1    2  501    0  0.59764220142E+01 -0.39452360347E+02  0.81000228130E+03  0.81098452641E+03  0.00000000000E+00 0.  1.
          1    1    1    2  502    0 -0.59764220142E+01  0.39452360347E+02  0.24609295491E+03  0.24930693695E+03  0.00000000000E+00 0.  1.
</event>
<event>
 4    1  0.3593938E+003  0.2979826E+02  0.7546771E-02  0.1421358E+00
          2   -1    0    0  502    0  0.00000000000E+00  0.00000000000E+00  0.89538967579E+03  0.89538967579E+03  0.00000000000E+00 0.  1.
          1   -1    0    0  501    0 -0.00000000000E+00 -0.00000000000E+00 -0.25573854316E+02  0.25573854316E+02  0.00000000000E+00 0.  1.
          2    1    1    2  501    0  0.17770000362E+02 -0.23919940259E+02  0.88637336679E+03  0.88687410709E+03  0.00000000000E+00 0.  1.
          1    1    1    2  502    0 -0.17770000362E+02  0.23919940259E+02 -0.16557545321E+02  0.34089423021E+02  0.00000000000E+00 0.  1.
</event>
<event>
 4    1  0.3593938E+003  0.2264633E+02  0.7546771E-02  0.1496988E+00
          2   -1    0    0  502    0  0.00000000000E+00  0.00000000000E+00  0.33529375807E+03  0.33529375807E+03  0.00000000000E+00 0. -1.
          1   -1    0    0  501    0 -0.00000000000E+00 -0.00000000000E+00 -0.20974185612E+01  0.20974185612E+01  0.00000000000E+00 0. -1.
          2    1    1    2  501    0  0.14353849572E+02  0.17516365380E+02  0.25437432353E+03  0.25538040748E+03  0.00000000000E+00 0. -1.
          1    1    1    2  502    0 -0.14353849572E+02 -0.17516365380E+02  0.78822015974E+02  0.82010769146E+02  0.00000000000E+00 0. -1.
</event>
<event>
 4    1  0.3593938E+003  0.3362045E+02  0.7546771E-02  0.1390530E+00
          2   -1    0    0  502    0  0.00000000000E+00  0.00000000000E+00  0.39049951009E+03  0.39049951009E+03  0.00000000000E+00 0.  1.
          1   -1    0    0  501    0 -0.00000000000E+00 -0.00000000000E+00 -0.66879482874E+02  0.66879482874E+02  0.00000000000E+00 0.  1.
          2    1    1    2  501    0 -0.31066340806E+02  0.12853683207E+02  0.38549585719E+03  0.38695915885E+03  0.00000000000E+00 0.  1.
          1    1    1    2  502    0  0.31066340806E+02 -0.12853683207E+02 -0.61875829972E+02  0.70419834122E+02  0.00000000000E+00 0.  1.
</event>
<event>
 4    1  0.3593938E+003  0.4003861E+02  0.7546771E-02  0.1348260E+00
          2   -1    0    0  502    0  0.00000000000E+00  0.00000000000E+00  0.24050280220E+03  0.24050280220E+03  0.00000000000E+00 0. -1.
          1   -1    0    0  501    0 -0.00000000000E+00 -0.00000000000E+00 -0.45041661685E+03  0.45041661685E+03  0.00000000000E+00 0. -1.
          2    1    1    2  501    0 -0.40028239475E+02  0.91108317635E+00  0.23793709842E+03  0.24128230940E+03  0.00000000000E+00 0. -1.
          1    1    1    2  502    0  0.40028239475E+02 -0.91108317635E+00 -0.44785091307E+03  0.44963710964E+03  0.00000000000E+00 0. -1.
</event>
<event>
 4    1  0.3593938E+003  0.2058445E+02  0.7546771E-02  0.1525281E+00
          2   -1    0    0  502    0  0.00000000000E+00  0.00000000000E+00  0.17703472666E+01  0.17703472666E+01  0.00000000000E+00 0.  1.
          1   -1    0    0  501    0 -0.00000000000E+00 -0.00000000000E+00 -0.79731277427E+03  0.79731277427E+03  0.00000000000E+00 0. -1.
          2    1    1    2  501    0 -0.20550961061E+02 -0.11737411542E+01 -0.63535340768E+02  0.66786669294E+02  0.00000000000E+00 0.  1.
          1    1    1    2  502    0  0.20550961061E+02  0.11737411542E+01 -0.73200708624E+03  0.73229645225E+03  0.00000000000E+00 0. -1.
</event>
<event>
 4    1  0.3593938E+003  0.2083823E+02  0.7546771E-02  0.1521587E+00
          2   -1    0    0  502    0  0.00000000000E+00  0.00000000000E+00  0.13064956070E+04  0.13064956070E+04  0.00000000000E+00 0. -1.
          1   -1    0    0  501    0 -0.00000000000E+00 -0.00000000000E+00 -0.46149784049E+01  0.46149784049E+01  0.00000000000E+00 0. -1.
          2    1    1    2  501    0  0.18060780210E+02 -0.10394229374E+02  0.12824485091E+04  0.12826177959E+04  0.00000000000E+00 0. -1.
          1    1    1    2  502    0 -0.18060780210E+02  0.10394229374E+02  0.19432119418E+02  0.28492789459E+02  0.00000000000E+00 0. -1.
</event>
<event>
 4    1  0.3593938E+003  0.2949849E+02  0.7546771E-02  0.1424005E+00
          2   -1    0    0  502    0  0.00000000000E+00  0.00000000000E+00  0.36322063217E+03  0.36322063217E+03  0.00000000000E+00 0.  1.
          1   -1    0    0  501    0 -0.00000000000E+00 -0.00000000000E+00 -0.31914741235E+03  0.31914741235E+03  0.00000000000E+00 0.  1.
          2    1    1    2  501    0 -0.29065030341E+02  0.50383460198E+01  0.36193767033E+03  0.36313776742E+03  0.00000000000E+00 0.  1.
          1    1    1    2  502    0  0.29065030341E+02 -0.50383460198E+01 -0.31786445051E+03  0.31923027710E+03  0.00000000000E+00 0.  1.
</event>
<event>
 4    1  0.3593938E+003  0.3652616E+02  0.7546771E-02  0.1370140E+00
          2   -1    0    0  502    0  0.00000000000E+00  0.00000000000E+00  0.25741418434E+01  0.25741418434E+01  0.00000000000E+00 0.  1.
          1   -1    0    0  501    0 -0.00000000000E+00 -0.00000000000E+00 -0.14179986129E+04  0.14179986129E+04  0.00000000000E+00 0.  1.
          2    1    1    2  501    0 -0.27144560792E+02  0.24440393527E+02 -0.14193461151E+03  0.14655918245E+03  0.00000000000E+00 0.  1.
          1    1    1    2  502    0  0.27144560792E+02 -0.24440393527E+02 -0.12734898596E+04  0.12740135723E+04  0.00000000000E+00 0.  1.
</event>
<event>
 4    1  0.3593938E+003  0.2170762E+02  0.7546771E-02  0.1509397E+00
          2   -1    0    0  502    0  0.00000000000E+00  0.00000000000E+00  0.17924726168E+02  0.17924726168E+02  0.00000000000E+00 0. -1.
          1   -1    0    0  501    0 -0.00000000000E+00 -0.00000000000E+00 -0.62109876170E+02  0.62109876170E+02  0.00000000000E+00 0. -1.
          2    1    1    2  501    0  0.15789933337E+02  0.14896268977E+02  0.82978199932E+01  0.23239506037E+02  0.00000000000E+00 0. -1.
          1    1    1    2  502    0 -0.15789933337E+02 -0.14896268977E+02 -0.52482969996E+02  0.56795096301E+02  0.00000000000E+00 0. -1.
</event>
<event>
 4    1  0.3593938E+003  0.3203457E+02  0.7546771E-02  0.1402703E+00
          2   -1    0    0  502    0  0.00000000000E+00  0.00000000000E+00  0.10307443262E+03  0.10307443262E+03  0.00000000000E+00 0.  1.
          1   -1    0    0  501    0 -0.00000000000E+00 -0.00000000000E+00 -0.11547728155E+03  0.11547728155E+03  0.00000000000E+00 0.  1.
          2    1    1    2  501    0 -0.25119161252E+02  0.19880678554E+02  0.98257580005E+02  0.10334778987E+03  0.00000000000E+00 0.  1.
          1    1    1    2  502    0  0.25119161252E+02 -0.19880678554E+02 -0.11066042894E+03  0.11520392430E+03  0.00000000000E+00 0.  1.
</event>
<event>
 4    1  0.3593938E+003  0.2148323E+02  0.7546771E-02  0.1512476E+00
          2   -1    0    0  502    0  0.00000000000E+00  0.00000000000E+00  0.26641780289E+03  0.26641780289E+03  0.00000000000E+00 0.  1.
          1   -1    0    0  501    0 -0.00000000000E+00 -0.00000000000E+00 -0.24086232261E+02  0.24086232261E+02  0.00000000000E+00 0. -1.
          2    1    1    2  501    0  0.18574211248E+01 -0.21402787456E+02  0.26109687045E+03  0.26197920735E+03  0.00000000000E+00 0.  1.
          1    1    1    2  502    0 -0.18574211248E+01  0.21402787456E+02 -0.18765299818E+02  0.28524827806E+02  0.00000000000E+00 0. -1.
</event>
<event>
 4    1  0.3593938E+003  0.2114832E+02  0.7546771E-02  0.1517158E+00
          2   -1    0    0  502    0  0.00000000000E+00  0.00000000000E+00  0.44746882255E+03  0.44746882255E+03  0.00000000000E+00 0. -1.
          1   -1    0    0  501    0 -0.00000000000E+00 -0.00000000000E+00 -0.41964917320E+01  0.41964917320E+01  0.00000000000E+00 0. -1.
          2    1    1    2  501    0  0.20721715048E+02 -0.42263662385E+01  0.41874828120E+03  0.41928197511E+03  0.00000000000E+00 0. -1.
          1    1    1    2  502    0 -0.20721715048E+02  0.42263662385E+01  0.24524049618E+02  0.32383339170E+02  0.00000000000E+00 0. -1.
</event>
<event>
 4    1  0.3593938E+003  0.2278572E+02  0.7546771E-02  0.1495206E+00
          2   -1    0    0  502    0  0.00000000000E+00  0.00000000000E+00  0.35533607783E+03  0.35533607783E+03  0.00000000000E+00 0. -1.
          1   -1    0    0  501    0 -0.00000000000E+00 -0.00000000000E+00 -0.74542443153E+01  0.74542443153E+01  0.00000000000E+00 0.  1.
          2    1    1    2  501    0 -0.20625404240E+02  0.96841063899E+01  0.33658956999E+03  0.33735993811E+03  0.00000000000E+00 0. -1.
          1    1    1    2  502    0  0.20625404240E+02 -0.96841063899E+01  0.11292263526E+02  0.25430384035E+02  0.00000000000E+00 0.  1.
</event>
<event>
 4    1  0.3593938E+003  0.2225581E+02  0.7546771E-02  0.1502061E+00
          2   -1    0    0  502    0  0.00000000000E+00  0.00000000000E+00  0.14621540845E+03  0.14621540845E+03  0.00000000000E+00 0. -1.
          1   -1    0    0  501    0 -0.00000000000E+00 -0.00000000000E+00 -0.36710030452E+01  0.36710030452E+01  0.00000000000E+00 0. -1.
          2    1    1    2  501    0 -0.42979547009E+01 -0.21836853965E+02  0.50449581417E+02  0.55140555590E+02  0.00000000000E+00 0. -1.
          1    1    1    2  502    0  0.42979547009E+01  0.21836853965E+02  0.92094823984E+02  0.94745855901E+02  0.00000000000E+00 0. -1.
</event>
<event>
 4    1  0.3593938E+003  0.2360041E+02  0.7546771E-02  0.1485093E+00
          2   -1    0    0  502    0  0.00000000000E+00  0.00000000000E+00  0.11243023638E+04  0.11243023638E+04  0.00000000000E+00 0.  1.
          1   -1    0    0  501    0 -0.00000000000E+00 -0.00000000000E+00 -0.95386062367E+00  0.95386062367E+00  0.00000000000E+00 0. -1.
          2    1    1    2  501    0  0.49424636092E+01  0.23077077098E+02  0.95173295264E+03  0.95202552097E+03  0.00000000000E+00 0.  1.
          1    1    1    2  502    0 -0.49424636092E+01 -0.23077077098E+02  0.17161555058E+03  0.17323070350E+03  0.00000000000E+00 0. -1.
</event>
<event>
 4    1  0.3593938E+003  0.9544323E+02  0.7546771E-02  0.1171947E+00
          2   -1    0    0  502    0  0.00000000000E+00  0.00000000000E+00  0.42129350746E+03  0.42129350746E+03  0.00000000000E+00 0.  1.
          1   -1    0    0  501    0 -0.00000000000E+00 -0.00000000000E+00 -0.31982289951E+03  0.31982289951E+03  0.00000000000E+00 0.  1.
          2    1    1    2  501    0  0.57025913440E+02 -0.76534008832E+02  0.40854802865E+03  0.41954844896E+03  0.00000000000E+00 0.  1.
          1    1    1    2  502    0 -0.57025913440E+02  0.76534008832E+02 -0.30707742070E+03  0.32156795800E+03  0.00000000000E+00 0.  1.
</event>
<event>
 4    1  0.3593938E+003  0.7113378E+02  0.7546771E-02  0.1226077E+00
          2   -1    0    0  502    0  0.00000000000E+00  0.00000000000E+00  0.20980924183E+03  0.20980924183E+03  0.00000000000E+00 0.  1.
          1   -1    0    0  501    0 -0.00000000000E+00 -0.00000000000E+00 -0.25524230806E+03  0.25524230806E+03  0.00000000000E+00 0.  1.
          2    1    1    2  501    0 -0.20286400538E+01  0.71104845336E+02  0.19855131854E+03  0.21090908114E+03  0.00000000000E+00 0.  1.
          1    1    1    2  502    0  0.20286400538E+01 -0.71104845336E+02 -0.24398438477E+03  0.25414246875E+03  0.00000000000E+00 0.  1.
</event>
<event>
 4    1  0.3593938E+003  0.3465144E+02  0.7546771E-02  0.1383030E+00
          2   -1    0    0  502    0  0.00000000000E+00  0.00000000000E+00  0.49477398431E+01  0.49477398431E+01  0.00000000000E+00 0.  1.
          1   -1    0    0  501    0 -0.00000000000E+00 -0.00000000000E+00 -0.24632209370E+03  0.24632209370E+03  0.00000000000E+00 0.  1.
          2    1    1    2  501    0 -0.34089909415E+02  0.62129041968E+01 -0.10541226117E+03  0.11096155599E+03  0.00000000000E+00 0.  1.
          1    1    1    2  502    0  0.34089909415E+02 -0.62129041968E+01 -0.13596209268E+03  0.14030827755E+03  0.00000000000E+00 0.  1.
</event>
<event>
 4    1  0.3593938E+003  0.2298034E+02  0.7546771E-02  0.1492745E+00
          2   -1    0    0  502    0  0.00000000000E+00  0.00000000000E+00  0.12899137584E+04  0.12899137584E+04  0.00000000000E+00 0. -1.
          1   -1    0    0  501    0 -0.00000000000E+00 -0.00000000000E+00 -0.45863063243E+00  0.45863063243E+00  0.00000000000E+00 0. -1.
          2    1    1    2  501    0  0.18041612338E+02  0.14233631562E+02  0.85610223634E+03  0.85641061127E+03  0.00000000000E+00 0. -1.
          1    1    1    2  502    0 -0.18041612338E+02 -0.14233631562E+02  0.43335289147E+03  0.43396177780E+03  0.00000000000E+00 0. -1.
</event>
<event>
 4    1  0.3593938E+003  0.2060811E+02  0.7546771E-02  0.1524934E+00
          2   -1    0    0  502    0  0.00000000000E+00  0.00000000000E+00  0.29998098347E+01  0.29998098347E+01  0.00000000000E+00 0. -1.
          1   -1    0    0  501    0 -0.00000000000E+00 -0.00000000000E+00 -0.60552030377E+03  0.60552030377E+03  0.00000000000E+00 0.  1.
          2    1    1    2  501    0  0.16006077614E+02 -0.12980744009E+02 -0.34933626694E+02  0.40559246907E+02  0.00000000000E+00 0. -1.
          1    1    1    2  502    0 -0.16006077614E+02  0.12980744009E+02 -0.56758686724E+03  0.56796086669E+03  0.00000000000E+00 0.  1.
</event>
<event>
 4    1  0.3593938E+003  0.2743347E+02  0.7546771E-02  0.1443302E+00
          2   -1    0    0  502    0  0.00000000000E+00  0.00000000000E+00  0.13593767016E+01  0.13593767016E+01  0.00000000000E+00 0.  1.
          1   -1    0    0  501    0 -0.00000000000E+00 -0.00000000000E+00 -0.16722826858E+04  0.16722826858E+04  0.00000000000E+00 0. -1.
          2    1    1    2  501    0  0.27295952956E+02  0.27433755232E+01 -0.15103819940E+03  0.15350939006E+03  0.00000000000E+00 0.  1.
          1    1    1    2  502    0 -0.27295952956E+02 -0.27433755232E+01 -0.15198851097E+04  0.15201326725E+04  0.00000000000E+00 0. -1.
</event>
<event>
 4    1  0.3593938E+003  0.2906584E+02  0.7546771E-02  0.1427892E+00
          2   -1    0    0  502    0  0.00000000000E+00  0.00000000000E+00  0.49868240253E+03  0.49868240253E+03  0.00000000000E+00 0.  1.
          1   -1    0    0  501    0 -0.00000000000E+00 -0.00000000000E+00 -0.75115366088E+01  0.75115366088E+01  0.00000000000E+00 0. -1.
          2    1    1    2  501    0 -0.10979198699E+02  0.26912459669E+02  0.46832018066E+03  0.46922128564E+03  0.00000000000E+00 0.  1.
          1    1    1    2  502    0  0.10979198699E+02 -0.26912459669E+02  0.22850685264E+02  0.36972653496E+02  0.00000000000E+00 0. -1.
</event>
<event>
 4    1  0.3593938E+003  0.2019225E+02  0.7546771E-02  0.1531117E+00
          2   -1    0    0  502    0  0.00000000000E+00  0.00000000000E+00  0.30575587423E+02  0.30575587423E+02  0.00000000000E+00 0.  1.
          1   -1    0    0  501    0 -0.00000000000E+00 -0.00000000000E+00 -0.18297829654E+02  0.18297829654E+02  0.00000000000E+00 0.  1.
          2    1    1    2  501    0  0.11236024642E+02 -0.16777317086E+02 -0.65875320670E+01  0.21239637405E+02  0.00000000000E+00 0.  1.
          1    1    1    2  502    0 -0.11236024642E+02  0.16777317086E+02  0.18865289836E+02  0.27633779672E+02  0.00000000000E+00 0.  1.
</event>
<event>
 4    1  0.3593938E+003  0.3322501E+02  0.7546771E-02  0.1393490E+00
          2   -1    0    0  502    0  0.00000000000E+00  0.00000000000E+00  0.19908593135E+04  0.19908593135E+04  0.00000000000E+00 0.  1.
          1   -1    0    0  501    0 -0.00000000000E+00 -0.00000000000E+00 -0.19168824647E+02  0.19168824647E+02  0.00000000000E+00 0. -1.
          2    1    1    2  501    0 -0.15033525661E+02  0.29629287159E+02  0.19762169325E+04  0.19764962095E+04  0.00000000000E+00 0.  1.
          1    1    1    2  502    0  0.15033525661E+02 -0.29629287159E+02 -0.45264436573E+01  0.33531928717E+02  0.00000000000E+00 0. -1.
</event>
<event>
 4    1  0.3593938E+003  0.3384146E+02  0.7546771E-02  0.1388896E+00
          2   -1    0    0  502    0  0.00000000000E+00  0.00000000000E+00  0.15717716321E+02  0.15717716321E+02  0.00000000000E+00 0.  1.
          1   -1    0    0  501    0 -0.00000000000E+00 -0.00000000000E+00 -0.18922077412E+03  0.18922077412E+03  0.00000000000E+00 0. -1.
          2    1    1    2  501    0  0.30084282920E+02  0.15497742539E+02 -0.63977435017E+01  0.34440894654E+02  0.00000000000E+00 0.  1.
          1    1    1    2  502    0 -0.30084282920E+02 -0.15497742539E+02 -0.16710531429E+03  0.17049759578E+03  0.00000000000E+00 0. -1.
</event>
<event>
 4    1  0.3593938E+003  0.2333844E+02  0.7546771E-02  0.1488292E+00
          2   -1    0    0  502    0  0.00000000000E+00  0.00000000000E+00  0.17416124590E+04  0.17416124590E+04  0.00000000000E+00 0. -1.
          1   -1    0    0  501    0 -0.00000000000E+00 -0.00000000000E+00 -0.20639303067E+01  0.20639303067E+01  0.00000000000E+00 0. -1.
          2    1    1    2  501    0 -0.59267234878E+00 -0.23330909091E+02  0.16728459013E+04  0.16730086946E+04  0.00000000000E+00 0. -1.
          1    1    1    2  502    0  0.59267234878E+00  0.23330909091E+02  0.66702627391E+02  0.70667694744E+02  0.00000000000E+00 0. -1.
</event>
<event>
 4    1  0.3593938E+003  0.2074170E+02  0.7546771E-02  0.1522985E+00
          2   -1    0    0  502    0  0.00000000000E+00  0.00000000000E+00  0.10777073394E+04  0.10777073394E+04  0.00000000000E+00 0.  1.
          1   -1    0    0  501    0 -0.00000000000E+00 -0.00000000000E+00 -0.19329091510E+01  0.19329091510E+01  0.00000000000E+00 0. -1.
          2    1    1    2  501    0 -0.12420238716E+02 -0.16611918211E+02  0.10187433902E+04  0.10189545197E+04  0.00000000000E+00 0.  1.
          1    1    1    2  502    0  0.12420238716E+02  0.16611918211E+02  0.57031040079E+02  0.60685728873E+02  0.00000000000E+00 0. -1.
</event>
<event>
 4    1  0.3593938E+003  0.3759145E+02  0.7546771E-02  0.1363209E+00
          2   -1    0    0  502    0  0.00000000000E+00  0.00000000000E+00  0.10116666631E+02  0.10116666631E+02  0.00000000000E+00 0.  1.
          1   -1    0    0  501    0 -0.00000000000E+00 -0.00000000000E+00 -0.58280548250E+03  0.58280548250E+03  0.00000000000E+00 0. -1.
          2    1    1    2  501    0 -0.34477713021E+02  0.14980145458E+02 -0.27839860406E+02  0.46777935831E+02  0.00000000000E+00 0.  1.
          1    1    1    2  502    0  0.34477713021E+02 -0.14980145458E+02 -0.54484895546E+03  0.54614421330E+03  0.00000000000E+00 0. -1.
</event>
<event>
 4    1  0.3593938E+003  0.3920334E+02  0.7546771E-02  0.1353218E+00
          2   -1    0    0  502    0  0.00000000000E+00  0.00000000000E+00  0.16375900987E+02  0.16375900987E+02  0.00000000000E+00 0. -1.
          1   -1    0    0  501    0 -0.00000000000E+00 -0.00000000000E+00 -0.24748766899E+03  0.24748766899E+03  0.00000000000E+00 0. -1.
          2    1    1    2  501    0 -0.28007328324E+02  0.27431575614E+02 -0.11607082956E+02  0.40885525009E+02  0.00000000000E+00 0. -1.
          1    1    1    2  502    0  0.28007328324E+02 -0.27431575614E+02 -0.21950468505E+03  0.22297804497E+03  0.00000000000E+00 0. -1.
</event>
<event>
 4    1  0.3593938E+003  0.4684623E+02  0.7546771E-02  0.1312457E+00
          2   -1    0    0  502    0  0.00000000000E+00  0.00000000000E+00  0.17493352522E+02  0.17493352522E+02  0.00000000000E+00 0.  1.
          1   -1    0    0  501    0 -0.00000000000E+00 -0.00000000000E+00 -0.24667355039E+03  0.24667355039E+03  0.00000000000E+00 0.  1.
          2    1    1    2  501    0  0.43460308437E+02  0.17486246372E+02 -0.20718305275E+03  0.21241324009E+03  0.00000000000E+00 0.  1.
          1    1    1    2  502    0 -0.43460308437E+02 -0.17486246372E+02 -0.21997145122E+02  0.51753662819E+02  0.00000000000E+00 0.  1.
</event>
<event>
 4    1  0.3593938E+003  0.3272972E+02  0.7546771E-02  0.1397267E+00
          2   -1    0    0  502    0  0.00000000000E+00  0.00000000000E+00  0.11125747143E+03  0.11125747143E+03  0.00000000000E+00 0.  1.
          1   -1    0    0  501    0 -0.00000000000E+00 -0.00000000000E+00 -0.11580315063E+04  0.11580315063E+04  0.00000000000E+00 0. -1.
          2    1    1    2  501    0 -0.29358187848E+02  0.14468284268E+02  0.10861359566E+03  0.11343785790E+03  0.00000000000E+00 0.  1.
          1    1    1    2  502    0  0.29358187848E+02 -0.14468284268E+02 -0.11553876305E+04  0.11558511198E+04  0.00000000000E+00 0. -1.
</event>
<event>
 4    1  0.3593938E+003  0.2396583E+02  0.7546771E-02  0.1480714E+00
          2   -1    0    0  502    0  0.00000000000E+00  0.00000000000E+00  0.42600967172E+03  0.42600967172E+03  0.00000000000E+00 0. -1.
          1   -1    0    0  501    0 -0.00000000000E+00 -0.00000000000E+00 -0.39433780417E+01  0.39433780417E+01  0.00000000000E+00 0. -1.
          2    1    1    2  501    0  0.22256457341E+02  0.88888322597E+01  0.38542952666E+03  0.38617390027E+03  0.00000000000E+00 0. -1.
          1    1    1    2  502    0 -0.22256457341E+02 -0.88888322597E+01  0.36636767025E+02  0.43779149493E+02  0.00000000000E+00 0. -1.
</event>
<event>
 4    1  0.3593938E+003  0.2135124E+02  0.7546771E-02  0.1514309E+00
          2   -1    0    0  502    0  0.00000000000E+00  0.00000000000E+00  0.63723518775E+02  0.63723518775E+02  0.00000000000E+00 0. -1.
          1   -1    0    0  501    0 -0.00000000000E+00 -0.00000000000E+00 -0.10090434697E+02  0.10090434697E+02  0.00000000000E+00 0.  1.
          2    1    1    2  501    0 -0.16638921941E+02 -0.13379897419E+02  0.46726338070E+02  0.51373398250E+02  0.00000000000E+00 0. -1.
          1    1    1    2  502    0  0.16638921941E+02  0.13379897419E+02  0.69067460080E+01  0.22440555223E+02  0.00000000000E+00 0.  1.
</event>
<event>
 4    1  0.3593938E+003  0.2399434E+02  0.7546771E-02  0.1480376E+00
          2   -1    0    0  502    0  0.00000000000E+00  0.00000000000E+00  0.53255756450E+01  0.53255756450E+01  0.00000000000E+00 0. -1.
          1   -1    0    0  501    0 -0.00000000000E+00 -0.00000000000E+00 -0.20961275348E+03  0.20961275348E+03  0.00000000000E+00 0. -1.
          2    1    1    2  501    0 -0.22071040292E+02 -0.94126137505E+01 -0.27357312014E+02  0.36388880690E+02  0.00000000000E+00 0. -1.
          1    1    1    2  502    0  0.22071040292E+02  0.94126137505E+01 -0.17692986582E+03  0.17854944844E+03  0.00000000000E+00 0. -1.
</event>
<event>
 4    1  0.3593938E+003  0.2158229E+02  0.7546771E-02  0.1511111E+00
          2   -1    0    0  502    0  0.00000000000E+00  0.00000000000E+00  0.26481955043E+03  0.26481955043E+03  0.00000000000E+00 0.  1.
          1   -1    0    0  501    0 -0.00000000000E+00 -0.00000000000E+00 -0.37157510765E+02  0.37157510765E+02  0.00000000000E+00 0.  1.
          2    1    1    2  501    0  0.16434253161E+02 -0.13989652615E+02  0.26120257622E+03  0.26209269521E+03  0.00000000000E+00 0.  1.
          1    1    1    2  502    0 -0.16434253161E+02  0.13989652615E+02 -0.33540536559E+02  0.39884365984E+02  0.00000000000E+00 0.  1.
</event>
<event>
 4    1  0.3593938E+003  0.3311992E+02  0.7546771E-02  0.1394285E+00
          2   -1    0    0  502    0  0.00000000000E+00  0.00000000000E+00  0.21415895702E+03  0.21415895702E+03  0.00000000000E+00 0. -1.
          1   -1    0    0  501    0 -0.00000000000E+00 -0.00000000000E+00 -0.79194464012E+01  0.79194464012E+01  0.00000000000E+00 0.  1.
          2    1    1    2  501    0 -0.23104381458E+02 -0.23730083629E+02  0.16911417591E+03  0.17232682266E+03  0.00000000000E+00 0. -1.
          1    1    1    2  502    0  0.23104381458E+02  0.23730083629E+02  0.37125334699E+02  0.49751580760E+02  0.00000000000E+00 0.  1.
</event>
<event>
 4    1  0.3593938E+003  0.2529433E+02  0.7546771E-02  0.1465537E+00
          2   -1    0    0  502    0  0.00000000000E+00  0.00000000000E+00  0.62767420396E+03  0.62767420396E+03  0.00000000000E+00 0. -1.
          1   -1    0    0  501    0 -0.00000000000E+00 -0.00000000000E+00 -0.54209014970E+01  0.54209014970E+01  0.00000000000E+00 0. -1.
          2    1    1    2  501    0  0.25280475302E+02  0.83719760447E+00  0.59636465119E+03  0.59690082972E+03  0.00000000000E+00 0. -1.
          1    1    1    2  502    0 -0.25280475302E+02 -0.83719760447E+00  0.25888651269E+02  0.36194275733E+02  0.00000000000E+00 0. -1.
</event>
<event>
 4    1  0.3593938E+003  0.1334242E+03  0.7546771E-02  0.1115933E+00
          2   -1    0    0  502    0  0.00000000000E+00  0.00000000000E+00  0.68553703499E+02  0.68553703499E+02  0.00000000000E+00 0. -1.
          1   -1    0    0  501    0 -0.00000000000E+00 -0.00000000000E+00 -0.12201604187E+04  0.12201604187E+04  0.00000000000E+00 0. -1.
          2    1    1    2  501    0  0.10317296307E+03 -0.84601137568E+02 -0.41109480387E+01  0.13348750009E+03  0.00000000000E+00 0. -1.
          1    1    1    2  502    0 -0.10317296307E+03  0.84601137568E+02 -0.11474957672E+04  0.11552266221E+04  0.00000000000E+00 0. -1.
</event>
<event>
 4    1  0.3593938E+003  0.2517136E+02  0.7546771E-02  0.1466895E+00
          2   -1    0    0  502    0  0.00000000000E+00  0.00000000000E+00  0.42668111318E+02  0.42668111318E+02  0.00000000000E+00 0. -1.
          1   -1    0    0  501    0 -0.00000000000E+00 -0.00000000000E+00 -0.32232012206E+02  0.32232012206E+02  0.00000000000E+00 0. -1.
          2    1    1    2  501    0 -0.10777141715E+02 -0.22747539060E+02  0.32720153603E+02  0.41282027187E+02  0.00000000000E+00 0. -1.
          1    1    1    2  502    0  0.10777141715E+02  0.22747539060E+02 -0.22284054491E+02  0.33618096338E+02  0.00000000000E+00 0. -1.
</event>
<event>
 4    1  0.3593938E+003  0.2277973E+02  0.7546771E-02  0.1495283E+00
          2   -1    0    0  502    0  0.00000000000E+00  0.00000000000E+00  0.63244052337E+01  0.63244052337E+01  0.00000000000E+00 0. -1.
          1   -1    0    0  501    0 -0.00000000000E+00 -0.00000000000E+00 -0.29488903715E+03  0.29488903715E+03  0.00000000000E+00 0.  1.
          2    1    1    2  501    0  0.16947815765E+02 -0.15221284728E+02 -0.16332129885E+02  0.28029527905E+02  0.00000000000E+00 0. -1.
          1    1    1    2  502    0 -0.16947815765E+02  0.15221284728E+02 -0.27223250203E+03  0.27318391448E+03  0.00000000000E+00 0.  1.
</event>
<event>
 4    1  0.3593938E+003  0.2319217E+02  0.7546771E-02  0.1490099E+00
          2   -1    0    0  502    0  0.00000000000E+00  0.00000000000E+00  0.27497469002E+03  0.27497469002E+03  0.00000000000E+00 0. -1.
          1   -1    0    0  501    0 -0.00000000000E+00 -0.00000000000E+00 -0.21567197835E+01  0.21567197835E+01  0.00000000000E+00 0. -1.
          2    1    1    2  501    0 -0.20546792763E+02 -0.10756653093E+02  0.94146744923E+02  0.96961259574E+02  0.00000000000E+00 0. -1.
          1    1    1    2  502    0  0.20546792763E+02  0.10756653093E+02  0.17867122531E+03  0.18017015022E+03  0.00000000000E+00 0. -1.
</event>
<event>
 4    1  0.3593938E+003  0.2793816E+02  0.7546771E-02  0.1438405E+00
          2   -1    0    0  502    0  0.00000000000E+00  0.00000000000E+00  0.32195668223E+03  0.32195668223E+03  0.00000000000E+00 0.  1.
          1   -1    0    0  501    0 -0.00000000000E+00 -0.00000000000E+00 -0.41542816079E+03  0.41542816079E+03  0.00000000000E+00 0.  1.
          2    1    1    2  501    0 -0.34960771227E+01 -0.27718555303E+02  0.32087929582E+03  0.32209325257E+03  0.00000000000E+00 0.  1.
          1    1    1    2  502    0  0.34960771227E+01  0.27718555303E+02 -0.41435077438E+03  0.41529159045E+03  0.00000000000E+00 0.  1.
</event>
<event>
 4    1  0.4646984E+003  0.2826595E+02  0.7546771E-02  0.1435290E+00
          2   -1    0    0  502    0  0.00000000000E+00  0.00000000000E+00  0.16190736564E+04  0.16190736564E+04  0.00000000000E+00 0. -1.
          1   -1    0    0  501    0 -0.00000000000E+00 -0.00000000000E+00 -0.49653512167E+03  0.49653512167E+03  0.00000000000E+00 0.  1.
          2    1    1    2  501    0 -0.13249346150E+02 -0.24968353725E+02  0.16185478888E+04  0.16187946850E+04  0.00000000000E+00 0. -1.
          1    1    1    2  502    0  0.13249346150E+02  0.24968353725E+02 -0.49600935401E+03  0.49681409313E+03  0.00000000000E+00 0.  1.
</event>
<event>
 4    1  0.3593938E+003  0.3361564E+02  0.7546771E-02  0.1390566E+00
          2   -1    0    0  502    0  0.00000000000E+00  0.00000000000E+00  0.60516382830E+03  0.60516382830E+03  0.00000000000E+00 0. -1.
          1   -1    0    0  501    0 -0.00000000000E+00 -0.00000000000E+00 -0.29592691212E+01  0.29592691212E+01  0.00000000000E+00 0.  1.
          2    1    1    2  501    0 -0.32600201495E+02 -0.81999027163E+01  0.48580701253E+03  0.48696864885E+03  0.00000000000E+00 0. -1.
          1    1    1    2  502    0  0.32600201495E+02  0.81999027163E+01  0.11639754665E+03  0.12115444857E+03  0.00000000000E+00 0.  1.
</event>
<event>
 4    1  0.3593938E+003  0.4620515E+02  0.7546771E-02  0.1315521E+00
          2   -1    0    0  502    0  0.00000000000E+00  0.00000000000E+00  0.81783779688E+01  0.81783779688E+01  0.00000000000E+00 0. -1.
          1   -1    0    0  501    0 -0.00000000000E+00 -0.00000000000E+00 -0.50876872442E+03  0.50876872442E+03  0.00000000000E+00 0.  1.
          2    1    1    2  501    0  0.14201599183E+02  0.43968521738E+02 -0.69935017162E+02  0.83820182227E+02  0.00000000000E+00 0. -1.
          1    1    1    2  502    0 -0.14201599183E+02 -0.43968521738E+02 -0.43065532928E+03  0.43312692016E+03  0.00000000000E+00 0.  1.
</event>
<event>
 4    1  0.3593938E+003  0.2634018E+02  0.7546771E-02  0.1454351E+00
          2   -1    0    0  502    0  0.00000000000E+00  0.00000000000E+00  0.15955874663E+03  0.15955874663E+03  0.00000000000E+00 0. -1.
          1   -1    0    0  501    0 -0.00000000000E+00 -0.00000000000E+00 -0.22077693400E+02  0.22077693400E+02  0.00000000000E+00 0.  1.
          2    1    1    2  501    0 -0.20999838459E+02 -0.15900062844E+02  0.15012534313E+03  0.15241858109E+03  0.00000000000E+00 0. -1.
          1    1    1    2  502    0  0.20999838459E+02  0.15900062844E+02 -0.12644289898E+02  0.29217858935E+02  0.00000000000E+00 0.  1.
</event>
<event>
 4    1  0.3593938E+003  0.3758134E+02  0.7546771E-02  0.1363273E+00
          2   -1    0    0  502    0  0.00000000000E+00  0.00000000000E+00  0.45043879891E+03  0.45043879891E+03  0.00000000000E+00 0.  1.
          1   -1    0    0  501    0 -0.00000000000E+00 -0.00000000000E+00 -0.38506327879E+01  0.38506327879E+01  0.00000000000E+00 0. -1.
          2    1    1    2  501    0  0.36629557925E+02 -0.84043060081E+01  0.32118127571E+03  0.32337249224E+03  0.00000000000E+00 0.  1.
          1    1    1    2  502    0 -0.36629557925E+02  0.84043060081E+01  0.12540689041E+03  0.13091693946E+03  0.00000000000E+00 0. -1.
</event>
<event>
 4    1  0.3593938E+003  0.2236417E+02  0.7546771E-02  0.1500640E+00
          2   -1    0    0  502    0  0.00000000000E+00  0.00000000000E+00  0.53735093484E+03  0.53735093484E+03  0.00000000000E+00 0. -1.
          1   -1    0    0  501    0 -0.00000000000E+00 -0.00000000000E+00 -0.74515630986E+02  0.74515630986E+02  0.00000000000E+00 0. -1.
          2    1    1    2  501    0 -0.20829535009E+02 -0.81416528208E+01  0.53543421139E+03  0.53590106435E+03  0.00000000000E+00 0. -1.
          1    1    1    2  502    0  0.20829535009E+02  0.81416528208E+01 -0.72598907538E+02  0.75965501480E+02  0.00000000000E+00 0. -1.
</event>
<event>
 4    1  0.3593938E+003  0.3719107E+02  0.7546771E-02  0.1365782E+00
          2   -1    0    0  502    0  0.00000000000E+00  0.00000000000E+00  0.56745815429E+03  0.56745815429E+03  0.00000000000E+00 0.  1.
          1   -1    0    0  501    0 -0.00000000000E+00 -0.00000000000E+00 -0.19095011810E+02  0.19095011810E+02  0.00000000000E+00 0.  1.
          2    1    1    2  501    0  0.35193727260E+02  0.12024036856E+02  0.54810082758E+03  0.54936116817E+03  0.00000000000E+00 0.  1.
          1    1    1    2  502    0 -0.35193727260E+02 -0.12024036856E+02  0.26231489907E+00  0.37191997928E+02  0.00000000000E+00 0.  1.
</event>
<event>
 4    1  0.3593938E+003  0.2305764E+02  0.7546771E-02  0.1491776E+00
          2   -1    0    0  502    0  0.00000000000E+00  0.00000000000E+00  0.43610243212E+03  0.43610243212E+03  0.00000000000E+00 0.  1.
          1   -1    0    0  501    0 -0.00000000000E+00 -0.00000000000E+00 -0.33381859663E+03  0.33381859663E+03  0.00000000000E+00 0. -1.
          2    1    1    2  501    0 -0.23053103060E+02  0.45740283777E+00  0.43539885140E+03  0.43600896158E+03  0.00000000000E+00 0.  1.
          1    1    1    2  502    0  0.23053103060E+02 -0.45740283777E+00 -0.33311501591E+03  0.33391206717E+03  0.00000000000E+00 0. -1.
</event>
<event>
 4    1  0.3593938E+003  0.2113709E+02  0.7546771E-02  0.1517316E+00
          2   -1    0    0  502    0  0.00000000000E+00  0.00000000000E+00  0.13447962598E+03  0.13447962598E+03  0.00000000000E+00 0.  1.
          1   -1    0    0  501    0 -0.00000000000E+00 -0.00000000000E+00 -0.26508702979E+03  0.26508702979E+03  0.00000000000E+00 0.  1.
          2    1    1    2  501    0  0.17686967735E+02  0.11573581701E+02  0.13322376410E+03  0.13489013285E+03  0.00000000000E+00 0.  1.
          1    1    1    2  502    0 -0.17686967735E+02 -0.11573581701E+02 -0.26383116791E+03  0.26467652291E+03  0.00000000000E+00 0.  1.
</event>
<event>
 4    1  0.3593938E+003  0.2355985E+02  0.7546771E-02  0.1485585E+00
          2   -1    0    0  502    0  0.00000000000E+00  0.00000000000E+00  0.13344019568E+02  0.13344019568E+02  0.00000000000E+00 0.  1.
          1   -1    0    0  501    0 -0.00000000000E+00 -0.00000000000E+00 -0.22010377512E+03  0.22010377512E+03  0.00000000000E+00 0. -1.
          2    1    1    2  501    0 -0.52659779803E+01 -0.22963801753E+02  0.17373245104E+01  0.23623822965E+02  0.00000000000E+00 0.  1.
          1    1    1    2  502    0  0.52659779803E+01  0.22963801753E+02 -0.20849708006E+03  0.20982397172E+03  0.00000000000E+00 0. -1.
</event>
<event>
 4    1  0.3593938E+003  0.4424928E+02  0.7546771E-02  0.1325236E+00
          2   -1    0    0  502    0  0.00000000000E+00  0.00000000000E+00  0.67296357662E+02  0.67296357662E+02  0.00000000000E+00 0.  1.
          1   -1    0    0  501    0 -0.00000000000E+00 -0.00000000000E+00 -0.18394517475E+03  0.18394517475E+03  0.00000000000E+00 0.  1.
          2    1    1    2  501    0  0.23474829915E+02 -0.37509078650E+02  0.56934063187E+02  0.72107462662E+02  0.00000000000E+00 0.  1.
          1    1    1    2  502    0 -0.23474829915E+02  0.37509078650E+02 -0.17358288027E+03  0.17913406975E+03  0.00000000000E+00 0.  1.
</event>
<event>
 4    1  0.3593938E+003  0.2931104E+02  0.7546771E-02  0.1425679E+00
          2   -1    0    0  502    0  0.00000000000E+00  0.00000000000E+00  0.69827205915E+02  0.69827205915E+02  0.00000000000E+00 0. -1.
          1   -1    0    0  501    0 -0.00000000000E+00 -0.00000000000E+00 -0.19313774702E+02  0.19313774702E+02  0.00000000000E+00 0. -1.
          2    1    1    2  501    0 -0.21240393754E+02  0.20198585314E+02  0.52108509124E+02  0.59786569550E+02  0.00000000000E+00 0. -1.
          1    1    1    2  502    0  0.21240393754E+02 -0.20198585314E+02 -0.15950779109E+01  0.29354411066E+02  0.00000000000E+00 0. -1.
</event>
<event>
 4    1  0.3593938E+003  0.2708516E+02  0.7546771E-02  0.1446755E+00
          2   -1    0    0  502    0  0.00000000000E+00  0.00000000000E+00  0.46539103022E+03  0.46539103022E+03  0.00000000000E+00 0. -1.
          1   -1    0    0  501    0 -0.00000000000E+00 -0.00000000000E+00 -0.41303055110E+03  0.41303055110E+03  0.00000000000E+00 0.  1.
          2    1    1    2  501    0  0.24369587753E+02  0.11820708581E+02  0.46455211006E+03  0.46534102432E+03  0.00000000000E+00 0. -1.
          1    1    1    2  502    0 -0.24369587753E+02 -0.11820708581E+02 -0.41219163093E+03  0.41308055700E+03  0.00000000000E+00 0.  1.
</event>
<event>
 4    1  0.3593938E+003  0.3086331E+02  0.7546771E-02  0.1412240E+00
          2   -1    0    0  502    0  0.00000000000E+00  0.00000000000E+00  0.12672282868E+04  0.12672282868E+04  0.00000000000E+00 0. -1.
          1   -1    0    0  501    0 -0.00000000000E+00 -0.00000000000E+00 -0.11829131442E+03  0.11829131442E+03  0.00000000000E+00 0.  1.
          2    1    1    2  501    0  0.26954705083E+02  0.15032880191E+02  0.12650237294E+04  0.12654001658E+04  0.00000000000E+00 0. -1.
          1    1    1    2  502    0 -0.26954705083E+02 -0.15032880191E+02 -0.11608675703E+03  0.12011943544E+03  0.00000000000E+00 0.  1.
</event>
<event>
 4    1  0.3593938E+003  0.2055143E+02  0.7546771E-02  0.1525767E+00
          2   -1    0    0  502    0  0.00000000000E+00  0.00000000000E+00  0.78543663024E+03  0.78543663024E+03  0.00000000000E+00 0. -1.
          1   -1    0    0  501    0 -0.00000000000E+00 -0.00000000000E+00 -0.77733128468E+01  0.77733128468E+01  0.00000000000E+00 0.  1.
          2    1    1    2  501    0 -0.19160866008E+02 -0.74311782446E+01  0.77147267507E+03  0.77174636350E+03  0.00000000000E+00 0. -1.
          1    1    1    2  502    0  0.19160866008E+02  0.74311782446E+01  0.61906423231E+01  0.21463579586E+02  0.00000000000E+00 0.  1.
</event>
<event>
 4    1  0.3593938E+003  0.5191742E+02  0.7546771E-02  0.1290067E+00
          2   -1    0    0  502    0  0.00000000000E+00  0.00000000000E+00  0.75765231831E+02  0.75765231831E+02  0.00000000000E+00 0.  1.
          1   -1    0    0  501    0 -0.00000000000E+00 -0.00000000000E+00 -0.27524854693E+03  0.27524854693E+03  0.00000000000E+00 0. -1.
          2    1    1    2  501    0  0.49978914917E+02  0.14054399838E+02  0.64030800120E+02  0.82433982405E+02  0.00000000000E+00 0.  1.
          1    1    1    2  502    0 -0.49978914917E+02 -0.14054399838E+02 -0.26351411522E+03  0.26857979635E+03  0.00000000000E+00 0. -1.
</event>
<event>
 4    1  0.3593938E+003  0.4777835E+02  0.7546771E-02  0.1308103E+00
          2   -1    0    0  502    0  0.00000000000E+00  0.00000000000E+00  0.10768817456E+02  0.10768817456E+02  0.00000000000E+00 0.  1.
          1   -1    0    0  501    0 -0.00000000000E+00 -0.00000000000E+00 -0.52016808002E+03  0.52016808002E+03  0.00000000000E+00 0. -1.
          2    1    1    2  501    0  0.47753276274E+02 -0.15476598551E+01 -0.50361604141E+02  0.69419462815E+02  0.00000000000E+00 0.  1.
          1    1    1    2  502    0 -0.47753276274E+02  0.15476598551E+01 -0.45903765842E+03  0.46151743466E+03  0.00000000000E+00 0. -1.
</event>
<event>
 4    1  0.3593938E+003  0.2076290E+02  0.7546771E-02  0.1522677E+00
          2   -1    0    0  502    0  0.00000000000E+00  0.00000000000E+00  0.32458158931E+01  0.32458158931E+01  0.00000000000E+00 0. -1.
          1   -1    0    0  501    0 -0.00000000000E+00 -0.00000000000E+00 -0.23080991952E+03  0.23080991952E+03  0.00000000000E+00 0. -1.
          2    1    1    2  501    0  0.63650765762E+00 -0.20753138852E+02 -0.37528424325E+02  0.42889165841E+02  0.00000000000E+00 0. -1.
          1    1    1    2  502    0 -0.63650765762E+00  0.20753138852E+02 -0.19003567930E+03  0.19116656957E+03  0.00000000000E+00 0. -1.
</event>
<event>
 4    1  0.3593938E+003  0.2108264E+02  0.7546771E-02  0.1518088E+00
          2   -1    0    0  502    0  0.00000000000E+00  0.00000000000E+00  0.22843825468E+01  0.22843825468E+01  0.00000000000E+00 0.  1.
          1   -1    0    0  501    0 -0.00000000000E+00 -0.00000000000E+00 -0.98031560618E+03  0.98031560618E+03  0.00000000000E+00 0.  1.
          2    1    1    2  501    0  0.91586210511E+01 -0.18989405216E+02 -0.49166102782E+02  0.53495640129E+02  0.00000000000E+00 0.  1.
          1    1    1    2  502    0 -0.91586210511E+01  0.18989405216E+02 -0.92886512085E+03  0.92910434859E+03  0.00000000000E+00 0.  1.
</event>
<event>
 4    1  0.3593938E+003  0.2001006E+02  0.7546771E-02  0.1533882E+00
          2   -1    0    0  502    0  0.00000000000E+00  0.00000000000E+00  0.27929247247E+02  0.27929247247E+02  0.00000000000E+00 0.  1.
          1   -1    0    0  501    0 -0.00000000000E+00 -0.00000000000E+00 -0.26039624051E+03  0.26039624051E+03  0.00000000000E+00 0. -1.
          2    1    1    2  501    0 -0.63740385969E+01  0.18967710979E+02  0.23904572963E+02  0.31174204663E+02  0.00000000000E+00 0.  1.
          1    1    1    2  502    0  0.63740385969E+01 -0.18967710979E+02 -0.25637156623E+03  0.25715128310E+03  0.00000000000E+00 0. -1.
</event>
<event>
 4    1  0.3593938E+003  0.2779626E+02  0.7546771E-02  0.1439769E+00
          2   -1    0    0  502    0  0.00000000000E+00  0.00000000000E+00  0.18510984244E+04  0.18510984244E+04  0.00000000000E+00 0. -1.
          1   -1    0    0  501    0 -0.00000000000E+00 -0.00000000000E+00 -0.28974593898E+03  0.28974593898E+03  0.00000000000E+00 0.  1.
          2    1    1    2  501    0 -0.21393153517E+02 -0.17747250776E+02  0.18503271528E+04  0.18505359235E+04  0.00000000000E+00 0. -1.
          1    1    1    2  502    0  0.21393153517E+02  0.17747250776E+02 -0.28897466732E+03  0.29030843991E+03  0.00000000000E+00 0.  1.
</event>
<event>
 4    1  0.3593938E+003  0.3224032E+02  0.7546771E-02  0.1401077E+00
          2   -1    0    0  502    0  0.00000000000E+00  0.00000000000E+00  0.40805609434E+01  0.40805609434E+01  0.00000000000E+00 0. -1.
          1   -1    0    0  501    0 -0.00000000000E+00 -0.00000000000E+00 -0.25723878469E+03  0.25723878469E+03  0.00000000000E+00 0. -1.
          2    1    1    2  501    0  0.90181285019E+01  0.30953375937E+02 -0.11367369099E+03  0.11815729409E+03  0.00000000000E+00 0. -1.
          1    1    1    2  502    0 -0.90181285019E+01 -0.30953375937E+02 -0.13948453276E+03  0.14316205154E+03  0.00000000000E+00 0. -1.
</event>
<event>
 4    1  0.3593938E+003  0.2753597E+02  0.7546771E-02  0.1442297E+00
          2   -1    0    0  502    0  0.00000000000E+00  0.00000000000E+00  0.34207794890E+02  0.34207794890E+02  0.00000000000E+00 0. -1.
          1   -1    0    0  501    0 -0.00000000000E+00 -0.00000000000E+00 -0.64238841812E+02  0.64238841812E+02  0.00000000000E+00 0.  1.
          2    1    1    2  501    0  0.11425207231E+02  0.25053826018E+02  0.24820505731E+02  0.37071377950E+02  0.00000000000E+00 0. -1.
          1    1    1    2  502    0 -0.11425207231E+02 -0.25053826018E+02 -0.54851552653E+02  0.61375258752E+02  0.00000000000E+00 0.  1.
</event>
<event>
 4    1  0.3593938E+003  0.2894365E+02  0.7546771E-02  0.1429004E+00
          2   -1    0    0  502    0  0.00000000000E+00  0.00000000000E+00  0.12021627270E+04  0.12021627270E+04  0.00000000000E+00 0. -1.
          1   -1    0    0  501    0 -0.00000000000E+00 -0.00000000000E+00 -0.12685004594E+01  0.12685004594E+01  0.00000000000E+00 0. -1.
          2    1    1    2  501    0 -0.19764804803E+02 -0.21144437114E+02  0.10043796463E+04  0.10047966007E+04  0.00000000000E+00 0. -1.
          1    1    1    2  502    0  0.19764804803E+02  0.21144437114E+02  0.19651458025E+03  0.19863462685E+03  0.00000000000E+00 0. -1.
</event>
<event>
 4    1  0.3593938E+003  0.2400402E+02  0.7546771E-02  0.1480261E+00
          2   -1    0    0  502    0  0.00000000000E+00  0.00000000000E+00  0.35536596098E+00  0.35536596098E+00  0.00000000000E+00 0. -1.
          1   -1    0    0  501    0 -0.00000000000E+00 -0.00000000000E+00 -0.18370405187E+04  0.18370405187E+04  0.00000000000E+00 0. -1.
          2    1    1    2  501    0 -0.15978738044E+02  0.17912923847E+02 -0.60358850308E+03  0.60406562057E+03  0.00000000000E+00 0. -1.
          1    1    1    2  502    0  0.15978738044E+02 -0.17912923847E+02 -0.12330966496E+04  0.12333302641E+04  0.00000000000E+00 0. -1.
</event>
<event>
 4    1  0.3593938E+003  0.2144427E+02  0.7546771E-02  0.1513015E+00
          2   -1    0    0  502    0  0.00000000000E+00  0.00000000000E+00  0.66759780117E+01  0.66759780117E+01  0.00000000000E+00 0.  1.
          1   -1    0    0  501    0 -0.00000000000E+00 -0.00000000000E+00 -0.34689121057E+03  0.34689121057E+03  0.00000000000E+00 0. -1.
          2    1    1    2  501    0  0.19751350134E+02  0.83511039725E+01 -0.11846340000E+02  0.24498827341E+02  0.00000000000E+00 0.  1.
          1    1    1    2  502    0 -0.19751350134E+02 -0.83511039725E+01 -0.32836889256E+03  0.32906836124E+03  0.00000000000E+00 0. -1.
</event>
<event>
 4    1  0.3593938E+003  0.4491198E+02  0.7546771E-02  0.1321880E+00
          2   -1    0    0  502    0  0.00000000000E+00  0.00000000000E+00  0.25435024662E+01  0.25435024662E+01  0.00000000000E+00 0. -1.
          1   -1    0    0  501    0 -0.00000000000E+00 -0.00000000000E+00 -0.83770310918E+03  0.83770310918E+03  0.00000000000E+00 0.  1.
          2    1    1    2  501    0  0.13902353429E+02  0.42706098537E+02 -0.32056659490E+03  0.32369743288E+03  0.00000000000E+00 0. -1.
          1    1    1    2  502    0 -0.13902353429E+02 -0.42706098537E+02 -0.51459301181E+03  0.51654917877E+03  0.00000000000E+00 0.  1.
</event>
<event>
 4    1  0.3593938E+003  0.2108921E+02  0.7546771E-02  0.1517995E+00
          2   -1    0    0  502    0  0.00000000000E+00  0.00000000000E+00  0.13597072065E+04  0.13597072065E+04  0.00000000000E+00 0. -1.
          1   -1    0    0  501    0 -0.00000000000E+00 -0.00000000000E+00 -0.43738440971E+00  0.43738440971E+00  0.00000000000E+00 0. -1.
          2    1    1    2  501    0 -0.10445128163E+02 -0.18320858951E+02  0.10211333163E+04  0.10213510681E+04  0.00000000000E+00 0. -1.
          1    1    1    2  502    0  0.10445128163E+02  0.18320858951E+02  0.33813650582E+03  0.33879352288E+03  0.00000000000E+00 0. -1.
</event>
<event>
 4    1  0.3593938E+003  0.2439139E+02  0.7546771E-02  0.1475728E+00
          2   -1    0    0  502    0  0.00000000000E+00  0.00000000000E+00  0.35145551118E+03  0.35145551118E+03  0.00000000000E+00 0.  1.
          1   -1    0    0  501    0 -0.00000000000E+00 -0.00000000000E+00 -0.97983107315E+02  0.97983107315E+02  0.00000000000E+00 0. -1.
          2    1    1    2  501    0  0.14767684107E+02 -0.19412766766E+02  0.34950589092E+03  0.35035597297E+03  0.00000000000E+00 0.  1.
          1    1    1    2  502    0 -0.14767684107E+02  0.19412766766E+02 -0.96033487057E+02  0.99082645523E+02  0.00000000000E+00 0. -1.
</event>
<event>
 4    1  0.3593938E+003  0.2592790E+02  0.7546771E-02  0.1458685E+00
          2   -1    0    0  502    0  0.00000000000E+00  0.00000000000E+00  0.85268581016E+03  0.85268581016E+03  0.00000000000E+00 0. -1.
          1   -1    0    0  501    0 -0.00000000000E+00 -0.00000000000E+00 -0.51190561306E+01  0.51190561306E+01  0.00000000000E+00 0. -1.
          2    1    1    2  501    0 -0.55362977821E+01 -0.25329928510E+02  0.81827747470E+03  0.81868814666E+03  0.00000000000E+00 0. -1.
          1    1    1    2  502    0  0.55362977821E+01  0.25329928510E+02  0.29289279331E+02  0.39116719638E+02  0.00000000000E+00 0. -1.
</event>
<event>
 4    1  0.3593938E+003  0.3300194E+02  0.7546771E-02  0.1395182E+00
          2   -1    0    0  502    0  0.00000000000E+00  0.00000000000E+00  0.71097703827E+03  0.71097703827E+03  0.00000000000E+00 0. -1.
          1   -1    0    0  501    0 -0.00000000000E+00 -0.00000000000E+00 -0.39280559992E+02  0.39280559992E+02  0.00000000000E+00 0.  1.
          2    1    1    2  501    0  0.12894451674E+01 -0.32976736850E+02  0.70358960601E+03  0.70436316026E+03  0.00000000000E+00 0. -1.
          1    1    1    2  502    0 -0.12894451674E+01  0.32976736850E+02 -0.31893127739E+02  0.45894437997E+02  0.00000000000E+00 0.  1.
</event>
<event>
 4    1  0.3593938E+003  0.3915090E+02  0.7546771E-02  0.1353535E+00
          2   -1    0    0  502    0  0.00000000000E+00  0.00000000000E+00  0.24659422793E+04  0.24659422793E+04  0.00000000000E+00 0. -1.
          1   -1    0    0  501    0 -0.00000000000E+00 -0.00000000000E+00 -0.52227290573E+01  0.52227290573E+01  0.00000000000E+00 0. -1.
          2    1    1    2  501    0 -0.37180176649E+02 -0.12264901745E+02  0.23900871417E+04  0.23904077766E+04  0.00000000000E+00 0. -1.
          1    1    1    2  502    0  0.37180176649E+02  0.12264901745E+02  0.70632408567E+02  0.80757231815E+02  0.00000000000E+00 0. -1.
</event>
<event>
 4    1  0.3593938E+003  0.2085685E+02  0.7546771E-02  0.1521318E+00
          2   -1    0    0  502    0  0.00000000000E+00  0.00000000000E+00  0.75525150951E+03  0.75525150951E+03  0.00000000000E+00 0.  1.
          1   -1    0    0  501    0 -0.00000000000E+00 -0.00000000000E+00 -0.79783756761E+00  0.79783756761E+00  0.00000000000E+00 0.  1.
          2    1    1    2  501    0  0.87581865105E+01 -0.18928880057E+02  0.57657024780E+03  0.57694736240E+03  0.00000000000E+00 0.  1.
          1    1    1    2  502    0 -0.87581865105E+01  0.18928880057E+02  0.17788342415E+03  0.17910198468E+03  0.00000000000E+00 0.  1.
</event>
<event>
 4    1  0.3593938E+003  0.4395936E+02  0.7546771E-02  0.1326726E+00
          2   -1    0    0  502    0  0.00000000000E+00  0.00000000000E+00  0.79375321535E+02  0.79375321535E+02  0.00000000000E+00 0.  1.
          1   -1    0    0  501    0 -0.00000000000E+00 -0.00000000000E+00 -0.27535646856E+02  0.27535646856E+02  0.00000000000E+00 0.  1.
          2    1    1    2  501    0 -0.40300835905E+02  0.17557511721E+02  0.77246270239E+01  0.44632874152E+02  0.00000000000E+00 0.  1.
          1    1    1    2  502    0  0.40300835905E+02 -0.17557511721E+02  0.44115047655E+02  0.62278094239E+02  0.00000000000E+00 0.  1.
</event>
<event>
 4    1  0.3593938E+003  0.5808338E+02  0.7546771E-02  0.1266487E+00
          2   -1    0    0  502    0  0.00000000000E+00  0.00000000000E+00  0.41762014778E+02  0.41762014778E+02  0.00000000000E+00 0. -1.
          1   -1    0    0  501    0 -0.00000000000E+00 -0.00000000000E+00 -0.13141375939E+03  0.13141375939E+03  0.00000000000E+00 0.  1.
          2    1    1    2  501    0 -0.40106293204E+02 -0.42013857673E+02  0.89196241542E+01  0.58764263683E+02  0.00000000000E+00 0. -1.
          1    1    1    2  502    0  0.40106293204E+02  0.42013857673E+02 -0.98571368770E+02  0.11441151049E+03  0.00000000000E+00 0.  1.
</event>
<event>
 4    1  0.3593938E+003  0.2091688E+02  0.7546771E-02  0.1520455E+00
          2   -1    0    0  502    0  0.00000000000E+00  0.00000000000E+00  0.10894124544E+04  0.10894124544E+04  0.00000000000E+00 0. -1.
          1   -1    0    0  501    0 -0.00000000000E+00 -0.00000000000E+00 -0.34496268023E+02  0.34496268023E+02  0.00000000000E+00 0.  1.
          2    1    1    2  501    0 -0.14772833389E+02  0.14808082190E+02  0.10861317280E+04  0.10863331194E+04  0.00000000000E+00 0. -1.
          1    1    1    2  502    0  0.14772833389E+02 -0.14808082190E+02 -0.31215541575E+02  0.37575602993E+02  0.00000000000E+00 0.  1.
</event>
<event>
 4    1  0.3593938E+003  0.2763081E+02  0.7546771E-02  0.1441372E+00
          2   -1    0    0  502    0  0.00000000000E+00  0.00000000000E+00  0.21553126231E+03  0.21553126231E+03  0.00000000000E+00 0.  1.
          1   -1    0    0  501    0 -0.00000000000E+00 -0.00000000000E+00 -0.96259751467E+01  0.96259751467E+01  0.00000000000E+00 0.  1.
          2    1    1    2  501    0  0.26141433581E+02  0.89491546787E+01  0.19245180214E+03  0.19442519915E+03  0.00000000000E+00 0.  1.
          1    1    1    2  502    0 -0.26141433581E+02 -0.89491546787E+01  0.13453485028E+02  0.30732038307E+02  0.00000000000E+00 0.  1.
</event>
<event>
 4    1  0.3593938E+003  0.3418423E+02  0.7546771E-02  0.1386391E+00
          2   -1    0    0  502    0  0.00000000000E+00  0.00000000000E+00  0.72732394195E+01  0.72732394195E+01  0.00000000000E+00 0.  1.
          1   -1    0    0  501    0 -0.00000000000E+00 -0.00000000000E+00 -0.16084384419E+03  0.16084384419E+03  0.00000000000E+00 0. -1.
          2    1    1    2  501    0  0.27370015708E+02 -0.20480324663E+02 -0.73989296029E+02  0.81504462363E+02  0.00000000000E+00 0.  1.
          1    1    1    2  502    0 -0.27370015708E+02  0.20480324663E+02 -0.79581308740E+02  0.86612621245E+02  0.00000000000E+00 0. -1.
</event>
<event>
 4    1  0.3593938E+003  0.7024968E+02  0.7546771E-02  0.1228494E+00
          2   -1    0    0  502    0  0.00000000000E+00  0.00000000000E+00  0.20107784732E+02  0.20107784732E+02  0.00000000000E+00 0. -1.
          1   -1    0    0  501    0 -0.00000000000E+00 -0.00000000000E+00 -0.32860358947E+03  0.32860358947E+03  0.00000000000E+00 0. -1.
          2    1    1    2  501    0 -0.54939844595E+02 -0.43779347862E+02 -0.66528162650E+02  0.96752334592E+02  0.00000000000E+00 0. -1.
          1    1    1    2  502    0  0.54939844595E+02  0.43779347862E+02 -0.24196764209E+03  0.25195903961E+03  0.00000000000E+00 0. -1.
</event>
<event>
 4    1  0.3593938E+003  0.2890598E+02  0.7546771E-02  0.1429348E+00
          2   -1    0    0  502    0  0.00000000000E+00  0.00000000000E+00  0.15166346261E+04  0.15166346261E+04  0.00000000000E+00 0. -1.
          1   -1    0    0  501    0 -0.00000000000E+00 -0.00000000000E+00 -0.30166650778E+01  0.30166650778E+01  0.00000000000E+00 0. -1.
          2    1    1    2  501    0  0.28851401579E+02  0.17754049036E+01  0.14437569489E+04  0.14440462884E+04  0.00000000000E+00 0. -1.
          1    1    1    2  502    0 -0.28851401579E+02 -0.17754049036E+01  0.69861012090E+02  0.75605002784E+02  0.00000000000E+00 0. -1.
</event>
<event>
 4    1  0.3593938E+003  0.2468917E+02  0.7546771E-02  0.1472311E+00
          2   -1    0    0  502    0  0.00000000000E+00  0.00000000000E+00  0.37912733244E+03  0.37912733244E+03  0.00000000000E+00 0.  1.
          1   -1    0    0  501    0 -0.00000000000E+00 -0.00000000000E+00 -0.59259904862E+01  0.59259904862E+01  0.00000000000E+00 0. -1.
          2    1    1    2  501    0 -0.16305210868E+02 -0.18539016403E+02  0.35094778604E+03  0.35181515539E+03  0.00000000000E+00 0.  1.
          1    1    1    2  502    0  0.16305210868E+02  0.18539016403E+02  0.22253555905E+02  0.33238167535E+02  0.00000000000E+00 0. -1.
</event>
<event>
 4    1  0.3593938E+003  0.2542241E+02  0.7546771E-02  0.1464133E+00
          2   -1    0    0  502    0  0.00000000000E+00  0.00000000000E+00  0.20198043413E+02  0.20198043413E+02  0.00000000000E+00 0. -1.
          1   -1    0    0  501    0 -0.00000000000E+00 -0.00000000000E+00 -0.57369621218E+02  0.57369621218E+02  0.00000000000E+00 0.  1.
          2    1    1    2  501    0  0.14200682026E+01  0.25382716144E+02  0.72060936414E+01  0.26423978847E+02  0.00000000000E+00 0. -1.
          1    1    1    2  502    0 -0.14200682026E+01 -0.25382716144E+02 -0.44377671446E+02  0.51143685784E+02  0.00000000000E+00 0.  1.
</event>
<event>
 4    1  0.3593938E+003  0.2106355E+02  0.7546771E-02  0.1518359E+00
          2   -1    0    0  502    0  0.00000000000E+00  0.00000000000E+00  0.55832823575E+00  0.55832823575E+00  0.00000000000E+00 0. -1.
          1   -1    0    0  501    0 -0.00000000000E+00 -0.00000000000E+00 -0.79473109148E+03  0.79473109148E+03  0.00000000000E+00 0.  1.
          2    1    1    2  501    0  0.11480353164E+02  0.17659969977E+02 -0.39296092753E+03  0.39352504827E+03  0.00000000000E+00 0. -1.
          1    1    1    2  502    0 -0.11480353164E+02 -0.17659969977E+02 -0.40121183572E+03  0.40176437145E+03  0.00000000000E+00 0.  1.
</event>
<event>
 4    1  0.3593938E+003  0.2496383E+02  0.7546771E-02  0.1469209E+00
          2   -1    0    0  502    0  0.00000000000E+00  0.00000000000E+00  0.43992610922E+01  0.43992610922E+01  0.00000000000E+00 0.  1.
          1   -1    0    0  501    0 -0.00000000000E+00 -0.00000000000E+00 -0.29897893208E+03  0.29897893208E+03  0.00000000000E+00 0. -1.
          2    1    1    2  501    0 -0.63607975817E+01 -0.24139860241E+02 -0.37255892108E+02  0.44846338703E+02  0.00000000000E+00 0.  1.
          1    1    1    2  502    0  0.63607975817E+01  0.24139860241E+02 -0.25732377888E+03  0.25853185447E+03  0.00000000000E+00 0. -1.
</event>
<event>
 4    1  0.3593938E+003  0.2262421E+02  0.7546771E-02  0.1497272E+00
          2   -1    0    0  502    0  0.00000000000E+00  0.00000000000E+00  0.10362763979E+03  0.10362763979E+03  0.00000000000E+00 0. -1.
          1   -1    0    0  501    0 -0.00000000000E+00 -0.00000000000E+00 -0.99241420250E+02  0.99241420250E+02  0.00000000000E+00 0. -1.
          2    1    1    2  501    0 -0.20477958031E+02  0.96181085559E+01  0.10107116455E+03  0.10357236640E+03  0.00000000000E+00 0. -1.
          1    1    1    2  502    0  0.20477958031E+02 -0.96181085559E+01 -0.96684945009E+02  0.99296693645E+02  0.00000000000E+00 0. -1.
</event>
<event>
 4    1  0.3593938E+003  0.3518969E+02  0.7546771E-02  0.1379235E+00
          2   -1    0    0  502    0  0.00000000000E+00  0.00000000000E+00  0.10505134908E+02  0.10505134908E+02  0.00000000000E+00 0.  1.
          1   -1    0    0  501    0 -0.00000000000E+00 -0.00000000000E+00 -0.17798282466E+04  0.17798282466E+04  0.00000000000E+00 0.  1.
          2    1    1    2  501    0 -0.34901538251E+02 -0.44941182539E+01 -0.19645840814E+02  0.40302277013E+02  0.00000000000E+00 0.  1.
          1    1    1    2  502    0  0.34901538251E+02  0.44941182539E+01 -0.17496772709E+04  0.17500311045E+04  0.00000000000E+00 0.  1.
</event>
<event>
 4    1  0.3593938E+003  0.3924652E+02  0.7546771E-02  0.1352959E+00
          2   -1    0    0  502    0  0.00000000000E+00  0.00000000000E+00  0.93461849704E+01  0.93461849704E+01  0.00000000000E+00 0. -1.
          1   -1    0    0  501    0 -0.00000000000E+00 -0.00000000000E+00 -0.24165382024E+03  0.24165382024E+03  0.00000000000E+00 0.  1.
          2    1    1    2  501    0  0.17893797933E+02 -0.34929953775E+02 -0.45380749132E+02  0.59997517173E+02  0.00000000000E+00 0. -1.
          1    1    1    2  502    0 -0.17893797933E+02  0.34929953775E+02 -0.18692688614E+03  0.19100248804E+03  0.00000000000E+00 0.  1.
</event>
<event>
 4    1  0.3593938E+003  0.2304777E+02  0.7546771E-02  0.1491899E+00
          2   -1    0    0  502    0  0.00000000000E+00  0.00000000000E+00  0.79644510672E+02  0.79644510672E+02  0.00000000000E+00 0. -1.
          1   -1    0    0  501    0 -0.00000000000E+00 -0.00000000000E+00 -0.11718466896E+02  0.11718466896E+02  0.00000000000E+00 0. -1.
          2    1    1    2  501    0 -0.13316804304E+02  0.18811229574E+02  0.63947769923E+02  0.67974384242E+02  0.00000000000E+00 0. -1.
          1    1    1    2  502    0  0.13316804304E+02 -0.18811229574E+02  0.39782738521E+01  0.23388593326E+02  0.00000000000E+00 0. -1.
</event>
<event>
 4    1  0.3593938E+003  0.3337001E+02  0.7546771E-02  0.1392399E+00
          2   -1    0    0  502    0  0.00000000000E+00  0.00000000000E+00  0.69963054775E+03  0.69963054775E+03  0.00000000000E+00 0.  1.
          1   -1    0    0  501    0 -0.00000000000E+00 -0.00000000000E+00 -0.46550048692E+01  0.46550048692E+01  0.00000000000E+00 0.  1.
          2    1    1    2  501    0 -0.67430636520E+01 -0.32681622635E+02  0.63315363172E+03  0.63403239564E+03  0.00000000000E+00 0.  1.
          1    1    1    2  502    0  0.67430636520E+01  0.32681622635E+02  0.61821911160E+02  0.70253156974E+02  0.00000000000E+00 0.  1.
</event>
<event>
 4    1  0.3593938E+003  0.2298305E+02  0.7546771E-02  0.1492711E+00
          2   -1    0    0  502    0  0.00000000000E+00  0.00000000000E+00  0.34646848917E+02  0.34646848917E+02  0.00000000000E+00 0.  1.
          1   -1    0    0  501    0 -0.00000000000E+00 -0.00000000000E+00 -0.90002428652E+02  0.90002428652E+02  0.00000000000E+00 0. -1.
          2    1    1    2  501    0 -0.21461539746E+02  0.82233216278E+01  0.29123390467E+02  0.37099765217E+02  0.00000000000E+00 0.  1.
          1    1    1    2  502    0  0.21461539746E+02 -0.82233216278E+01 -0.84478970201E+02  0.87549512352E+02  0.00000000000E+00 0. -1.
</event>
<event>
 4    1  0.3593938E+003  0.2252562E+02  0.7546771E-02  0.1498542E+00
          2   -1    0    0  502    0  0.00000000000E+00  0.00000000000E+00  0.18003374590E+02  0.18003374590E+02  0.00000000000E+00 0. -1.
          1   -1    0    0  501    0 -0.00000000000E+00 -0.00000000000E+00 -0.13300545965E+03  0.13300545965E+03  0.00000000000E+00 0.  1.
          2    1    1    2  501    0 -0.21004142403E+02 -0.81381425866E+01  0.95280218937E+01  0.24457852810E+02  0.00000000000E+00 0. -1.
          1    1    1    2  502    0  0.21004142403E+02  0.81381425866E+01 -0.12453010695E+03  0.12655098143E+03  0.00000000000E+00 0.  1.
</event>
<event>
 4    1  0.3593938E+003  0.3325685E+02  0.7546771E-02  0.1393250E+00
          2   -1    0    0  502    0  0.00000000000E+00  0.00000000000E+00  0.21034606460E+04  0.21034606460E+04  0.00000000000E+00 0. -1.
          1   -1    0    0  501    0 -0.00000000000E+00 -0.00000000000E+00 -0.34402786699E+02  0.34402786699E+02  0.00000000000E+00 0.  1.
          2    1    1    2  501    0  0.32021931985E+02 -0.89785207854E+01  0.20952604704E+04  0.20955243871E+04  0.00000000000E+00 0. -1.
          1    1    1    2  502    0 -0.32021931985E+02  0.89785207854E+01 -0.26202611050E+02  0.42339045683E+02  0.00000000000E+00 0.  1.
</event>
<event>
 4    1  0.3593938E+003  0.2021427E+02  0.7546771E-02  0.1530785E+00
          2   -1    0    0  502    0  0.00000000000E+00  0.00000000000E+00  0.25505159618E+03  0.25505159618E+03  0.00000000000E+00 0. -1.
          1   -1    0    0  501    0 -0.00000000000E+00 -0.00000000000E+00 -0.42368872514E+01  0.42368872514E+01  0.00000000000E+00 0. -1.
          2    1    1    2  501    0 -0.19976989439E+02 -0.30881414152E+01  0.22764315916E+03  0.22853889087E+03  0.00000000000E+00 0. -1.
          1    1    1    2  502    0  0.19976989439E+02  0.30881414152E+01  0.23171549769E+02  0.30749592569E+02  0.00000000000E+00 0. -1.
</event>
<event>
 4    1  0.3593938E+003  0.2282330E+02  0.7546771E-02  0.1494729E+00
          2   -1    0    0  502    0  0.00000000000E+00  0.00000000000E+00  0.71003828547E+02  0.71003828547E+02  0.00000000000E+00 0. -1.
          1   -1    0    0  501    0 -0.00000000000E+00 -0.00000000000E+00 -0.20826143972E+02  0.20826143972E+02  0.00000000000E+00 0. -1.
          2    1    1    2  501    0  0.22452744619E+02  0.40960242909E+01  0.62042207538E+02  0.66107024378E+02  0.00000000000E+00 0. -1.
          1    1    1    2  502    0 -0.22452744619E+02 -0.40960242909E+01 -0.11864522964E+02  0.25722948141E+02  0.00000000000E+00 0. -1.
</event>
<event>
 4    1  0.3593938E+003  0.4468144E+02  0.7546771E-02  0.1323040E+00
          2   -1    0    0  502    0  0.00000000000E+00  0.00000000000E+00  0.79912745646E+02  0.79912745646E+02  0.00000000000E+00 0. -1.
          1   -1    0    0  501    0 -0.00000000000E+00 -0.00000000000E+00 -0.15044400384E+03  0.15044400384E+03  0.00000000000E+00 0. -1.
          2    1    1    2  501    0 -0.37269842057E+02 -0.24645279625E+02  0.69915666431E+02  0.82973678641E+02  0.00000000000E+00 0. -1.
          1    1    1    2  502    0  0.37269842057E+02  0.24645279625E+02 -0.14044692462E+03  0.14738307084E+03  0.00000000000E+00 0. -1.
</event>
<event>
 4    1  0.3593938E+003  0.1153706E+03  0.7546771E-02  0.1139551E+00
          2   -1    0    0  502    0  0.00000000000E+00  0.00000000000E+00  0.13592439803E+04  0.13592439803E+04  0.00000000000E+00 0.  1.
          1   -1    0    0  501    0 -0.00000000000E+00 -0.00000000000E+00 -0.97926598659E+01  0.97926598659E+01  0.00000000000E+00 0.  1.
          2    1    1    2  501    0  0.11060707255E+03  0.32809031843E+02  0.67171839414E+03  0.68155407570E+03  0.00000000000E+00 0.  1.
          1    1    1    2  502    0 -0.11060707255E+03 -0.32809031843E+02  0.67773292630E+03  0.68748256448E+03  0.00000000000E+00 0.  1.
</event>
<event>
 4    1  0.3593938E+003  0.2497879E+02  0.7546771E-02  0.1469041E+00
          2   -1    0    0  502    0  0.00000000000E+00  0.00000000000E+00  0.22460344153E+04  0.22460344153E+04  0.00000000000E+00 0. -1.
          1   -1    0    0  501    0 -0.00000000000E+00 -0.00000000000E+00 -0.29082333779E+00  0.29082333779E+00  0.00000000000E+00 0. -1.
          2    1    1    2  501    0 -0.87122452828E+01 -0.23410180648E+02  0.13605847706E+04  0.13608140423E+04  0.00000000000E+00 0. -1.
          1    1    1    2  502    0  0.87122452828E+01  0.23410180648E+02  0.88515882142E+03  0.88551119638E+03  0.00000000000E+00 0. -1.
</event>
<event>
 4    1  0.3593938E+003  0.2740218E+02  0.7546771E-02  0.1443609E+00
          2   -1    0    0  502    0  0.00000000000E+00  0.00000000000E+00  0.10186490439E+03  0.10186490439E+03  0.00000000000E+00 0. -1.
          1   -1    0    0  501    0 -0.00000000000E+00 -0.00000000000E+00 -0.31598337153E+03  0.31598337153E+03  0.00000000000E+00 0.  1.
          2    1    1    2  501    0  0.25224328914E+01 -0.27285831557E+02  0.99413611502E+02  0.10312102319E+03  0.00000000000E+00 0. -1.
          1    1    1    2  502    0 -0.25224328914E+01  0.27285831557E+02 -0.31353207864E+03  0.31472725273E+03  0.00000000000E+00 0.  1.
</event>
<event>
 4    1  0.3593938E+003  0.2235318E+02  0.7546771E-02  0.1500784E+00
          2   -1    0    0  502    0  0.00000000000E+00  0.00000000000E+00  0.64077942172E+03  0.64077942172E+03  0.00000000000E+00 0. -1.
          1   -1    0    0  501    0 -0.00000000000E+00 -0.00000000000E+00 -0.34689109773E+03  0.34689109773E+03  0.00000000000E+00 0.  1.
          2    1    1    2  501    0 -0.19944734643E+02 -0.10093186362E+02  0.64022406318E+03  0.64061417087E+03  0.00000000000E+00 0. -1.
          1    1    1    2  502    0  0.19944734643E+02  0.10093186362E+02 -0.34633573919E+03  0.34705634858E+03  0.00000000000E+00 0.  1.
</event>
<event>
 4    1  0.3593938E+003  0.2283175E+02  0.7546771E-02  0.1494622E+00
          2   -1    0    0  502    0  0.00000000000E+00  0.00000000000E+00  0.62745291398E+03  0.62745291398E+03  0.00000000000E+00 0. -1.
          1   -1    0    0  501    0 -0.00000000000E+00 -0.00000000000E+00 -0.20274742183E+03  0.20274742183E+03  0.00000000000E+00 0. -1.
          2    1    1    2  501    0  0.18586126409E+02  0.13260638465E+02  0.62660155980E+03  0.62701738682E+03  0.00000000000E+00 0. -1.
          1    1    1    2  502    0 -0.18586126409E+02 -0.13260638465E+02 -0.20189606765E+03  0.20318294899E+03  0.00000000000E+00 0. -1.
</event>
<event>
 4    1  0.3593938E+003  0.2300293E+02  0.7546771E-02  0.1492461E+00
          2   -1    0    0  502    0  0.00000000000E+00  0.00000000000E+00  0.65022904850E+03  0.65022904850E+03  0.00000000000E+00 0.  1.
          1   -1    0    0  501    0 -0.00000000000E+00 -0.00000000000E+00 -0.34942623143E+02  0.34942623143E+02  0.00000000000E+00 0.  1.
          2    1    1    2  501    0 -0.21251210655E+02  0.88045954989E+01  0.64621636586E+03  0.64662564623E+03  0.00000000000E+00 0.  1.
          1    1    1    2  502    0  0.21251210655E+02 -0.88045954989E+01 -0.30929940499E+02  0.38546025418E+02  0.00000000000E+00 0.  1.
</event>
<event>
 4    1  0.3593938E+003  0.2095546E+02  0.7546771E-02  0.1519902E+00
          2   -1    0    0  502    0  0.00000000000E+00  0.00000000000E+00  0.19258883979E+03  0.19258883979E+03  0.00000000000E+00 0. -1.
          1   -1    0    0  501    0 -0.00000000000E+00 -0.00000000000E+00 -0.15130899453E+02  0.15130899453E+02  0.00000000000E+00 0. -1.
          2    1    1    2  501    0  0.20854596724E+02 -0.20536019145E+01  0.18444388668E+03  0.18563049001E+03  0.00000000000E+00 0. -1.
          1    1    1    2  502    0 -0.20854596724E+02  0.20536019145E+01 -0.69859463488E+01  0.22089249234E+02  0.00000000000E+00 0. -1.
</event>
<event>
 4    1  0.3593938E+003  0.2372053E+02  0.7546771E-02  0.1483643E+00
          2   -1    0    0  502    0  0.00000000000E+00  0.00000000000E+00  0.12965761961E+04  0.12965761961E+04  0.00000000000E+00 0.  1.
          1   -1    0    0  501    0 -0.00000000000E+00 -0.00000000000E+00 -0.29766088690E+01  0.29766088690E+01  0.00000000000E+00 0.  1.
          2    1    1    2  501    0 -0.98303443707E+01 -0.21587679259E+02  0.12473456225E+04  0.12475711465E+04  0.00000000000E+00 0.  1.
          1    1    1    2  502    0  0.98303443707E+01  0.21587679259E+02  0.46253964783E+02  0.51981658538E+02  0.00000000000E+00 0.  1.
</event>
<event>
 4    1  0.3593938E+003  0.3058299E+02  0.7546771E-02  0.1414597E+00
          2   -1    0    0  502    0  0.00000000000E+00  0.00000000000E+00  0.19611946465E+03  0.19611946465E+03  0.00000000000E+00 0. -1.
          1   -1    0    0  501    0 -0.00000000000E+00 -0.00000000000E+00 -0.47940970046E+01  0.47940970046E+01  0.00000000000E+00 0. -1.
          2    1    1    2  501    0 -0.40602470728E+01  0.30312255868E+02  0.88412604038E+02  0.93552696459E+02  0.00000000000E+00 0. -1.
          1    1    1    2  502    0  0.40602470728E+01 -0.30312255868E+02  0.10291276361E+03  0.10736086520E+03  0.00000000000E+00 0. -1.
</event>
<event>
 4    1  0.3593938E+003  0.2124088E+02  0.7546771E-02  0.1515853E+00
          2   -1    0    0  502    0  0.00000000000E+00  0.00000000000E+00  0.45685991651E+02  0.45685991651E+02  0.00000000000E+00 0. -1.
          1   -1    0    0  501    0 -0.00000000000E+00 -0.00000000000E+00 -0.10117770752E+03  0.10117770752E+03  0.00000000000E+00 0.  1.
          2    1    1    2  501    0  0.16491610332E+02  0.13386629968E+02  0.42010296323E+02  0.47074834788E+02  0.00000000000E+00 0. -1.
          1    1    1    2  502    0 -0.16491610332E+02 -0.13386629968E+02 -0.97502012197E+02  0.99788864387E+02  0.00000000000E+00 0.  1.
</event>
<event>
 4    1  0.3593938E+003  0.3601098E+02  0.7546771E-02  0.1373592E+00
          2   -1    0    0  502    0  0.00000000000E+00  0.00000000000E+00  0.46314190896E+03  0.46314190896E+03  0.00000000000E+00 0. -1.
          1   -1    0    0  501    0 -0.00000000000E+00 -0.00000000000E+00 -0.79167500452E+02  0.79167500452E+02  0.00000000000E+00 0. -1.
          2    1    1    2  501    0 -0.30833957693E+02  0.18602630225E+02  0.45830366206E+03  0.45971625755E+03  0.00000000000E+00 0. -1.
          1    1    1    2  502    0  0.30833957693E+02 -0.18602630225E+02 -0.74329253560E+02  0.82593151854E+02  0.00000000000E+00 0. -1.
</event>
<event>
 4    1  0.3593938E+003  0.2611502E+02  0.7546771E-02  0.1456706E+00
          2   -1    0    0  502    0  0.00000000000E+00  0.00000000000E+00  0.87084034679E+02  0.87084034679E+02  0.00000000000E+00 0. -1.
          1   -1    0    0  501    0 -0.00000000000E+00 -0.00000000000E+00 -0.21100374255E+03  0.21100374255E+03  0.00000000000E+00 0. -1.
          2    1    1    2  501    0 -0.46699800032E+01  0.25694080816E+02  0.84291983609E+02  0.88244733571E+02  0.00000000000E+00 0. -1.
          1    1    1    2  502    0  0.46699800032E+01 -0.25694080816E+02 -0.20821169148E+03  0.20984304365E+03  0.00000000000E+00 0. -1.
</event>
<event>
 4    1  0.3593938E+003  0.2144985E+02  0.7546771E-02  0.1512938E+00
          2   -1    0    0  502    0  0.00000000000E+00  0.00000000000E+00  0.87986687142E+03  0.87986687142E+03  0.00000000000E+00 0.  1.
          1   -1    0    0  501    0 -0.00000000000E+00 -0.00000000000E+00 -0.24787436990E+02  0.24787436990E+02  0.00000000000E+00 0. -1.
          2    1    1    2  501    0 -0.31762270145E+01 -0.21213383412E+02  0.87507029479E+03  0.87533314622E+03  0.00000000000E+00 0.  1.
          1    1    1    2  502    0  0.31762270145E+01  0.21213383412E+02 -0.19990860362E+02  0.29321162185E+02  0.00000000000E+00 0. -1.
</event>
<event>
 4    1  0.3593938E+003  0.2014285E+02  0.7546771E-02  0.1531863E+00
          2   -1    0    0  502    0  0.00000000000E+00  0.00000000000E+00  0.14086267448E+03  0.14086267448E+03  0.00000000000E+00 0. -1.
          1   -1    0    0  501    0 -0.00000000000E+00 -0.00000000000E+00 -0.29859717499E+01  0.29859717499E+01  0.00000000000E+00 0. -1.
          2    1    1    2  501    0 -0.14347862213E+02 -0.14137653098E+02  0.82465340437E+02  0.84889732939E+02  0.00000000000E+00 0. -1.
          1    1    1    2  502    0  0.14347862213E+02  0.14137653098E+02  0.55411362295E+02  0.58958913292E+02  0.00000000000E+00 0. -1.
</event>
<event>
 4    1  0.3593938E+003  0.2405011E+02  0.7546771E-02  0.1479717E+00
          2   -1    0    0  502    0  0.00000000000E+00  0.00000000000E+00  0.51753433160E+02  0.51753433160E+02  0.00000000000E+00 0. -1.
          1   -1    0    0  501    0 -0.00000000000E+00 -0.00000000000E+00 -0.17694069125E+03  0.17694069125E+03  0.00000000000E+00 0. -1.
          2    1    1    2  501    0 -0.16537466370E+02  0.17461956439E+02  0.48083243547E+02  0.53762496469E+02  0.00000000000E+00 0. -1.
          1    1    1    2  502    0  0.16537466370E+02 -0.17461956439E+02 -0.17327050163E+03  0.17493162794E+03  0.00000000000E+00 0. -1.
</event>
<event>
 4    1  0.3593938E+003  0.5663206E+02  0.7546771E-02  0.1271726E+00
          2   -1    0    0  502    0  0.00000000000E+00  0.00000000000E+00  0.11983912905E+04  0.11983912905E+04  0.00000000000E+00 0. -1.
          1   -1    0    0  501    0 -0.00000000000E+00 -0.00000000000E+00 -0.34864329582E+02  0.34864329582E+02  0.00000000000E+00 0.  1.
          2    1    1    2  501    0 -0.40615601152E+02  0.39465974458E+02  0.11742520918E+04  0.11756169296E+04  0.00000000000E+00 0. -1.
          1    1    1    2  502    0  0.40615601152E+02 -0.39465974458E+02 -0.10725130917E+02  0.57638690392E+02  0.00000000000E+00 0.  1.
</event>
<event>
 4    1  0.3593938E+003  0.2677498E+02  0.7546771E-02  0.1449882E+00
          2   -1    0    0  502    0  0.00000000000E+00  0.00000000000E+00  0.35154258773E+02  0.35154258773E+02  0.00000000000E+00 0.  1.
          1   -1    0    0  501    0 -0.00000000000E+00 -0.00000000000E+00 -0.45621168377E+02  0.45621168377E+02  0.00000000000E+00 0. -1.
          2    1    1    2  501    0  0.14366107894E+02 -0.22594572440E+02  0.24800268878E+02  0.36495932597E+02  0.00000000000E+00 0.  1.
          1    1    1    2  502    0 -0.14366107894E+02  0.22594572440E+02 -0.35267178482E+02  0.44279494553E+02  0.00000000000E+00 0. -1.
</event>
<event>
 4    1  0.3593938E+003  0.2712321E+02  0.7546771E-02  0.1446374E+00
          2   -1    0    0  502    0  0.00000000000E+00  0.00000000000E+00  0.91732529966E+01  0.91732529966E+01  0.00000000000E+00 0.  1.
          1   -1    0    0  501    0 -0.00000000000E+00 -0.00000000000E+00 -0.11263775396E+04  0.11263775396E+04  0.00000000000E+00 0. -1.
          2    1    1    2  501    0 -0.18465029792E+02 -0.19867338063E+02 -0.11412495498E+02  0.29426408215E+02  0.00000000000E+00 0.  1.
          1    1    1    2  502    0  0.18465029792E+02  0.19867338063E+02 -0.11057917911E+04  0.11061243844E+04  0.00000000000E+00 0. -1.
</event>
<event>
 4    1  0.3593938E+003  0.3935281E+02  0.7546771E-02  0.1352321E+00
          2   -1    0    0  502    0  0.00000000000E+00  0.00000000000E+00  0.94286736028E+03  0.94286736028E+03  0.00000000000E+00 0. -1.
          1   -1    0    0  501    0 -0.00000000000E+00 -0.00000000000E+00 -0.13813822680E+03  0.13813822680E+03  0.00000000000E+00 0. -1.
          2    1    1    2  501    0 -0.10130811832E+02  0.38026446131E+02  0.93964442340E+03  0.94046812087E+03  0.00000000000E+00 0. -1.
          1    1    1    2  502    0  0.10130811832E+02 -0.38026446131E+02 -0.13491528992E+03  0.14053746621E+03  0.00000000000E+00 0. -1.
</event>
<event>
 4    1  0.3593938E+003  0.2307787E+02  0.7546771E-02  0.1491523E+00
          2   -1    0    0  502    0  0.00000000000E+00  0.00000000000E+00  0.78610264608E+03  0.78610264608E+03  0.00000000000E+00 0. -1.
          1   -1    0    0  501    0 -0.00000000000E+00 -0.00000000000E+00 -0.12543893031E+01  0.12543893031E+01  0.00000000000E+00 0. -1.
          2    1    1    2  501    0  0.48328148809E+01 -0.22566170525E+02  0.65939879988E+03  0.65980252003E+03  0.00000000000E+00 0. -1.
          1    1    1    2  502    0 -0.48328148809E+01  0.22566170525E+02  0.12544945690E+03  0.12755451536E+03  0.00000000000E+00 0. -1.
</event>
<event>
 4    1  0.3593938E+003  0.2562725E+02  0.7546771E-02  0.1461907E+00
          2   -1    0    0  502    0  0.00000000000E+00  0.00000000000E+00  0.15105471695E+03  0.15105471695E+03  0.00000000000E+00 0. -1.
          1   -1    0    0  501    0 -0.00000000000E+00 -0.00000000000E+00 -0.41317684937E+02  0.41317684937E+02  0.00000000000E+00 0.  1.
          2    1    1    2  501    0  0.41358742193E+01  0.25291308085E+02  0.14585331303E+03  0.14808762487E+03  0.00000000000E+00 0. -1.
          1    1    1    2  502    0 -0.41358742193E+01 -0.25291308085E+02 -0.36116281017E+02  0.44284777008E+02  0.00000000000E+00 0.  1.
</event>
<event>
 4    1  0.3593938E+003  0.2272895E+02  0.7546771E-02  0.1495930E+00
          2   -1    0    0  502    0  0.00000000000E+00  0.00000000000E+00  0.43737454420E+01  0.43737454420E+01  0.00000000000E+00 0. -1.
          1   -1    0    0  501    0 -0.00000000000E+00 -0.00000000000E+00 -0.15621004923E+03  0.15621004923E+03  0.00000000000E+00 0. -1.
          2    1    1    2  501    0 -0.43560851805E+00  0.22724768793E+02 -0.11556891944E+03  0.11778276619E+03  0.00000000000E+00 0. -1.
          1    1    1    2  502    0  0.43560851805E+00 -0.22724768793E+02 -0.36267384353E+02  0.42801028484E+02  0.00000000000E+00 0. -1.
</event>
<event>
 4    1  0.3593938E+003  0.2933026E+02  0.7546771E-02  0.1425507E+00
          2   -1    0    0  502    0  0.00000000000E+00  0.00000000000E+00  0.20483593288E+03  0.20483593288E+03  0.00000000000E+00 0. -1.
          1   -1    0    0  501    0 -0.00000000000E+00 -0.00000000000E+00 -0.54095925898E+01  0.54095925898E+01  0.00000000000E+00 0.  1.
          2    1    1    2  501    0 -0.18678672649E+02 -0.22613526018E+02  0.14942672696E+03  0.15227807164E+03  0.00000000000E+00 0. -1.
          1    1    1    2  502    0  0.18678672649E+02  0.22613526018E+02  0.49999613330E+02  0.57967453834E+02  0.00000000000E+00 0.  1.
</event>
<event>
 4    1  0.3593938E+003  0.3067171E+02  0.7546771E-02  0.1413847E+00
          2   -1    0    0  502    0  0.00000000000E+00  0.00000000000E+00  0.54256947671E+03  0.54256947671E+03  0.00000000000E+00 0. -1.
          1   -1    0    0  501    0 -0.00000000000E+00 -0.00000000000E+00 -0.28996452721E+01  0.28996452721E+01  0.00000000000E+00 0. -1.
          2    1    1    2  501    0 -0.28834580663E+02  0.10455658383E+02  0.44276561792E+03  0.44382670745E+03  0.00000000000E+00 0. -1.
          1    1    1    2  502    0  0.28834580663E+02 -0.10455658383E+02  0.96904213513E+02  0.10164241453E+03  0.00000000000E+00 0. -1.
</event>
<event>
 4    1  0.3593938E+003  0.2384359E+02  0.7546771E-02  0.1482168E+00
          2   -1    0    0  502    0  0.00000000000E+00  0.00000000000E+00  0.16349113415E+04  0.16349113415E+04  0.00000000000E+00 0.  1.
          1   -1    0    0  501    0 -0.00000000000E+00 -0.00000000000E+00 -0.21199879804E+01  0.21199879804E+01  0.00000000000E+00 0. -1.
          2    1    1    2  501    0 -0.22876689606E+02 -0.67211436222E+01  0.15647772635E+04  0.15649589135E+04  0.00000000000E+00 0.  1.
          1    1    1    2  502    0  0.22876689606E+02  0.67211436222E+01  0.68014090080E+02  0.72072416002E+02  0.00000000000E+00 0. -1.
</event>
<event>
 4    1  0.3593938E+003  0.2046948E+02  0.7546771E-02  0.1526976E+00
          2   -1    0    0  502    0  0.00000000000E+00  0.00000000000E+00  0.17205752538E+01  0.17205752538E+01  0.00000000000E+00 0. -1.
          1   -1    0    0  501    0 -0.00000000000E+00 -0.00000000000E+00 -0.30252152713E+03  0.30252152713E+03  0.00000000000E+00 0. -1.
          2    1    1    2  501    0 -0.20315824717E+02 -0.25033939329E+01 -0.83221772728E+02  0.85702177167E+02  0.00000000000E+00 0. -1.
          1    1    1    2  502    0  0.20315824717E+02  0.25033939329E+01 -0.21757917915E+03  0.21853992521E+03  0.00000000000E+00 0. -1.
</event>
<event>
 4    1  0.3593938E+003  0.2187685E+02  0.7546771E-02  0.1507105E+00
          2   -1    0    0  502    0  0.00000000000E+00  0.00000000000E+00  0.43801115081E+03  0.43801115081E+03  0.00000000000E+00 0.  1.
          1   -1    0    0  501    0 -0.00000000000E+00 -0.00000000000E+00 -0.23400823917E+02  0.23400823917E+02  0.00000000000E+00 0. -1.
          2    1    1    2  501    0 -0.10624302270E+02  0.19123825763E+02  0.43256056888E+03  0.43311342886E+03  0.00000000000E+00 0.  1.
          1    1    1    2  502    0  0.10624302270E+02 -0.19123825763E+02 -0.17950241989E+02  0.28298545864E+02  0.00000000000E+00 0. -1.
</event>
<event>
 4    1  0.3593938E+003  0.2564584E+02  0.7546771E-02  0.1461706E+00
          2   -1    0    0  502    0  0.00000000000E+00  0.00000000000E+00  0.78790311789E+03  0.78790311789E+03  0.00000000000E+00 0.  1.
          1   -1    0    0  501    0 -0.00000000000E+00 -0.00000000000E+00 -0.11774916392E+02  0.11774916392E+02  0.00000000000E+00 0.  1.
          2    1    1    2  501    0 -0.21788441942E+02 -0.13526746279E+02  0.77346972144E+03  0.77389477259E+03  0.00000000000E+00 0.  1.
          1    1    1    2  502    0  0.21788441942E+02  0.13526746279E+02  0.26584800632E+01  0.25783261691E+02  0.00000000000E+00 0.  1.
</event>
<event>
 4    1  0.3593938E+003  0.2826569E+02  0.7546771E-02  0.1435292E+00
          2   -1    0    0  502    0  0.00000000000E+00  0.00000000000E+00  0.78523919425E+02  0.78523919425E+02  0.00000000000E+00 0.  1.
          1   -1    0    0  501    0 -0.00000000000E+00 -0.00000000000E+00 -0.18583490537E+02  0.18583490537E+02  0.00000000000E+00 0.  1.
          2    1    1    2  501    0 -0.24607131741E+02 -0.13908215186E+02  0.62631111466E+02  0.68713939675E+02  0.00000000000E+00 0.  1.
          1    1    1    2  502    0  0.24607131741E+02  0.13908215186E+02 -0.26906825788E+01  0.28393470287E+02  0.00000000000E+00 0.  1.
</event>
<event>
 4    1  0.3593938E+003  0.4928914E+02  0.7546771E-02  0.1301284E+00
          2   -1    0    0  502    0  0.00000000000E+00  0.00000000000E+00  0.65962813616E+01  0.65962813616E+01  0.00000000000E+00 0.  1.
          1   -1    0    0  501    0 -0.00000000000E+00 -0.00000000000E+00 -0.77123405867E+03  0.77123405867E+03  0.00000000000E+00 0. -1.
          2    1    1    2  501    0 -0.48306522264E+02  0.97928162521E+01 -0.10120775665E+03  0.11257188526E+03  0.00000000000E+00 0.  1.
          1    1    1    2  502    0  0.48306522264E+02 -0.97928162521E+01 -0.66343002066E+03  0.66525845478E+03  0.00000000000E+00 0. -1.
</event>
<event>
 4    1  0.3593938E+003  0.3053093E+02  0.7546771E-02  0.1415038E+00
          2   -1    0    0  502    0  0.00000000000E+00  0.00000000000E+00  0.17618646782E+01  0.17618646782E+01  0.00000000000E+00 0.  1.
          1   -1    0    0  501    0 -0.00000000000E+00 -0.00000000000E+00 -0.74323969066E+03  0.74323969066E+03  0.00000000000E+00 0. -1.
          2    1    1    2  501    0 -0.29437069030E+02  0.80991899570E+01 -0.17077641582E+03  0.17348406875E+03  0.00000000000E+00 0.  1.
          1    1    1    2  502    0  0.29437069030E+02 -0.80991899570E+01 -0.57070141017E+03  0.57151748659E+03  0.00000000000E+00 0. -1.
</event>
<event>
 4    1  0.3593938E+003  0.3340664E+02  0.7546771E-02  0.1392125E+00
          2   -1    0    0  502    0  0.00000000000E+00  0.00000000000E+00  0.10158783752E+04  0.10158783752E+04  0.00000000000E+00 0.  1.
          1   -1    0    0  501    0 -0.00000000000E+00 -0.00000000000E+00 -0.35629159946E+01  0.35629159946E+01  0.00000000000E+00 0. -1.
          2    1    1    2  501    0  0.15125505299E+02  0.29786288793E+02  0.93007499682E+03  0.93067475717E+03  0.00000000000E+00 0.  1.
          1    1    1    2  502    0 -0.15125505299E+02 -0.29786288793E+02  0.82240462384E+02  0.88766534030E+02  0.00000000000E+00 0. -1.
</event>
<event>
 4    1  0.3593938E+003  0.2368580E+02  0.7546771E-02  0.1484062E+00
          2   -1    0    0  502    0  0.00000000000E+00  0.00000000000E+00  0.93286510949E+03  0.93286510949E+03  0.00000000000E+00 0. -1.
          1   -1    0    0  501    0 -0.00000000000E+00 -0.00000000000E+00 -0.83589678874E+00  0.83589678874E+00  0.00000000000E+00 0. -1.
          2    1    1    2  501    0 -0.83697044507E+01  0.22157732907E+02  0.71328828537E+03  0.71368143813E+03  0.00000000000E+00 0. -1.
          1    1    1    2  502    0  0.83697044507E+01 -0.22157732907E+02  0.21874092733E+03  0.22001956815E+03  0.00000000000E+00 0. -1.
</event>
<event>
 4    1  0.3593938E+003  0.2448938E+02  0.7546771E-02  0.1474597E+00
          2   -1    0    0  502    0  0.00000000000E+00  0.00000000000E+00  0.13448907901E+04  0.13448907901E+04  0.00000000000E+00 0.  1.
          1   -1    0    0  501    0 -0.00000000000E+00 -0.00000000000E+00 -0.50301394382E+01  0.50301394382E+01  0.00000000000E+00 0.  1.
          2    1    1    2  501    0  0.21975653821E+02 -0.10807425568E+02  0.13142782810E+04  0.13145064206E+04  0.00000000000E+00 0.  1.
          1    1    1    2  502    0 -0.21975653821E+02  0.10807425568E+02  0.25582369672E+02  0.35414508980E+02  0.00000000000E+00 0.  1.
</event>
<event>
 4    1  0.3593938E+003  0.2880978E+02  0.7546771E-02  0.1430229E+00
          2   -1    0    0  502    0  0.00000000000E+00  0.00000000000E+00  0.78533934008E+00  0.78533934008E+00  0.00000000000E+00 0.  1.
          1   -1    0    0  501    0 -0.00000000000E+00 -0.00000000000E+00 -0.11065669671E+04  0.11065669671E+04  0.00000000000E+00 0. -1.
          2    1    1    2  501    0 -0.12879733055E+02  0.25770432198E+02 -0.67022531465E+03  0.67084422565E+03  0.00000000000E+00 0.  1.
          1    1    1    2  502    0  0.12879733055E+02 -0.25770432198E+02 -0.43555631308E+03  0.43650808075E+03  0.00000000000E+00 0. -1.
</event>
<event>
 4    1  0.3593938E+003  0.2043400E+02  0.7546771E-02  0.1527501E+00
          2   -1    0    0  502    0  0.00000000000E+00  0.00000000000E+00  0.11421655300E+03  0.11421655300E+03  0.00000000000E+00 0.  1.
          1   -1    0    0  501    0 -0.00000000000E+00 -0.00000000000E+00 -0.37547819052E+01  0.37547819052E+01  0.00000000000E+00 0.  1.
          2    1    1    2  501    0  0.15636901526E+02 -0.13154296271E+02  0.64809921768E+02  0.67954942125E+02  0.00000000000E+00 0.  1.
          1    1    1    2  502    0 -0.15636901526E+02  0.13154296271E+02  0.45651849325E+02  0.50016392778E+02  0.00000000000E+00 0.  1.
</event>
<event>
 4    1  0.3593938E+003  0.2675553E+02  0.7546771E-02  0.1450079E+00
          2   -1    0    0  502    0  0.00000000000E+00  0.00000000000E+00  0.37743300085E+01  0.37743300085E+01  0.00000000000E+00 0.  1.
          1   -1    0    0  501    0 -0.00000000000E+00 -0.00000000000E+00 -0.60872401327E+03  0.60872401327E+03  0.00000000000E+00 0.  1.
          2    1    1    2  501    0  0.11396358074E-01 -0.26755527519E+02 -0.48376232814E+02  0.55282169675E+02  0.00000000000E+00 0.  1.
          1    1    1    2  502    0 -0.11396358074E-01  0.26755527519E+02 -0.55657345045E+03  0.55721617360E+03  0.00000000000E+00 0.  1.
</event>
<event>
 4    1  0.3593938E+003  0.8349558E+02  0.7546771E-02  0.1195957E+00
          2   -1    0    0  502    0  0.00000000000E+00  0.00000000000E+00  0.35298146149E+03  0.35298146149E+03  0.00000000000E+00 0. -1.
          1   -1    0    0  501    0 -0.00000000000E+00 -0.00000000000E+00 -0.11194940503E+03  0.11194940503E+03  0.00000000000E+00 0.  1.
          2    1    1    2  501    0 -0.29628515202E+01 -0.83442998251E+02  0.33148116450E+03  0.34183515745E+03  0.00000000000E+00 0. -1.
          1    1    1    2  502    0  0.29628515202E+01  0.83442998251E+02 -0.90449108047E+02  0.12309570907E+03  0.00000000000E+00 0.  1.
</event>
<event>
 4    1  0.3593938E+003  0.2280044E+02  0.7546771E-02  0.1495019E+00
          2   -1    0    0  502    0  0.00000000000E+00  0.00000000000E+00  0.27786722633E+02  0.27786722633E+02  0.00000000000E+00 0. -1.
          1   -1    0    0  501    0 -0.00000000000E+00 -0.00000000000E+00 -0.28078629914E+02  0.28078629914E+02  0.00000000000E+00 0.  1.
          2    1    1    2  501    0  0.18696532113E+02  0.13049888614E+02  0.15989730540E+02  0.27848364200E+02  0.00000000000E+00 0. -1.
          1    1    1    2  502    0 -0.18696532113E+02 -0.13049888614E+02 -0.16281637820E+02  0.28016988347E+02  0.00000000000E+00 0.  1.
</event>
<event>
 4    1  0.3593938E+003  0.2423450E+02  0.7546771E-02  0.1477552E+00
          2   -1    0    0  502    0  0.00000000000E+00  0.00000000000E+00  0.63048186956E+02  0.63048186956E+02  0.00000000000E+00 0.  1.
          1   -1    0    0  501    0 -0.00000000000E+00 -0.00000000000E+00 -0.11870321212E+03  0.11870321212E+03  0.00000000000E+00 0.  1.
          2    1    1    2  501    0  0.19605848770E+02  0.14245057845E+02  0.59409594345E+02  0.64162379002E+02  0.00000000000E+00 0.  1.
          1    1    1    2  502    0 -0.19605848770E+02 -0.14245057845E+02 -0.11506461951E+03  0.11758902008E+03  0.00000000000E+00 0.  1.
</event>
<event>
 4    1  0.3593938E+003  0.3327885E+02  0.7546771E-02  0.1393085E+00
          2   -1    0    0  502    0  0.00000000000E+00  0.00000000000E+00  0.88784394733E+02  0.88784394733E+02  0.00000000000E+00 0. -1.
          1   -1    0    0  501    0 -0.00000000000E+00 -0.00000000000E+00 -0.13497051481E+02  0.13497051481E+02  0.00000000000E+00 0.  1.
          2    1    1    2  501    0  0.32167466296E+02  0.85285336362E+01  0.51724605351E+02  0.61505419050E+02  0.00000000000E+00 0. -1.
          1    1    1    2  502    0 -0.32167466296E+02 -0.85285336362E+01  0.23562737901E+02  0.40776027164E+02  0.00000000000E+00 0.  1.
</event>
<event>
 4    1  0.3593938E+003  0.2683399E+02  0.7546771E-02  0.1449283E+00
          2   -1    0    0  502    0  0.00000000000E+00  0.00000000000E+00  0.23142831290E+02  0.23142831290E+02  0.00000000000E+00 0.  1.
          1   -1    0    0  501    0 -0.00000000000E+00 -0.00000000000E+00 -0.22756376187E+03  0.22756376187E+03  0.00000000000E+00 0. -1.
          2    1    1    2  501    0 -0.26530962284E+02 -0.40213040912E+01  0.14258472294E+02  0.30386952438E+02  0.00000000000E+00 0.  1.
          1    1    1    2  502    0  0.26530962284E+02  0.40213040912E+01 -0.21867940287E+03  0.22031964072E+03  0.00000000000E+00 0. -1.
</event>
<event>
 4    1  0.3593938E+003  0.2655551E+02  0.7546771E-02  0.1452125E+00
          2   -1    0    0  502    0  0.00000000000E+00  0.00000000000E+00  0.45598499707E+02  0.45598499707E+02  0.00000000000E+00 0.  1.
          1   -1    0    0  501    0 -0.00000000000E+00 -0.00000000000E+00 -0.39613089300E+02  0.39613089300E+02  0.00000000000E+00 0. -1.
          2    1    1    2  501    0  0.63685583494E+01  0.25780547965E+02  0.36257730685E+02  0.44942387824E+02  0.00000000000E+00 0.  1.
          1    1    1    2  502    0 -0.63685583494E+01 -0.25780547965E+02 -0.30272320278E+02  0.40269201183E+02  0.00000000000E+00 0. -1.
</event>
<event>
 4    1  0.3593938E+003  0.2402357E+02  0.7546771E-02  0.1480030E+00
          2   -1    0    0  502    0  0.00000000000E+00  0.00000000000E+00  0.16761522481E+04  0.16761522481E+04  0.00000000000E+00 0.  1.
          1   -1    0    0  501    0 -0.00000000000E+00 -0.00000000000E+00 -0.86442624121E+01  0.86442624121E+01  0.00000000000E+00 0.  1.
          2    1    1    2  501    0  0.26239642756E+01 -0.23879834702E+02  0.16592045091E+04  0.16593784182E+04  0.00000000000E+00 0.  1.
          1    1    1    2  502    0 -0.26239642756E+01  0.23879834702E+02  0.83034765710E+01  0.25418092318E+02  0.00000000000E+00 0.  1.
</event>
<event>
 4    1  0.3593938E+003  0.2074444E+02  0.7546771E-02  0.1522945E+00
          2   -1    0    0  502    0  0.00000000000E+00  0.00000000000E+00  0.13455847457E+04  0.13455847457E+04  0.00000000000E+00 0. -1.
          1   -1    0    0  501    0 -0.00000000000E+00 -0.00000000000E+00 -0.25178757402E+02  0.25178757402E+02  0.00000000000E+00 0.  1.
          2    1    1    2  501    0 -0.66731280599E+01 -0.19641822514E+02  0.13412181163E+04  0.13413785324E+04  0.00000000000E+00 0. -1.
          1    1    1    2  502    0  0.66731280599E+01  0.19641822514E+02 -0.20812127986E+02  0.29384970667E+02  0.00000000000E+00 0.  1.
</event>
<event>
 4    1  0.3593938E+003  0.3127965E+02  0.7546771E-02  0.1408793E+00
          2   -1    0    0  502    0  0.00000000000E+00  0.00000000000E+00  0.25086573531E+01  0.25086573531E+01  0.00000000000E+00 0.  1.
          1   -1    0    0  501    0 -0.00000000000E+00 -0.00000000000E+00 -0.11349401737E+04  0.11349401737E+04  0.00000000000E+00 0. -1.
          2    1    1    2  501    0  0.22486619864E+02  0.21743237023E+02 -0.10545929977E+03  0.11000036517E+03  0.00000000000E+00 0.  1.
          1    1    1    2  502    0 -0.22486619864E+02 -0.21743237023E+02 -0.10269722165E+04  0.10274484658E+04  0.00000000000E+00 0. -1.
</event>
<event>
 4    1  0.3593938E+003  0.2784398E+02  0.7546771E-02  0.1439310E+00
          2   -1    0    0  502    0  0.00000000000E+00  0.00000000000E+00  0.11368322214E+04  0.11368322214E+04  0.00000000000E+00 0. -1.
          1   -1    0    0  501    0 -0.00000000000E+00 -0.00000000000E+00 -0.36252114374E+01  0.36252114374E+01  0.00000000000E+00 0. -1.
          2    1    1    2  501    0 -0.15926021875E+01  0.27798394253E+02  0.10804048682E+04  0.10807636033E+04  0.00000000000E+00 0. -1.
          1    1    1    2  502    0  0.15926021875E+01 -0.27798394253E+02  0.52802141844E+02  0.59693829565E+02  0.00000000000E+00 0. -1.
</event>
<event>
 4    1  0.3593938E+003  0.2546999E+02  0.7546771E-02  0.1463614E+00
          2   -1    0    0  502    0  0.00000000000E+00  0.00000000000E+00  0.90095759613E+03  0.90095759613E+03  0.00000000000E+00 0. -1.
          1   -1    0    0  501    0 -0.00000000000E+00 -0.00000000000E+00 -0.10252443692E+02  0.10252443692E+02  0.00000000000E+00 0.  1.
          2    1    1    2  501    0  0.70249820732E+01 -0.24482032062E+02  0.88466769525E+03  0.88503426560E+03  0.00000000000E+00 0. -1.
          1    1    1    2  502    0 -0.70249820732E+01  0.24482032062E+02  0.60374571937E+01  0.26175774227E+02  0.00000000000E+00 0.  1.
</event>
<event>
 4    1  0.3593938E+003  0.2005610E+02  0.7546771E-02  0.1533180E+00
          2   -1    0    0  502    0  0.00000000000E+00  0.00000000000E+00  0.28773385849E+01  0.28773385849E+01  0.00000000000E+00 0.  1.
          1   -1    0    0  501    0 -0.00000000000E+00 -0.00000000000E+00 -0.10160066462E+04  0.10160066462E+04  0.00000000000E+00 0. -1.
          2    1    1    2  501    0  0.14111454316E+02  0.14251811382E+02 -0.33467713861E+02  0.39017113446E+02  0.00000000000E+00 0.  1.
          1    1    1    2  502    0 -0.14111454316E+02 -0.14251811382E+02 -0.97966159375E+03  0.97986687133E+03  0.00000000000E+00 0. -1.
</event>
<event>
 4    1  0.3593938E+003  0.3833444E+02  0.7546771E-02  0.1358532E+00
          2   -1    0    0  502    0  0.00000000000E+00  0.00000000000E+00  0.19880714196E+03  0.19880714196E+03  0.00000000000E+00 0.  1.
          1   -1    0    0  501    0 -0.00000000000E+00 -0.00000000000E+00 -0.10223122867E+02  0.10223122867E+02  0.00000000000E+00 0.  1.
          2    1    1    2  501    0 -0.38276329157E+02  0.21098721660E+01  0.14929513488E+03  0.15413814010E+03  0.00000000000E+00 0.  1.
          1    1    1    2  502    0  0.38276329157E+02 -0.21098721660E+01  0.39288884208E+02  0.54892124723E+02  0.00000000000E+00 0.  1.
</event>
<event>
 4    1  0.3593938E+003  0.2221969E+02  0.7546771E-02  0.1502536E+00
          2   -1    0    0  502    0  0.00000000000E+00  0.00000000000E+00  0.99704388336E+02  0.99704388336E+02  0.00000000000E+00 0. -1.
          1   -1    0    0  501    0 -0.00000000000E+00 -0.00000000000E+00 -0.73927944485E+03  0.73927944485E+03  0.00000000000E+00 0. -1.
          2    1    1    2  501    0 -0.17479982272E+02 -0.13717320780E+02  0.98297123614E+02  0.10077717589E+03  0.00000000000E+00 0. -1.
          1    1    1    2  502    0  0.17479982272E+02  0.13717320780E+02 -0.73787218013E+03  0.73820665730E+03  0.00000000000E+00 0. -1.
</event>
<event>
 4    1  0.3593938E+003  0.2470666E+02  0.7546771E-02  0.1472112E+00
          2   -1    0    0  502    0  0.00000000000E+00  0.00000000000E+00  0.20693504804E+02  0.20693504804E+02  0.00000000000E+00 0.  1.
          1   -1    0    0  501    0 -0.00000000000E+00 -0.00000000000E+00 -0.58095429720E+03  0.58095429720E+03  0.00000000000E+00 0. -1.
          2    1    1    2  501    0  0.35505902301E+01 -0.24450197709E+02  0.12956815649E+02  0.27897991519E+02  0.00000000000E+00 0.  1.
          1    1    1    2  502    0 -0.35505902301E+01  0.24450197709E+02 -0.57321760805E+03  0.57374981049E+03  0.00000000000E+00 0. -1.
</event>
<event>
 4    1  0.3593938E+003  0.2812143E+02  0.7546771E-02  0.1436657E+00
          2   -1    0    0  502    0  0.00000000000E+00  0.00000000000E+00  0.32321402481E+03  0.32321402481E+03  0.00000000000E+00 0. -1.
          1   -1    0    0  501    0 -0.00000000000E+00 -0.00000000000E+00 -0.34478829212E+02  0.34478829212E+02  0.00000000000E+00 0. -1.
          2    1    1    2  501    0  0.20036736062E+02  0.19731795737E+02  0.31675152655E+03  0.31799739641E+03  0.00000000000E+00 0. -1.
          1    1    1    2  502    0 -0.20036736062E+02 -0.19731795737E+02 -0.28016330949E+02  0.39695457610E+02  0.00000000000E+00 0. -1.
</event>
<event>
 4    1  0.3593938E+003  0.3119697E+02  0.7546771E-02  0.1409472E+00
          2   -1    0    0  502    0  0.00000000000E+00  0.00000000000E+00  0.78488118219E+03  0.78488118219E+03  0.00000000000E+00 0.  1.
          1   -1    0    0  501    0 -0.00000000000E+00 -0.00000000000E+00 -0.12709789126E+02  0.12709789126E+02  0.00000000000E+00 0. -1.
          2    1    1    2  501    0  0.30625608208E+02 -0.59433166185E+01  0.76492830697E+03  0.76556421396E+03  0.00000000000E+00 0.  1.
          1    1    1    2  502    0 -0.30625608208E+02  0.59433166185E+01  0.72430860916E+01  0.32026757355E+02  0.00000000000E+00 0. -1.
</event>
<event>
 4    1  0.3593938E+003  0.2263244E+02  0.7546771E-02  0.1497166E+00
          2   -1    0    0  502    0  0.00000000000E+00  0.00000000000E+00  0.87634992223E+01  0.87634992223E+01  0.00000000000E+00 0. -1.
          1   -1    0    0  501    0 -0.00000000000E+00 -0.00000000000E+00 -0.36881018092E+03  0.36881018092E+03  0.00000000000E+00 0. -1.
          2    1    1    2  501    0 -0.21968439965E+02  0.54419467784E+01 -0.68411552634E+01  0.23643784481E+02  0.00000000000E+00 0. -1.
          1    1    1    2  502    0  0.21968439965E+02 -0.54419467784E+01 -0.35320552643E+03  0.35392989566E+03  0.00000000000E+00 0. -1.
</event>
<event>
 4    1  0.3593938E+003  0.2646382E+02  0.7546771E-02  0.1453070E+00
          2   -1    0    0  502    0  0.00000000000E+00  0.00000000000E+00  0.12701365648E+01  0.12701365648E+01  0.00000000000E+00 0.  1.
          1   -1    0    0  501    0 -0.00000000000E+00 -0.00000000000E+00 -0.99122156132E+03  0.99122156132E+03  0.00000000000E+00 0. -1.
          2    1    1    2  501    0  0.24896421224E+02  0.89722906764E+01 -0.16441033918E+03  0.16652655470E+03  0.00000000000E+00 0.  1.
          1    1    1    2  502    0 -0.24896421224E+02 -0.89722906764E+01 -0.82554108557E+03  0.82596514319E+03  0.00000000000E+00 0. -1.
</event>
<event>
 4    1  0.3593938E+003  0.3555025E+02  0.7546771E-02  0.1376736E+00
          2   -1    0    0  502    0  0.00000000000E+00  0.00000000000E+00  0.22510726697E+03  0.22510726697E+03  0.00000000000E+00 0.  1.
          1   -1    0    0  501    0 -0.00000000000E+00 -0.00000000000E+00 -0.13931225214E+02  0.13931225214E+02  0.00000000000E+00 0. -1.
          2    1    1    2  501    0  0.31989542965E+02  0.15507722259E+02  0.19793538829E+03  0.20110255654E+03  0.00000000000E+00 0.  1.
          1    1    1    2  502    0 -0.31989542965E+02 -0.15507722259E+02  0.13240653458E+02  0.37935935639E+02  0.00000000000E+00 0. -1.
</event>
<event>
 4    1  0.3593938E+003  0.2236465E+02  0.7546771E-02  0.1500634E+00
          2   -1    0    0  502    0  0.00000000000E+00  0.00000000000E+00  0.11374745653E+03  0.11374745653E+03  0.00000000000E+00 0.  1.
          1   -1    0    0  501    0 -0.00000000000E+00 -0.00000000000E+00 -0.60890097062E+01  0.60890097062E+01  0.00000000000E+00 0.  1.
          2    1    1    2  501    0 -0.18887602278E+02 -0.11976470851E+02  0.85412228983E+02  0.88291711014E+02  0.00000000000E+00 0.  1.
          1    1    1    2  502    0  0.18887602278E+02  0.11976470851E+02  0.22246217841E+02  0.31544755222E+02  0.00000000000E+00 0.  1.
</event>
<event>
 4    1  0.3593938E+003  0.2808797E+02  0.7546771E-02  0.1436975E+00
          2   -1    0    0  502    0  0.00000000000E+00  0.00000000000E+00  0.80376495231E+01  0.80376495231E+01  0.00000000000E+00 0. -1.
          1   -1    0    0  501    0 -0.00000000000E+00 -0.00000000000E+00 -0.37101392822E+03  0.37101392822E+03  0.00000000000E+00 0. -1.
          2    1    1    2  501    0  0.27941764495E+02 -0.28621070159E+01 -0.18954802398E+02  0.33885371381E+02  0.00000000000E+00 0. -1.
          1    1    1    2  502    0 -0.27941764495E+02  0.28621070159E+01 -0.34402147629E+03  0.34516620636E+03  0.00000000000E+00 0. -1.
</event>
<event>
 4    1  0.3593938E+003  0.4242655E+02  0.7546771E-02  0.1334824E+00
          2   -1    0    0  502    0  0.00000000000E+00  0.00000000000E+00  0.11432232213E+04  0.11432232213E+04  0.00000000000E+00 0.  1.
          1   -1    0    0  501    0 -0.00000000000E+00 -0.00000000000E+00 -0.31092720336E+03  0.31092720336E+03  0.00000000000E+00 0.  1.
          2    1    1    2  501    0  0.24401780561E+02 -0.34706847436E+02  0.11413799643E+04  0.11421682166E+04  0.00000000000E+00 0.  1.
          1    1    1    2  502    0 -0.24401780561E+02  0.34706847436E+02 -0.30908394642E+03  0.31198220797E+03  0.00000000000E+00 0.  1.
</event>
<event>
 4    1  0.3593938E+003  0.2000167E+02  0.7546771E-02  0.1534010E+00
          2   -1    0    0  502    0  0.00000000000E+00  0.00000000000E+00  0.10570334671E+01  0.10570334671E+01  0.00000000000E+00 0.  1.
          1   -1    0    0  501    0 -0.00000000000E+00 -0.00000000000E+00 -0.37848135206E+03  0.37848135206E+03  0.00000000000E+00 0.  1.
          2    1    1    2  501    0 -0.67283132950E+00  0.19990338751E+02 -0.18902831463E+03  0.19008358708E+03  0.00000000000E+00 0.  1.
          1    1    1    2  502    0  0.67283132950E+00 -0.19990338751E+02 -0.18839600396E+03  0.18945479845E+03  0.00000000000E+00 0.  1.
</event>
<event>
 4    1  0.3593938E+003  0.2537406E+02  0.7546771E-02  0.1464662E+00
          2   -1    0    0  502    0  0.00000000000E+00  0.00000000000E+00  0.60012027980E+03  0.60012027980E+03  0.00000000000E+00 0.  1.
          1   -1    0    0  501    0 -0.00000000000E+00 -0.00000000000E+00 -0.44460387588E+01  0.44460387588E+01  0.00000000000E+00 0.  1.
          2    1    1    2  501    0  0.11218696315E+02 -0.22759259382E+02  0.56113491683E+03  0.56170832104E+03  0.00000000000E+00 0.  1.
          1    1    1    2  502    0 -0.11218696315E+02  0.22759259382E+02  0.34539324204E+02  0.42857997516E+02  0.00000000000E+00 0.  1.
</event>
<event>
 4    1  0.3593938E+003  0.3236399E+02  0.7546771E-02  0.1400107E+00
          2   -1    0    0  502    0  0.00000000000E+00  0.00000000000E+00  0.11033026784E+03  0.11033026784E+03  0.00000000000E+00 0. -1.
          1   -1    0    0  501    0 -0.00000000000E+00 -0.00000000000E+00 -0.29843254670E+03  0.29843254670E+03  0.00000000000E+00 0. -1.
          2    1    1    2  501    0 -0.31126507399E+02 -0.88638953777E+01  0.10705316112E+03  0.11183830923E+03  0.00000000000E+00 0. -1.
          1    1    1    2  502    0  0.31126507399E+02  0.88638953777E+01 -0.29515543998E+03  0.29692450531E+03  0.00000000000E+00 0. -1.
</event>
<event>
 4    1  0.3593938E+003  0.2430060E+02  0.7546771E-02  0.1476782E+00
          2   -1    0    0  502    0  0.00000000000E+00  0.00000000000E+00  0.26848142452E+01  0.26848142452E+01  0.00000000000E+00 0. -1.
          1   -1    0    0  501    0 -0.00000000000E+00 -0.00000000000E+00 -0.16784097641E+04  0.16784097641E+04  0.00000000000E+00 0. -1.
          2    1    1    2  501    0 -0.23703753725E+02 -0.53526762887E+01 -0.54323324259E+02  0.59510861552E+02  0.00000000000E+00 0. -1.
          1    1    1    2  502    0  0.23703753725E+02  0.53526762887E+01 -0.16214016256E+04  0.16215837167E+04  0.00000000000E+00 0. -1.
</event>
<event>
 4    1  0.3593938E+003  0.2415304E+02  0.7546771E-02  0.1478506E+00
          2   -1    0    0  502    0  0.00000000000E+00  0.00000000000E+00  0.31586873081E+02  0.31586873081E+02  0.00000000000E+00 0. -1.
          1   -1    0    0  501    0 -0.00000000000E+00 -0.00000000000E+00 -0.18561841817E+03  0.18561841817E+03  0.00000000000E+00 0. -1.
          2    1    1    2  501    0  0.35425896521E+01 -0.23891824849E+02  0.26042454006E+02  0.35518708404E+02  0.00000000000E+00 0. -1.
          1    1    1    2  502    0 -0.35425896521E+01  0.23891824849E+02 -0.18007399910E+03  0.18168658285E+03  0.00000000000E+00 0. -1.
</event>
<event>
 4    1  0.4219061E+003  0.3590703E+02  0.7546771E-02  0.1374296E+00
          2   -1    0    0  502    0  0.00000000000E+00  0.00000000000E+00  0.18431756604E+04  0.18431756604E+04  0.00000000000E+00 0.  1.
          1   -1    0    0  501    0 -0.00000000000E+00 -0.00000000000E+00 -0.76828942895E+03  0.76828942895E+03  0.00000000000E+00 0.  1.
          2    1    1    2  501    0 -0.20718949984E+02 -0.29326435050E+02  0.18425811075E+04  0.18429309408E+04  0.00000000000E+00 0.  1.
          1    1    1    2  502    0  0.20718949984E+02  0.29326435050E+02 -0.76769487610E+03  0.76853414854E+03  0.00000000000E+00 0.  1.
</event>
<event>
 4    1  0.3593938E+003  0.2077181E+02  0.7546771E-02  0.1522548E+00
          2   -1    0    0  502    0  0.00000000000E+00  0.00000000000E+00  0.60940306834E+01  0.60940306834E+01  0.00000000000E+00 0. -1.
          1   -1    0    0  501    0 -0.00000000000E+00 -0.00000000000E+00 -0.16340472509E+03  0.16340472509E+03  0.00000000000E+00 0. -1.
          2    1    1    2  501    0 -0.18554581494E+02  0.93378533215E+01 -0.14855931992E+02  0.25537554981E+02  0.00000000000E+00 0. -1.
          1    1    1    2  502    0  0.18554581494E+02 -0.93378533215E+01 -0.14245476242E+03  0.14396120080E+03  0.00000000000E+00 0. -1.
</event>
<event>
 4    1  0.3593938E+003  0.2027942E+02  0.7546771E-02  0.1529806E+00
          2   -1    0    0  502    0  0.00000000000E+00  0.00000000000E+00  0.20601933482E+03  0.20601933482E+03  0.00000000000E+00 0. -1.
          1   -1    0    0  501    0 -0.00000000000E+00 -0.00000000000E+00 -0.27136777866E+03  0.27136777866E+03  0.00000000000E+00 0.  1.
          2    1    1    2  501    0  0.17247200367E+02  0.10667194743E+02  0.20513979303E+03  0.20613973330E+03  0.00000000000E+00 0. -1.
          1    1    1    2  502    0 -0.17247200367E+02 -0.10667194743E+02 -0.27048823687E+03  0.27124738017E+03  0.00000000000E+00 0.  1.
</event>
<event>
 4    1  0.3593938E+003  0.2143418E+02  0.7546771E-02  0.1513155E+00
          2   -1    0    0  502    0  0.00000000000E+00  0.00000000000E+00  0.44305696354E+00  0.44305696354E+00  0.00000000000E+00 0. -1.
          1   -1    0    0  501    0 -0.00000000000E+00 -0.00000000000E+00 -0.10572818509E+04  0.10572818509E+04  0.00000000000E+00 0.  1.
          2    1    1    2  501    0  0.11893081757E+02  0.17831955679E+02 -0.45506446033E+03  0.45556897073E+03  0.00000000000E+00 0. -1.
          1    1    1    2  502    0 -0.11893081757E+02 -0.17831955679E+02 -0.60177433361E+03  0.60215593713E+03  0.00000000000E+00 0.  1.
</event>
<event>
 4    1  0.3593938E+003  0.2663405E+02  0.7546771E-02  0.1451319E+00
          2   -1    0    0  502    0  0.00000000000E+00  0.00000000000E+00  0.99717260396E+02  0.99717260396E+02  0.00000000000E+00 0.  1.
          1   -1    0    0  501    0 -0.00000000000E+00 -0.00000000000E+00 -0.21104819853E+02  0.21104819853E+02  0.00000000000E+00 0. -1.
          2    1    1    2  501    0  0.20012505020E+02  0.17574769286E+02  0.88493127655E+02  0.92414319858E+02  0.00000000000E+00 0.  1.
          1    1    1    2  502    0 -0.20012505020E+02 -0.17574769286E+02 -0.98806871124E+01  0.28407760391E+02  0.00000000000E+00 0. -1.
</event>
<event>
 4    1  0.3593938E+003  0.2290057E+02  0.7546771E-02  0.1493751E+00
          2   -1    0    0  502    0  0.00000000000E+00  0.00000000000E+00  0.79825687530E+03  0.79825687530E+03  0.00000000000E+00 0.  1.
          1   -1    0    0  501    0 -0.00000000000E+00 -0.00000000000E+00 -0.77072350417E+00  0.77072350417E+00  0.00000000000E+00 0.  1.
          2    1    1    2  501    0  0.16688716914E+02  0.15681920293E+02  0.55222340920E+03  0.55269804556E+03  0.00000000000E+00 0.  1.
          1    1    1    2  502    0 -0.16688716914E+02 -0.15681920293E+02  0.24526274260E+03  0.24632955325E+03  0.00000000000E+00 0.  1.
</event>
<event>
 4    1  0.3593938E+003  0.2744179E+02  0.7546771E-02  0.1443220E+00
          2   -1    0    0  502    0  0.00000000000E+00  0.00000000000E+00  0.37646336653E+03  0.37646336653E+03  0.00000000000E+00 0.  1.
          1   -1    0    0  501    0 -0.00000000000E+00 -0.00000000000E+00 -0.56904406658E+01  0.56904406658E+01  0.00000000000E+00 0.  1.
          2    1    1    2  501    0 -0.21155006446E+02  0.17479053660E+02  0.33925677665E+03  0.34036482209E+03  0.00000000000E+00 0.  1.
          1    1    1    2  502    0  0.21155006446E+02 -0.17479053660E+02  0.31516149208E+02  0.41788985098E+02  0.00000000000E+00 0.  1.
</event>
<event>
 4    1  0.3593938E+003  0.2910320E+02  0.7546771E-02  0.1427553E+00
          2   -1    0    0  502    0  0.00000000000E+00  0.00000000000E+00  0.90522547400E+03  0.90522547400E+03  0.00000000000E+00 0. -1.
          1   -1    0    0  501    0 -0.00000000000E+00 -0.00000000000E+00 -0.10417474009E+01  0.10417474009E+01  0.00000000000E+00 0.  1.
          2    1    1    2  501    0 -0.24966640206E+02 -0.14955374213E+02  0.59668490842E+03  0.59739423858E+03  0.00000000000E+00 0. -1.
          1    1    1    2  502    0  0.24966640206E+02  0.14955374213E+02  0.30749881817E+03  0.30887298282E+03  0.00000000000E+00 0.  1.
</event>
<event>
 4    1  0.3593938E+003  0.2155258E+02  0.7546771E-02  0.1511520E+00
          2   -1    0    0  502    0  0.00000000000E+00  0.00000000000E+00  0.37010743533E+02  0.37010743533E+02  0.00000000000E+00 0.  1.
          1   -1    0    0  501    0 -0.00000000000E+00 -0.00000000000E+00 -0.61864688953E+02  0.61864688953E+02  0.00000000000E+00 0.  1.
          2    1    1    2  501    0 -0.10185069358E+02  0.18994161513E+02  0.31711945513E+02  0.38342682453E+02  0.00000000000E+00 0.  1.
          1    1    1    2  502    0  0.10185069358E+02 -0.18994161513E+02 -0.56565890934E+02  0.60532750033E+02  0.00000000000E+00 0.  1.
</event>
<event>
 4    1  0.3593938E+003  0.2905178E+02  0.7546771E-02  0.1428019E+00
          2   -1    0    0  502    0  0.00000000000E+00  0.00000000000E+00  0.11828371312E+04  0.11828371312E+04  0.00000000000E+00 0.  1.
          1   -1    0    0  501    0 -0.00000000000E+00 -0.00000000000E+00 -0.83085117679E+01  0.83085117679E+01  0.00000000000E+00 0.  1.
          2    1    1    2  501    0 -0.11029249701E+02  0.26876780181E+02  0.11566889224E+04  0.11570537019E+04  0.00000000000E+00 0.  1.
          1    1    1    2  502    0  0.11029249701E+02 -0.26876780181E+02  0.17839697029E+02  0.34091941158E+02  0.00000000000E+00 0.  1.
</event>
<event>
 4    1  0.3593938E+003  0.3076948E+02  0.7546771E-02  0.1413025E+00
          2   -1    0    0  502    0  0.00000000000E+00  0.00000000000E+00  0.22207381382E+03  0.22207381382E+03  0.00000000000E+00 0.  1.
          1   -1    0    0  501    0 -0.00000000000E+00 -0.00000000000E+00 -0.97803711095E+03  0.97803711095E+03  0.00000000000E+00 0. -1.
          2    1    1    2  501    0 -0.10438438492E+02  0.28944778131E+02  0.22076456195E+03  0.22289852622E+03  0.00000000000E+00 0.  1.
          1    1    1    2  502    0  0.10438438492E+02 -0.28944778131E+02 -0.97672785908E+03  0.97721239855E+03  0.00000000000E+00 0. -1.
</event>
<event>
 4    1  0.3593938E+003  0.2531427E+02  0.7546771E-02  0.1465318E+00
          2   -1    0    0  502    0  0.00000000000E+00  0.00000000000E+00  0.19930747726E+03  0.19930747726E+03  0.00000000000E+00 0.  1.
          1   -1    0    0  501    0 -0.00000000000E+00 -0.00000000000E+00 -0.31391797487E+02  0.31391797487E+02  0.00000000000E+00 0. -1.
          2    1    1    2  501    0 -0.25211048055E+02 -0.22836864538E+01  0.19324080330E+03  0.19489181673E+03  0.00000000000E+00 0.  1.
          1    1    1    2  502    0  0.25211048055E+02  0.22836864538E+01 -0.25325123529E+02  0.35807458017E+02  0.00000000000E+00 0. -1.
</event>
<event>
 4    1  0.3593938E+003  0.2408701E+02  0.7546771E-02  0.1479282E+00
          2   -1    0    0  502    0  0.00000000000E+00  0.00000000000E+00  0.34164862816E+01  0.34164862816E+01  0.00000000000E+00 0.  1.
          1   -1    0    0  501    0 -0.00000000000E+00 -0.00000000000E+00 -0.35857872822E+03  0.35857872822E+03  0.00000000000E+00 0.  1.
          2    1    1    2  501    0 -0.16228671109E+02 -0.17799256677E+02 -0.30890254210E+03  0.30984022305E+03  0.00000000000E+00 0.  1.
          1    1    1    2  502    0  0.16228671109E+02  0.17799256677E+02 -0.46259699848E+02  0.52154991460E+02  0.00000000000E+00 0.  1.
</event>
<event>
 4    1  0.3593938E+003  0.2233165E+02  0.7546771E-02  0.1501066E+00
          2   -1    0    0  502    0  0.00000000000E+00  0.00000000000E+00  0.25598622408E+03  0.25598622408E+03  0.00000000000E+00 0. -1.
          1   -1    0    0  501    0 -0.00000000000E+00 -0.00000000000E+00 -0.13499406978E+04  0.13499406978E+04  0.00000000000E+00 0. -1.
          2    1    1    2  501    0  0.19921865828E+02  0.10090691761E+02  0.25540661780E+03  0.25638105081E+03  0.00000000000E+00 0. -1.
          1    1    1    2  502    0 -0.19921865828E+02 -0.10090691761E+02 -0.13493610915E+04  0.13495458711E+04  0.00000000000E+00 0. -1.
</event>
<event>
 4    1  0.3593938E+003  0.2110705E+02  0.7546771E-02  0.1517742E+00
          2   -1    0    0  502    0  0.00000000000E+00  0.00000000000E+00  0.14508393455E+02  0.14508393455E+02  0.00000000000E+00 0.  1.
          1   -1    0    0  501    0 -0.00000000000E+00 -0.00000000000E+00 -0.58177966371E+03  0.58177966371E+03  0.00000000000E+00 0.  1.
          2    1    1    2  501    0  0.20504616410E+02  0.50068375817E+01  0.65335717572E+01  0.22095141471E+02  0.00000000000E+00 0.  1.
          1    1    1    2  502    0 -0.20504616410E+02 -0.50068375817E+01 -0.57380484201E+03  0.57419291569E+03  0.00000000000E+00 0.  1.
</event>
<event>
 4    1  0.3593938E+003  0.2241031E+02  0.7546771E-02  0.1500039E+00
          2   -1    0    0  502    0  0.00000000000E+00  0.00000000000E+00  0.67462031416E+03  0.67462031416E+03  0.00000000000E+00 0.  1.
          1   -1    0    0  501    0 -0.00000000000E+00 -0.00000000000E+00 -0.83389025927E+00  0.83389025927E+00  0.00000000000E+00 0.  1.
          2    1    1    2  501    0 -0.21062629478E+02  0.76542577805E+01  0.44749818179E+03  0.44805897461E+03  0.00000000000E+00 0.  1.
          1    1    1    2  502    0  0.21062629478E+02 -0.76542577805E+01  0.22628824211E+03  0.22739522980E+03  0.00000000000E+00 0.  1.
</event>
<event>
 4    1  0.3593938E+003  0.2035391E+02  0.7546771E-02  0.1528693E+00
          2   -1    0    0  502    0  0.00000000000E+00  0.00000000000E+00  0.12703411825E+04  0.12703411825E+04  0.00000000000E+00 0. -1.
          1   -1    0    0  501    0 -0.00000000000E+00 -0.00000000000E+00 -0.74746507167E+00  0.74746507167E+00  0.00000000000E+00 0. -1.
          2    1    1    2  501    0  0.11929494394E+02 -0.16491476632E+02  0.11119636101E+04  0.11121498783E+04  0.00000000000E+00 0. -1.
          1    1    1    2  502    0 -0.11929494394E+02  0.16491476632E+02  0.15763010728E+03  0.15893876921E+03  0.00000000000E+00 0. -1.
</event>
<event>
 4    1  0.3593938E+003  0.3029561E+02  0.7546771E-02  0.1417045E+00
          2   -1    0    0  502    0  0.00000000000E+00  0.00000000000E+00  0.26236271244E+04  0.26236271244E+04  0.00000000000E+00 0. -1.
          1   -1    0    0  501    0 -0.00000000000E+00 -0.00000000000E+00 -0.51072906659E+00  0.51072906659E+00  0.00000000000E+00 0.  1.
          2    1    1    2  501    0 -0.10662281370E+02  0.28357359466E+02  0.20479989534E+04  0.20482230194E+04  0.00000000000E+00 0. -1.
          1    1    1    2  502    0  0.10662281370E+02 -0.28357359466E+02  0.57511744194E+03  0.57591483407E+03  0.00000000000E+00 0.  1.
</event>
<event>
 4    1  0.3593938E+003  0.2143210E+02  0.7546771E-02  0.1513184E+00
          2   -1    0    0  502    0  0.00000000000E+00  0.00000000000E+00  0.84710094394E+03  0.84710094394E+03  0.00000000000E+00 0. -1.
          1   -1    0    0  501    0 -0.00000000000E+00 -0.00000000000E+00 -0.13500133570E+01  0.13500133570E+01  0.00000000000E+00 0. -1.
          2    1    1    2  501    0  0.19216978879E+02 -0.94890708150E+01  0.75102486398E+03  0.75133060703E+03  0.00000000000E+00 0. -1.
          1    1    1    2  502    0 -0.19216978879E+02  0.94890708150E+01  0.94726066606E+02  0.97120350271E+02  0.00000000000E+00 0. -1.
</event>
<event>
 4    1  0.3593938E+003  0.4571266E+02  0.7546771E-02  0.1317914E+00
          2   -1    0    0  502    0  0.00000000000E+00  0.00000000000E+00  0.27575156161E+03  0.27575156161E+03  0.00000000000E+00 0.  1.
          1   -1    0    0  501    0 -0.00000000000E+00 -0.00000000000E+00 -0.46771947465E+02  0.46771947465E+02  0.00000000000E+00 0.  1.
          2    1    1    2  501    0 -0.67735721353E+01 -0.45208033398E+02  0.26211079666E+03  0.26606712929E+03  0.00000000000E+00 0.  1.
          1    1    1    2  502    0  0.67735721353E+01  0.45208033398E+02 -0.33131182517E+02  0.56456379782E+02  0.00000000000E+00 0.  1.
</event>
<event>
 4    1  0.3593938E+003  0.3268843E+02  0.7546771E-02  0.1397586E+00
          2   -1    0    0  502    0  0.00000000000E+00  0.00000000000E+00  0.26201740791E+04  0.26201740791E+04  0.00000000000E+00 0. -1.
          1   -1    0    0  501    0 -0.00000000000E+00 -0.00000000000E+00 -0.10536389906E+01  0.10536389906E+01  0.00000000000E+00 0. -1.
          2    1    1    2  501    0 -0.22162022663E+02 -0.24028695771E+02  0.23356552208E+04  0.23358839534E+04  0.00000000000E+00 0. -1.
          1    1    1    2  502    0  0.22162022663E+02  0.24028695771E+02  0.28346521926E+03  0.28534376461E+03  0.00000000000E+00 0. -1.
</event>
<event>
 4    1  0.3593938E+003  0.2086054E+02  0.7546771E-02  0.1521265E+00
          2   -1    0    0  502    0  0.00000000000E+00  0.00000000000E+00  0.17841119236E+03  0.17841119236E+03  0.00000000000E+00 0. -1.
          1   -1    0    0  501    0 -0.00000000000E+00 -0.00000000000E+00 -0.76089181888E+02  0.76089181888E+02  0.00000000000E+00 0. -1.
          2    1    1    2  501    0  0.18410118839E+02 -0.98096808245E+01  0.17635502855E+03  0.17758451061E+03  0.00000000000E+00 0. -1.
          1    1    1    2  502    0 -0.18410118839E+02  0.98096808245E+01 -0.74033018078E+02  0.76915863639E+02  0.00000000000E+00 0. -1.
</event>
<event>
 4    1  0.3593938E+003  0.2532152E+02  0.7546771E-02  0.1465239E+00
          2   -1    0    0  502    0  0.00000000000E+00  0.00000000000E+00  0.11102689849E+04  0.11102689849E+04  0.00000000000E+00 0. -1.
          1   -1    0    0  501    0 -0.00000000000E+00 -0.00000000000E+00 -0.14515021193E+01  0.14515021193E+01  0.00000000000E+00 0. -1.
          2    1    1    2  501    0 -0.13971963126E+01 -0.25282939033E+02  0.98574233340E+03  0.98606750632E+03  0.00000000000E+00 0. -1.
          1    1    1    2  502    0  0.13971963126E+01  0.25282939033E+02  0.12307514941E+03  0.12565298073E+03  0.00000000000E+00 0. -1.
</event>
<event>
 4    1  0.3593938E+003  0.5522457E+02  0.7546771E-02  0.1276982E+00
          2   -1    0    0  502    0  0.00000000000E+00  0.00000000000E+00  0.30833635632E+04  0.30833635632E+04  0.00000000000E+00 0. -1.
          1   -1    0    0  501    0 -0.00000000000E+00 -0.00000000000E+00 -0.28133361597E+02  0.28133361597E+02  0.00000000000E+00 0. -1.
          2    1    1    2  501    0 -0.33527952761E+02  0.43881993547E+02  0.30557707363E+04  0.30562697109E+04  0.00000000000E+00 0. -1.
          1    1    1    2  502    0  0.33527952761E+02 -0.43881993547E+02 -0.54053471847E+00  0.55227213869E+02  0.00000000000E+00 0. -1.
</event>
<event>
 4    1  0.3593938E+003  0.2308174E+02  0.7546771E-02  0.1491474E+00
          2   -1    0    0  502    0  0.00000000000E+00  0.00000000000E+00  0.28705315458E+03  0.28705315458E+03  0.00000000000E+00 0. -1.
          1   -1    0    0  501    0 -0.00000000000E+00 -0.00000000000E+00 -0.35481786412E+02  0.35481786412E+02  0.00000000000E+00 0.  1.
          2    1    1    2  501    0  0.12419870799E+02  0.19455421547E+02  0.28277870675E+03  0.28371916328E+03  0.00000000000E+00 0. -1.
          1    1    1    2  502    0 -0.12419870799E+02 -0.19455421547E+02 -0.31207338584E+02  0.38815777716E+02  0.00000000000E+00 0.  1.
</event>
<event>
 4    1  0.3593938E+003  0.2018661E+02  0.7546771E-02  0.1531202E+00
          2   -1    0    0  502    0  0.00000000000E+00  0.00000000000E+00  0.27534021232E+03  0.27534021232E+03  0.00000000000E+00 0. -1.
          1   -1    0    0  501    0 -0.00000000000E+00 -0.00000000000E+00 -0.74233858876E+03  0.74233858876E+03  0.00000000000E+00 0. -1.
          2    1    1    2  501    0  0.47800017961E+01  0.19612512287E+02  0.27483272840E+03  0.27557308950E+03  0.00000000000E+00 0. -1.
          1    1    1    2  502    0 -0.47800017961E+01 -0.19612512287E+02 -0.74183110484E+03  0.74210571159E+03  0.00000000000E+00 0. -1.
</event>
<event>
 4    1  0.3593938E+003  0.2906065E+02  0.7546771E-02  0.1427939E+00
          2   -1    0    0  502    0  0.00000000000E+00  0.00000000000E+00  0.16712051006E+02  0.16712051006E+02  0.00000000000E+00 0.  1.
          1   -1    0    0  501    0 -0.00000000000E+00 -0.00000000000E+00 -0.50538831967E+02  0.50538831967E+02  0.00000000000E+00 0.  1.
          2    1    1    2  501    0  0.90801697525E+01 -0.27605632823E+02 -0.17254841154E+02  0.33797189078E+02  0.00000000000E+00 0.  1.
          1    1    1    2  502    0 -0.90801697525E+01  0.27605632823E+02 -0.16571939806E+02  0.33453693895E+02  0.00000000000E+00 0.  1.
</event>
<event>
 4    1  0.3593938E+003  0.2802256E+02  0.7546771E-02  0.1437598E+00
          2   -1    0    0  502    0  0.00000000000E+00  0.00000000000E+00  0.36842382044E+03  0.36842382044E+03  0.00000000000E+00 0. -1.
          1   -1    0    0  501    0 -0.00000000000E+00 -0.00000000000E+00 -0.29292172679E+01  0.29292172679E+01  0.00000000000E+00 0. -1.
          2    1    1    2  501    0  0.19070844509E+02 -0.20532090649E+02  0.27964846110E+03  0.28104897376E+03  0.00000000000E+00 0. -1.
          1    1    1    2  502    0 -0.19070844509E+02  0.20532090649E+02  0.85846142080E+02  0.90304063955E+02  0.00000000000E+00 0. -1.
</event>
<event>
 4    1  0.3593938E+003  0.2477096E+02  0.7546771E-02  0.1471382E+00
          2   -1    0    0  502    0  0.00000000000E+00  0.00000000000E+00  0.19245746144E+03  0.19245746144E+03  0.00000000000E+00 0.  1.
          1   -1    0    0  501    0 -0.00000000000E+00 -0.00000000000E+00 -0.88538517360E+01  0.88538517360E+01  0.00000000000E+00 0. -1.
          2    1    1    2  501    0 -0.12178138881E+01  0.24741009072E+02  0.17232026548E+03  0.17409156929E+03  0.00000000000E+00 0.  1.
          1    1    1    2  502    0  0.12178138881E+01 -0.24741009072E+02  0.11283344219E+02  0.27219743888E+02  0.00000000000E+00 0. -1.
</event>
<event>
 4    1  0.3593938E+003  0.2284904E+02  0.7546771E-02  0.1494403E+00
          2   -1    0    0  502    0  0.00000000000E+00  0.00000000000E+00  0.42940473404E+03  0.42940473404E+03  0.00000000000E+00 0. -1.
          1   -1    0    0  501    0 -0.00000000000E+00 -0.00000000000E+00 -0.36238255606E+03  0.36238255606E+03  0.00000000000E+00 0. -1.
          2    1    1    2  501    0  0.15377554317E+02 -0.16899980347E+02  0.42874005043E+03  0.42934847077E+03  0.00000000000E+00 0. -1.
          1    1    1    2  502    0 -0.15377554317E+02  0.16899980347E+02 -0.36171787244E+03  0.36243881933E+03  0.00000000000E+00 0. -1.
</event>
<event>
 4    1  0.3593938E+003  0.2207426E+02  0.7546771E-02  0.1504462E+00
          2   -1    0    0  502    0  0.00000000000E+00  0.00000000000E+00  0.92385833016E+03  0.92385833016E+03  0.00000000000E+00 0.  1.
          1   -1    0    0  501    0 -0.00000000000E+00 -0.00000000000E+00 -0.15342547643E+01  0.15342547643E+01  0.00000000000E+00 0.  1.
          2    1    1    2  501    0  0.18215635683E+01 -0.21998973212E+02  0.83598283737E+03  0.83627422374E+03  0.00000000000E+00 0.  1.
          1    1    1    2  502    0 -0.18215635683E+01  0.21998973212E+02  0.86341238032E+02  0.89118361189E+02  0.00000000000E+00 0.  1.
</event>
<event>
 4    1  0.3593938E+003  0.2095729E+02  0.7546771E-02  0.1519875E+00
          2   -1    0    0  502    0  0.00000000000E+00  0.00000000000E+00  0.60141345660E+03  0.60141345660E+03  0.00000000000E+00 0.  1.
          1   -1    0    0  501    0 -0.00000000000E+00 -0.00000000000E+00 -0.18602322037E+03  0.18602322037E+03  0.00000000000E+00 0.  1.
          2    1    1    2  501    0  0.18968499562E+02 -0.89109027862E+01  0.60063986344E+03  0.60100536913E+03  0.00000000000E+00 0.  1.
          1    1    1    2  502    0 -0.18968499562E+02  0.89109027862E+01 -0.18524962721E+03  0.18643130785E+03  0.00000000000E+00 0.  1.
</event>
<event>
 4    1  0.3593938E+003  0.2623440E+02  0.7546771E-02  0.1455454E+00
          2   -1    0    0  502    0  0.00000000000E+00  0.00000000000E+00  0.76036808159E+01  0.76036808159E+01  0.00000000000E+00 0.  1.
          1   -1    0    0  501    0 -0.00000000000E+00 -0.00000000000E+00 -0.77500719728E+03  0.77500719728E+03  0.00000000000E+00 0.  1.
          2    1    1    2  501    0  0.97444225944E+01 -0.24357543310E+02 -0.15956219487E+02  0.30705775159E+02  0.00000000000E+00 0.  1.
          1    1    1    2  502    0 -0.97444225944E+01  0.24357543310E+02 -0.75144729698E+03  0.75190510294E+03  0.00000000000E+00 0.  1.
</event>
<event>
 4    1  0.3593938E+003  0.2010808E+02  0.7546771E-02  0.1532390E+00
          2   -1    0    0  502    0  0.00000000000E+00  0.00000000000E+00  0.24923966141E+03  0.24923966141E+03  0.00000000000E+00 0.  1.
          1   -1    0    0  501    0 -0.00000000000E+00 -0.00000000000E+00 -0.75607041821E+03  0.75607041821E+03  0.00000000000E+00 0.  1.
          2    1    1    2  501    0 -0.17298043797E+02 -0.10252443243E+02  0.24870010725E+03  0.24951167961E+03  0.00000000000E+00 0.  1.
          1    1    1    2  502    0  0.17298043797E+02  0.10252443243E+02 -0.75553086406E+03  0.75579840001E+03  0.00000000000E+00 0.  1.
</event>
<event>
 4    1  0.3593938E+003  0.4247878E+02  0.7546771E-02  0.1334542E+00
          2   -1    0    0  502    0  0.00000000000E+00  0.00000000000E+00  0.17814896944E+04  0.17814896944E+04  0.00000000000E+00 0. -1.
          1   -1    0    0  501    0 -0.00000000000E+00 -0.00000000000E+00 -0.60738004299E+01  0.60738004299E+01  0.00000000000E+00 0. -1.
          2    1    1    2  501    0  0.34093910961E+02  0.25338746621E+02  0.17035680548E+04  0.17040975806E+04  0.00000000000E+00 0. -1.
          1    1    1    2  502    0 -0.34093910961E+02 -0.25338746621E+02  0.71847839120E+02  0.83465914187E+02  0.00000000000E+00 0. -1.
</event>
<event>
 4    1  0.3593938E+003  0.2275858E+02  0.7546771E-02  0.1495552E+00
          2   -1    0    0  502    0  0.00000000000E+00  0.00000000000E+00  0.12974146540E+02  0.12974146540E+02  0.00000000000E+00 0.  1.
          1   -1    0    0  501    0 -0.00000000000E+00 -0.00000000000E+00 -0.51341202682E+02  0.51341202682E+02  0.00000000000E+00 0.  1.
          2    1    1    2  501    0  0.13339552394E+02 -0.18439340251E+02 -0.40175332852E+01  0.23110463013E+02  0.00000000000E+00 0.  1.
          1    1    1    2  502    0 -0.13339552394E+02  0.18439340251E+02 -0.34349522857E+02  0.41204886209E+02  0.00000000000E+00 0.  1.
</event>
<event>
 4    1  0.3593938E+003  0.2495612E+02  0.7546771E-02  0.1469295E+00
          2   -1    0    0  502    0  0.00000000000E+00  0.00000000000E+00  0.58134395939E+03  0.58134395939E+03  0.00000000000E+00 0.  1.
          1   -1    0    0  501    0 -0.00000000000E+00 -0.00000000000E+00 -0.12148109402E+01  0.12148109402E+01  0.00000000000E+00 0. -1.
          2    1    1    2  501    0 -0.19103601696E+02  0.16058037526E+02  0.39017065695E+03  0.39096796507E+03  0.00000000000E+00 0.  1.
          1    1    1    2  502    0  0.19103601696E+02 -0.16058037526E+02  0.18995849150E+03  0.19159080526E+03  0.00000000000E+00 0. -1.
</event>
<event>
 4    1  0.3593938E+003  0.2428308E+02  0.7546771E-02  0.1476986E+00
          2   -1    0    0  502    0  0.00000000000E+00  0.00000000000E+00  0.37851397328E+03  0.37851397328E+03  0.00000000000E+00 0. -1.
          1   -1    0    0  501    0 -0.00000000000E+00 -0.00000000000E+00 -0.14781466620E+02  0.14781466620E+02  0.00000000000E+00 0. -1.
          2    1    1    2  501    0  0.22969483374E+02  0.78784892103E+01  0.36786297385E+03  0.36866358009E+03  0.00000000000E+00 0. -1.
          1    1    1    2  502    0 -0.22969483374E+02 -0.78784892103E+01 -0.41304671812E+01  0.24631859813E+02  0.00000000000E+00 0. -1.
</event>
<event>
 4    1  0.3593938E+003  0.2763437E+02  0.7546771E-02  0.1441338E+00
          2   -1    0    0  502    0  0.00000000000E+00  0.00000000000E+00  0.12192643142E+02  0.12192643142E+02  0.00000000000E+00 0.  1.
          1   -1    0    0  501    0 -0.00000000000E+00 -0.00000000000E+00 -0.27258395840E+03  0.27258395840E+03  0.00000000000E+00 0. -1.
          2    1    1    2  501    0 -0.22190378312E+02 -0.16469526329E+02 -0.52320947482E+01  0.28125308933E+02  0.00000000000E+00 0.  1.
          1    1    1    2  502    0  0.22190378312E+02  0.16469526329E+02 -0.25515922051E+03  0.25665129261E+03  0.00000000000E+00 0. -1.
</event>
<event>
 4    1  0.3593938E+003  0.2231849E+02  0.7546771E-02  0.1501238E+00
          2   -1    0    0  502    0  0.00000000000E+00  0.00000000000E+00  0.25626447306E+01  0.25626447306E+01  0.00000000000E+00 0.  1.
          1   -1    0    0  501    0 -0.00000000000E+00 -0.00000000000E+00 -0.51309678178E+03  0.51309678178E+03  0.00000000000E+00 0.  1.
          2    1    1    2  501    0 -0.77856964951E+01 -0.20916446082E+02 -0.52059910543E+02  0.56642290494E+02  0.00000000000E+00 0.  1.
          1    1    1    2  502    0  0.77856964951E+01  0.20916446082E+02 -0.45847422651E+03  0.45901713602E+03  0.00000000000E+00 0.  1.
</event>
<event>
 4    1  0.3593938E+003  0.2303716E+02  0.7546771E-02  0.1492032E+00
          2   -1    0    0  502    0  0.00000000000E+00  0.00000000000E+00  0.81135145182E+03  0.81135145182E+03  0.00000000000E+00 0. -1.
          1   -1    0    0  501    0 -0.00000000000E+00 -0.00000000000E+00 -0.13205388045E+01  0.13205388045E+01  0.00000000000E+00 0.  1.
          2    1    1    2  501    0 -0.87850690330E+01 -0.21296322439E+02  0.69367606330E+03  0.69405849292E+03  0.00000000000E+00 0. -1.
          1    1    1    2  502    0  0.87850690330E+01  0.21296322439E+02  0.11635484971E+03  0.11861349771E+03  0.00000000000E+00 0.  1.
</event>
<event>
 4    1  0.3593938E+003  0.3630234E+02  0.7546771E-02  0.1371631E+00
          2   -1    0    0  502    0  0.00000000000E+00  0.00000000000E+00  0.59993803077E+02  0.59993803077E+02  0.00000000000E+00 0.  1.
          1   -1    0    0  501    0 -0.00000000000E+00 -0.00000000000E+00 -0.35982702825E+03  0.35982702825E+03  0.00000000000E+00 0. -1.
          2    1    1    2  501    0  0.21471109743E+02  0.29272027381E+02  0.53485640287E+02  0.64641889340E+02  0.00000000000E+00 0.  1.
          1    1    1    2  502    0 -0.21471109743E+02 -0.29272027381E+02 -0.35331886546E+03  0.35517894198E+03  0.00000000000E+00 0. -1.
</event>
<event>
 4    1  0.3593938E+003  0.4275318E+02  0.7546771E-02  0.1333066E+00
          2   -1    0    0  502    0  0.00000000000E+00  0.00000000000E+00  0.21104399856E+03  0.21104399856E+03  0.00000000000E+00 0. -1.
          1   -1    0    0  501    0 -0.00000000000E+00 -0.00000000000E+00 -0.57469795946E+02  0.57469795946E+02  0.00000000000E+00 0. -1.
          2    1    1    2  501    0 -0.83774155052E+01 -0.41924371720E+02  0.20051459225E+03  0.20502179333E+03  0.00000000000E+00 0. -1.
          1    1    1    2  502    0  0.83774155052E+01  0.41924371720E+02 -0.46940389635E+02  0.63492001179E+02  0.00000000000E+00 0. -1.
</event>
<event>
 4    1  0.3593938E+003  0.2142915E+02  0.7546771E-02  0.1513225E+00
          2   -1    0    0  502    0  0.00000000000E+00  0.00000000000E+00  0.65955408178E+02  0.65955408178E+02  0.00000000000E+00 0. -1.
          1   -1    0    0  501    0 -0.00000000000E+00 -0.00000000000E+00 -0.42809758241E+02  0.42809758241E+02  0.00000000000E+00 0.  1.
          2    1    1    2  501    0 -0.14230739956E+02 -0.16021693301E+02  0.61337017398E+02  0.64972596678E+02  0.00000000000E+00 0. -1.
          1    1    1    2  502    0  0.14230739956E+02  0.16021693301E+02 -0.38191367461E+02  0.43792569740E+02  0.00000000000E+00 0.  1.
</event>
<event>
 4    1  0.3593938E+003  0.2041574E+02  0.7546771E-02  0.1527772E+00
          2   -1    0    0  502    0  0.00000000000E+00  0.00000000000E+00  0.98722868999E+00  0.98722868999E+00  0.00000000000E+00 0. -1.
          1   -1    0    0  501    0 -0.00000000000E+00 -0.00000000000E+00 -0.57877775632E+03  0.57877775632E+03  0.00000000000E+00 0.  1.
          2    1    1    2  501    0  0.14100755755E+02  0.14763852014E+02 -0.13811705901E+03  0.13961778049E+03  0.00000000000E+00 0. -1.
          1    1    1    2  502    0 -0.14100755755E+02 -0.14763852014E+02 -0.43967346861E+03  0.44014720451E+03  0.00000000000E+00 0.  1.
</event>
<event>
 4    1  0.3593938E+003  0.2973791E+02  0.7546771E-02  0.1421888E+00
          2   -1    0    0  502    0  0.00000000000E+00  0.00000000000E+00  0.64708981153E+03  0.64708981153E+03  0.00000000000E+00 0. -1.
          1   -1    0    0  501    0 -0.00000000000E+00 -0.00000000000E+00 -0.10022093569E+02  0.10022093569E+02  0.00000000000E+00 0. -1.
          2    1    1    2  501    0 -0.65434208602E+01 -0.29009083663E+02  0.62386763980E+03  0.62457599640E+03  0.00000000000E+00 0. -1.
          1    1    1    2  502    0  0.65434208602E+01  0.29009083663E+02  0.13200078168E+02  0.32535908704E+02  0.00000000000E+00 0. -1.
</event>
<event>
 4    1  0.3593938E+003  0.2199266E+02  0.7546771E-02  0.1505550E+00
          2   -1    0    0  502    0  0.00000000000E+00  0.00000000000E+00  0.51587642403E+03  0.51587642403E+03  0.00000000000E+00 0.  1.
          1   -1    0    0  501    0 -0.00000000000E+00 -0.00000000000E+00 -0.15708292713E+02  0.15708292713E+02  0.00000000000E+00 0. -1.
          2    1    1    2  501    0  0.15080008635E+02  0.16008445130E+02  0.50782219921E+03  0.50829820282E+03  0.00000000000E+00 0.  1.
          1    1    1    2  502    0 -0.15080008635E+02 -0.16008445130E+02 -0.76540678873E+01  0.23286513933E+02  0.00000000000E+00 0. -1.
</event>
<event>
 4    1  0.3593938E+003  0.2959791E+02  0.7546771E-02  0.1423123E+00
          2   -1    0    0  502    0  0.00000000000E+00  0.00000000000E+00  0.18233309403E+01  0.18233309403E+01  0.00000000000E+00 0.  1.
          1   -1    0    0  501    0 -0.00000000000E+00 -0.00000000000E+00 -0.16392588701E+04  0.16392588701E+04  0.00000000000E+00 0. -1.
          2    1    1    2  501    0 -0.28468740228E+02  0.80973590548E+01 -0.12882638387E+03  0.13218272798E+03  0.00000000000E+00 0.  1.
          1    1    1    2  502    0  0.28468740228E+02 -0.80973590548E+01 -0.15086091553E+04  0.15088994731E+04  0.00000000000E+00 0. -1.
</event>
<event>
 4    1  0.3593938E+003  0.2323876E+02  0.7546771E-02  0.1489522E+00
          2   -1    0    0  502    0  0.00000000000E+00  0.00000000000E+00  0.86349068859E+03  0.86349068859E+03  0.00000000000E+00 0.  1.
          1   -1    0    0  501    0 -0.00000000000E+00 -0.00000000000E+00 -0.71695254858E+01  0.71695254858E+01  0.00000000000E+00 0. -1.
          2    1    1    2  501    0 -0.17067957961E+02 -0.15771013348E+02  0.84407005035E+03  0.84438989214E+03  0.00000000000E+00 0.  1.
          1    1    1    2  502    0  0.17067957961E+02  0.15771013348E+02  0.12251112757E+02  0.26270321938E+02  0.00000000000E+00 0. -1.
</event>
<event>
 4    1  0.3593938E+003  0.2453360E+02  0.7546771E-02  0.1474089E+00
          2   -1    0    0  502    0  0.00000000000E+00  0.00000000000E+00  0.60819750162E+00  0.60819750162E+00  0.00000000000E+00 0. -1.
          1   -1    0    0  501    0 -0.00000000000E+00 -0.00000000000E+00 -0.11649849311E+04  0.11649849311E+04  0.00000000000E+00 0. -1.
          2    1    1    2  501    0  0.24522481020E+02 -0.73859177881E+00 -0.35608794916E+03  0.35693210157E+03  0.00000000000E+00 0. -1.
          1    1    1    2  502    0 -0.24522481020E+02  0.73859177881E+00 -0.80828878444E+03  0.80866102704E+03  0.00000000000E+00 0. -1.
</event>
<event>
 4    1  0.3593938E+003  0.2125658E+02  0.7546771E-02  0.1515633E+00
          2   -1    0    0  502    0  0.00000000000E+00  0.00000000000E+00  0.74828766280E+01  0.74828766280E+01  0.00000000000E+00 0.  1.
          1   -1    0    0  501    0 -0.00000000000E+00 -0.00000000000E+00 -0.10791202853E+03  0.10791202853E+03  0.00000000000E+00 0. -1.
          2    1    1    2  501    0  0.18766025619E+02 -0.99839059463E+01 -0.11923373179E+02  0.24372298280E+02  0.00000000000E+00 0.  1.
          1    1    1    2  502    0 -0.18766025619E+02  0.99839059463E+01 -0.88505778721E+02  0.91022606875E+02  0.00000000000E+00 0. -1.
</event>
<event>
 4    1  0.3593938E+003  0.3077245E+02  0.7546771E-02  0.1413000E+00
          2   -1    0    0  502    0  0.00000000000E+00  0.00000000000E+00  0.11564311617E+02  0.11564311617E+02  0.00000000000E+00 0. -1.
          1   -1    0    0  501    0 -0.00000000000E+00 -0.00000000000E+00 -0.12702580597E+03  0.12702580597E+03  0.00000000000E+00 0.  1.
          2    1    1    2  501    0  0.30362680556E+02  0.50051128051E+01 -0.16422097627E+02  0.34880206640E+02  0.00000000000E+00 0. -1.
          1    1    1    2  502    0 -0.30362680556E+02 -0.50051128051E+01 -0.99039396721E+02  0.10370991094E+03  0.00000000000E+00 0.  1.
</event>
<event>
 4    1  0.3593938E+003  0.4545852E+02  0.7546771E-02  0.1319162E+00
          2   -1    0    0  502    0  0.00000000000E+00  0.00000000000E+00  0.35445421924E+04  0.35445421924E+04  0.00000000000E+00 0. -1.
          1   -1    0    0  501    0 -0.00000000000E+00 -0.00000000000E+00 -0.65228310236E+00  0.65228310236E+00  0.00000000000E+00 0.  1.
          2    1    1    2  501    0 -0.40894234895E+02  0.19852933993E+02  0.23496383608E+04  0.23500780634E+04  0.00000000000E+00 0. -1.
          1    1    1    2  502    0  0.40894234895E+02 -0.19852933993E+02  0.11942515485E+04  0.11951164121E+04  0.00000000000E+00 0.  1.
</event>
<event>
 4    1  0.3593938E+003  0.3354931E+02  0.7546771E-02  0.1391059E+00
          2   -1    0    0  502    0  0.00000000000E+00  0.00000000000E+00  0.32545530628E+01  0.32545530628E+01  0.00000000000E+00 0. -1.
          1   -1    0    0  501    0 -0.00000000000E+00 -0.00000000000E+00 -0.51626379809E+03  0.51626379809E+03  0.00000000000E+00 0. -1.
          2    1    1    2  501    0 -0.32320425841E+02 -0.89970329911E+01 -0.10725974357E+03  0.11238420316E+03  0.00000000000E+00 0. -1.
          1    1    1    2  502    0  0.32320425841E+02  0.89970329911E+01 -0.40574950146E+03  0.40713414800E+03  0.00000000000E+00 0. -1.
</event>
<event>
 4    1  0.3593938E+003  0.2062386E+02  0.7546771E-02  0.1524704E+00
          2   -1    0    0  502    0  0.00000000000E+00  0.00000000000E+00  0.30018870167E+03  0.30018870167E+03  0.00000000000E+00 0.  1.
          1   -1    0    0  501    0 -0.00000000000E+00 -0.00000000000E+00 -0.79227499729E+02  0.79227499729E+02  0.00000000000E+00 0.  1.
          2    1    1    2  501    0 -0.15472600543E+02  0.13636058785E+02  0.29848465981E+03  0.29919631617E+03  0.00000000000E+00 0.  1.
          1    1    1    2  502    0  0.15472600543E+02 -0.13636058785E+02 -0.77523457868E+02  0.80219885231E+02  0.00000000000E+00 0.  1.
</event>
<event>
 4    1  0.3593938E+003  0.4033002E+02  0.7546771E-02  0.1346563E+00
          2   -1    0    0  502    0  0.00000000000E+00  0.00000000000E+00  0.66677212592E+01  0.66677212592E+01  0.00000000000E+00 0.  1.
          1   -1    0    0  501    0 -0.00000000000E+00 -0.00000000000E+00 -0.97079581179E+03  0.97079581179E+03  0.00000000000E+00 0.  1.
          2    1    1    2  501    0  0.36434747268E+02 -0.17292197074E+02 -0.59170224983E+02  0.71607446629E+02  0.00000000000E+00 0.  1.
          1    1    1    2  502    0 -0.36434747268E+02  0.17292197074E+02 -0.90495786555E+03  0.90585608642E+03  0.00000000000E+00 0.  1.
</event>
<event>
 4    1  0.3593938E+003  0.2758495E+02  0.7546771E-02  0.1441819E+00
          2   -1    0    0  502    0  0.00000000000E+00  0.00000000000E+00  0.48715059995E+01  0.48715059995E+01  0.00000000000E+00 0. -1.
          1   -1    0    0  501    0 -0.00000000000E+00 -0.00000000000E+00 -0.24559364903E+03  0.24559364903E+03  0.00000000000E+00 0.  1.
          2    1    1    2  501    0  0.16557016890E+02 -0.22063425048E+02 -0.44806292721E+02  0.52616854719E+02  0.00000000000E+00 0. -1.
          1    1    1    2  502    0 -0.16557016890E+02  0.22063425048E+02 -0.19591585031E+03  0.19784830031E+03  0.00000000000E+00 0.  1.
</event>
<event>
 4    1  0.3593938E+003  0.2610266E+02  0.7546771E-02  0.1456836E+00
          2   -1    0    0  502    0  0.00000000000E+00  0.00000000000E+00  0.54460624148E+03  0.54460624148E+03  0.00000000000E+00 0. -1.
          1   -1    0    0  501    0 -0.00000000000E+00 -0.00000000000E+00 -0.31696120328E+01  0.31696120328E+01  0.00000000000E+00 0. -1.
          2    1    1    2  501    0  0.13438722298E+02  0.22377432510E+02  0.48380376060E+03  0.48450740708E+03  0.00000000000E+00 0. -1.
          1    1    1    2  502    0 -0.13438722298E+02 -0.22377432510E+02  0.57632868849E+02  0.63268446437E+02  0.00000000000E+00 0. -1.
</event>
<event>
 4    1  0.3593938E+003  0.2305179E+02  0.7546771E-02  0.1491849E+00
          2   -1    0    0  502    0  0.00000000000E+00  0.00000000000E+00  0.77559181288E+00  0.77559181288E+00  0.00000000000E+00 0.  1.
          1   -1    0    0  501    0 -0.00000000000E+00 -0.00000000000E+00 -0.14518825584E+04  0.14518825584E+04  0.00000000000E+00 0. -1.
          2    1    1    2  501    0  0.10999652758E+02  0.20258153941E+02 -0.19772373599E+03  0.19906295722E+03  0.00000000000E+00 0.  1.
          1    1    1    2  502    0 -0.10999652758E+02 -0.20258153941E+02 -0.12533832306E+04  0.12535951930E+04  0.00000000000E+00 0. -1.
</event>
<event>
 4    1  0.3593938E+003  0.2023461E+02  0.7546771E-02  0.1530479E+00
          2   -1    0    0  502    0  0.00000000000E+00  0.00000000000E+00  0.34585130843E+03  0.34585130843E+03  0.00000000000E+00 0.  1.
          1   -1    0    0  501    0 -0.00000000000E+00 -0.00000000000E+00 -0.15444118701E+01  0.15444118701E+01  0.00000000000E+00 0. -1.
          2    1    1    2  501    0  0.17176954571E+02  0.10695395266E+02  0.25607959226E+03  0.25687778576E+03  0.00000000000E+00 0.  1.
          1    1    1    2  502    0 -0.17176954571E+02 -0.10695395266E+02  0.88227304306E+02  0.90517934540E+02  0.00000000000E+00 0. -1.
</event>
<event>
 4    1  0.3651506E+003  0.2473277E+02  0.7546771E-02  0.1471815E+00
          2   -1    0    0  502    0  0.00000000000E+00  0.00000000000E+00  0.68220170541E+03  0.68220170541E+03  0.00000000000E+00 0.  1.
          1   -1    0    0  501    0 -0.00000000000E+00 -0.00000000000E+00 -0.62175924254E+03  0.62175924254E+03  0.00000000000E+00 0. -1.
          2    1    1    2  501    0  0.21600537463E+02 -0.12046860336E+02  0.68173140881E+03  0.68217990576E+03  0.00000000000E+00 0.  1.
          1    1    1    2  502    0 -0.21600537463E+02  0.12046860336E+02 -0.62128894595E+03  0.62178104218E+03  0.00000000000E+00 0. -1.
</event>
<event>
 4    1  0.3593938E+003  0.2011072E+02  0.7546771E-02  0.1532350E+00
          2   -1    0    0  502    0  0.00000000000E+00  0.00000000000E+00  0.36500353996E+03  0.36500353996E+03  0.00000000000E+00 0.  1.
          1   -1    0    0  501    0 -0.00000000000E+00 -0.00000000000E+00 -0.12382822406E+02  0.12382822406E+02  0.00000000000E+00 0.  1.
          2    1    1    2  501    0 -0.19306677383E+02 -0.56296730586E+01  0.35636334864E+03  0.35693035352E+03  0.00000000000E+00 0.  1.
          1    1    1    2  502    0  0.19306677383E+02  0.56296730586E+01 -0.37426310887E+01  0.20456008843E+02  0.00000000000E+00 0.  1.
</event>
<event>
 4    1  0.3593938E+003  0.2845757E+02  0.7546771E-02  0.1433491E+00
          2   -1    0    0  502    0  0.00000000000E+00  0.00000000000E+00  0.31944030613E+02  0.31944030613E+02  0.00000000000E+00 0.  1.
          1   -1    0    0  501    0 -0.00000000000E+00 -0.00000000000E+00 -0.52039385820E+02  0.52039385820E+02  0.00000000000E+00 0. -1.
          2    1    1    2  501    0 -0.26089466863E+02 -0.11365438729E+02  0.20023707267E+02  0.34796297668E+02  0.00000000000E+00 0.  1.
          1    1    1    2  502    0  0.26089466863E+02  0.11365438729E+02 -0.40119062474E+02  0.49187118766E+02  0.00000000000E+00 0. -1.
</event>
<event>
 4    1  0.3593938E+003  0.2128181E+02  0.7546771E-02  0.1515279E+00
          2   -1    0    0  502    0  0.00000000000E+00  0.00000000000E+00  0.34817738382E+03  0.34817738382E+03  0.00000000000E+00 0.  1.
          1   -1    0    0  501    0 -0.00000000000E+00 -0.00000000000E+00 -0.47526612324E+01  0.47526612324E+01  0.00000000000E+00 0. -1.
          2    1    1    2  501    0 -0.21281735096E+02  0.55599420039E-01  0.32210125014E+03  0.32280354812E+03  0.00000000000E+00 0.  1.
          1    1    1    2  502    0  0.21281735096E+02 -0.55599420039E-01  0.21323472450E+02  0.30126496931E+02  0.00000000000E+00 0. -1.
</event>
<event>
 4    1  0.3593938E+003  0.2661650E+02  0.7546771E-02  0.1451499E+00
          2   -1    0    0  502    0  0.00000000000E+00  0.00000000000E+00  0.16376469979E+04  0.16376469979E+04  0.00000000000E+00 0.  1.
          1   -1    0    0  501    0 -0.00000000000E+00 -0.00000000000E+00 -0.44210508494E+02  0.44210508494E+02  0.00000000000E+00 0.  1.
          2    1    1    2  501    0 -0.76514622951E+01 -0.25492999736E+02  0.16335226860E+04  0.16337395153E+04  0.00000000000E+00 0.  1.
          1    1    1    2  502    0  0.76514622951E+01  0.25492999736E+02 -0.40086196631E+02  0.48117991138E+02  0.00000000000E+00 0.  1.
</event>
<event>
 4    1  0.3593938E+003  0.2256761E+02  0.7546771E-02  0.1498000E+00
          2   -1    0    0  502    0  0.00000000000E+00  0.00000000000E+00  0.80626631657E+02  0.80626631657E+02  0.00000000000E+00 0. -1.
          1   -1    0    0  501    0 -0.00000000000E+00 -0.00000000000E+00 -0.57320359612E+02  0.57320359612E+02  0.00000000000E+00 0.  1.
          2    1    1    2  501    0  0.21861576442E+02  0.56007574335E+01  0.76715270527E+02  0.79965803569E+02  0.00000000000E+00 0. -1.
          1    1    1    2  502    0 -0.21861576442E+02 -0.56007574335E+01 -0.53408998482E+02  0.57981187701E+02  0.00000000000E+00 0.  1.
</event>
<event>
 4    1  0.3593938E+003  0.2027810E+02  0.7546771E-02  0.1529826E+00
          2   -1    0    0  502    0  0.00000000000E+00  0.00000000000E+00  0.90371995712E+03  0.90371995712E+03  0.00000000000E+00 0. -1.
          1   -1    0    0  501    0 -0.00000000000E+00 -0.00000000000E+00 -0.86462885793E+01  0.86462885793E+01  0.00000000000E+00 0. -1.
          2    1    1    2  501    0  0.77840779098E+01  0.18724565143E+02  0.89155446054E+03  0.89178503986E+03  0.00000000000E+00 0. -1.
          1    1    1    2  502    0 -0.77840779098E+01 -0.18724565143E+02  0.35192079961E+01  0.20581205835E+02  0.00000000000E+00 0. -1.
</event>
<event>
 4    1  0.3593938E+003  0.2060329E+02  0.7546771E-02  0.1525005E+00
          2   -1    0    0  502    0  0.00000000000E+00  0.00000000000E+00  0.92415042330E+02  0.92415042330E+02  0.00000000000E+00 0.  1.
          1   -1    0    0  501    0 -0.00000000000E+00 -0.00000000000E+00 -0.31020843337E+03  0.31020843337E+03  0.00000000000E+00 0.  1.
          2    1    1    2  501    0  0.16575519322E+02 -0.12237147639E+02  0.90919038384E+02  0.93224284195E+02  0.00000000000E+00 0.  1.
          1    1    1    2  502    0 -0.16575519322E+02  0.12237147639E+02 -0.30871242942E+03  0.30939919150E+03  0.00000000000E+00 0.  1.
</event>
<event>
 4    1  0.3593938E+003  0.1301902E+03  0.7546771E-02  0.1119849E+00
          2   -1    0    0  502    0  0.00000000000E+00  0.00000000000E+00  0.58407241655E+02  0.58407241655E+02  0.00000000000E+00 0.  1.
          1   -1    0    0  501    0 -0.00000000000E+00 -0.00000000000E+00 -0.13615795840E+04  0.13615795840E+04  0.00000000000E+00 0. -1.
          2    1    1    2  501    0  0.89995674169E+02  0.94075843846E+02 -0.21782027733E+02  0.13199978218E+03  0.00000000000E+00 0.  1.
          1    1    1    2  502    0 -0.89995674169E+02 -0.94075843846E+02 -0.12813903146E+04  0.12879870435E+04  0.00000000000E+00 0. -1.
</event>
<event>
 4    1  0.3593938E+003  0.2017611E+02  0.7546771E-02  0.1531360E+00
          2   -1    0    0  502    0  0.00000000000E+00  0.00000000000E+00  0.96156734070E+03  0.96156734070E+03  0.00000000000E+00 0.  1.
          1   -1    0    0  501    0 -0.00000000000E+00 -0.00000000000E+00 -0.29410108666E+01  0.29410108666E+01  0.00000000000E+00 0. -1.
          2    1    1    2  501    0 -0.19300729132E+01  0.20083581077E+02  0.92551018635E+03  0.92573007969E+03  0.00000000000E+00 0.  1.
          1    1    1    2  502    0  0.19300729132E+01 -0.20083581077E+02  0.33116143484E+02  0.38778271875E+02  0.00000000000E+00 0. -1.
</event>
<event>
 4    1  0.3593938E+003  0.3437817E+02  0.7546771E-02  0.1384988E+00
          2   -1    0    0  502    0  0.00000000000E+00  0.00000000000E+00  0.22153065530E+01  0.22153065530E+01  0.00000000000E+00 0.  1.
          1   -1    0    0  501    0 -0.00000000000E+00 -0.00000000000E+00 -0.79830256642E+03  0.79830256642E+03  0.00000000000E+00 0.  1.
          2    1    1    2  501    0  0.13346982012E+02 -0.31681487731E+02 -0.16751698592E+03  0.17100818450E+03  0.00000000000E+00 0.  1.
          1    1    1    2  502    0 -0.13346982012E+02  0.31681487731E+02 -0.62857027395E+03  0.62950968848E+03  0.00000000000E+00 0.  1.
</event>
<event>
 4    1  0.3593938E+003  0.2749978E+02  0.7546771E-02  0.1442651E+00
          2   -1    0    0  502    0  0.00000000000E+00  0.00000000000E+00  0.30401135982E+03  0.30401135982E+03  0.00000000000E+00 0.  1.
          1   -1    0    0  501    0 -0.00000000000E+00 -0.00000000000E+00 -0.35424950923E+02  0.35424950923E+02  0.00000000000E+00 0. -1.
          2    1    1    2  501    0  0.27459107561E+02  0.14951219000E+01  0.29794412635E+03  0.29921052856E+03  0.00000000000E+00 0.  1.
          1    1    1    2  502    0 -0.27459107561E+02 -0.14951219000E+01 -0.29357717455E+02  0.40225782176E+02  0.00000000000E+00 0. -1.
</event>
<event>
 4    1  0.3593938E+003  0.3851604E+02  0.7546771E-02  0.1357408E+00
          2   -1    0    0  502    0  0.00000000000E+00  0.00000000000E+00  0.21397658197E+03  0.21397658197E+03  0.00000000000E+00 0. -1.
          1   -1    0    0  501    0 -0.00000000000E+00 -0.00000000000E+00 -0.29618248689E+02  0.29618248689E+02  0.00000000000E+00 0. -1.
          2    1    1    2  501    0 -0.38401232522E+02  0.29716026034E+01  0.19877268768E+03  0.20246991493E+03  0.00000000000E+00 0. -1.
          1    1    1    2  502    0  0.38401232522E+02 -0.29716026034E+01 -0.14414354402E+02  0.41124915734E+02  0.00000000000E+00 0. -1.
</event>
<event>
 4    1  0.3593938E+003  0.2164063E+02  0.7546771E-02  0.1510312E+00
          2   -1    0    0  502    0  0.00000000000E+00  0.00000000000E+00  0.28912496488E+01  0.28912496488E+01  0.00000000000E+00 0. -1.
          1   -1    0    0  501    0 -0.00000000000E+00 -0.00000000000E+00 -0.29591530316E+03  0.29591530316E+03  0.00000000000E+00 0.  1.
          2    1    1    2  501    0  0.14058783643E+02 -0.16451973024E+02 -0.45997619065E+02  0.50834021812E+02  0.00000000000E+00 0. -1.
          1    1    1    2  502    0 -0.14058783643E+02  0.16451973024E+02 -0.24702643444E+03  0.24797253099E+03  0.00000000000E+00 0.  1.
</event>
<event>
 4    1  0.3593938E+003  0.3388701E+02  0.7546771E-02  0.1388561E+00
          2   -1    0    0  502    0  0.00000000000E+00  0.00000000000E+00  0.66666760650E+03  0.66666760650E+03  0.00000000000E+00 0. -1.
          1   -1    0    0  501    0 -0.00000000000E+00 -0.00000000000E+00 -0.95489305809E+01  0.95489305809E+01  0.00000000000E+00 0. -1.
          2    1    1    2  501    0  0.13631834322E+02 -0.31024223866E+02  0.63465736092E+03  0.63556140155E+03  0.00000000000E+00 0. -1.
          1    1    1    2  502    0 -0.13631834322E+02  0.31024223866E+02  0.22461315002E+02  0.40655135532E+02  0.00000000000E+00 0. -1.
</event>
<event>
 4    1  0.3593938E+003  0.2622900E+02  0.7546771E-02  0.1455511E+00
          2   -1    0    0  502    0  0.00000000000E+00  0.00000000000E+00  0.28678168586E+03  0.28678168586E+03  0.00000000000E+00 0.  1.
          1   -1    0    0  501    0 -0.00000000000E+00 -0.00000000000E+00 -0.58520934802E+01  0.58520934802E+01  0.00000000000E+00 0. -1.
          2    1    1    2  501    0  0.21063010572E+02  0.15630415893E+02  0.25286040618E+03  0.25421712242E+03  0.00000000000E+00 0.  1.
          1    1    1    2  502    0 -0.21063010572E+02 -0.15630415893E+02  0.28069186198E+02  0.38416656923E+02  0.00000000000E+00 0. -1.
</event>
<event>
 4    1  0.3593938E+003  0.2241384E+02  0.7546771E-02  0.1499993E+00
          2   -1    0    0  502    0  0.00000000000E+00  0.00000000000E+00  0.38276820555E+03  0.38276820555E+03  0.00000000000E+00 0.  1.
          1   -1    0    0  501    0 -0.00000000000E+00 -0.00000000000E+00 -0.22733123443E+01  0.22733123443E+01  0.00000000000E+00 0. -1.
          2    1    1    2  501    0 -0.17725397185E+02  0.13718250540E+02  0.31540848761E+03  0.31620388069E+03  0.00000000000E+00 0.  1.
          1    1    1    2  502    0  0.17725397185E+02 -0.13718250540E+02  0.65086405589E+02  0.68837637204E+02  0.00000000000E+00 0. -1.
</event>
<event>
 4    1  0.3593938E+003  0.2355265E+02  0.7546771E-02  0.1485673E+00
          2   -1    0    0  502    0  0.00000000000E+00  0.00000000000E+00  0.86808543931E+03  0.86808543931E+03  0.00000000000E+00 0.  1.
          1   -1    0    0  501    0 -0.00000000000E+00 -0.00000000000E+00 -0.92651060069E+01  0.92651060069E+01  0.00000000000E+00 0. -1.
          2    1    1    2  501    0 -0.32179481825E+01 -0.23331780436E+02  0.85268725122E+03  0.85301247093E+03  0.00000000000E+00 0.  1.
          1    1    1    2  502    0  0.32179481825E+01  0.23331780436E+02  0.61330820778E+01  0.24338074382E+02  0.00000000000E+00 0. -1.
</event>
<event>
 4    1  0.3593938E+003  0.2154992E+02  0.7546771E-02  0.1511556E+00
          2   -1    0    0  502    0  0.00000000000E+00  0.00000000000E+00  0.65169107967E+03  0.65169107967E+03  0.00000000000E+00 0.  1.
          1   -1    0    0  501    0 -0.00000000000E+00 -0.00000000000E+00 -0.19683702909E+01  0.19683702909E+01  0.00000000000E+00 0.  1.
          2    1    1    2  501    0  0.21120682385E+02  0.42797180952E+01  0.58591042403E+03  0.58630659573E+03  0.00000000000E+00 0.  1.
          1    1    1    2  502    0 -0.21120682385E+02 -0.42797180952E+01  0.63812285353E+02  0.67352854234E+02  0.00000000000E+00 0.  1.
</event>
<event>
 4    1  0.3593938E+003  0.2020280E+02  0.7546771E-02  0.1530958E+00
          2   -1    0    0  502    0  0.00000000000E+00  0.00000000000E+00  0.46984826189E+03  0.46984826189E+03  0.00000000000E+00 0.  1.
          1   -1    0    0  501    0 -0.00000000000E+00 -0.00000000000E+00 -0.22697101059E+03  0.22697101059E+03  0.00000000000E+00 0.  1.
          2    1    1    2  501    0 -0.17189331361E+02 -0.10615085910E+02  0.46918088455E+03  0.46961564666E+03  0.00000000000E+00 0.  1.
          1    1    1    2  502    0  0.17189331361E+02  0.10615085910E+02 -0.22630363326E+03  0.22720362582E+03  0.00000000000E+00 0.  1.
</event>
<event>
 4    1  0.3593938E+003  0.2604822E+02  0.7546771E-02  0.1457410E+00
          2   -1    0    0  502    0  0.00000000000E+00  0.00000000000E+00  0.96742038013E+00  0.96742038013E+00  0.00000000000E+00 0.  1.
          1   -1    0    0  501    0 -0.00000000000E+00 -0.00000000000E+00 -0.10666790203E+04  0.10666790203E+04  0.00000000000E+00 0.  1.
          2    1    1    2  501    0  0.15473438895E+02  0.20954291024E+02 -0.22045155120E+03  0.22198512574E+03  0.00000000000E+00 0.  1.
          1    1    1    2  502    0 -0.15473438895E+02 -0.20954291024E+02 -0.84526004876E+03  0.84566131498E+03  0.00000000000E+00 0.  1.
</event>
<event>
 4    1  0.3593938E+003  0.4586964E+02  0.7546771E-02  0.1317147E+00
          2   -1    0    0  502    0  0.00000000000E+00  0.00000000000E+00  0.34534897259E+04  0.34534897259E+04  0.00000000000E+00 0.  1.
          1   -1    0    0  501    0 -0.00000000000E+00 -0.00000000000E+00 -0.52717167698E+01  0.52717167698E+01  0.00000000000E+00 0.  1.
          2    1    1    2  501    0  0.30007562580E+02 -0.34692506089E+02  0.33504913577E+04  0.33508053303E+04  0.00000000000E+00 0.  1.
          1    1    1    2  502    0 -0.30007562580E+02  0.34692506089E+02  0.97726651450E+02  0.10795611235E+03  0.00000000000E+00 0.  1.
</event>
<event>
 4    1  0.3593938E+003  0.2722283E+02  0.7546771E-02  0.1445383E+00
          2   -1    0    0  502    0  0.00000000000E+00  0.00000000000E+00  0.11302015992E+02  0.11302015992E+02  0.00000000000E+00 0. -1.
          1   -1    0    0  501    0 -0.00000000000E+00 -0.00000000000E+00 -0.40460262465E+03  0.40460262465E+03  0.00000000000E+00 0.  1.
          2    1    1    2  501    0  0.23567980639E+02 -0.13624708728E+02 -0.62929559293E+01  0.27940717487E+02  0.00000000000E+00 0. -1.
          1    1    1    2  502    0 -0.23567980639E+02  0.13624708728E+02 -0.38700765273E+03  0.38796392315E+03  0.00000000000E+00 0.  1.
</event>
<event>
 4    1  0.3593938E+003  0.2300587E+02  0.7546771E-02  0.1492424E+00
          2   -1    0    0  502    0  0.00000000000E+00  0.00000000000E+00  0.93848784609E+03  0.93848784609E+03  0.00000000000E+00 0.  1.
          1   -1    0    0  501    0 -0.00000000000E+00 -0.00000000000E+00 -0.78566151275E+00  0.78566151275E+00  0.00000000000E+00 0. -1.
          2    1    1    2  501    0 -0.20874343130E+02 -0.96711869992E+01  0.71832675968E+03  0.71869507006E+03  0.00000000000E+00 0.  1.
          1    1    1    2  502    0  0.20874343130E+02  0.96711869992E+01  0.21937542490E+03  0.22057843754E+03  0.00000000000E+00 0. -1.
</event>
<event>
 4    1  0.3593938E+003  0.2012758E+02  0.7546771E-02  0.1532094E+00
          2   -1    0    0  502    0  0.00000000000E+00  0.00000000000E+00  0.11162200009E+02  0.11162200009E+02  0.00000000000E+00 0. -1.
          1   -1    0    0  501    0 -0.00000000000E+00 -0.00000000000E+00 -0.57182707968E+02  0.57182707968E+02  0.00000000000E+00 0.  1.
          2    1    1    2  501    0 -0.12367250151E+00  0.20127195723E+02 -0.23564013802E+01  0.20265042068E+02  0.00000000000E+00 0. -1.
          1    1    1    2  502    0  0.12367250151E+00 -0.20127195723E+02 -0.43664106579E+02  0.48079865910E+02  0.00000000000E+00 0.  1.
</event>
<event>
 4    1  0.3593938E+003  0.2901727E+02  0.7546771E-02  0.1428333E+00
          2   -1    0    0  502    0  0.00000000000E+00  0.00000000000E+00  0.38899296026E+03  0.38899296026E+03  0.00000000000E+00 0.  1.
          1   -1    0    0  501    0 -0.00000000000E+00 -0.00000000000E+00 -0.86061287725E+02  0.86061287725E+02  0.00000000000E+00 0. -1.
          2    1    1    2  501    0 -0.11151629539E+02 -0.26788857300E+02  0.38598685961E+03  0.38707603582E+03  0.00000000000E+00 0.  1.
          1    1    1    2  502    0  0.11151629539E+02  0.26788857300E+02 -0.83055187070E+02  0.87978212167E+02  0.00000000000E+00 0. -1.
</event>
<event>
 4    1  0.3593938E+003  0.2282290E+02  0.7546771E-02  0.1494734E+00
          2   -1    0    0  502    0  0.00000000000E+00  0.00000000000E+00  0.43755527138E+03  0.43755527138E+03  0.00000000000E+00 0.  1.
          1   -1    0    0  501    0 -0.00000000000E+00 -0.00000000000E+00 -0.41768253166E+01  0.41768253166E+01  0.00000000000E+00 0.  1.
          2    1    1    2  501    0 -0.17415534029E+02  0.14750730229E+02  0.40344690057E+03  0.40409192821E+03  0.00000000000E+00 0.  1.
          1    1    1    2  502    0  0.17415534029E+02 -0.14750730229E+02  0.29931545493E+02  0.37640168482E+02  0.00000000000E+00 0.  1.
</event>
<event>
 4    1  0.3593938E+003  0.2419889E+02  0.7546771E-02  0.1477968E+00
          2   -1    0    0  502    0  0.00000000000E+00  0.00000000000E+00  0.17164625202E+02  0.17164625202E+02  0.00000000000E+00 0. -1.
          1   -1    0    0  501    0 -0.00000000000E+00 -0.00000000000E+00 -0.60469892008E+03  0.60469892008E+03  0.00000000000E+00 0.  1.
          2    1    1    2  501    0  0.22384952447E+02  0.91924057274E+01  0.82662256297E+01  0.25571799023E+02  0.00000000000E+00 0. -1.
          1    1    1    2  502    0 -0.22384952447E+02 -0.91924057274E+01 -0.59580052051E+03  0.59629174626E+03  0.00000000000E+00 0.  1.
</event>
<event>
 4    1  0.3593938E+003  0.2601571E+02  0.7546771E-02  0.1457754E+00
          2   -1    0    0  502    0  0.00000000000E+00  0.00000000000E+00  0.10287058605E+03  0.10287058605E+03  0.00000000000E+00 0.  1.
          1   -1    0    0  501    0 -0.00000000000E+00 -0.00000000000E+00 -0.44675710913E+02  0.44675710913E+02  0.00000000000E+00 0. -1.
          2    1    1    2  501    0  0.15147797062E+02 -0.21150924035E+02  0.97222131509E+02  0.10064273545E+03  0.00000000000E+00 0.  1.
          1    1    1    2  502    0 -0.15147797062E+02  0.21150924035E+02 -0.39027256369E+02  0.46903561518E+02  0.00000000000E+00 0. -1.
</event>
<event>
 4    1  0.3593938E+003  0.3371380E+02  0.7546771E-02  0.1389838E+00
          2   -1    0    0  502    0  0.00000000000E+00  0.00000000000E+00  0.88725273354E+02  0.88725273354E+02  0.00000000000E+00 0.  1.
          1   -1    0    0  501    0 -0.00000000000E+00 -0.00000000000E+00 -0.24764202345E+02  0.24764202345E+02  0.00000000000E+00 0.  1.
          2    1    1    2  501    0  0.77211030071E+01  0.32817747915E+02  0.71404803504E+02  0.78963700352E+02  0.00000000000E+00 0.  1.
          1    1    1    2  502    0 -0.77211030071E+01 -0.32817747915E+02 -0.74437324949E+01  0.34525775347E+02  0.00000000000E+00 0.  1.
</event>
<event>
 4    1  0.3593938E+003  0.3293161E+02  0.7546771E-02  0.1395718E+00
          2   -1    0    0  502    0  0.00000000000E+00  0.00000000000E+00  0.94171159788E+03  0.94171159788E+03  0.00000000000E+00 0.  1.
          1   -1    0    0  501    0 -0.00000000000E+00 -0.00000000000E+00 -0.11056820510E+02  0.11056820510E+02  0.00000000000E+00 0.  1.
          2    1    1    2  501    0 -0.20983536526E+02  0.25380740429E+02  0.91622084850E+03  0.91681248574E+03  0.00000000000E+00 0.  1.
          1    1    1    2  502    0  0.20983536526E+02 -0.25380740429E+02  0.14433928869E+02  0.35955932646E+02  0.00000000000E+00 0.  1.
</event>
<event>
 4    1  0.3593938E+003  0.2214026E+02  0.7546771E-02  0.1503586E+00
          2   -1    0    0  502    0  0.00000000000E+00  0.00000000000E+00  0.13957265522E+03  0.13957265522E+03  0.00000000000E+00 0. -1.
          1   -1    0    0  501    0 -0.00000000000E+00 -0.00000000000E+00 -0.51641552889E+02  0.51641552889E+02  0.00000000000E+00 0.  1.
          2    1    1    2  501    0 -0.16652906433E+02 -0.14590121452E+02  0.13626435018E+03  0.13805130954E+03  0.00000000000E+00 0. -1.
          1    1    1    2  502    0  0.16652906433E+02  0.14590121452E+02 -0.48333247848E+02  0.53162898568E+02  0.00000000000E+00 0.  1.
</event>
<event>
 4    1  0.3593938E+003  0.5185509E+02  0.7546771E-02  0.1290324E+00
          2   -1    0    0  502    0  0.00000000000E+00  0.00000000000E+00  0.58790357969E+03  0.58790357969E+03  0.00000000000E+00 0.  1.
          1   -1    0    0  501    0 -0.00000000000E+00 -0.00000000000E+00 -0.16331327217E+02  0.16331327217E+02  0.00000000000E+00 0.  1.
          2    1    1    2  501    0  0.35619861839E+01  0.51732608351E+02  0.54213012931E+03  0.54460446897E+03  0.00000000000E+00 0.  1.
          1    1    1    2  502    0 -0.35619861839E+01 -0.51732608351E+02  0.29442123158E+02  0.59630437936E+02  0.00000000000E+00 0.  1.
</event>
<event>
 4    1  0.3593938E+003  0.2691324E+02  0.7546771E-02  0.1448482E+00
          2   -1    0    0  502    0  0.00000000000E+00  0.00000000000E+00  0.17131778752E+04  0.17131778752E+04  0.00000000000E+00 0.  1.
          1   -1    0    0  501    0 -0.00000000000E+00 -0.00000000000E+00 -0.50532861949E+00  0.50532861949E+00  0.00000000000E+00 0.  1.
          2    1    1    2  501    0 -0.16990154606E+02  0.20872402853E+02  0.12026181702E+04  0.12029192765E+04  0.00000000000E+00 0.  1.
          1    1    1    2  502    0  0.16990154606E+02 -0.20872402853E+02  0.51005437641E+03  0.51076392731E+03  0.00000000000E+00 0.  1.
</event>
<event>
 4    1  0.3593938E+003  0.2560159E+02  0.7546771E-02  0.1462185E+00
          2   -1    0    0  502    0  0.00000000000E+00  0.00000000000E+00  0.14679473614E+01  0.14679473614E+01  0.00000000000E+00 0. -1.
          1   -1    0    0  501    0 -0.00000000000E+00 -0.00000000000E+00 -0.45095224420E+03  0.45095224420E+03  0.00000000000E+00 0. -1.
          2    1    1    2  501    0  0.25106671649E+02  0.50095901178E+01 -0.24721481083E+03  0.24853692613E+03  0.00000000000E+00 0. -1.
          1    1    1    2  502    0 -0.25106671649E+02 -0.50095901178E+01 -0.20226948601E+03  0.20388326543E+03  0.00000000000E+00 0. -1.
</event>
<event>
 4    1  0.3593938E+003  0.2009076E+02  0.7546771E-02  0.1532653E+00
          2   -1    0    0  502    0  0.00000000000E+00  0.00000000000E+00  0.50037978901E+03  0.50037978901E+03  0.00000000000E+00 0. -1.
          1   -1    0    0  501    0 -0.00000000000E+00 -0.00000000000E+00 -0.29609597952E+01  0.29609597952E+01  0.00000000000E+00 0.  1.
          2    1    1    2  501    0 -0.18092831851E+02  0.87343139400E+01  0.46337796212E+03  0.46381329711E+03  0.00000000000E+00 0. -1.
          1    1    1    2  502    0  0.18092831851E+02 -0.87343139400E+01  0.34040867096E+02  0.39527451689E+02  0.00000000000E+00 0.  1.
</event>
<event>
 4    1  0.4084033E+003  0.2238529E+02  0.7546771E-02  0.1500365E+00
          2   -1    0    0  502    0  0.00000000000E+00  0.00000000000E+00  0.72931691225E+03  0.72931691225E+03  0.00000000000E+00 0. -1.
          1   -1    0    0  501    0 -0.00000000000E+00 -0.00000000000E+00 -0.73600236622E+03  0.73600236622E+03  0.00000000000E+00 0. -1.
          2    1    1    2  501    0 -0.18347650667E+02  0.12824380660E+02  0.72897485133E+03  0.72931847288E+03  0.00000000000E+00 0. -1.
          1    1    1    2  502    0  0.18347650667E+02 -0.12824380660E+02 -0.73566030530E+03  0.73600080558E+03  0.00000000000E+00 0. -1.
</event>
<event>
 4    1  0.3593938E+003  0.5290966E+02  0.7546771E-02  0.1286027E+00
          2   -1    0    0  502    0  0.00000000000E+00  0.00000000000E+00  0.16474195900E+03  0.16474195900E+03  0.00000000000E+00 0. -1.
          1   -1    0    0  501    0 -0.00000000000E+00 -0.00000000000E+00 -0.23434896792E+02  0.23434896792E+02  0.00000000000E+00 0. -1.
          2    1    1    2  501    0 -0.43557263807E+02 -0.30036595371E+02  0.11998422933E+03  0.13113217599E+03  0.00000000000E+00 0. -1.
          1    1    1    2  502    0  0.43557263807E+02  0.30036595371E+02  0.21322832879E+02  0.57044679803E+02  0.00000000000E+00 0. -1.
</event>
<event>
 4    1  0.3593938E+003  0.3121102E+02  0.7546771E-02  0.1409357E+00
          2   -1    0    0  502    0  0.00000000000E+00  0.00000000000E+00  0.15431397877E+04  0.15431397877E+04  0.00000000000E+00 0. -1.
          1   -1    0    0  501    0 -0.00000000000E+00 -0.00000000000E+00 -0.81486239251E+00  0.81486239251E+00  0.00000000000E+00 0. -1.
          2    1    1    2  501    0 -0.25365054523E+02 -0.18186308757E+02  0.11375978774E+04  0.11380259481E+04  0.00000000000E+00 0. -1.
          1    1    1    2  502    0  0.25365054523E+02  0.18186308757E+02  0.40472704785E+03  0.40592870196E+03  0.00000000000E+00 0. -1.
</event>
<event>
 4    1  0.3593938E+003  0.2918605E+02  0.7546771E-02  0.1426804E+00
          2   -1    0    0  502    0  0.00000000000E+00  0.00000000000E+00  0.11452712296E+02  0.11452712296E+02  0.00000000000E+00 0.  1.
          1   -1    0    0  501    0 -0.00000000000E+00 -0.00000000000E+00 -0.28283881578E+03  0.28283881578E+03  0.00000000000E+00 0. -1.
          2    1    1    2  501    0  0.11779678063E+02  0.26703273093E+02 -0.93675999585E+01  0.30652529066E+02  0.00000000000E+00 0.  1.
          1    1    1    2  502    0 -0.11779678063E+02 -0.26703273093E+02 -0.26201850353E+03  0.26363899901E+03  0.00000000000E+00 0. -1.
</event>
<event>
 4    1  0.3593938E+003  0.3169910E+02  0.7546771E-02  0.1405384E+00
          2   -1    0    0  502    0  0.00000000000E+00  0.00000000000E+00  0.14732533506E+04  0.14732533506E+04  0.00000000000E+00 0.  1.
          1   -1    0    0  501    0 -0.00000000000E+00 -0.00000000000E+00 -0.41201906663E+01  0.41201906663E+01  0.00000000000E+00 0. -1.
          2    1    1    2  501    0  0.20926765858E+02 -0.23809734304E+02  0.14093485380E+04  0.14097049814E+04  0.00000000000E+00 0.  1.
          1    1    1    2  502    0 -0.20926765858E+02  0.23809734304E+02  0.59784621945E+02  0.67668559893E+02  0.00000000000E+00 0. -1.
</event>
<event>
 4    1  0.3593938E+003  0.2037840E+02  0.7546771E-02  0.1528328E+00
          2   -1    0    0  502    0  0.00000000000E+00  0.00000000000E+00  0.21551676195E+03  0.21551676195E+03  0.00000000000E+00 0.  1.
          1   -1    0    0  501    0 -0.00000000000E+00 -0.00000000000E+00 -0.60484795249E+02  0.60484795249E+02  0.00000000000E+00 0. -1.
          2    1    1    2  501    0 -0.72289961769E+01  0.19053105658E+02  0.21330078399E+03  0.21427203194E+03  0.00000000000E+00 0.  1.
          1    1    1    2  502    0  0.72289961769E+01 -0.19053105658E+02 -0.58268817286E+02  0.61729525261E+02  0.00000000000E+00 0. -1.
</event>
<event>
 4    1  0.3593938E+003  0.2686461E+02  0.7546771E-02  0.1448973E+00
          2   -1    0    0  502    0  0.00000000000E+00  0.00000000000E+00  0.18177338214E+03  0.18177338214E+03  0.00000000000E+00 0.  1.
          1   -1    0    0  501    0 -0.00000000000E+00 -0.00000000000E+00 -0.13573658174E+03  0.13573658174E+03  0.00000000000E+00 0.  1.
          2    1    1    2  501    0 -0.63860655685E+01  0.26094544297E+02  0.17943431664E+03  0.18143423344E+03  0.00000000000E+00 0.  1.
          1    1    1    2  502    0  0.63860655685E+01 -0.26094544297E+02 -0.13339751624E+03  0.13607573044E+03  0.00000000000E+00 0.  1.
</event>
<event>
 4    1  0.3593938E+003  0.2121598E+02  0.7546771E-02  0.1516203E+00
          2   -1    0    0  502    0  0.00000000000E+00  0.00000000000E+00  0.21116130614E+03  0.21116130614E+03  0.00000000000E+00 0. -1.
          1   -1    0    0  501    0 -0.00000000000E+00 -0.00000000000E+00 -0.29468433686E+01  0.29468433686E+01  0.00000000000E+00 0. -1.
          2    1    1    2  501    0 -0.20427183969E+02 -0.57313168814E+01  0.16041395313E+03  0.16181085933E+03  0.00000000000E+00 0. -1.
          1    1    1    2  502    0  0.20427183969E+02  0.57313168814E+01  0.47800509639E+02  0.52297290177E+02  0.00000000000E+00 0. -1.
</event>
<event>
 4    1  0.3593938E+003  0.2397159E+02  0.7546771E-02  0.1480645E+00
          2   -1    0    0  502    0  0.00000000000E+00  0.00000000000E+00  0.18963649524E+01  0.18963649524E+01  0.00000000000E+00 0.  1.
          1   -1    0    0  501    0 -0.00000000000E+00 -0.00000000000E+00 -0.39276576159E+03  0.39276576159E+03  0.00000000000E+00 0.  1.
          2    1    1    2  501    0  0.22661279524E+02  0.78168422824E+01 -0.28976158154E+03  0.29075145872E+03  0.00000000000E+00 0.  1.
          1    1    1    2  502    0 -0.22661279524E+02 -0.78168422824E+01 -0.10110781510E+03  0.10391066782E+03  0.00000000000E+00 0.  1.
</event>
<event>
 4    1  0.3593938E+003  0.2128579E+02  0.7546771E-02  0.1515223E+00
          2   -1    0    0  502    0  0.00000000000E+00  0.00000000000E+00  0.80983577916E+00  0.80983577916E+00  0.00000000000E+00 0.  1.
          1   -1    0    0  501    0 -0.00000000000E+00 -0.00000000000E+00 -0.12003529309E+04  0.12003529309E+04  0.00000000000E+00 0. -1.
          2    1    1    2  501    0  0.14066555631E+02  0.15975509988E+02 -0.16093358045E+03  0.16233515400E+03  0.00000000000E+00 0.  1.
          1    1    1    2  502    0 -0.14066555631E+02 -0.15975509988E+02 -0.10386095147E+04  0.10388276127E+04  0.00000000000E+00 0. -1.
</event>
<event>
 4    1  0.3593938E+003  0.2699693E+02  0.7546771E-02  0.1447639E+00
          2   -1    0    0  502    0  0.00000000000E+00  0.00000000000E+00  0.46788676688E+03  0.46788676688E+03  0.00000000000E+00 0. -1.
          1   -1    0    0  501    0 -0.00000000000E+00 -0.00000000000E+00 -0.16566880182E+02  0.16566880182E+02  0.00000000000E+00 0. -1.
          2    1    1    2  501    0  0.17605340072E+02 -0.20466705654E+02  0.45621791516E+03  0.45701599551E+03  0.00000000000E+00 0. -1.
          1    1    1    2  502    0 -0.17605340072E+02  0.20466705654E+02 -0.48980284695E+01  0.27437651545E+02  0.00000000000E+00 0. -1.
</event>
<event>
 4    1  0.3593938E+003  0.5000999E+02  0.7546771E-02  0.1298129E+00
          2   -1    0    0  502    0  0.00000000000E+00  0.00000000000E+00  0.31326462330E+03  0.31326462330E+03  0.00000000000E+00 0.  1.
          1   -1    0    0  501    0 -0.00000000000E+00 -0.00000000000E+00 -0.21119300846E+03  0.21119300846E+03  0.00000000000E+00 0.  1.
          2    1    1    2  501    0 -0.40456782613E+02  0.29398091547E+02  0.30826039787E+03  0.31229068501E+03  0.00000000000E+00 0.  1.
          1    1    1    2  502    0  0.40456782613E+02 -0.29398091547E+02 -0.20618878303E+03  0.21216694675E+03  0.00000000000E+00 0.  1.
</event>
<event>
 4    1  0.3593938E+003  0.2318599E+02  0.7546771E-02  0.1490176E+00
          2   -1    0    0  502    0  0.00000000000E+00  0.00000000000E+00  0.20017592138E+04  0.20017592138E+04  0.00000000000E+00 0.  1.
          1   -1    0    0  501    0 -0.00000000000E+00 -0.00000000000E+00 -0.27854206416E+00  0.27854206416E+00  0.00000000000E+00 0. -1.
          2    1    1    2  501    0 -0.21082104090E+02  0.96506470625E+01  0.11902505487E+04  0.11904763579E+04  0.00000000000E+00 0.  1.
          1    1    1    2  502    0  0.21082104090E+02 -0.96506470625E+01  0.81123012310E+03  0.81156139800E+03  0.00000000000E+00 0. -1.
</event>
<event>
 4    1  0.3593938E+003  0.5429240E+02  0.7546771E-02  0.1280563E+00
          2   -1    0    0  502    0  0.00000000000E+00  0.00000000000E+00  0.12396341792E+04  0.12396341792E+04  0.00000000000E+00 0.  1.
          1   -1    0    0  501    0 -0.00000000000E+00 -0.00000000000E+00 -0.29396658412E+04  0.29396658412E+04  0.00000000000E+00 0.  1.
          2    1    1    2  501    0 -0.53132333917E+02 -0.11163336919E+02  0.12387888653E+04  0.12399780311E+04  0.00000000000E+00 0.  1.
          1    1    1    2  502    0  0.53132333917E+02  0.11163336919E+02 -0.29388205273E+04  0.29393219893E+04  0.00000000000E+00 0.  1.
</event>
<event>
 4    1  0.3593938E+003  0.4000087E+02  0.7546771E-02  0.1348481E+00
          2   -1    0    0  502    0  0.00000000000E+00  0.00000000000E+00  0.10155397110E+04  0.10155397110E+04  0.00000000000E+00 0.  1.
          1   -1    0    0  501    0 -0.00000000000E+00 -0.00000000000E+00 -0.12113009835E+02  0.12113009835E+02  0.00000000000E+00 0.  1.
          2    1    1    2  501    0  0.35784230125E+02 -0.17876193488E+02  0.98095834443E+03  0.98177357009E+03  0.00000000000E+00 0.  1.
          1    1    1    2  502    0 -0.35784230125E+02  0.17876193488E+02  0.22468356744E+02  0.45879150756E+02  0.00000000000E+00 0.  1.
</event>
<event>
 4    1  0.3593938E+003  0.2275194E+02  0.7546771E-02  0.1495637E+00
          2   -1    0    0  502    0  0.00000000000E+00  0.00000000000E+00  0.50909282182E+02  0.50909282182E+02  0.00000000000E+00 0. -1.
          1   -1    0    0  501    0 -0.00000000000E+00 -0.00000000000E+00 -0.31469672639E+03  0.31469672639E+03  0.00000000000E+00 0.  1.
          2    1    1    2  501    0 -0.91802784306E+00  0.22733410163E+02  0.47931778302E+02  0.53057573295E+02  0.00000000000E+00 0. -1.
          1    1    1    2  502    0  0.91802784306E+00 -0.22733410163E+02 -0.31171922251E+03  0.31254843528E+03  0.00000000000E+00 0.  1.
</event>
<event>
 4    1  0.3593938E+003  0.5269015E+02  0.7546771E-02  0.1286912E+00
          2   -1    0    0  502    0  0.00000000000E+00  0.00000000000E+00  0.78901636436E+01  0.78901636436E+01  0.00000000000E+00 0.  1.
          1   -1    0    0  501    0 -0.00000000000E+00 -0.00000000000E+00 -0.35508232090E+03  0.35508232090E+03  0.00000000000E+00 0.  1.
          2    1    1    2  501    0  0.49211535502E+02  0.18827548876E+02 -0.15631373727E+03  0.16495525539E+03  0.00000000000E+00 0.  1.
          1    1    1    2  502    0 -0.49211535502E+02 -0.18827548876E+02 -0.19087841999E+03  0.19801722915E+03  0.00000000000E+00 0.  1.
</event>
<event>
 4    1  0.3593938E+003  0.9622661E+02  0.7546771E-02  0.1170512E+00
          2   -1    0    0  502    0  0.00000000000E+00  0.00000000000E+00  0.30325623449E+02  0.30325623449E+02  0.00000000000E+00 0.  1.
          1   -1    0    0  501    0 -0.00000000000E+00 -0.00000000000E+00 -0.10342955643E+04  0.10342955643E+04  0.00000000000E+00 0.  1.
          2    1    1    2  501    0  0.36033693406E+02  0.89225183312E+02 -0.55101851808E+02  0.11088631327E+03  0.00000000000E+00 0.  1.
          1    1    1    2  502    0 -0.36033693406E+02 -0.89225183312E+02 -0.94886808901E+03  0.95373487444E+03  0.00000000000E+00 0.  1.
</event>
<event>
 4    1  0.3593938E+003  0.2083051E+02  0.7546771E-02  0.1521699E+00
          2   -1    0    0  502    0  0.00000000000E+00  0.00000000000E+00  0.14319631824E+04  0.14319631824E+04  0.00000000000E+00 0. -1.
          1   -1    0    0  501    0 -0.00000000000E+00 -0.00000000000E+00 -0.15725236896E+02  0.15725236896E+02  0.00000000000E+00 0.  1.
          2    1    1    2  501    0 -0.98185363602E+00 -0.20807360432E+02  0.14249551928E+04  0.14251074387E+04  0.00000000000E+00 0. -1.
          1    1    1    2  502    0  0.98185363602E+00  0.20807360432E+02 -0.87172473054E+01  0.22580980610E+02  0.00000000000E+00 0.  1.
</event>
<event>
 4    1  0.3593938E+003  0.3070113E+02  0.7546771E-02  0.1413600E+00
          2   -1    0    0  502    0  0.00000000000E+00  0.00000000000E+00  0.36428207268E+01  0.36428207268E+01  0.00000000000E+00 0. -1.
          1   -1    0    0  501    0 -0.00000000000E+00 -0.00000000000E+00 -0.34432931451E+03  0.34432931451E+03  0.00000000000E+00 0.  1.
          2    1    1    2  501    0 -0.15189917780E+02  0.26680065223E+02 -0.83601918132E+02  0.89060879166E+02  0.00000000000E+00 0. -1.
          1    1    1    2  502    0  0.15189917780E+02 -0.26680065223E+02 -0.25708457565E+03  0.25891125607E+03  0.00000000000E+00 0.  1.
</event>
<event>
 4    1  0.3593938E+003  0.4710567E+02  0.7546771E-02  0.1311234E+00
          2   -1    0    0  502    0  0.00000000000E+00  0.00000000000E+00  0.29707839601E+03  0.29707839601E+03  0.00000000000E+00 0. -1.
          1   -1    0    0  501    0 -0.00000000000E+00 -0.00000000000E+00 -0.10661684766E+04  0.10661684766E+04  0.00000000000E+00 0.  1.
          2    1    1    2  501    0  0.37492696011E+02 -0.28517397771E+02  0.29468658625E+03  0.29842776068E+03  0.00000000000E+00 0. -1.
          1    1    1    2  502    0 -0.37492696011E+02  0.28517397771E+02 -0.10637766669E+04  0.10648191119E+04  0.00000000000E+00 0.  1.
</event>
<event>
 4    1  0.3593938E+003  0.6953331E+02  0.7546771E-02  0.1230483E+00
          2   -1    0    0  502    0  0.00000000000E+00  0.00000000000E+00  0.56635252633E+02  0.56635252633E+02  0.00000000000E+00 0. -1.
          1   -1    0    0  501    0 -0.00000000000E+00 -0.00000000000E+00 -0.85385643608E+02  0.85385643608E+02  0.00000000000E+00 0. -1.
          2    1    1    2  501    0  0.30882745222E+02 -0.62298774945E+02 -0.13376674170E+02  0.70808309710E+02  0.00000000000E+00 0. -1.
          1    1    1    2  502    0 -0.30882745222E+02  0.62298774945E+02 -0.15373716806E+02  0.71212586532E+02  0.00000000000E+00 0. -1.
</event>
<event>
 4    1  0.3593938E+003  0.2032738E+02  0.7546771E-02  0.1529089E+00
          2   -1    0    0  502    0  0.00000000000E+00  0.00000000000E+00  0.55489541895E+03  0.55489541895E+03  0.00000000000E+00 0. -1.
          1   -1    0    0  501    0 -0.00000000000E+00 -0.00000000000E+00 -0.18333903431E+02  0.18333903431E+02  0.00000000000E+00 0. -1.
          2    1    1    2  501    0 -0.69983868304E+01 -0.19084673985E+02  0.54901452300E+03  0.54939070676E+03  0.00000000000E+00 0. -1.
          1    1    1    2  502    0  0.69983868304E+01  0.19084673985E+02 -0.12453007488E+02  0.23838615623E+02  0.00000000000E+00 0. -1.
</event>
<event>
 4    1  0.3593938E+003  0.3576783E+02  0.7546771E-02  0.1375244E+00
          2   -1    0    0  502    0  0.00000000000E+00  0.00000000000E+00  0.26151948374E+02  0.26151948374E+02  0.00000000000E+00 0.  1.
          1   -1    0    0  501    0 -0.00000000000E+00 -0.00000000000E+00 -0.54848919555E+02  0.54848919555E+02  0.00000000000E+00 0. -1.
          2    1    1    2  501    0 -0.25416736815E+02 -0.25165991816E+02 -0.10321311108E+01  0.35782718581E+02  0.00000000000E+00 0.  1.
          1    1    1    2  502    0  0.25416736815E+02  0.25165991816E+02 -0.27664840070E+02  0.45218149348E+02  0.00000000000E+00 0. -1.
</event>
<event>
 4    1  0.3593938E+003  0.2447531E+02  0.7546771E-02  0.1474759E+00
          2   -1    0    0  502    0  0.00000000000E+00  0.00000000000E+00  0.13978339961E+04  0.13978339961E+04  0.00000000000E+00 0. -1.
          1   -1    0    0  501    0 -0.00000000000E+00 -0.00000000000E+00 -0.72817725796E+00  0.72817725796E+00  0.00000000000E+00 0. -1.
          2    1    1    2  501    0  0.24079648830E+02 -0.43830485155E+01  0.11471169822E+04  0.11473780595E+04  0.00000000000E+00 0. -1.
          1    1    1    2  502    0 -0.24079648830E+02  0.43830485155E+01  0.24998883666E+03  0.25118411387E+03  0.00000000000E+00 0. -1.
</event>
<event>
 4    1  0.3593938E+003  0.3589414E+02  0.7546771E-02  0.1374384E+00
          2   -1    0    0  502    0  0.00000000000E+00  0.00000000000E+00  0.89802877773E+03  0.89802877773E+03  0.00000000000E+00 0.  1.
          1   -1    0    0  501    0 -0.00000000000E+00 -0.00000000000E+00 -0.69414203033E+01  0.69414203033E+01  0.00000000000E+00 0.  1.
          2    1    1    2  501    0 -0.34174117226E+02 -0.10978103838E+02  0.84856422167E+03  0.84932304063E+03  0.00000000000E+00 0.  1.
          1    1    1    2  502    0  0.34174117226E+02  0.10978103838E+02  0.42523135754E+02  0.55647157397E+02  0.00000000000E+00 0.  1.
</event>
<event>
 4    1  0.3593938E+003  0.2692455E+02  0.7546771E-02  0.1448367E+00
          2   -1    0    0  502    0  0.00000000000E+00  0.00000000000E+00  0.22840883837E+02  0.22840883837E+02  0.00000000000E+00 0. -1.
          1   -1    0    0  501    0 -0.00000000000E+00 -0.00000000000E+00 -0.28714411580E+03  0.28714411580E+03  0.00000000000E+00 0. -1.
          2    1    1    2  501    0 -0.18305535959E+02  0.19744337289E+02  0.14024388966E+02  0.30358112386E+02  0.00000000000E+00 0. -1.
          1    1    1    2  502    0  0.18305535959E+02 -0.19744337289E+02 -0.27832762093E+03  0.27962688725E+03  0.00000000000E+00 0. -1.
</event>
<event>
 4    1  0.3593938E+003  0.2198844E+02  0.7546771E-02  0.1505607E+00
          2   -1    0    0  502    0  0.00000000000E+00  0.00000000000E+00  0.22512990847E+02  0.22512990847E+02  0.00000000000E+00 0. -1.
          1   -1    0    0  501    0 -0.00000000000E+00 -0.00000000000E+00 -0.26398119847E+03  0.26398119847E+03  0.00000000000E+00 0.  1.
          2    1    1    2  501    0  0.10183394587E+02 -0.19488197031E+02  0.16562488077E+02  0.27528301076E+02  0.00000000000E+00 0. -1.
          1    1    1    2  502    0 -0.10183394587E+02  0.19488197031E+02 -0.25803069570E+03  0.25896588824E+03  0.00000000000E+00 0.  1.
</event>
<event>
 4    1  0.3593938E+003  0.2195365E+02  0.7546771E-02  0.1506072E+00
          2   -1    0    0  502    0  0.00000000000E+00  0.00000000000E+00  0.15027471262E+03  0.15027471262E+03  0.00000000000E+00 0.  1.
          1   -1    0    0  501    0 -0.00000000000E+00 -0.00000000000E+00 -0.24993818549E+02  0.24993818549E+02  0.00000000000E+00 0.  1.
          2    1    1    2  501    0 -0.16327960651E+02  0.14675159429E+02  0.14445912493E+03  0.14611776545E+03  0.00000000000E+00 0.  1.
          1    1    1    2  502    0  0.16327960651E+02 -0.14675159429E+02 -0.19178230859E+02  0.29150765722E+02  0.00000000000E+00 0.  1.
</event>
<event>
 4    1  0.3593938E+003  0.3067753E+02  0.7546771E-02  0.1413798E+00
          2   -1    0    0  502    0  0.00000000000E+00  0.00000000000E+00  0.10009520845E+03  0.10009520845E+03  0.00000000000E+00 0. -1.
          1   -1    0    0  501    0 -0.00000000000E+00 -0.00000000000E+00 -0.11460846414E+03  0.11460846414E+03  0.00000000000E+00 0.  1.
          2    1    1    2  501    0  0.25761487135E+02  0.16657022994E+02  0.95597570680E+02  0.10039923383E+03  0.00000000000E+00 0. -1.
          1    1    1    2  502    0 -0.25761487135E+02 -0.16657022994E+02 -0.11011082637E+03  0.11430443875E+03  0.00000000000E+00 0.  1.
</event>
<event>
 4    1  0.3593938E+003  0.6208008E+02  0.7546771E-02  0.1252924E+00
          2   -1    0    0  502    0  0.00000000000E+00  0.00000000000E+00  0.12024815087E+04  0.12024815087E+04  0.00000000000E+00 0.  1.
          1   -1    0    0  501    0 -0.00000000000E+00 -0.00000000000E+00 -0.10815822989E+03  0.10815822989E+03  0.00000000000E+00 0.  1.
          2    1    1    2  501    0 -0.37688465321E+02 -0.49330680617E+02  0.11926991505E+04  0.11943136942E+04  0.00000000000E+00 0.  1.
          1    1    1    2  502    0  0.37688465321E+02  0.49330680617E+02 -0.98375871723E+02  0.11632604440E+03  0.00000000000E+00 0.  1.
</event>
<event>
 4    1  0.3593938E+003  0.2767300E+02  0.7546771E-02  0.1440962E+00
          2   -1    0    0  502    0  0.00000000000E+00  0.00000000000E+00  0.87884540622E+03  0.87884540622E+03  0.00000000000E+00 0.  1.
          1   -1    0    0  501    0 -0.00000000000E+00 -0.00000000000E+00 -0.48678968153E+01  0.48678968153E+01  0.00000000000E+00 0. -1.
          2    1    1    2  501    0 -0.88877683974E+01  0.26206920633E+02  0.83735029655E+03  0.83780744461E+03  0.00000000000E+00 0.  1.
          1    1    1    2  502    0  0.88877683974E+01 -0.26206920633E+02  0.36627212861E+02  0.45905858429E+02  0.00000000000E+00 0. -1.
</event>
<event>
 4    1  0.3593938E+003  0.2430527E+02  0.7546771E-02  0.1476728E+00
          2   -1    0    0  502    0  0.00000000000E+00  0.00000000000E+00  0.25465121446E+02  0.25465121446E+02  0.00000000000E+00 0. -1.
          1   -1    0    0  501    0 -0.00000000000E+00 -0.00000000000E+00 -0.81548969197E+03  0.81548969197E+03  0.00000000000E+00 0.  1.
          2    1    1    2  501    0  0.23371832063E+02 -0.66710978528E+01  0.19441310072E+02  0.31124116338E+02  0.00000000000E+00 0. -1.
          1    1    1    2  502    0 -0.23371832063E+02  0.66710978528E+01 -0.80946588059E+03  0.80983069707E+03  0.00000000000E+00 0.  1.
</event>
<event>
 4    1  0.3593938E+003  0.7035504E+02  0.7546771E-02  0.1228204E+00
          2   -1    0    0  502    0  0.00000000000E+00  0.00000000000E+00  0.11750417149E+03  0.11750417149E+03  0.00000000000E+00 0.  1.
          1   -1    0    0  501    0 -0.00000000000E+00 -0.00000000000E+00 -0.15254972419E+03  0.15254972419E+03  0.00000000000E+00 0.  1.
          2    1    1    2  501    0 -0.46318564287E+02  0.52956793486E+02  0.97358283131E+02  0.12011855256E+03  0.00000000000E+00 0.  1.
          1    1    1    2  502    0  0.46318564287E+02 -0.52956793486E+02 -0.13240383583E+03  0.14993534312E+03  0.00000000000E+00 0.  1.
</event>
<event>
 4    1  0.3593938E+003  0.2526790E+02  0.7546771E-02  0.1465829E+00
          2   -1    0    0  502    0  0.00000000000E+00  0.00000000000E+00  0.35100697555E+02  0.35100697555E+02  0.00000000000E+00 0. -1.
          1   -1    0    0  501    0 -0.00000000000E+00 -0.00000000000E+00 -0.25548786680E+02  0.25548786680E+02  0.00000000000E+00 0. -1.
          2    1    1    2  501    0 -0.20771313163E+02 -0.14388167785E+02  0.21051202129E+02  0.32887990723E+02  0.00000000000E+00 0. -1.
          1    1    1    2  502    0  0.20771313163E+02  0.14388167785E+02 -0.11499291253E+02  0.27761493512E+02  0.00000000000E+00 0. -1.
</event>
<event>
 4    1  0.3593938E+003  0.2431784E+02  0.7546771E-02  0.1476581E+00
          2   -1    0    0  502    0  0.00000000000E+00  0.00000000000E+00  0.87963778435E+03  0.87963778435E+03  0.00000000000E+00 0.  1.
          1   -1    0    0  501    0 -0.00000000000E+00 -0.00000000000E+00 -0.17723095530E+03  0.17723095530E+03  0.00000000000E+00 0.  1.
          2    1    1    2  501    0  0.24188480453E+02 -0.25049366363E+01  0.87863460174E+03  0.87897105793E+03  0.00000000000E+00 0.  1.
          1    1    1    2  502    0 -0.24188480453E+02  0.25049366363E+01 -0.17622777269E+03  0.17789768172E+03  0.00000000000E+00 0.  1.
</event>
<event>
 4    1  0.3593938E+003  0.2041514E+02  0.7546771E-02  0.1527781E+00
          2   -1    0    0  502    0  0.00000000000E+00  0.00000000000E+00  0.12991097620E+03  0.12991097620E+03  0.00000000000E+00 0. -1.
          1   -1    0    0  501    0 -0.00000000000E+00 -0.00000000000E+00 -0.13717381866E+02  0.13717381866E+02  0.00000000000E+00 0.  1.
          2    1    1    2  501    0  0.17061173678E+02 -0.11211352394E+02  0.12095463081E+03  0.12266540174E+03  0.00000000000E+00 0. -1.
          1    1    1    2  502    0 -0.17061173678E+02  0.11211352394E+02 -0.47610364724E+01  0.20962956330E+02  0.00000000000E+00 0.  1.
</event>
<event>
 4    1  0.3593938E+003  0.3497250E+02  0.7546771E-02  0.1380757E+00
          2   -1    0    0  502    0  0.00000000000E+00  0.00000000000E+00  0.19268712091E+04  0.19268712091E+04  0.00000000000E+00 0. -1.
          1   -1    0    0  501    0 -0.00000000000E+00 -0.00000000000E+00 -0.11439538678E+02  0.11439538678E+02  0.00000000000E+00 0.  1.
          2    1    1    2  501    0  0.30853154023E+02 -0.16466896648E+02  0.18995996863E+04  0.18999215889E+04  0.00000000000E+00 0. -1.
          1    1    1    2  502    0 -0.30853154023E+02  0.16466896648E+02  0.15831984138E+02  0.38389158888E+02  0.00000000000E+00 0.  1.
</event>
<event>
 4    1  0.3593938E+003  0.2331991E+02  0.7546771E-02  0.1488520E+00
          2   -1    0    0  502    0  0.00000000000E+00  0.00000000000E+00  0.82881070792E+02  0.82881070792E+02  0.00000000000E+00 0.  1.
          1   -1    0    0  501    0 -0.00000000000E+00 -0.00000000000E+00 -0.20694324723E+02  0.20694324723E+02  0.00000000000E+00 0. -1.
          2    1    1    2  501    0  0.11084495750E+02  0.20517113073E+02  0.73890696126E+02  0.77483243020E+02  0.00000000000E+00 0.  1.
          1    1    1    2  502    0 -0.11084495750E+02 -0.20517113073E+02 -0.11703950057E+02  0.26092152495E+02  0.00000000000E+00 0. -1.
</event>
<event>
 4    1  0.3593938E+003  0.2516927E+02  0.7546771E-02  0.1466919E+00
          2   -1    0    0  502    0  0.00000000000E+00  0.00000000000E+00  0.22659839429E+03  0.22659839429E+03  0.00000000000E+00 0.  1.
          1   -1    0    0  501    0 -0.00000000000E+00 -0.00000000000E+00 -0.61327344646E+03  0.61327344646E+03  0.00000000000E+00 0.  1.
          2    1    1    2  501    0 -0.13456142656E+02 -0.21270267095E+02  0.22564014393E+03  0.22703957054E+03  0.00000000000E+00 0.  1.
          1    1    1    2  502    0  0.13456142656E+02  0.21270267095E+02 -0.61231519610E+03  0.61283227021E+03  0.00000000000E+00 0.  1.
</event>
<event>
 4    1  0.3593938E+003  0.2361547E+02  0.7546771E-02  0.1484911E+00
          2   -1    0    0  502    0  0.00000000000E+00  0.00000000000E+00  0.97786602726E+02  0.97786602726E+02  0.00000000000E+00 0.  1.
          1   -1    0    0  501    0 -0.00000000000E+00 -0.00000000000E+00 -0.89346523079E+01  0.89346523079E+01  0.00000000000E+00 0. -1.
          2    1    1    2  501    0 -0.13391349511E+02 -0.19451529770E+02  0.76517127009E+02  0.80078467630E+02  0.00000000000E+00 0.  1.
          1    1    1    2  502    0  0.13391349511E+02  0.19451529770E+02  0.12334823409E+02  0.26642787404E+02  0.00000000000E+00 0. -1.
</event>
<event>
 4    1  0.3593938E+003  0.3390052E+02  0.7546771E-02  0.1388462E+00
          2   -1    0    0  502    0  0.00000000000E+00  0.00000000000E+00  0.47420132860E+02  0.47420132860E+02  0.00000000000E+00 0.  1.
          1   -1    0    0  501    0 -0.00000000000E+00 -0.00000000000E+00 -0.74744001788E+02  0.74744001788E+02  0.00000000000E+00 0. -1.
          2    1    1    2  501    0  0.16736636071E+02  0.29481011889E+02  0.36550156095E+02  0.49851368683E+02  0.00000000000E+00 0.  1.
          1    1    1    2  502    0 -0.16736636071E+02 -0.29481011889E+02 -0.63874025023E+02  0.72312765965E+02  0.00000000000E+00 0. -1.
</event>
<event>
 4    1  0.3593938E+003  0.2728844E+02  0.7546771E-02  0.1444732E+00
          2   -1    0    0  502    0  0.00000000000E+00  0.00000000000E+00  0.18432098120E+03  0.18432098120E+03  0.00000000000E+00 0.  1.
          1   -1    0    0  501    0 -0.00000000000E+00 -0.00000000000E+00 -0.38694154432E+02  0.38694154432E+02  0.00000000000E+00 0.  1.
          2    1    1    2  501    0 -0.21440577357E+02  0.16880777002E+02  0.17833935605E+03  0.18041503515E+03  0.00000000000E+00 0.  1.
          1    1    1    2  502    0  0.21440577357E+02 -0.16880777002E+02 -0.32712529282E+02  0.42600100489E+02  0.00000000000E+00 0.  1.
</event>
<event>
 4    1  0.3593938E+003  0.2006788E+02  0.7546771E-02  0.1533001E+00
          2   -1    0    0  502    0  0.00000000000E+00  0.00000000000E+00  0.65210812175E+03  0.65210812175E+03  0.00000000000E+00 0.  1.
          1   -1    0    0  501    0 -0.00000000000E+00 -0.00000000000E+00 -0.13437342571E+02  0.13437342571E+02  0.00000000000E+00 0.  1.
          2    1    1    2  501    0  0.13508087859E+02 -0.14840868441E+02  0.64437124056E+03  0.64468365535E+03  0.00000000000E+00 0.  1.
          1    1    1    2  502    0 -0.13508087859E+02  0.14840868441E+02 -0.57004613798E+01  0.20861808973E+02  0.00000000000E+00 0.  1.
</event>
<event>
 4    1  0.3593938E+003  0.3006635E+02  0.7546771E-02  0.1419021E+00
          2   -1    0    0  502    0  0.00000000000E+00  0.00000000000E+00  0.36974105640E+02  0.36974105640E+02  0.00000000000E+00 0. -1.
          1   -1    0    0  501    0 -0.00000000000E+00 -0.00000000000E+00 -0.68038262653E+02  0.68038262653E+02  0.00000000000E+00 0.  1.
          2    1    1    2  501    0 -0.29965496434E+02 -0.24605653759E+01  0.26494387969E+02  0.40074155667E+02  0.00000000000E+00 0. -1.
          1    1    1    2  502    0  0.29965496434E+02  0.24605653759E+01 -0.57558544982E+02  0.64938212626E+02  0.00000000000E+00 0.  1.
</event>
<event>
 4    1  0.3593938E+003  0.3245859E+02  0.7546771E-02  0.1399368E+00
          2   -1    0    0  502    0  0.00000000000E+00  0.00000000000E+00  0.21972136823E+01  0.21972136823E+01  0.00000000000E+00 0. -1.
          1   -1    0    0  501    0 -0.00000000000E+00 -0.00000000000E+00 -0.95325837751E+03  0.95325837751E+03  0.00000000000E+00 0. -1.
          2    1    1    2  501    0  0.29411562419E+02  0.13730268904E+02 -0.13874428503E+03  0.14249048009E+03  0.00000000000E+00 0. -1.
          1    1    1    2  502    0 -0.29411562419E+02 -0.13730268904E+02 -0.81231687880E+03  0.81296511110E+03  0.00000000000E+00 0. -1.
</event>
<event>
 4    1  0.3593938E+003  0.2266327E+02  0.7546771E-02  0.1496770E+00
          2   -1    0    0  502    0  0.00000000000E+00  0.00000000000E+00  0.38571726064E+02  0.38571726064E+02  0.00000000000E+00 0. -1.
          1   -1    0    0  501    0 -0.00000000000E+00 -0.00000000000E+00 -0.62615584596E+02  0.62615584596E+02  0.00000000000E+00 0.  1.
          2    1    1    2  501    0  0.22355242970E+02 -0.37238090639E+01  0.32870817453E+02  0.39926360744E+02  0.00000000000E+00 0. -1.
          1    1    1    2  502    0 -0.22355242970E+02  0.37238090639E+01 -0.56914675985E+02  0.61260949917E+02  0.00000000000E+00 0.  1.
</event>
<event>
 4    1  0.3593938E+003  0.2572578E+02  0.7546771E-02  0.1460846E+00
          2   -1    0    0  502    0  0.00000000000E+00  0.00000000000E+00  0.16979771859E+02  0.16979771859E+02  0.00000000000E+00 0.  1.
          1   -1    0    0  501    0 -0.00000000000E+00 -0.00000000000E+00 -0.53547993979E+02  0.53547993979E+02  0.00000000000E+00 0. -1.
          2    1    1    2  501    0 -0.22974420249E+02 -0.11575472554E+02  0.11121629314E+00  0.25726016397E+02  0.00000000000E+00 0.  1.
          1    1    1    2  502    0  0.22974420249E+02  0.11575472554E+02 -0.36679438413E+02  0.44801749440E+02  0.00000000000E+00 0. -1.
</event>
<event>
 4    1  0.3593938E+003  0.2237302E+02  0.7546771E-02  0.1500525E+00
          2   -1    0    0  502    0  0.00000000000E+00  0.00000000000E+00  0.73246992506E+03  0.73246992506E+03  0.00000000000E+00 0.  1.
          1   -1    0    0  501    0 -0.00000000000E+00 -0.00000000000E+00 -0.16936211743E+01  0.16936211743E+01  0.00000000000E+00 0.  1.
          2    1    1    2  501    0 -0.11878304432E+02 -0.18959372166E+02  0.64889803984E+03  0.64928361908E+03  0.00000000000E+00 0.  1.
          1    1    1    2  502    0  0.11878304432E+02  0.18959372166E+02  0.81878264050E+02  0.84879927149E+02  0.00000000000E+00 0.  1.
</event>
<event>
 4    1  0.3593938E+003  0.4072721E+02  0.7546771E-02  0.1344276E+00
          2   -1    0    0  502    0  0.00000000000E+00  0.00000000000E+00  0.37503924590E+02  0.37503924590E+02  0.00000000000E+00 0.  1.
          1   -1    0    0  501    0 -0.00000000000E+00 -0.00000000000E+00 -0.43249261882E+03  0.43249261882E+03  0.00000000000E+00 0. -1.
          2    1    1    2  501    0 -0.27278723222E+02 -0.30241976147E+02  0.25164261466E+02  0.47874271974E+02  0.00000000000E+00 0.  1.
          1    1    1    2  502    0  0.27278723222E+02  0.30241976147E+02 -0.42015295570E+03  0.42212227144E+03  0.00000000000E+00 0. -1.
</event>
<event>
 4    1  0.3593938E+003  0.2742662E+02  0.7546771E-02  0.1443369E+00
          2   -1    0    0  502    0  0.00000000000E+00  0.00000000000E+00  0.65422292515E+02  0.65422292515E+02  0.00000000000E+00 0.  1.
          1   -1    0    0  501    0 -0.00000000000E+00 -0.00000000000E+00 -0.43197299585E+02  0.43197299585E+02  0.00000000000E+00 0. -1.
          2    1    1    2  501    0  0.12670536764E+02  0.24324409713E+02  0.57636314193E+02  0.63829179249E+02  0.00000000000E+00 0.  1.
          1    1    1    2  502    0 -0.12670536764E+02 -0.24324409713E+02 -0.35411321263E+02  0.44790412851E+02  0.00000000000E+00 0. -1.
</event>
<event>
 4    1  0.3593938E+003  0.3300977E+02  0.7546771E-02  0.1395122E+00
          2   -1    0    0  502    0  0.00000000000E+00  0.00000000000E+00  0.14964858279E+04  0.14964858279E+04  0.00000000000E+00 0.  1.
          1   -1    0    0  501    0 -0.00000000000E+00 -0.00000000000E+00 -0.91987482999E+01  0.91987482999E+01  0.00000000000E+00 0.  1.
          2    1    1    2  501    0  0.32975422330E+02  0.15054485028E+01  0.14660756591E+04  0.14664472316E+04  0.00000000000E+00 0.  1.
          1    1    1    2  502    0 -0.32975422330E+02 -0.15054485028E+01  0.21211420532E+02  0.39237344635E+02  0.00000000000E+00 0.  1.
</event>
<event>
 4    1  0.3593938E+003  0.2273610E+02  0.7546771E-02  0.1495839E+00
          2   -1    0    0  502    0  0.00000000000E+00  0.00000000000E+00  0.21148771419E+02  0.21148771419E+02  0.00000000000E+00 0. -1.
          1   -1    0    0  501    0 -0.00000000000E+00 -0.00000000000E+00 -0.24443475931E+02  0.24443475931E+02  0.00000000000E+00 0. -1.
          2    1    1    2  501    0 -0.20048792706E+02  0.10722669939E+02 -0.17882394555E+01  0.22806304829E+02  0.00000000000E+00 0. -1.
          1    1    1    2  502    0  0.20048792706E+02 -0.10722669939E+02 -0.15064650571E+01  0.22785942521E+02  0.00000000000E+00 0. -1.
</event>
<event>
 4    1  0.3593938E+003  0.2310716E+02  0.7546771E-02  0.1491157E+00
          2   -1    0    0  502    0  0.00000000000E+00  0.00000000000E+00  0.14942180233E+04  0.14942180233E+04  0.00000000000E+00 0.  1.
          1   -1    0    0  501    0 -0.00000000000E+00 -0.00000000000E+00 -0.68461040873E+00  0.68461040873E+00  0.00000000000E+00 0.  1.
          2    1    1    2  501    0  0.19963485164E+02 -0.11636160921E+02  0.12635587446E+04  0.12637700115E+04  0.00000000000E+00 0.  1.
          1    1    1    2  502    0 -0.19963485164E+02  0.11636160921E+02  0.22997466834E+03  0.23113262223E+03  0.00000000000E+00 0.  1.
</event>
<event>
 4    1  0.3593938E+003  0.2157311E+02  0.7546771E-02  0.1511237E+00
          2   -1    0    0  502    0  0.00000000000E+00  0.00000000000E+00  0.15766263818E+04  0.15766263818E+04  0.00000000000E+00 0.  1.
          1   -1    0    0  501    0 -0.00000000000E+00 -0.00000000000E+00 -0.52522171763E+01  0.52522171763E+01  0.00000000000E+00 0.  1.
          2    1    1    2  501    0  0.20998341371E+02 -0.49465997775E+01  0.15540786852E+04  0.15542284127E+04  0.00000000000E+00 0.  1.
          1    1    1    2  502    0 -0.20998341371E+02  0.49465997775E+01  0.17295479402E+02  0.27650186210E+02  0.00000000000E+00 0.  1.
</event>
<event>
 4    1  0.3593938E+003  0.2535618E+02  0.7546771E-02  0.1464858E+00
          2   -1    0    0  502    0  0.00000000000E+00  0.00000000000E+00  0.38262282262E+02  0.38262282262E+02  0.00000000000E+00 0. -1.
          1   -1    0    0  501    0 -0.00000000000E+00 -0.00000000000E+00 -0.63325443995E+03  0.63325443995E+03  0.00000000000E+00 0.  1.
          2    1    1    2  501    0  0.25132522155E+02  0.33603856106E+01  0.33777664100E+02  0.42235843230E+02  0.00000000000E+00 0. -1.
          1    1    1    2  502    0 -0.25132522155E+02 -0.33603856106E+01 -0.62876982179E+03  0.62928087898E+03  0.00000000000E+00 0.  1.
</event>
<event>
 4    1  0.3593938E+003  0.2061793E+02  0.7546771E-02  0.1524790E+00
          2   -1    0    0  502    0  0.00000000000E+00  0.00000000000E+00  0.41536764217E+02  0.41536764217E+02  0.00000000000E+00 0. -1.
          1   -1    0    0  501    0 -0.00000000000E+00 -0.00000000000E+00 -0.47689657177E+02  0.47689657177E+02  0.00000000000E+00 0. -1.
          2    1    1    2  501    0  0.17402152027E+02 -0.11057313461E+02  0.36460983749E+02  0.41886780876E+02  0.00000000000E+00 0. -1.
          1    1    1    2  502    0 -0.17402152027E+02  0.11057313461E+02 -0.42613876710E+02  0.47339640518E+02  0.00000000000E+00 0. -1.
</event>
<event>
 4    1  0.3593938E+003  0.2021203E+02  0.7546771E-02  0.1530819E+00
          2   -1    0    0  502    0  0.00000000000E+00  0.00000000000E+00  0.25976202675E+01  0.25976202675E+01  0.00000000000E+00 0.  1.
          1   -1    0    0  501    0 -0.00000000000E+00 -0.00000000000E+00 -0.87177861288E+03  0.87177861288E+03  0.00000000000E+00 0. -1.
          2    1    1    2  501    0  0.99124730802E+01  0.17614455864E+02 -0.38796538208E+02  0.43745829000E+02  0.00000000000E+00 0.  1.
          1    1    1    2  502    0 -0.99124730802E+01 -0.17614455864E+02 -0.83038445440E+03  0.83063040414E+03  0.00000000000E+00 0. -1.
</event>
<event>
 4    1  0.3593938E+003  0.2472111E+02  0.7546771E-02  0.1471948E+00
          2   -1    0    0  502    0  0.00000000000E+00  0.00000000000E+00  0.68849728603E+03  0.68849728603E+03  0.00000000000E+00 0.  1.
          1   -1    0    0  501    0 -0.00000000000E+00 -0.00000000000E+00 -0.50615061708E+02  0.50615061708E+02  0.00000000000E+00 0.  1.
          2    1    1    2  501    0  0.29896100124E+01 -0.24539675035E+02  0.68524250938E+03  0.68568828930E+03  0.00000000000E+00 0.  1.
          1    1    1    2  502    0 -0.29896100124E+01  0.24539675035E+02 -0.47360285061E+02  0.53424058437E+02  0.00000000000E+00 0.  1.
</event>
<event>
 4    1  0.3593938E+003  0.3149800E+02  0.7546771E-02  0.1407011E+00
          2   -1    0    0  502    0  0.00000000000E+00  0.00000000000E+00  0.12526128867E+02  0.12526128867E+02  0.00000000000E+00 0. -1.
          1   -1    0    0  501    0 -0.00000000000E+00 -0.00000000000E+00 -0.80152182598E+02  0.80152182598E+02  0.00000000000E+00 0. -1.
          2    1    1    2  501    0 -0.33706330424E+01 -0.31317128969E+02 -0.28773854606E+02  0.42662142970E+02  0.00000000000E+00 0. -1.
          1    1    1    2  502    0  0.33706330424E+01  0.31317128969E+02 -0.38852199126E+02  0.50016168494E+02  0.00000000000E+00 0. -1.
</event>
<event>
 4    1  0.3593938E+003  0.2138237E+02  0.7546771E-02  0.1513875E+00
          2   -1    0    0  502    0  0.00000000000E+00  0.00000000000E+00  0.40679311438E+02  0.40679311438E+02  0.00000000000E+00 0.  1.
          1   -1    0    0  501    0 -0.00000000000E+00 -0.00000000000E+00 -0.43578491814E+03  0.43578491814E+03  0.00000000000E+00 0. -1.
          2    1    1    2  501    0 -0.15110411619E+02 -0.15128823849E+02  0.37587137002E+02  0.43243481802E+02  0.00000000000E+00 0.  1.
          1    1    1    2  502    0  0.15110411619E+02  0.15128823849E+02 -0.43269274370E+03  0.43322074777E+03  0.00000000000E+00 0. -1.
</event>
<event>
 4    1  0.3593938E+003  0.2288187E+02  0.7546771E-02  0.1493987E+00
          2   -1    0    0  502    0  0.00000000000E+00  0.00000000000E+00  0.21254263640E+04  0.21254263640E+04  0.00000000000E+00 0. -1.
          1   -1    0    0  501    0 -0.00000000000E+00 -0.00000000000E+00 -0.27026380902E+00  0.27026380902E+00  0.00000000000E+00 0. -1.
          2    1    1    2  501    0  0.10143513242E+02  0.20510707147E+02  0.13787927774E+04  0.13789826333E+04  0.00000000000E+00 0. -1.
          1    1    1    2  502    0 -0.10143513242E+02 -0.20510707147E+02  0.74636332284E+03  0.74671399454E+03  0.00000000000E+00 0. -1.
</event>
<event>
 4    1  0.3593938E+003  0.3049288E+02  0.7546771E-02  0.1415361E+00
          2   -1    0    0  502    0  0.00000000000E+00  0.00000000000E+00  0.10733999133E+04  0.10733999133E+04  0.00000000000E+00 0. -1.
          1   -1    0    0  501    0 -0.00000000000E+00 -0.00000000000E+00 -0.26321121348E+01  0.26321121348E+01  0.00000000000E+00 0. -1.
          2    1    1    2  501    0  0.85994320833E+01 -0.29255178065E+02  0.97606391231E+03  0.97654010495E+03  0.00000000000E+00 0. -1.
          1    1    1    2  502    0 -0.85994320833E+01  0.29255178065E+02  0.94703888831E+02  0.99491920454E+02  0.00000000000E+00 0. -1.
</event>
<event>
 4    1  0.3593938E+003  0.2065360E+02  0.7546771E-02  0.1524268E+00
          2   -1    0    0  502    0  0.00000000000E+00  0.00000000000E+00  0.40008740844E+00  0.40008740844E+00  0.00000000000E+00 0. -1.
          1   -1    0    0  501    0 -0.00000000000E+00 -0.00000000000E+00 -0.13574203180E+04  0.13574203180E+04  0.00000000000E+00 0.  1.
          2    1    1    2  501    0  0.20511143651E+02 -0.24216368272E+01 -0.36404718453E+03  0.36463258755E+03  0.00000000000E+00 0. -1.
          1    1    1    2  502    0 -0.20511143651E+02  0.24216368272E+01 -0.99297304605E+03  0.99318781785E+03  0.00000000000E+00 0.  1.
</event>
<event>
 4    1  0.3593938E+003  0.3003567E+02  0.7546771E-02  0.1419287E+00
          2   -1    0    0  502    0  0.00000000000E+00  0.00000000000E+00  0.20626604587E+02  0.20626604587E+02  0.00000000000E+00 0. -1.
          1   -1    0    0  501    0 -0.00000000000E+00 -0.00000000000E+00 -0.10408727601E+04  0.10408727601E+04  0.00000000000E+00 0. -1.
          2    1    1    2  501    0 -0.30012162031E+02 -0.11880810986E+01  0.93560630774E+01  0.31459137350E+02  0.00000000000E+00 0. -1.
          1    1    1    2  502    0  0.30012162031E+02  0.11880810986E+01 -0.10296022186E+04  0.10300402273E+04  0.00000000000E+00 0. -1.
</event>
<event>
 4    1  0.3593938E+003  0.2063160E+02  0.7546771E-02  0.1524590E+00
          2   -1    0    0  502    0  0.00000000000E+00  0.00000000000E+00  0.11889225277E+02  0.11889225277E+02  0.00000000000E+00 0.  1.
          1   -1    0    0  501    0 -0.00000000000E+00 -0.00000000000E+00 -0.11044254483E+03  0.11044254483E+03  0.00000000000E+00 0.  1.
          2    1    1    2  501    0  0.65396036899E+01 -0.19567738814E+02  0.10070479695E+01  0.20656160445E+02  0.00000000000E+00 0.  1.
          1    1    1    2  502    0 -0.65396036899E+01  0.19567738814E+02 -0.99560367524E+02  0.10167560966E+03  0.00000000000E+00 0.  1.
</event>
<event>
 4    1  0.3593938E+003  0.2949214E+02  0.7546771E-02  0.1424062E+00
          2   -1    0    0  502    0  0.00000000000E+00  0.00000000000E+00  0.76441792712E+03  0.76441792712E+03  0.00000000000E+00 0. -1.
          1   -1    0    0  501    0 -0.00000000000E+00 -0.00000000000E+00 -0.89103064168E+01  0.89103064168E+01  0.00000000000E+00 0. -1.
          2    1    1    2  501    0  0.28739259841E+02  0.66212875894E+01  0.73888660916E+03  0.73947495407E+03  0.00000000000E+00 0. -1.
          1    1    1    2  502    0 -0.28739259841E+02 -0.66212875894E+01  0.16621011539E+02  0.33853279459E+02  0.00000000000E+00 0. -1.
</event>
<event>
 4    1  0.3593938E+003  0.2531859E+02  0.7546771E-02  0.1465271E+00
          2   -1    0    0  502    0  0.00000000000E+00  0.00000000000E+00  0.49982208979E+03  0.49982208979E+03  0.00000000000E+00 0. -1.
          1   -1    0    0  501    0 -0.00000000000E+00 -0.00000000000E+00 -0.51568050021E+01  0.51568050021E+01  0.00000000000E+00 0. -1.
          2    1    1    2  501    0 -0.12132700784E+02 -0.22222254698E+02  0.46618374997E+03  0.46687077417E+03  0.00000000000E+00 0. -1.
          1    1    1    2  502    0  0.12132700784E+02  0.22222254698E+02  0.28481534813E+02  0.38108120624E+02  0.00000000000E+00 0. -1.
</event>
<event>
 4    1  0.3593938E+003  0.6299687E+02  0.7546771E-02  0.1249977E+00
          2   -1    0    0  502    0  0.00000000000E+00  0.00000000000E+00  0.27127254936E+04  0.27127254936E+04  0.00000000000E+00 0.  1.
          1   -1    0    0  501    0 -0.00000000000E+00 -0.00000000000E+00 -0.71704942522E+01  0.71704942522E+01  0.00000000000E+00 0.  1.
          2    1    1    2  501    0  0.47854127635E+02  0.40970581056E+02  0.25660882842E+04  0.25668614471E+04  0.00000000000E+00 0.  1.
          1    1    1    2  502    0 -0.47854127635E+02 -0.40970581056E+02  0.13946671512E+03  0.15303454078E+03  0.00000000000E+00 0.  1.
</event>
<event>
 4    1  0.3593938E+003  0.4074466E+02  0.7546771E-02  0.1344177E+00
          2   -1    0    0  502    0  0.00000000000E+00  0.00000000000E+00  0.14248518866E+04  0.14248518866E+04  0.00000000000E+00 0. -1.
          1   -1    0    0  501    0 -0.00000000000E+00 -0.00000000000E+00 -0.20564857695E+01  0.20564857695E+01  0.00000000000E+00 0.  1.
          2    1    1    2  501    0 -0.40699962063E+02 -0.19078922008E+01  0.11811085675E+04  0.11818111420E+04  0.00000000000E+00 0. -1.
          1    1    1    2  502    0  0.40699962063E+02  0.19078922008E+01  0.24168683334E+03  0.24509723045E+03  0.00000000000E+00 0.  1.
</event>
<event>
 4    1  0.3593938E+003  0.2722687E+02  0.7546771E-02  0.1445342E+00
          2   -1    0    0  502    0  0.00000000000E+00  0.00000000000E+00  0.24833251966E+01  0.24833251966E+01  0.00000000000E+00 0.  1.
          1   -1    0    0  501    0 -0.00000000000E+00 -0.00000000000E+00 -0.33900665592E+03  0.33900665592E+03  0.00000000000E+00 0.  1.
          2    1    1    2  501    0  0.25228894608E+02 -0.10237455586E+02 -0.10924941483E+03  0.11259101768E+03  0.00000000000E+00 0.  1.
          1    1    1    2  502    0 -0.25228894608E+02  0.10237455586E+02 -0.22727391589E+03  0.22889896344E+03  0.00000000000E+00 0.  1.
</event>
<event>
 4    1  0.3593938E+003  0.2667827E+02  0.7546771E-02  0.1450867E+00
          2   -1    0    0  502    0  0.00000000000E+00  0.00000000000E+00  0.15209062471E+03  0.15209062471E+03  0.00000000000E+00 0. -1.
          1   -1    0    0  501    0 -0.00000000000E+00 -0.00000000000E+00 -0.36337901721E+03  0.36337901721E+03  0.00000000000E+00 0. -1.
          2    1    1    2  501    0 -0.13262604250E+02  0.23148080138E+02  0.15042567436E+03  0.15277307941E+03  0.00000000000E+00 0. -1.
          1    1    1    2  502    0  0.13262604250E+02 -0.23148080138E+02 -0.36171406687E+03  0.36269656251E+03  0.00000000000E+00 0. -1.
</event>
<event>
 4    1  0.3593938E+003  0.5974286E+02  0.7546771E-02  0.1260709E+00
          2   -1    0    0  502    0  0.00000000000E+00  0.00000000000E+00  0.13610111306E+03  0.13610111306E+03  0.00000000000E+00 0. -1.
          1   -1    0    0  501    0 -0.00000000000E+00 -0.00000000000E+00 -0.48229699029E+02  0.48229699029E+02  0.00000000000E+00 0. -1.
          2    1    1    2  501    0  0.47992198643E+02  0.35580306895E+02  0.10619030742E+03  0.12184248339E+03  0.00000000000E+00 0. -1.
          1    1    1    2  502    0 -0.47992198643E+02 -0.35580306895E+02 -0.18318893383E+02  0.62488328703E+02  0.00000000000E+00 0. -1.
</event>
<event>
 4    1  0.3593938E+003  0.5845902E+02  0.7546771E-02  0.1265160E+00
          2   -1    0    0  502    0  0.00000000000E+00  0.00000000000E+00  0.18610257410E+03  0.18610257410E+03  0.00000000000E+00 0.  1.
          1   -1    0    0  501    0 -0.00000000000E+00 -0.00000000000E+00 -0.63044473991E+02  0.63044473991E+02  0.00000000000E+00 0.  1.
          2    1    1    2  501    0  0.12962103954E+01  0.58444649735E+02  0.16640225236E+03  0.17637223941E+03  0.00000000000E+00 0.  1.
          1    1    1    2  502    0 -0.12962103954E+01 -0.58444649735E+02 -0.43344152252E+02  0.72774808680E+02  0.00000000000E+00 0.  1.
</event>
<event>
 4    1  0.3593938E+003  0.3518832E+02  0.7546771E-02  0.1379244E+00
          2   -1    0    0  502    0  0.00000000000E+00  0.00000000000E+00  0.27879436186E+02  0.27879436186E+02  0.00000000000E+00 0. -1.
          1   -1    0    0  501    0 -0.00000000000E+00 -0.00000000000E+00 -0.39443594890E+03  0.39443594890E+03  0.00000000000E+00 0. -1.
          2    1    1    2  501    0  0.71855921084E+01  0.34446849818E+02  0.15636373798E+02  0.38506030461E+02  0.00000000000E+00 0. -1.
          1    1    1    2  502    0 -0.71855921084E+01 -0.34446849818E+02 -0.38219288652E+03  0.38380935463E+03  0.00000000000E+00 0. -1.
</event>
<event>
 4    1  0.3593938E+003  0.3291160E+02  0.7546771E-02  0.1395871E+00
          2   -1    0    0  502    0  0.00000000000E+00  0.00000000000E+00  0.87397397685E+03  0.87397397685E+03  0.00000000000E+00 0.  1.
          1   -1    0    0  501    0 -0.00000000000E+00 -0.00000000000E+00 -0.14394508040E+01  0.14394508040E+01  0.00000000000E+00 0.  1.
          2    1    1    2  501    0  0.19163383032E+02 -0.26757022799E+02  0.59945667926E+03  0.60035946218E+03  0.00000000000E+00 0.  1.
          1    1    1    2  502    0 -0.19163383032E+02  0.26757022799E+02  0.27307784679E+03  0.27505396548E+03  0.00000000000E+00 0.  1.
</event>
<event>
 4    1  0.3593938E+003  0.2063203E+02  0.7546771E-02  0.1524584E+00
          2   -1    0    0  502    0  0.00000000000E+00  0.00000000000E+00  0.43117811886E+02  0.43117811886E+02  0.00000000000E+00 0. -1.
          1   -1    0    0  501    0 -0.00000000000E+00 -0.00000000000E+00 -0.83477983697E+03  0.83477983697E+03  0.00000000000E+00 0.  1.
          2    1    1    2  501    0 -0.18943356268E+02  0.81749508570E+01  0.40514484235E+02  0.45465415439E+02  0.00000000000E+00 0. -1.
          1    1    1    2  502    0  0.18943356268E+02 -0.81749508570E+01 -0.83217650932E+03  0.83243223342E+03  0.00000000000E+00 0.  1.
</event>
<event>
 4    1  0.3593938E+003  0.6569301E+02  0.7546771E-02  0.1241627E+00
          2   -1    0    0  502    0  0.00000000000E+00  0.00000000000E+00  0.33507111912E+03  0.33507111912E+03  0.00000000000E+00 0. -1.
          1   -1    0    0  501    0 -0.00000000000E+00 -0.00000000000E+00 -0.16465180442E+02  0.16465180442E+02  0.00000000000E+00 0. -1.
          2    1    1    2  501    0  0.63194703822E+02 -0.17944400228E+02  0.24132649966E+03  0.25010807969E+03  0.00000000000E+00 0. -1.
          1    1    1    2  502    0 -0.63194703822E+02  0.17944400228E+02  0.77279439021E+02  0.10142821987E+03  0.00000000000E+00 0. -1.
</event>
<event>
 4    1  0.3593938E+003  0.2614258E+02  0.7546771E-02  0.1456416E+00
          2   -1    0    0  502    0  0.00000000000E+00  0.00000000000E+00  0.78082671594E+01  0.78082671594E+01  0.00000000000E+00 0. -1.
          1   -1    0    0  501    0 -0.00000000000E+00 -0.00000000000E+00 -0.87808708529E+02  0.87808708529E+02  0.00000000000E+00 0.  1.
          2    1    1    2  501    0  0.17591358162E+02  0.19338533088E+02 -0.37292633374E+02  0.45543114166E+02  0.00000000000E+00 0. -1.
          1    1    1    2  502    0 -0.17591358162E+02 -0.19338533088E+02 -0.42707807996E+02  0.50073861522E+02  0.00000000000E+00 0.  1.
</event>
<event>
 4    1  0.3593938E+003  0.2640185E+02  0.7546771E-02  0.1453711E+00
          2   -1    0    0  502    0  0.00000000000E+00  0.00000000000E+00  0.37651807472E+03  0.37651807472E+03  0.00000000000E+00 0.  1.
          1   -1    0    0  501    0 -0.00000000000E+00 -0.00000000000E+00 -0.19820832161E+01  0.19820832161E+01  0.00000000000E+00 0.  1.
          2    1    1    2  501    0  0.91361958335E+01 -0.24770683777E+02  0.13865955182E+03  0.14115072852E+03  0.00000000000E+00 0.  1.
          1    1    1    2  502    0 -0.91361958335E+01  0.24770683777E+02  0.23587643968E+03  0.23734942942E+03  0.00000000000E+00 0.  1.
</event>
<event>
 4    1  0.3593938E+003  0.4410668E+02  0.7546771E-02  0.1325967E+00
          2   -1    0    0  502    0  0.00000000000E+00  0.00000000000E+00  0.21350060775E+01  0.21350060775E+01  0.00000000000E+00 0. -1.
          1   -1    0    0  501    0 -0.00000000000E+00 -0.00000000000E+00 -0.22481523507E+04  0.22481523507E+04  0.00000000000E+00 0. -1.
          2    1    1    2  501    0  0.36663931841E+02  0.24518477212E+02 -0.25533895062E+03  0.25912039543E+03  0.00000000000E+00 0. -1.
          1    1    1    2  502    0 -0.36663931841E+02 -0.24518477212E+02 -0.19906783940E+04  0.19911669614E+04  0.00000000000E+00 0. -1.
</event>
<event>
 4    1  0.3593938E+003  0.2324186E+02  0.7546771E-02  0.1489483E+00
          2   -1    0    0  502    0  0.00000000000E+00  0.00000000000E+00  0.19684011087E+03  0.19684011087E+03  0.00000000000E+00 0.  1.
          1   -1    0    0  501    0 -0.00000000000E+00 -0.00000000000E+00 -0.18706297023E+02  0.18706297023E+02  0.00000000000E+00 0. -1.
          2    1    1    2  501    0 -0.19585281106E+02 -0.12514016079E+02  0.18862138584E+03  0.19004791772E+03  0.00000000000E+00 0.  1.
          1    1    1    2  502    0  0.19585281106E+02  0.12514016079E+02 -0.10487571996E+02  0.25498490167E+02  0.00000000000E+00 0. -1.
</event>
<event>
 4    1  0.3593938E+003  0.4097577E+02  0.7546771E-02  0.1342861E+00
          2   -1    0    0  502    0  0.00000000000E+00  0.00000000000E+00  0.98288692831E+03  0.98288692831E+03  0.00000000000E+00 0. -1.
          1   -1    0    0  501    0 -0.00000000000E+00 -0.00000000000E+00 -0.17172862923E+01  0.17172862923E+01  0.00000000000E+00 0. -1.
          2    1    1    2  501    0 -0.32080883162E+02 -0.25491768594E+02  0.52630266903E+03  0.52789536156E+03  0.00000000000E+00 0. -1.
          1    1    1    2  502    0  0.32080883162E+02  0.25491768594E+02  0.45486697298E+03  0.45670885303E+03  0.00000000000E+00 0. -1.
</event>
<event>
 4    1  0.3593938E+003  0.2263292E+02  0.7546771E-02  0.1497160E+00
          2   -1    0    0  502    0  0.00000000000E+00  0.00000000000E+00  0.14187218877E+01  0.14187218877E+01  0.00000000000E+00 0.  1.
          1   -1    0    0  501    0 -0.00000000000E+00 -0.00000000000E+00 -0.54497390470E+03  0.54497390470E+03  0.00000000000E+00 0.  1.
          2    1    1    2  501    0 -0.18761293999E+02  0.12659497451E+02 -0.11307286908E+03  0.11531575240E+03  0.00000000000E+00 0.  1.
          1    1    1    2  502    0  0.18761293999E+02 -0.12659497451E+02 -0.43048231372E+03  0.43107687418E+03  0.00000000000E+00 0.  1.
</event>
<event>
 4    1  0.3593938E+003  0.2366367E+02  0.7546771E-02  0.1484328E+00
          2   -1    0    0  502    0  0.00000000000E+00  0.00000000000E+00  0.99984256625E+02  0.99984256625E+02  0.00000000000E+00 0. -1.
          1   -1    0    0  501    0 -0.00000000000E+00 -0.00000000000E+00 -0.16620475937E+02  0.16620475937E+02  0.00000000000E+00 0. -1.
          2    1    1    2  501    0 -0.21768067529E+02 -0.92801043533E+01  0.89155619048E+02  0.92242579694E+02  0.00000000000E+00 0. -1.
          1    1    1    2  502    0  0.21768067529E+02  0.92801043533E+01 -0.57918383607E+01  0.24362152868E+02  0.00000000000E+00 0. -1.
</event>
<event>
 4    1  0.3593938E+003  0.2097830E+02  0.7546771E-02  0.1519575E+00
          2   -1    0    0  502    0  0.00000000000E+00  0.00000000000E+00  0.68794123494E+02  0.68794123494E+02  0.00000000000E+00 0. -1.
          1   -1    0    0  501    0 -0.00000000000E+00 -0.00000000000E+00 -0.15448374318E+02  0.15448374318E+02  0.00000000000E+00 0. -1.
          2    1    1    2  501    0  0.44406792564E+01  0.20502907830E+02  0.58914180765E+02  0.62537745058E+02  0.00000000000E+00 0. -1.
          1    1    1    2  502    0 -0.44406792564E+01 -0.20502907830E+02 -0.55684315884E+01  0.21704752754E+02  0.00000000000E+00 0. -1.
</event>
<event>
 4    1  0.3593938E+003  0.2782173E+02  0.7546771E-02  0.1439524E+00
          2   -1    0    0  502    0  0.00000000000E+00  0.00000000000E+00  0.78314639888E+01  0.78314639888E+01  0.00000000000E+00 0.  1.
          1   -1    0    0  501    0 -0.00000000000E+00 -0.00000000000E+00 -0.14615332480E+03  0.14615332480E+03  0.00000000000E+00 0.  1.
          2    1    1    2  501    0 -0.24270772270E+02 -0.13600670728E+02 -0.25353983465E+02  0.37641374953E+02  0.00000000000E+00 0.  1.
          1    1    1    2  502    0  0.24270772270E+02  0.13600670728E+02 -0.11296787735E+03  0.11634341384E+03  0.00000000000E+00 0.  1.
</event>
<event>
 4    1  0.4017387E+003  0.2824869E+02  0.7546771E-02  0.1435452E+00
          2   -1    0    0  502    0  0.00000000000E+00  0.00000000000E+00  0.92173089973E+03  0.92173089973E+03  0.00000000000E+00 0. -1.
          1   -1    0    0  501    0 -0.00000000000E+00 -0.00000000000E+00 -0.32990828954E+03  0.32990828954E+03  0.00000000000E+00 0.  1.
          2    1    1    2  501    0  0.32527757729E+01  0.28060792419E+02  0.92090921789E+03  0.92134237731E+03  0.00000000000E+00 0. -1.
          1    1    1    2  502    0 -0.32527757729E+01 -0.28060792419E+02 -0.32908660770E+03  0.33029681196E+03  0.00000000000E+00 0.  1.
</event>
<event>
 4    1  0.3593938E+003  0.2729803E+02  0.7546771E-02  0.1444637E+00
          2   -1    0    0  502    0  0.00000000000E+00  0.00000000000E+00  0.14783898738E+04  0.14783898738E+04  0.00000000000E+00 0.  1.
          1   -1    0    0  501    0 -0.00000000000E+00 -0.00000000000E+00 -0.14858377638E+01  0.14858377638E+01  0.00000000000E+00 0.  1.
          2    1    1    2  501    0  0.27281549823E+02 -0.94851251265E+00  0.13399280489E+04  0.13402060882E+04  0.00000000000E+00 0.  1.
          1    1    1    2  502    0 -0.27281549823E+02  0.94851251265E+00  0.13697598712E+03  0.13966962334E+03  0.00000000000E+00 0.  1.
</event>
<event>
 4    1  0.3593938E+003  0.2052052E+02  0.7546771E-02  0.1526222E+00
          2   -1    0    0  502    0  0.00000000000E+00  0.00000000000E+00  0.85007074603E+03  0.85007074603E+03  0.00000000000E+00 0. -1.
          1   -1    0    0  501    0 -0.00000000000E+00 -0.00000000000E+00 -0.12559363846E+01  0.12559363846E+01  0.00000000000E+00 0.  1.
          2    1    1    2  501    0 -0.29232153843E+01 -0.20311239932E+02  0.75565569233E+03  0.75593426765E+03  0.00000000000E+00 0. -1.
          1    1    1    2  502    0  0.29232153843E+01  0.20311239932E+02  0.93159117318E+02  0.95392414768E+02  0.00000000000E+00 0.  1.
</event>
<event>
 4    1  0.3593938E+003  0.3089791E+02  0.7546771E-02  0.1411951E+00
          2   -1    0    0  502    0  0.00000000000E+00  0.00000000000E+00  0.23819172687E+03  0.23819172687E+03  0.00000000000E+00 0.  1.
          1   -1    0    0  501    0 -0.00000000000E+00 -0.00000000000E+00 -0.56640487203E+02  0.56640487203E+02  0.00000000000E+00 0.  1.
          2    1    1    2  501    0  0.25000625580E+02 -0.18156249461E+02  0.23288025769E+03  0.23492104013E+03  0.00000000000E+00 0.  1.
          1    1    1    2  502    0 -0.25000625580E+02  0.18156249461E+02 -0.51329018015E+02  0.59911173951E+02  0.00000000000E+00 0.  1.
</event>
<event>
 4    1  0.3593938E+003  0.2176150E+02  0.7546771E-02  0.1508664E+00
          2   -1    0    0  502    0  0.00000000000E+00  0.00000000000E+00  0.10692319329E+03  0.10692319329E+03  0.00000000000E+00 0. -1.
          1   -1    0    0  501    0 -0.00000000000E+00 -0.00000000000E+00 -0.10814968793E+02  0.10814968793E+02  0.00000000000E+00 0.  1.
          2    1    1    2  501    0  0.21753617566E+02 -0.58562977629E+00  0.93290509771E+02  0.95795000145E+02  0.00000000000E+00 0. -1.
          1    1    1    2  502    0 -0.21753617566E+02  0.58562977629E+00  0.28177147221E+01  0.21943161935E+02  0.00000000000E+00 0.  1.
</event>
<event>
 4    1  0.3593938E+003  0.2603746E+02  0.7546771E-02  0.1457524E+00
          2   -1    0    0  502    0  0.00000000000E+00  0.00000000000E+00  0.11837310641E+01  0.11837310641E+01  0.00000000000E+00 0.  1.
          1   -1    0    0  501    0 -0.00000000000E+00 -0.00000000000E+00 -0.71585463444E+03  0.71585463444E+03  0.00000000000E+00 0. -1.
          2    1    1    2  501    0  0.25069581668E+02  0.70331691589E+01 -0.19702251196E+03  0.19873555196E+03  0.00000000000E+00 0.  1.
          1    1    1    2  502    0 -0.25069581668E+02 -0.70331691589E+01 -0.51764839141E+03  0.51830281354E+03  0.00000000000E+00 0. -1.
</event>
<event>
 4    1  0.3593938E+003  0.8724073E+02  0.7546771E-02  0.1187967E+00
          2   -1    0    0  502    0  0.00000000000E+00  0.00000000000E+00  0.42772657587E+04  0.42772657587E+04  0.00000000000E+00 0.  1.
          1   -1    0    0  501    0 -0.00000000000E+00 -0.00000000000E+00 -0.33164482235E+01  0.33164482235E+01  0.00000000000E+00 0. -1.
          2    1    1    2  501    0 -0.86721062803E+02 -0.95080383473E+01  0.35940455435E+04  0.35951042146E+04  0.00000000000E+00 0.  1.
          1    1    1    2  502    0  0.86721062803E+02  0.95080383473E+01  0.67990376704E+03  0.68547799232E+03  0.00000000000E+00 0. -1.
</event>
<event>
 4    1  0.3593938E+003  0.2866345E+02  0.7546771E-02  0.1431578E+00
          2   -1    0    0  502    0  0.00000000000E+00  0.00000000000E+00  0.13292900048E+03  0.13292900048E+03  0.00000000000E+00 0. -1.
          1   -1    0    0  501    0 -0.00000000000E+00 -0.00000000000E+00 -0.91752330864E+03  0.91752330864E+03  0.00000000000E+00 0.  1.
          2    1    1    2  501    0  0.24780492008E+02 -0.14405580866E+02  0.13115697583E+03  0.13425254505E+03  0.00000000000E+00 0. -1.
          1    1    1    2  502    0 -0.24780492008E+02  0.14405580866E+02 -0.91575128399E+03  0.91619976407E+03  0.00000000000E+00 0.  1.
</event>
<event>
 4    1  0.3593938E+003  0.2248232E+02  0.7546771E-02  0.1499103E+00
          2   -1    0    0  502    0  0.00000000000E+00  0.00000000000E+00  0.56773123354E+03  0.56773123354E+03  0.00000000000E+00 0. -1.
          1   -1    0    0  501    0 -0.00000000000E+00 -0.00000000000E+00 -0.30671906408E+02  0.30671906408E+02  0.00000000000E+00 0.  1.
          2    1    1    2  501    0  0.21935148083E+02 -0.49299167229E+01  0.56335682792E+03  0.56380525926E+03  0.00000000000E+00 0. -1.
          1    1    1    2  502    0 -0.21935148083E+02  0.49299167229E+01 -0.26297500791E+02  0.34597880689E+02  0.00000000000E+00 0.  1.
</event>
<event>
 4    1  0.3593938E+003  0.2075779E+02  0.7546771E-02  0.1522751E+00
          2   -1    0    0  502    0  0.00000000000E+00  0.00000000000E+00  0.28073828753E+03  0.28073828753E+03  0.00000000000E+00 0. -1.
          1   -1    0    0  501    0 -0.00000000000E+00 -0.00000000000E+00 -0.38175613668E+02  0.38175613668E+02  0.00000000000E+00 0.  1.
          2    1    1    2  501    0 -0.19696800740E+01  0.20664125201E+02  0.27749996319E+03  0.27827525093E+03  0.00000000000E+00 0. -1.
          1    1    1    2  502    0  0.19696800740E+01 -0.20664125201E+02 -0.34937289328E+02  0.40638650267E+02  0.00000000000E+00 0.  1.
</event>
<event>
 4    1  0.3593938E+003  0.2864218E+02  0.7546771E-02  0.1431775E+00
          2   -1    0    0  502    0  0.00000000000E+00  0.00000000000E+00  0.18318567926E+04  0.18318567926E+04  0.00000000000E+00 0.  1.
          1   -1    0    0  501    0 -0.00000000000E+00 -0.00000000000E+00 -0.48428267130E+00  0.48428267130E+00  0.00000000000E+00 0. -1.
          2    1    1    2  501    0 -0.23665947173E+02 -0.16133731239E+02  0.11670173900E+04  0.11673688204E+04  0.00000000000E+00 0.  1.
          1    1    1    2  502    0  0.23665947173E+02  0.16133731239E+02  0.66435512002E+03  0.66497225494E+03  0.00000000000E+00 0. -1.
</event>
<event>
 4    1  0.3593938E+003  0.2986484E+02  0.7546771E-02  0.1420775E+00
          2   -1    0    0  502    0  0.00000000000E+00  0.00000000000E+00  0.79251541764E+01  0.79251541764E+01  0.00000000000E+00 0. -1.
          1   -1    0    0  501    0 -0.00000000000E+00 -0.00000000000E+00 -0.25958661417E+03  0.25958661417E+03  0.00000000000E+00 0.  1.
          2    1    1    2  501    0  0.28280956202E+02  0.95966819163E+01 -0.25161432041E+02  0.39051330961E+02  0.00000000000E+00 0. -1.
          1    1    1    2  502    0 -0.28280956202E+02 -0.95966819163E+01 -0.22650002795E+03  0.22846043738E+03  0.00000000000E+00 0.  1.
</event>
<event>
 4    1  0.3593938E+003  0.2703419E+02  0.7546771E-02  0.1447265E+00
          2   -1    0    0  502    0  0.00000000000E+00  0.00000000000E+00  0.38321451169E+03  0.38321451169E+03  0.00000000000E+00 0.  1.
          1   -1    0    0  501    0 -0.00000000000E+00 -0.00000000000E+00 -0.87424861900E+01  0.87424861900E+01  0.00000000000E+00 0.  1.
          2    1    1    2  501    0  0.10290793162E+02 -0.24998942747E+02  0.36052497018E+03  0.36153713735E+03  0.00000000000E+00 0.  1.
          1    1    1    2  502    0 -0.10290793162E+02  0.24998942747E+02  0.13947055320E+02  0.30419860526E+02  0.00000000000E+00 0.  1.
</event>
<event>
 4    1  0.3593938E+003  0.3495300E+02  0.7546771E-02  0.1380894E+00
          2   -1    0    0  502    0  0.00000000000E+00  0.00000000000E+00  0.27748794032E+02  0.27748794032E+02  0.00000000000E+00 0.  1.
          1   -1    0    0  501    0 -0.00000000000E+00 -0.00000000000E+00 -0.61491831768E+02  0.61491831768E+02  0.00000000000E+00 0.  1.
          2    1    1    2  501    0 -0.19925612427E+02  0.28717280095E+02  0.69077724334E+01  0.35629054529E+02  0.00000000000E+00 0.  1.
          1    1    1    2  502    0  0.19925612427E+02 -0.28717280095E+02 -0.40650810170E+02  0.53611571271E+02  0.00000000000E+00 0.  1.
</event>
<event>
 4    1  0.3593938E+003  0.2622869E+02  0.7546771E-02  0.1455514E+00
          2   -1    0    0  502    0  0.00000000000E+00  0.00000000000E+00  0.62392233620E+01  0.62392233620E+01  0.00000000000E+00 0. -1.
          1   -1    0    0  501    0 -0.00000000000E+00 -0.00000000000E+00 -0.29600464554E+03  0.29600464554E+03  0.00000000000E+00 0.  1.
          2    1    1    2  501    0  0.35774460034E+01  0.25983569625E+02 -0.25171441904E+02  0.36353067242E+02  0.00000000000E+00 0. -1.
          1    1    1    2  502    0 -0.35774460034E+01 -0.25983569625E+02 -0.26459398027E+03  0.26589080166E+03  0.00000000000E+00 0.  1.
</event>
<event>
 4    1  0.3593938E+003  0.4110447E+02  0.7546771E-02  0.1342132E+00
          2   -1    0    0  502    0  0.00000000000E+00  0.00000000000E+00  0.68996947777E+03  0.68996947777E+03  0.00000000000E+00 0. -1.
          1   -1    0    0  501    0 -0.00000000000E+00 -0.00000000000E+00 -0.24657992662E+01  0.24657992662E+01  0.00000000000E+00 0. -1.
          2    1    1    2  501    0 -0.35044833290E+02  0.21481055310E+02  0.31497936711E+03  0.31765008702E+03  0.00000000000E+00 0. -1.
          1    1    1    2  502    0  0.35044833290E+02 -0.21481055310E+02  0.37252431140E+03  0.37478519003E+03  0.00000000000E+00 0. -1.
</event>
<event>
 4    1  0.3593938E+003  0.2404930E+02  0.7546771E-02  0.1479726E+00
          2   -1    0    0  502    0  0.00000000000E+00  0.00000000000E+00  0.11181123173E+02  0.11181123173E+02  0.00000000000E+00 0. -1.
          1   -1    0    0  501    0 -0.00000000000E+00 -0.00000000000E+00 -0.15456884799E+03  0.15456884799E+03  0.00000000000E+00 0. -1.
          2    1    1    2  501    0  0.12974987306E+02  0.20248914966E+02 -0.40938352866E+01  0.24395252412E+02  0.00000000000E+00 0. -1.
          1    1    1    2  502    0 -0.12974987306E+02 -0.20248914966E+02 -0.13929388953E+03  0.14135471875E+03  0.00000000000E+00 0. -1.
</event>
<event>
 4    1  0.3593938E+003  0.3126799E+02  0.7546771E-02  0.1408888E+00
          2   -1    0    0  502    0  0.00000000000E+00  0.00000000000E+00  0.24383590503E+02  0.24383590503E+02  0.00000000000E+00 0.  1.
          1   -1    0    0  501    0 -0.00000000000E+00 -0.00000000000E+00 -0.11048126572E+03  0.11048126572E+03  0.00000000000E+00 0.  1.
          2    1    1    2  501    0  0.31127915215E+02 -0.29564027511E+01  0.10773800149E+02  0.33072075721E+02  0.00000000000E+00 0.  1.
          1    1    1    2  502    0 -0.31127915215E+02  0.29564027511E+01 -0.96871475368E+02  0.10179278050E+03  0.00000000000E+00 0.  1.
</event>
<event>
 4    1  0.3593938E+003  0.2489607E+02  0.7546771E-02  0.1469969E+00
          2   -1    0    0  502    0  0.00000000000E+00  0.00000000000E+00  0.29906600712E+02  0.29906600712E+02  0.00000000000E+00 0. -1.
          1   -1    0    0  501    0 -0.00000000000E+00 -0.00000000000E+00 -0.17159942394E+03  0.17159942394E+03  0.00000000000E+00 0.  1.
          2    1    1    2  501    0 -0.11714331350E+02 -0.21967905137E+02  0.23626637781E+02  0.34322477007E+02  0.00000000000E+00 0. -1.
          1    1    1    2  502    0  0.11714331350E+02  0.21967905137E+02 -0.16531946101E+03  0.16718354765E+03  0.00000000000E+00 0.  1.
</event>
<event>
 4    1  0.3593938E+003  0.2348227E+02  0.7546771E-02  0.1486529E+00
          2   -1    0    0  502    0  0.00000000000E+00  0.00000000000E+00  0.28963688935E+02  0.28963688935E+02  0.00000000000E+00 0.  1.
          1   -1    0    0  501    0 -0.00000000000E+00 -0.00000000000E+00 -0.44898417362E+02  0.44898417362E+02  0.00000000000E+00 0. -1.
          2    1    1    2  501    0 -0.23166618133E+02 -0.38372660209E+01  0.20060639964E+02  0.30884398683E+02  0.00000000000E+00 0.  1.
          1    1    1    2  502    0  0.23166618133E+02  0.38372660209E+01 -0.35995368391E+02  0.42977707615E+02  0.00000000000E+00 0. -1.
</event>
<event>
 4    1  0.3593938E+003  0.3485916E+02  0.7546771E-02  0.1381556E+00
          2   -1    0    0  502    0  0.00000000000E+00  0.00000000000E+00  0.41815158201E+02  0.41815158201E+02  0.00000000000E+00 0.  1.
          1   -1    0    0  501    0 -0.00000000000E+00 -0.00000000000E+00 -0.38703169083E+02  0.38703169083E+02  0.00000000000E+00 0.  1.
          2    1    1    2  501    0 -0.32329920873E+02  0.13035955581E+02 -0.18539339187E+02  0.39482490031E+02  0.00000000000E+00 0.  1.
          1    1    1    2  502    0  0.32329920873E+02 -0.13035955581E+02  0.21651328305E+02  0.41035837252E+02  0.00000000000E+00 0.  1.
</event>
<event>
 4    1  0.3593938E+003  0.2150841E+02  0.7546771E-02  0.1512128E+00
          2   -1    0    0  502    0  0.00000000000E+00  0.00000000000E+00  0.44473258889E+02  0.44473258889E+02  0.00000000000E+00 0. -1.
          1   -1    0    0  501    0 -0.00000000000E+00 -0.00000000000E+00 -0.15542843841E+03  0.15542843841E+03  0.00000000000E+00 0.  1.
          2    1    1    2  501    0 -0.14606585783E+02 -0.15787953425E+02  0.41070748161E+02  0.46361818085E+02  0.00000000000E+00 0. -1.
          1    1    1    2  502    0  0.14606585783E+02  0.15787953425E+02 -0.15202592768E+03  0.15353987921E+03  0.00000000000E+00 0.  1.
</event>
<event>
 4    1  0.3593938E+003  0.2293828E+02  0.7546771E-02  0.1493275E+00
          2   -1    0    0  502    0  0.00000000000E+00  0.00000000000E+00  0.15925193966E+03  0.15925193966E+03  0.00000000000E+00 0.  1.
          1   -1    0    0  501    0 -0.00000000000E+00 -0.00000000000E+00 -0.21668154715E+02  0.21668154715E+02  0.00000000000E+00 0. -1.
          2    1    1    2  501    0  0.80838561759E+01 -0.21466620614E+02  0.15207014535E+03  0.15379042116E+03  0.00000000000E+00 0.  1.
          1    1    1    2  502    0 -0.80838561759E+01  0.21466620614E+02 -0.14486360407E+02  0.27129673221E+02  0.00000000000E+00 0. -1.
</event>
<event>
 4    1  0.3593938E+003  0.2135688E+02  0.7546771E-02  0.1514230E+00
          2   -1    0    0  502    0  0.00000000000E+00  0.00000000000E+00  0.14244845708E+02  0.14244845708E+02  0.00000000000E+00 0.  1.
          1   -1    0    0  501    0 -0.00000000000E+00 -0.00000000000E+00 -0.56754675260E+02  0.56754675260E+02  0.00000000000E+00 0.  1.
          2    1    1    2  501    0  0.17555195871E+02 -0.12162698930E+02  0.21809000191E+01  0.21467940568E+02  0.00000000000E+00 0.  1.
          1    1    1    2  502    0 -0.17555195871E+02  0.12162698930E+02 -0.44690729571E+02  0.49531580400E+02  0.00000000000E+00 0.  1.
</event>
<event>
 4    1  0.3593938E+003  0.2595735E+02  0.7546771E-02  0.1458372E+00
          2   -1    0    0  502    0  0.00000000000E+00  0.00000000000E+00  0.16621782517E+03  0.16621782517E+03  0.00000000000E+00 0.  1.
          1   -1    0    0  501    0 -0.00000000000E+00 -0.00000000000E+00 -0.58683164276E+03  0.58683164276E+03  0.00000000000E+00 0. -1.
          2    1    1    2  501    0  0.23940959786E+02  0.10030679385E+02  0.16491512316E+03  0.16694544598E+03  0.00000000000E+00 0.  1.
          1    1    1    2  502    0 -0.23940959786E+02 -0.10030679385E+02 -0.58552894075E+03  0.58610402195E+03  0.00000000000E+00 0. -1.
</event>
<event>
 4    1  0.3593938E+003  0.8277590E+02  0.7546771E-02  0.1197546E+00
          2   -1    0    0  502    0  0.00000000000E+00  0.00000000000E+00  0.41562680092E+02  0.41562680092E+02  0.00000000000E+00 0. -1.
          1   -1    0    0  501    0 -0.00000000000E+00 -0.00000000000E+00 -0.99505530861E+03  0.99505530861E+03  0.00000000000E+00 0.  1.
          2    1    1    2  501    0  0.67145521767E+02 -0.48407937692E+02 -0.33156687032E+01  0.82842278964E+02  0.00000000000E+00 0. -1.
          1    1    1    2  502    0 -0.67145521767E+02  0.48407937692E+02 -0.95017695982E+03  0.95377570974E+03  0.00000000000E+00 0.  1.
</event>
<event>
 4    1  0.3593938E+003  0.2060146E+02  0.7546771E-02  0.1525032E+00
          2   -1    0    0  502    0  0.00000000000E+00  0.00000000000E+00  0.15198935636E+02  0.15198935636E+02  0.00000000000E+00 0.  1.
          1   -1    0    0  501    0 -0.00000000000E+00 -0.00000000000E+00 -0.27988052861E+02  0.27988052861E+02  0.00000000000E+00 0.  1.
          2    1    1    2  501    0  0.14310341723E+02 -0.14820053018E+02 -0.74250363382E+01  0.21898653299E+02  0.00000000000E+00 0.  1.
          1    1    1    2  502    0 -0.14310341723E+02  0.14820053018E+02 -0.53640808868E+01  0.21288335197E+02  0.00000000000E+00 0.  1.
</event>
<event>
 4    1  0.3593938E+003  0.3208171E+02  0.7546771E-02  0.1402329E+00
          2   -1    0    0  502    0  0.00000000000E+00  0.00000000000E+00  0.91826920917E+02  0.91826920917E+02  0.00000000000E+00 0.  1.
          1   -1    0    0  501    0 -0.00000000000E+00 -0.00000000000E+00 -0.14119118022E+03  0.14119118022E+03  0.00000000000E+00 0. -1.
          2    1    1    2  501    0  0.17027640119E+02  0.27189984879E+02  0.87106784145E+02  0.92826869224E+02  0.00000000000E+00 0.  1.
          1    1    1    2  502    0 -0.17027640119E+02 -0.27189984879E+02 -0.13647104345E+03  0.14019123191E+03  0.00000000000E+00 0. -1.
</event>
<event>
 4    1  0.3593938E+003  0.2003913E+02  0.7546771E-02  0.1533438E+00
          2   -1    0    0  502    0  0.00000000000E+00  0.00000000000E+00  0.55749218512E+02  0.55749218512E+02  0.00000000000E+00 0. -1.
          1   -1    0    0  501    0 -0.00000000000E+00 -0.00000000000E+00 -0.42201578942E+03  0.42201578942E+03  0.00000000000E+00 0.  1.
          2    1    1    2  501    0  0.85218628968E+01 -0.18136824873E+02  0.53701786219E+02  0.57318831171E+02  0.00000000000E+00 0. -1.
          1    1    1    2  502    0 -0.85218628968E+01  0.18136824873E+02 -0.41996835713E+03  0.42044617677E+03  0.00000000000E+00 0.  1.
</event>
<event>
 4    1  0.3593938E+003  0.2938044E+02  0.7546771E-02  0.1425058E+00
          2   -1    0    0  502    0  0.00000000000E+00  0.00000000000E+00  0.13227704463E+03  0.13227704463E+03  0.00000000000E+00 0. -1.
          1   -1    0    0  501    0 -0.00000000000E+00 -0.00000000000E+00 -0.27816034222E+03  0.27816034222E+03  0.00000000000E+00 0.  1.
          2    1    1    2  501    0 -0.14652540389E+02  0.25465920659E+02  0.12985549367E+03  0.13313774555E+03  0.00000000000E+00 0. -1.
          1    1    1    2  502    0  0.14652540389E+02 -0.25465920659E+02 -0.27573879126E+03  0.27729964129E+03  0.00000000000E+00 0.  1.
</event>
<event>
 4    1  0.3593938E+003  0.3359811E+02  0.7546771E-02  0.1390696E+00
          2   -1    0    0  502    0  0.00000000000E+00  0.00000000000E+00  0.47377667775E+03  0.47377667775E+03  0.00000000000E+00 0. -1.
          1   -1    0    0  501    0 -0.00000000000E+00 -0.00000000000E+00 -0.84088373103E+02  0.84088373103E+02  0.00000000000E+00 0.  1.
          2    1    1    2  501    0 -0.32915339860E+02  0.67389231935E+01  0.46979653422E+03  0.47099640789E+03  0.00000000000E+00 0. -1.
          1    1    1    2  502    0  0.32915339860E+02 -0.67389231935E+01 -0.80108229574E+02  0.86868642958E+02  0.00000000000E+00 0.  1.
</event>
<event>
 4    1  0.3593938E+003  0.2606771E+02  0.7546771E-02  0.1457205E+00
          2   -1    0    0  502    0  0.00000000000E+00  0.00000000000E+00  0.41909468134E+03  0.41909468134E+03  0.00000000000E+00 0.  1.
          1   -1    0    0  501    0 -0.00000000000E+00 -0.00000000000E+00 -0.50401343029E+02  0.50401343029E+02  0.00000000000E+00 0.  1.
          2    1    1    2  501    0 -0.22616458904E+02 -0.12962311199E+02  0.41528788804E+03  0.41610522188E+03  0.00000000000E+00 0.  1.
          1    1    1    2  502    0  0.22616458904E+02  0.12962311199E+02 -0.46594549733E+02  0.53390802483E+02  0.00000000000E+00 0.  1.
</event>
<event>
 4    1  0.3593938E+003  0.2309162E+02  0.7546771E-02  0.1491351E+00
          2   -1    0    0  502    0  0.00000000000E+00  0.00000000000E+00  0.83518802529E+03  0.83518802529E+03  0.00000000000E+00 0. -1.
          1   -1    0    0  501    0 -0.00000000000E+00 -0.00000000000E+00 -0.91993960606E+00  0.91993960606E+00  0.00000000000E+00 0. -1.
          2    1    1    2  501    0 -0.24972580822E+01 -0.22956184245E+02  0.64838671140E+03  0.64879777297E+03  0.00000000000E+00 0. -1.
          1    1    1    2  502    0  0.24972580822E+01  0.22956184245E+02  0.18588137429E+03  0.18731019193E+03  0.00000000000E+00 0. -1.
</event>
<event>
 4    1  0.3593938E+003  0.2526891E+02  0.7546771E-02  0.1465817E+00
          2   -1    0    0  502    0  0.00000000000E+00  0.00000000000E+00  0.33075453167E+03  0.33075453167E+03  0.00000000000E+00 0.  1.
          1   -1    0    0  501    0 -0.00000000000E+00 -0.00000000000E+00 -0.26658752393E+01  0.26658752393E+01  0.00000000000E+00 0. -1.
          2    1    1    2  501    0 -0.10481812347E+02  0.22992382587E+02  0.25160316134E+03  0.25286887678E+03  0.00000000000E+00 0.  1.
          1    1    1    2  502    0  0.10481812347E+02 -0.22992382587E+02  0.76485495093E+02  0.80551530133E+02  0.00000000000E+00 0. -1.
</event>
<event>
 4    1  0.3593938E+003  0.2333345E+02  0.7546771E-02  0.1488353E+00
          2   -1    0    0  502    0  0.00000000000E+00  0.00000000000E+00  0.20174289406E+03  0.20174289406E+03  0.00000000000E+00 0. -1.
          1   -1    0    0  501    0 -0.00000000000E+00 -0.00000000000E+00 -0.54931640562E+03  0.54931640562E+03  0.00000000000E+00 0.  1.
          2    1    1    2  501    0  0.12617847142E+02  0.19627528269E+02  0.20081929015E+03  0.20217031738E+03  0.00000000000E+00 0. -1.
          1    1    1    2  502    0 -0.12617847142E+02 -0.19627528269E+02 -0.54839280170E+03  0.54888898230E+03  0.00000000000E+00 0.  1.
</event>
<event>
 4    1  0.3593938E+003  0.2193588E+02  0.7546771E-02  0.1506311E+00
          2   -1    0    0  502    0  0.00000000000E+00  0.00000000000E+00  0.70720133733E+02  0.70720133733E+02  0.00000000000E+00 0.  1.
          1   -1    0    0  501    0 -0.00000000000E+00 -0.00000000000E+00 -0.23810890687E+02  0.23810890687E+02  0.00000000000E+00 0. -1.
          2    1    1    2  501    0  0.12953077549E+02  0.17703118737E+02  0.63400179799E+02  0.67087744258E+02  0.00000000000E+00 0.  1.
          1    1    1    2  502    0 -0.12953077549E+02 -0.17703118737E+02 -0.16490936754E+02  0.27443280162E+02  0.00000000000E+00 0. -1.
</event>
<event>
 4    1  0.3593938E+003  0.2195018E+02  0.7546771E-02  0.1506119E+00
          2   -1    0    0  502    0  0.00000000000E+00  0.00000000000E+00  0.63300351632E+03  0.63300351632E+03  0.00000000000E+00 0.  1.
          1   -1    0    0  501    0 -0.00000000000E+00 -0.00000000000E+00 -0.10244734636E+01  0.10244734636E+01  0.00000000000E+00 0.  1.
          2    1    1    2  501    0 -0.11450418392E+01 -0.21920295631E+02  0.47671067712E+03  0.47721575850E+03  0.00000000000E+00 0.  1.
          1    1    1    2  502    0  0.11450418392E+01  0.21920295631E+02  0.15526836573E+03  0.15681223127E+03  0.00000000000E+00 0.  1.
</event>
<event>
 4    1  0.3593938E+003  0.2556674E+02  0.7546771E-02  0.1462562E+00
          2   -1    0    0  502    0  0.00000000000E+00  0.00000000000E+00  0.47553441257E+03  0.47553441257E+03  0.00000000000E+00 0.  1.
          1   -1    0    0  501    0 -0.00000000000E+00 -0.00000000000E+00 -0.14551905434E+01  0.14551905434E+01  0.00000000000E+00 0.  1.
          2    1    1    2  501    0  0.24432537485E+02  0.75305572704E+01  0.29317357877E+03  0.29428626450E+03  0.00000000000E+00 0.  1.
          1    1    1    2  502    0 -0.24432537485E+02 -0.75305572704E+01  0.18090564325E+03  0.18270333862E+03  0.00000000000E+00 0.  1.
</event>
<event>
 4    1  0.3593938E+003  0.2241339E+02  0.7546771E-02  0.1499999E+00
          2   -1    0    0  502    0  0.00000000000E+00  0.00000000000E+00  0.21719750727E+04  0.21719750727E+04  0.00000000000E+00 0.  1.
          1   -1    0    0  501    0 -0.00000000000E+00 -0.00000000000E+00 -0.32213820950E+00  0.32213820950E+00  0.00000000000E+00 0.  1.
          2    1    1    2  501    0 -0.22118926285E+02  0.36212191759E+01  0.16626220128E+04  0.16627730806E+04  0.00000000000E+00 0.  1.
          1    1    1    2  502    0  0.22118926285E+02 -0.36212191759E+01  0.50903092170E+03  0.50952413032E+03  0.00000000000E+00 0.  1.
</event>
<event>
 4    1  0.3593938E+003  0.4530761E+02  0.7546771E-02  0.1319908E+00
          2   -1    0    0  502    0  0.00000000000E+00  0.00000000000E+00  0.11767444767E+03  0.11767444767E+03  0.00000000000E+00 0.  1.
          1   -1    0    0  501    0 -0.00000000000E+00 -0.00000000000E+00 -0.36315122186E+02  0.36315122186E+02  0.00000000000E+00 0.  1.
          2    1    1    2  501    0  0.27459668619E+02 -0.36038126654E+02  0.96181821562E+02  0.10631896713E+03  0.00000000000E+00 0.  1.
          1    1    1    2  502    0 -0.27459668619E+02  0.36038126654E+02 -0.14822496083E+02  0.47670602718E+02  0.00000000000E+00 0.  1.
</event>
<event>
 4    1  0.3593938E+003  0.2239612E+02  0.7546771E-02  0.1500224E+00
          2   -1    0    0  502    0  0.00000000000E+00  0.00000000000E+00  0.17046176508E+03  0.17046176508E+03  0.00000000000E+00 0. -1.
          1   -1    0    0  501    0 -0.00000000000E+00 -0.00000000000E+00 -0.35566493580E+02  0.35566493580E+02  0.00000000000E+00 0. -1.
          2    1    1    2  501    0  0.87797056964E+01 -0.20603473056E+02  0.16610845809E+03  0.16761147390E+03  0.00000000000E+00 0. -1.
          1    1    1    2  502    0 -0.87797056964E+01  0.20603473056E+02 -0.31213186591E+02  0.38416784759E+02  0.00000000000E+00 0. -1.
</event>
<event>
 4    1  0.3593938E+003  0.2146622E+02  0.7546771E-02  0.1512711E+00
          2   -1    0    0  502    0  0.00000000000E+00  0.00000000000E+00  0.60205715951E+00  0.60205715951E+00  0.00000000000E+00 0. -1.
          1   -1    0    0  501    0 -0.00000000000E+00 -0.00000000000E+00 -0.83001842505E+03  0.83001842505E+03  0.00000000000E+00 0. -1.
          2    1    1    2  501    0 -0.21375393303E+02  0.19725985856E+01 -0.29880481617E+03  0.29957489339E+03  0.00000000000E+00 0. -1.
          1    1    1    2  502    0  0.21375393303E+02 -0.19725985856E+01 -0.53061155172E+03  0.53104558882E+03  0.00000000000E+00 0. -1.
</event>
<event>
 4    1  0.3593938E+003  0.2435659E+02  0.7546771E-02  0.1476132E+00
          2   -1    0    0  502    0  0.00000000000E+00  0.00000000000E+00  0.37593774004E+01  0.37593774004E+01  0.00000000000E+00 0. -1.
          1   -1    0    0  501    0 -0.00000000000E+00 -0.00000000000E+00 -0.20232885900E+03  0.20232885900E+03  0.00000000000E+00 0.  1.
          2    1    1    2  501    0  0.50664005879E+01 -0.23823829650E+02 -0.50945754854E+02  0.56468692314E+02  0.00000000000E+00 0. -1.
          1    1    1    2  502    0 -0.50664005879E+01  0.23823829650E+02 -0.14762372674E+03  0.14961954408E+03  0.00000000000E+00 0.  1.
</event>
<event>
 4    1  0.3593938E+003  0.2496126E+02  0.7546771E-02  0.1469237E+00
          2   -1    0    0  502    0  0.00000000000E+00  0.00000000000E+00  0.36190259848E+02  0.36190259848E+02  0.00000000000E+00 0. -1.
          1   -1    0    0  501    0 -0.00000000000E+00 -0.00000000000E+00 -0.19675888847E+02  0.19675888847E+02  0.00000000000E+00 0. -1.
          2    1    1    2  501    0 -0.10191698620E+02 -0.22785820839E+02  0.18133114995E+02  0.30852458759E+02  0.00000000000E+00 0. -1.
          1    1    1    2  502    0  0.10191698620E+02  0.22785820839E+02 -0.16187439952E+01  0.25013689935E+02  0.00000000000E+00 0. -1.
</event>
<event>
 4    1  0.3593938E+003  0.2762305E+02  0.7546771E-02  0.1441448E+00
          2   -1    0    0  502    0  0.00000000000E+00  0.00000000000E+00  0.43638976403E+02  0.43638976403E+02  0.00000000000E+00 0.  1.
          1   -1    0    0  501    0 -0.00000000000E+00 -0.00000000000E+00 -0.19157787821E+02  0.19157787821E+02  0.00000000000E+00 0.  1.
          2    1    1    2  501    0  0.49916471122E+01  0.27168292914E+02  0.21518279125E+02  0.35015268345E+02  0.00000000000E+00 0.  1.
          1    1    1    2  502    0 -0.49916471122E+01 -0.27168292914E+02  0.29629094566E+01  0.27781495878E+02  0.00000000000E+00 0.  1.
</event>
<event>
 4    1  0.3593938E+003  0.2196951E+02  0.7546771E-02  0.1505860E+00
          2   -1    0    0  502    0  0.00000000000E+00  0.00000000000E+00  0.13379536024E+04  0.13379536024E+04  0.00000000000E+00 0.  1.
          1   -1    0    0  501    0 -0.00000000000E+00 -0.00000000000E+00 -0.13962824983E+02  0.13962824983E+02  0.00000000000E+00 0. -1.
          2    1    1    2  501    0 -0.43964812646E+01 -0.21525108150E+02  0.13291644115E+04  0.13293459640E+04  0.00000000000E+00 0.  1.
          1    1    1    2  502    0  0.43964812646E+01  0.21525108150E+02 -0.51736340328E+01  0.22570463387E+02  0.00000000000E+00 0. -1.
</event>
<event>
 4    1  0.3593938E+003  0.2236546E+02  0.7546771E-02  0.1500624E+00
          2   -1    0    0  502    0  0.00000000000E+00  0.00000000000E+00  0.82727909544E+02  0.82727909544E+02  0.00000000000E+00 0. -1.
          1   -1    0    0  501    0 -0.00000000000E+00 -0.00000000000E+00 -0.11558293793E+03  0.11558293793E+03  0.00000000000E+00 0.  1.
          2    1    1    2  501    0  0.59954491039E+01 -0.21546888484E+02  0.80099512486E+02  0.83163367620E+02  0.00000000000E+00 0. -1.
          1    1    1    2  502    0 -0.59954491039E+01  0.21546888484E+02 -0.11295454087E+03  0.11514747985E+03  0.00000000000E+00 0.  1.
</event>
<event>
 4    1  0.4646078E+003  0.2073616E+02  0.7546771E-02  0.1523065E+00
          2   -1    0    0  502    0  0.00000000000E+00  0.00000000000E+00  0.14232994714E+04  0.14232994714E+04  0.00000000000E+00 0. -1.
          1   -1    0    0  501    0 -0.00000000000E+00 -0.00000000000E+00 -0.67445949578E+03  0.67445949578E+03  0.00000000000E+00 0.  1.
          2    1    1    2  501    0 -0.12308489517E+02  0.16688004978E+02  0.14230645358E+04  0.14232156061E+04  0.00000000000E+00 0. -1.
          1    1    1    2  502    0  0.12308489517E+02 -0.16688004978E+02 -0.67422456018E+03  0.67454336108E+03  0.00000000000E+00 0.  1.
</event>
<event>
 4    1  0.3593938E+003  0.2214877E+02  0.7546771E-02  0.1503473E+00
          2   -1    0    0  502    0  0.00000000000E+00  0.00000000000E+00  0.88088671722E+03  0.88088671722E+03  0.00000000000E+00 0. -1.
          1   -1    0    0  501    0 -0.00000000000E+00 -0.00000000000E+00 -0.12277280647E+01  0.12277280647E+01  0.00000000000E+00 0. -1.
          2    1    1    2  501    0 -0.21627930770E+02 -0.47750113302E+01  0.76585277244E+03  0.76617298124E+03  0.00000000000E+00 0. -1.
          1    1    1    2  502    0  0.21627930770E+02  0.47750113302E+01  0.11380621672E+03  0.11594146405E+03  0.00000000000E+00 0. -1.
</event>
<event>
 4    1  0.3593938E+003  0.3815156E+02  0.7546771E-02  0.1359672E+00
          2   -1    0    0  502    0  0.00000000000E+00  0.00000000000E+00  0.11967053182E+03  0.11967053182E+03  0.00000000000E+00 0. -1.
          1   -1    0    0  501    0 -0.00000000000E+00 -0.00000000000E+00 -0.14597301357E+02  0.14597301357E+02  0.00000000000E+00 0. -1.
          2    1    1    2  501    0  0.10111558668E+02 -0.36787193990E+02  0.79952444018E+02  0.88588569041E+02  0.00000000000E+00 0. -1.
          1    1    1    2  502    0 -0.10111558668E+02  0.36787193990E+02  0.25120786444E+02  0.45679264135E+02  0.00000000000E+00 0. -1.
</event>
<event>
 4    1  0.3593938E+003  0.3169182E+02  0.7546771E-02  0.1405443E+00
          2   -1    0    0  502    0  0.00000000000E+00  0.00000000000E+00  0.23774442665E+02  0.23774442665E+02  0.00000000000E+00 0. -1.
          1   -1    0    0  501    0 -0.00000000000E+00 -0.00000000000E+00 -0.82477523840E+02  0.82477523840E+02  0.00000000000E+00 0.  1.
          2    1    1    2  501    0 -0.30687422229E+02 -0.79154083662E+01  0.77526717979E+01  0.32626300628E+02  0.00000000000E+00 0. -1.
          1    1    1    2  502    0  0.30687422229E+02  0.79154083662E+01 -0.66455752973E+02  0.73625665877E+02  0.00000000000E+00 0.  1.
</event>
<event>
 4    1  0.3593938E+003  0.2174538E+02  0.7546771E-02  0.1508883E+00
          2   -1    0    0  502    0  0.00000000000E+00  0.00000000000E+00  0.52406558617E+03  0.52406558617E+03  0.00000000000E+00 0.  1.
          1   -1    0    0  501    0 -0.00000000000E+00 -0.00000000000E+00 -0.19404810204E+02  0.19404810204E+02  0.00000000000E+00 0.  1.
          2    1    1    2  501    0 -0.16839468522E+02 -0.13758405664E+02  0.51767274913E+03  0.51812926632E+03  0.00000000000E+00 0.  1.
          1    1    1    2  502    0  0.16839468522E+02  0.13758405664E+02 -0.13011973167E+02  0.25341130050E+02  0.00000000000E+00 0.  1.
</event>
<event>
 4    1  0.3593938E+003  0.2223193E+02  0.7546771E-02  0.1502375E+00
          2   -1    0    0  502    0  0.00000000000E+00  0.00000000000E+00  0.10482216166E+04  0.10482216166E+04  0.00000000000E+00 0. -1.
          1   -1    0    0  501    0 -0.00000000000E+00 -0.00000000000E+00 -0.19619202196E+02  0.19619202196E+02  0.00000000000E+00 0. -1.
          2    1    1    2  501    0  0.15952785500E+02  0.15484422454E+02  0.10417665659E+04  0.10420037603E+04  0.00000000000E+00 0. -1.
          1    1    1    2  502    0 -0.15952785500E+02 -0.15484422454E+02 -0.13164151520E+02  0.25837058447E+02  0.00000000000E+00 0. -1.
</event>
<event>
 4    1  0.3593938E+003  0.2831749E+02  0.7546771E-02  0.1434804E+00
          2   -1    0    0  502    0  0.00000000000E+00  0.00000000000E+00  0.18846834020E+04  0.18846834020E+04  0.00000000000E+00 0. -1.
          1   -1    0    0  501    0 -0.00000000000E+00 -0.00000000000E+00 -0.23054925135E+03  0.23054925135E+03  0.00000000000E+00 0.  1.
          2    1    1    2  501    0  0.15062469388E+02  0.23979207673E+02  0.18837070506E+04  0.18839198850E+04  0.00000000000E+00 0. -1.
          1    1    1    2  502    0 -0.15062469388E+02 -0.23979207673E+02 -0.22957290001E+03  0.23131276835E+03  0.00000000000E+00 0.  1.
</event>
<event>
 4    1  0.3593938E+003  0.4007135E+02  0.7546771E-02  0.1348068E+00
          2   -1    0    0  502    0  0.00000000000E+00  0.00000000000E+00  0.28337381320E+02  0.28337381320E+02  0.00000000000E+00 0. -1.
          1   -1    0    0  501    0 -0.00000000000E+00 -0.00000000000E+00 -0.14782558390E+03  0.14782558390E+03  0.00000000000E+00 0. -1.
          2    1    1    2  501    0 -0.14948985684E+02  0.37178495837E+02  0.94255305512E+01  0.41164952956E+02  0.00000000000E+00 0. -1.
          1    1    1    2  502    0  0.14948985684E+02 -0.37178495837E+02 -0.12891373313E+03  0.13499801226E+03  0.00000000000E+00 0. -1.
</event>
<event>
 4    1  0.3593938E+003  0.3965216E+02  0.7546771E-02  0.1350536E+00
          2   -1    0    0  502    0  0.00000000000E+00  0.00000000000E+00  0.96908820023E+03  0.96908820023E+03  0.00000000000E+00 0.  1.
          1   -1    0    0  501    0 -0.00000000000E+00 -0.00000000000E+00 -0.43341100161E+01  0.43341100161E+01  0.00000000000E+00 0.  1.
          2    1    1    2  501    0 -0.38937277222E+02 -0.74954558027E+01  0.86735801465E+03  0.86826391091E+03  0.00000000000E+00 0.  1.
          1    1    1    2  502    0  0.38937277222E+02  0.74954558027E+01  0.97396075561E+02  0.10515839933E+03  0.00000000000E+00 0.  1.
</event>
<event>
 4    1  0.3593938E+003  0.3605896E+02  0.7546771E-02  0.1373267E+00
          2   -1    0    0  502    0  0.00000000000E+00  0.00000000000E+00  0.70354127646E+02  0.70354127646E+02  0.00000000000E+00 0.  1.
          1   -1    0    0  501    0 -0.00000000000E+00 -0.00000000000E+00 -0.77895416364E+03  0.77895416364E+03  0.00000000000E+00 0. -1.
          2    1    1    2  501    0  0.20024441255E+01  0.36003316428E+02  0.65286210334E+02  0.74582423103E+02  0.00000000000E+00 0.  1.
          1    1    1    2  502    0 -0.20024441255E+01 -0.36003316428E+02 -0.77388624633E+03  0.77472586818E+03  0.00000000000E+00 0. -1.
</event>
<event>
 4    1  0.3593938E+003  0.2250720E+02  0.7546771E-02  0.1498781E+00
          2   -1    0    0  502    0  0.00000000000E+00  0.00000000000E+00  0.81624159463E+02  0.81624159463E+02  0.00000000000E+00 0. -1.
          1   -1    0    0  501    0 -0.00000000000E+00 -0.00000000000E+00 -0.15990195464E+02  0.15990195464E+02  0.00000000000E+00 0.  1.
          2    1    1    2  501    0  0.57960690066E+01  0.21748090416E+02  0.70995184169E+02  0.74477446438E+02  0.00000000000E+00 0. -1.
          1    1    1    2  502    0 -0.57960690066E+01 -0.21748090416E+02 -0.53612201709E+01  0.23136908489E+02  0.00000000000E+00 0.  1.
</event>
<event>
 4    1  0.3593938E+003  0.3410946E+02  0.7546771E-02  0.1386934E+00
          2   -1    0    0  502    0  0.00000000000E+00  0.00000000000E+00  0.28602434788E+02  0.28602434788E+02  0.00000000000E+00 0.  1.
          1   -1    0    0  501    0 -0.00000000000E+00 -0.00000000000E+00 -0.62855474218E+02  0.62855474218E+02  0.00000000000E+00 0.  1.
          2    1    1    2  501    0  0.21794045469E+02 -0.26238804790E+02  0.10037096530E+02  0.35555570610E+02  0.00000000000E+00 0.  1.
          1    1    1    2  502    0 -0.21794045469E+02  0.26238804790E+02 -0.44290135961E+02  0.55902338396E+02  0.00000000000E+00 0.  1.
</event>
<event>
 4    1  0.3593938E+003  0.3070164E+02  0.7546771E-02  0.1413595E+00
          2   -1    0    0  502    0  0.00000000000E+00  0.00000000000E+00  0.25095707280E+03  0.25095707280E+03  0.00000000000E+00 0.  1.
          1   -1    0    0  501    0 -0.00000000000E+00 -0.00000000000E+00 -0.91313091974E+02  0.91313091974E+02  0.00000000000E+00 0.  1.
          2    1    1    2  501    0  0.29606956090E+02  0.81251947486E+01  0.24740046356E+03  0.24929817490E+03  0.00000000000E+00 0.  1.
          1    1    1    2  502    0 -0.29606956090E+02 -0.81251947486E+01 -0.87756482736E+02  0.92971989872E+02  0.00000000000E+00 0.  1.
</event>
<event>
 4    1  0.3593938E+003  0.2688163E+02  0.7546771E-02  0.1448801E+00
          2   -1    0    0  502    0  0.00000000000E+00  0.00000000000E+00  0.12680210332E+04  0.12680210332E+04  0.00000000000E+00 0.  1.
          1   -1    0    0  501    0 -0.00000000000E+00 -0.00000000000E+00 -0.13991525545E+01  0.13991525545E+01  0.00000000000E+00 0.  1.
          2    1    1    2  501    0  0.68846520790E+01 -0.25985063388E+02  0.11219532592E+04  0.11222752505E+04  0.00000000000E+00 0.  1.
          1    1    1    2  502    0 -0.68846520790E+01  0.25985063388E+02  0.14466862145E+03  0.14714493531E+03  0.00000000000E+00 0.  1.
</event>
<event>
 4    1  0.3593938E+003  0.2906619E+02  0.7546771E-02  0.1427888E+00
          2   -1    0    0  502    0  0.00000000000E+00  0.00000000000E+00  0.20910434667E+04  0.20910434667E+04  0.00000000000E+00 0. -1.
          1   -1    0    0  501    0 -0.00000000000E+00 -0.00000000000E+00 -0.66380940347E+01  0.66380940347E+01  0.00000000000E+00 0.  1.
          2    1    1    2  501    0 -0.69911122872E+01  0.28212896868E+02  0.20586234129E+04  0.20588285988E+04  0.00000000000E+00 0. -1.
          1    1    1    2  502    0  0.69911122872E+01 -0.28212896868E+02  0.25781959800E+02  0.38852961945E+02  0.00000000000E+00 0.  1.
</event>
<event>
 4    1  0.3593938E+003  0.6290175E+02  0.7546771E-02  0.1250280E+00
          2   -1    0    0  502    0  0.00000000000E+00  0.00000000000E+00  0.10445768113E+03  0.10445768113E+03  0.00000000000E+00 0.  1.
          1   -1    0    0  501    0 -0.00000000000E+00 -0.00000000000E+00 -0.58910126002E+03  0.58910126002E+03  0.00000000000E+00 0. -1.
          2    1    1    2  501    0  0.51521600944E+02  0.36085382602E+02  0.93123917662E+02  0.11237746323E+03  0.00000000000E+00 0.  1.
          1    1    1    2  502    0 -0.51521600944E+02 -0.36085382602E+02 -0.57776749656E+03  0.58118147792E+03  0.00000000000E+00 0. -1.
</event>
<event>
 4    1  0.3593938E+003  0.2237590E+02  0.7546771E-02  0.1500487E+00
          2   -1    0    0  502    0  0.00000000000E+00  0.00000000000E+00  0.14900411015E+03  0.14900411015E+03  0.00000000000E+00 0. -1.
          1   -1    0    0  501    0 -0.00000000000E+00 -0.00000000000E+00 -0.51026730220E+02  0.51026730220E+02  0.00000000000E+00 0.  1.
          2    1    1    2  501    0 -0.17702525940E+02 -0.13685818378E+02  0.14565495574E+03  0.14736365624E+03  0.00000000000E+00 0. -1.
          1    1    1    2  502    0  0.17702525940E+02  0.13685818378E+02 -0.47677575807E+02  0.52667184130E+02  0.00000000000E+00 0.  1.
</event>
<event>
 4    1  0.3593938E+003  0.2050504E+02  0.7546771E-02  0.1526450E+00
          2   -1    0    0  502    0  0.00000000000E+00  0.00000000000E+00  0.68563139530E+01  0.68563139530E+01  0.00000000000E+00 0. -1.
          1   -1    0    0  501    0 -0.00000000000E+00 -0.00000000000E+00 -0.55003866924E+03  0.55003866924E+03  0.00000000000E+00 0. -1.
          2    1    1    2  501    0  0.14088336559E+02 -0.14898839804E+02 -0.91243740450E+01  0.22443503653E+02  0.00000000000E+00 0. -1.
          1    1    1    2  502    0 -0.14088336559E+02  0.14898839804E+02 -0.53405798124E+03  0.53445147954E+03  0.00000000000E+00 0. -1.
</event>
<event>
 4    1  0.3593938E+003  0.2106896E+02  0.7546771E-02  0.1518282E+00
          2   -1    0    0  502    0  0.00000000000E+00  0.00000000000E+00  0.17892473843E+04  0.17892473843E+04  0.00000000000E+00 0.  1.
          1   -1    0    0  501    0 -0.00000000000E+00 -0.00000000000E+00 -0.51945365051E+00  0.51945365051E+00  0.00000000000E+00 0.  1.
          2    1    1    2  501    0  0.17923161716E+02  0.11075256922E+02  0.15411578701E+04  0.15413018788E+04  0.00000000000E+00 0.  1.
          1    1    1    2  502    0 -0.17923161716E+02 -0.11075256922E+02  0.24757006050E+03  0.24846495910E+03  0.00000000000E+00 0.  1.
</event>
<event>
 4    1  0.3593938E+003  0.2984959E+02  0.7546771E-02  0.1420908E+00
          2   -1    0    0  502    0  0.00000000000E+00  0.00000000000E+00  0.44712950085E+03  0.44712950085E+03  0.00000000000E+00 0. -1.
          1   -1    0    0  501    0 -0.00000000000E+00 -0.00000000000E+00 -0.97411617609E+01  0.97411617609E+01  0.00000000000E+00 0.  1.
          2    1    1    2  501    0 -0.28346209341E+01 -0.29714691454E+02  0.42242908177E+03  0.42348238108E+03  0.00000000000E+00 0. -1.
          1    1    1    2  502    0  0.28346209341E+01  0.29714691454E+02  0.14959257327E+02  0.33388281535E+02  0.00000000000E+00 0.  1.
</event>
<event>
 4    1  0.3593938E+003  0.2367217E+02  0.7546771E-02  0.1484226E+00
          2   -1    0    0  502    0  0.00000000000E+00  0.00000000000E+00  0.48806258388E+01  0.48806258388E+01  0.00000000000E+00 0.  1.
          1   -1    0    0  501    0 -0.00000000000E+00 -0.00000000000E+00 -0.14024177404E+03  0.14024177404E+03  0.00000000000E+00 0.  1.
          2    1    1    2  501    0  0.22947554505E+02  0.58121913627E+01 -0.36784269259E+02  0.43743048489E+02  0.00000000000E+00 0.  1.
          1    1    1    2  502    0 -0.22947554505E+02 -0.58121913627E+01 -0.98576878946E+02  0.10137935139E+03  0.00000000000E+00 0.  1.
</event>
<event>
 4    1  0.3593938E+003  0.2011336E+02  0.7546771E-02  0.1532310E+00
          2   -1    0    0  502    0  0.00000000000E+00  0.00000000000E+00  0.15833754539E+03  0.15833754539E+03  0.00000000000E+00 0. -1.
          1   -1    0    0  501    0 -0.00000000000E+00 -0.00000000000E+00 -0.12624218164E+04  0.12624218164E+04  0.00000000000E+00 0.  1.
          2    1    1    2  501    0  0.16925487064E+02 -0.10866229387E+02  0.15761832650E+03  0.15889645655E+03  0.00000000000E+00 0. -1.
          1    1    1    2  502    0 -0.16925487064E+02  0.10866229387E+02 -0.12617025975E+04  0.12618629053E+04  0.00000000000E+00 0.  1.
</event>
<event>
 4    1  0.3593938E+003  0.2493029E+02  0.7546771E-02  0.1469585E+00
          2   -1    0    0  502    0  0.00000000000E+00  0.00000000000E+00  0.17399717122E+03  0.17399717122E+03  0.00000000000E+00 0.  1.
          1   -1    0    0  501    0 -0.00000000000E+00 -0.00000000000E+00 -0.90467606744E+03  0.90467606744E+03  0.00000000000E+00 0.  1.
          2    1    1    2  501    0 -0.13996511271E+02 -0.20630481982E+02  0.17293136453E+03  0.17471913448E+03  0.00000000000E+00 0.  1.
          1    1    1    2  502    0  0.13996511271E+02  0.20630481982E+02 -0.90361026075E+03  0.90395410417E+03  0.00000000000E+00 0.  1.
</event>
<event>
 4    1  0.3593938E+003  0.5705284E+02  0.7546771E-02  0.1270189E+00
          2   -1    0    0  502    0  0.00000000000E+00  0.00000000000E+00  0.86102692486E+01  0.86102692486E+01  0.00000000000E+00 0. -1.
          1   -1    0    0  501    0 -0.00000000000E+00 -0.00000000000E+00 -0.59086736268E+03  0.59086736268E+03  0.00000000000E+00 0. -1.
          2    1    1    2  501    0  0.54995859939E+02 -0.15181620204E+02 -0.11123660217E+03  0.12501443063E+03  0.00000000000E+00 0. -1.
          1    1    1    2  502    0 -0.54995859939E+02  0.15181620204E+02 -0.47102049126E+03  0.47446320130E+03  0.00000000000E+00 0. -1.
</event>
<event>
 4    1  0.3593938E+003  0.2185791E+02  0.7546771E-02  0.1507360E+00
          2   -1    0    0  502    0  0.00000000000E+00  0.00000000000E+00  0.57063932117E+01  0.57063932117E+01  0.00000000000E+00 0. -1.
          1   -1    0    0  501    0 -0.00000000000E+00 -0.00000000000E+00 -0.40159050272E+03  0.40159050272E+03  0.00000000000E+00 0. -1.
          2    1    1    2  501    0 -0.58688610685E+01 -0.21055280481E+02 -0.16761737689E+02  0.27544949024E+02  0.00000000000E+00 0. -1.
          1    1    1    2  502    0  0.58688610685E+01  0.21055280481E+02 -0.37912237182E+03  0.37975194691E+03  0.00000000000E+00 0. -1.
</event>
<event>
 4    1  0.3593938E+003  0.2198488E+02  0.7546771E-02  0.1505654E+00
          2   -1    0    0  502    0  0.00000000000E+00  0.00000000000E+00  0.20152403158E+02  0.20152403158E+02  0.00000000000E+00 0. -1.
          1   -1    0    0  501    0 -0.00000000000E+00 -0.00000000000E+00 -0.54785951566E+02  0.54785951566E+02  0.00000000000E+00 0. -1.
          2    1    1    2  501    0 -0.77567546760E+01  0.20571035522E+02  0.10778213248E+02  0.24484783568E+02  0.00000000000E+00 0. -1.
          1    1    1    2  502    0  0.77567546760E+01 -0.20571035522E+02 -0.45411761656E+02  0.50453571155E+02  0.00000000000E+00 0. -1.
</event>
<event>
 4    1  0.3593938E+003  0.3294248E+02  0.7546771E-02  0.1395635E+00
          2   -1    0    0  502    0  0.00000000000E+00  0.00000000000E+00  0.21594057297E+03  0.21594057297E+03  0.00000000000E+00 0.  1.
          1   -1    0    0  501    0 -0.00000000000E+00 -0.00000000000E+00 -0.22864377108E+02  0.22864377108E+02  0.00000000000E+00 0. -1.
          2    1    1    2  501    0 -0.86661281870E+01  0.31782148016E+02  0.20200532981E+03  0.20467378919E+03  0.00000000000E+00 0.  1.
          1    1    1    2  502    0  0.86661281870E+01 -0.31782148016E+02 -0.89291339506E+01  0.34131160885E+02  0.00000000000E+00 0. -1.
</event>
<event>
 4    1  0.3593938E+003  0.2277047E+02  0.7546771E-02  0.1495401E+00
          2   -1    0    0  502    0  0.00000000000E+00  0.00000000000E+00  0.14038554753E+04  0.14038554753E+04  0.00000000000E+00 0.  1.
          1   -1    0    0  501    0 -0.00000000000E+00 -0.00000000000E+00 -0.50793552683E+02  0.50793552683E+02  0.00000000000E+00 0. -1.
          2    1    1    2  501    0  0.83835593332E+01 -0.21170973601E+02  0.14012063484E+04  0.14013913532E+04  0.00000000000E+00 0.  1.
          1    1    1    2  502    0 -0.83835593332E+01  0.21170973601E+02 -0.48144425747E+02  0.53257674760E+02  0.00000000000E+00 0. -1.
</event>
<event>
 4    1  0.3593938E+003  0.2622305E+02  0.7546771E-02  0.1455573E+00
          2   -1    0    0  502    0  0.00000000000E+00  0.00000000000E+00  0.19413979385E+03  0.19413979385E+03  0.00000000000E+00 0.  1.
          1   -1    0    0  501    0 -0.00000000000E+00 -0.00000000000E+00 -0.37689414091E+01  0.37689414091E+01  0.00000000000E+00 0.  1.
          2    1    1    2  501    0  0.19808587276E+02  0.17183377217E+02  0.11946580018E+03  0.12230995869E+03  0.00000000000E+00 0.  1.
          1    1    1    2  502    0 -0.19808587276E+02 -0.17183377217E+02  0.70905052266E+02  0.75598776573E+02  0.00000000000E+00 0.  1.
</event>
<event>
 4    1  0.3593938E+003  0.2977315E+02  0.7546771E-02  0.1421578E+00
          2   -1    0    0  502    0  0.00000000000E+00  0.00000000000E+00  0.73280885717E+03  0.73280885717E+03  0.00000000000E+00 0. -1.
          1   -1    0    0  501    0 -0.00000000000E+00 -0.00000000000E+00 -0.18210776212E+03  0.18210776212E+03  0.00000000000E+00 0.  1.
          2    1    1    2  501    0 -0.16331135448E+02 -0.24894468272E+02  0.73128699624E+03  0.73189282781E+03  0.00000000000E+00 0. -1.
          1    1    1    2  502    0  0.16331135448E+02  0.24894468272E+02 -0.18058590119E+03  0.18302379147E+03  0.00000000000E+00 0.  1.
</event>
<event>
 4    1  0.3593938E+003  0.3212914E+02  0.7546771E-02  0.1401954E+00
          2   -1    0    0  502    0  0.00000000000E+00  0.00000000000E+00  0.18363033760E+04  0.18363033760E+04  0.00000000000E+00 0.  1.
          1   -1    0    0  501    0 -0.00000000000E+00 -0.00000000000E+00 -0.83042766599E+02  0.83042766599E+02  0.00000000000E+00 0.  1.
          2    1    1    2  501    0 -0.31381971499E+02  0.68886604309E+01  0.18330496410E+04  0.18333311943E+04  0.00000000000E+00 0.  1.
          1    1    1    2  502    0  0.31381971499E+02 -0.68886604309E+01 -0.79789031546E+02  0.86014948310E+02  0.00000000000E+00 0.  1.
</event>
<event>
 4    1  0.3593938E+003  0.2015040E+02  0.7546771E-02  0.1531749E+00
          2   -1    0    0  502    0  0.00000000000E+00  0.00000000000E+00  0.68214395721E+03  0.68214395721E+03  0.00000000000E+00 0. -1.
          1   -1    0    0  501    0 -0.00000000000E+00 -0.00000000000E+00 -0.14669626462E+03  0.14669626462E+03  0.00000000000E+00 0.  1.
          2    1    1    2  501    0 -0.14977436154E+00  0.20149839328E+02  0.68130232155E+03  0.68160024341E+03  0.00000000000E+00 0. -1.
          1    1    1    2  502    0  0.14977436154E+00 -0.20149839328E+02 -0.14585462896E+03  0.14723997842E+03  0.00000000000E+00 0.  1.
</event>
<event>
 4    1  0.3593938E+003  0.3155993E+02  0.7546771E-02  0.1406508E+00
          2   -1    0    0  502    0  0.00000000000E+00  0.00000000000E+00  0.92331361392E+02  0.92331361392E+02  0.00000000000E+00 0. -1.
          1   -1    0    0  501    0 -0.00000000000E+00 -0.00000000000E+00 -0.42873524174E+02  0.42873524174E+02  0.00000000000E+00 0.  1.
          2    1    1    2  501    0 -0.30184369167E+02 -0.92158962889E+01  0.83211351825E+02  0.88995269307E+02  0.00000000000E+00 0. -1.
          1    1    1    2  502    0  0.30184369167E+02  0.92158962889E+01 -0.33753514608E+02  0.46209616259E+02  0.00000000000E+00 0.  1.
</event>
<event>
 4    1  0.3593938E+003  0.3374800E+02  0.7546771E-02  0.1389585E+00
          2   -1    0    0  502    0  0.00000000000E+00  0.00000000000E+00  0.87972994344E+02  0.87972994344E+02  0.00000000000E+00 0.  1.
          1   -1    0    0  501    0 -0.00000000000E+00 -0.00000000000E+00 -0.10839090256E+03  0.10839090256E+03  0.00000000000E+00 0.  1.
          2    1    1    2  501    0  0.30111841734E+02 -0.15238248213E+02  0.81923121209E+02  0.88602059851E+02  0.00000000000E+00 0.  1.
          1    1    1    2  502    0 -0.30111841734E+02  0.15238248213E+02 -0.10234102943E+03  0.10776183706E+03  0.00000000000E+00 0.  1.
</event>
<event>
 4    1  0.3593938E+003  0.5093797E+02  0.7546771E-02  0.1294156E+00
          2   -1    0    0  502    0  0.00000000000E+00  0.00000000000E+00  0.54748069112E+03  0.54748069112E+03  0.00000000000E+00 0. -1.
          1   -1    0    0  501    0 -0.00000000000E+00 -0.00000000000E+00 -0.17978790387E+02  0.17978790387E+02  0.00000000000E+00 0. -1.
          2    1    1    2  501    0 -0.13287625207E+02  0.49174339157E+02  0.50737109290E+03  0.50992166313E+03  0.00000000000E+00 0. -1.
          1    1    1    2  502    0  0.13287625207E+02 -0.49174339157E+02  0.22130807835E+02  0.55537818381E+02  0.00000000000E+00 0. -1.
</event>
<event>
 4    1  0.3593938E+003  0.2231043E+02  0.7546771E-02  0.1501344E+00
          2   -1    0    0  502    0  0.00000000000E+00  0.00000000000E+00  0.21506209260E+02  0.21506209260E+02  0.00000000000E+00 0.  1.
          1   -1    0    0  501    0 -0.00000000000E+00 -0.00000000000E+00 -0.23184562673E+02  0.23184562673E+02  0.00000000000E+00 0.  1.
          2    1    1    2  501    0 -0.23494063739E+01  0.22186382076E+02  0.87109763264E-01  0.22310599455E+02  0.00000000000E+00 0.  1.
          1    1    1    2  502    0  0.23494063739E+01 -0.22186382076E+02 -0.17654631767E+01  0.22380172478E+02  0.00000000000E+00 0.  1.
</event>
<event>
 4    1  0.3593938E+003  0.3823706E+02  0.7546771E-02  0.1359138E+00
          2   -1    0    0  502    0  0.00000000000E+00  0.00000000000E+00  0.32850134858E+01  0.32850134858E+01  0.00000000000E+00 0. -1.
          1   -1    0    0  501    0 -0.00000000000E+00 -0.00000000000E+00 -0.57251094083E+03  0.57251094083E+03  0.00000000000E+00 0.  1.
          2    1    1    2  501    0  0.36721632448E+02  0.10658059980E+02 -0.14878312150E+03  0.15361799951E+03  0.00000000000E+00 0. -1.
          1    1    1    2  502    0 -0.36721632448E+02 -0.10658059980E+02 -0.42044280585E+03  0.42217795480E+03  0.00000000000E+00 0.  1.
</event>
<event>
 4    1  0.3593938E+003  0.4277003E+02  0.7546771E-02  0.1332976E+00
          2   -1    0    0  502    0  0.00000000000E+00  0.00000000000E+00  0.28269807604E+04  0.28269807604E+04  0.00000000000E+00 0.  1.
          1   -1    0    0  501    0 -0.00000000000E+00 -0.00000000000E+00 -0.65440848955E+00  0.65440848955E+00  0.00000000000E+00 0. -1.
          2    1    1    2  501    0 -0.25812502888E+02 -0.34102610798E+02  0.12635140978E+04  0.12642377738E+04  0.00000000000E+00 0.  1.
          1    1    1    2  502    0  0.25812502888E+02  0.34102610798E+02  0.15628122541E+04  0.15633973951E+04  0.00000000000E+00 0. -1.
</event>
<event>
 4    1  0.3593938E+003  0.2423278E+02  0.7546771E-02  0.1477572E+00
          2   -1    0    0  502    0  0.00000000000E+00  0.00000000000E+00  0.53137581567E+01  0.53137581567E+01  0.00000000000E+00 0.  1.
          1   -1    0    0  501    0 -0.00000000000E+00 -0.00000000000E+00 -0.16102507815E+03  0.16102507815E+03  0.00000000000E+00 0.  1.
          2    1    1    2  501    0  0.19687280310E+02 -0.14129344636E+02 -0.31273008473E+02  0.39562968099E+02  0.00000000000E+00 0.  1.
          1    1    1    2  502    0 -0.19687280310E+02  0.14129344636E+02 -0.12443831152E+03  0.12677586821E+03  0.00000000000E+00 0.  1.
</event>
<event>
 4    1  0.3593938E+003  0.2319203E+02  0.7546771E-02  0.1490101E+00
          2   -1    0    0  502    0  0.00000000000E+00  0.00000000000E+00  0.61985308149E+03  0.61985308149E+03  0.00000000000E+00 0.  1.
          1   -1    0    0  501    0 -0.00000000000E+00 -0.00000000000E+00 -0.86787780659E+00  0.86787780659E+00  0.00000000000E+00 0.  1.
          2    1    1    2  501    0 -0.19979202814E+02 -0.11777152788E+02  0.30554891554E+03  0.30642782129E+03  0.00000000000E+00 0.  1.
          1    1    1    2  502    0  0.19979202814E+02  0.11777152788E+02  0.31343628814E+03  0.31429313800E+03  0.00000000000E+00 0.  1.
</event>
<event>
 4    1  0.3593938E+003  0.2219153E+02  0.7546771E-02  0.1502907E+00
          2   -1    0    0  502    0  0.00000000000E+00  0.00000000000E+00  0.28110766693E+03  0.28110766693E+03  0.00000000000E+00 0. -1.
          1   -1    0    0  501    0 -0.00000000000E+00 -0.00000000000E+00 -0.68320950338E+02  0.68320950338E+02  0.00000000000E+00 0. -1.
          2    1    1    2  501    0 -0.13497507442E+02  0.17614807284E+02  0.27885312829E+03  0.27973475169E+03  0.00000000000E+00 0. -1.
          1    1    1    2  502    0  0.13497507442E+02 -0.17614807284E+02 -0.66066411707E+02  0.69693865574E+02  0.00000000000E+00 0. -1.
</event>
<event>
 4    1  0.3593938E+003  0.2550873E+02  0.7546771E-02  0.1463192E+00
          2   -1    0    0  502    0  0.00000000000E+00  0.00000000000E+00  0.16575425874E+03  0.16575425874E+03  0.00000000000E+00 0. -1.
          1   -1    0    0  501    0 -0.00000000000E+00 -0.00000000000E+00 -0.26376250327E+02  0.26376250327E+02  0.00000000000E+00 0. -1.
          2    1    1    2  501    0  0.23684536766E+02  0.94730133013E+01  0.15831755930E+03  0.16035942393E+03  0.00000000000E+00 0. -1.
          1    1    1    2  502    0 -0.23684536766E+02 -0.94730133013E+01 -0.18939550883E+02  0.31771085133E+02  0.00000000000E+00 0. -1.
</event>
<event>
 4    1  0.3593938E+003  0.2580741E+02  0.7546771E-02  0.1459970E+00
          2   -1    0    0  502    0  0.00000000000E+00  0.00000000000E+00  0.43604004102E+03  0.43604004102E+03  0.00000000000E+00 0.  1.
          1   -1    0    0  501    0 -0.00000000000E+00 -0.00000000000E+00 -0.43634524222E+01  0.43634524222E+01  0.00000000000E+00 0.  1.
          2    1    1    2  501    0 -0.12297255018E+01 -0.25778098788E+02  0.39336354012E+03  0.39420920499E+03  0.00000000000E+00 0.  1.
          1    1    1    2  502    0  0.12297255018E+01  0.25778098788E+02  0.38313048469E+02  0.46194288445E+02  0.00000000000E+00 0.  1.
</event>
<event>
 4    1  0.3593938E+003  0.2399236E+02  0.7546771E-02  0.1480399E+00
          2   -1    0    0  502    0  0.00000000000E+00  0.00000000000E+00  0.16024532149E+03  0.16024532149E+03  0.00000000000E+00 0.  1.
          1   -1    0    0  501    0 -0.00000000000E+00 -0.00000000000E+00 -0.28020792999E+02  0.28020792999E+02  0.00000000000E+00 0.  1.
          2    1    1    2  501    0 -0.15091160583E+02  0.18651815181E+02  0.15400463413E+03  0.15586231318E+03  0.00000000000E+00 0.  1.
          1    1    1    2  502    0  0.15091160583E+02 -0.18651815181E+02 -0.21780105641E+02  0.32403801305E+02  0.00000000000E+00 0.  1.
</event>
<event>
 4    1  0.3593938E+003  0.5074824E+02  0.7546771E-02  0.1294961E+00
          2   -1    0    0  502    0  0.00000000000E+00  0.00000000000E+00  0.43321869407E+01  0.43321869407E+01  0.00000000000E+00 0. -1.
          1   -1    0    0  501    0 -0.00000000000E+00 -0.00000000000E+00 -0.11435527230E+04  0.11435527230E+04  0.00000000000E+00 0.  1.
          2    1    1    2  501    0  0.22972902284E+02  0.45250738870E+02 -0.17190939139E+03  0.17924347256E+03  0.00000000000E+00 0. -1.
          1    1    1    2  502    0 -0.22972902284E+02 -0.45250738870E+02 -0.96731114463E+03  0.96864143734E+03  0.00000000000E+00 0.  1.
</event>
<event>
 4    1  0.3593938E+003  0.2508044E+02  0.7546771E-02  0.1467905E+00
          2   -1    0    0  502    0  0.00000000000E+00  0.00000000000E+00  0.19514588479E+02  0.19514588479E+02  0.00000000000E+00 0. -1.
          1   -1    0    0  501    0 -0.00000000000E+00 -0.00000000000E+00 -0.44314035113E+02  0.44314035113E+02  0.00000000000E+00 0. -1.
          2    1    1    2  501    0 -0.22484690675E+02 -0.11111587051E+02  0.42632744788E+01  0.25440208152E+02  0.00000000000E+00 0. -1.
          1    1    1    2  502    0  0.22484690675E+02  0.11111587051E+02 -0.29062721113E+02  0.38388415440E+02  0.00000000000E+00 0. -1.
</event>
<event>
 4    1  0.3593938E+003  0.2362219E+02  0.7546771E-02  0.1484830E+00
          2   -1    0    0  502    0  0.00000000000E+00  0.00000000000E+00  0.78388224152E+03  0.78388224152E+03  0.00000000000E+00 0. -1.
          1   -1    0    0  501    0 -0.00000000000E+00 -0.00000000000E+00 -0.62285797881E+01  0.62285797881E+01  0.00000000000E+00 0. -1.
          2    1    1    2  501    0 -0.93506875792E+01  0.21692686943E+02  0.76062246146E+03  0.76098918317E+03  0.00000000000E+00 0. -1.
          1    1    1    2  502    0  0.93506875792E+01 -0.21692686943E+02  0.17031200268E+02  0.29121638134E+02  0.00000000000E+00 0. -1.
</event>
<event>
 4    1  0.3593938E+003  0.3665089E+02  0.7546771E-02  0.1369314E+00
          2   -1    0    0  502    0  0.00000000000E+00  0.00000000000E+00  0.15278202964E+03  0.15278202964E+03  0.00000000000E+00 0. -1.
          1   -1    0    0  501    0 -0.00000000000E+00 -0.00000000000E+00 -0.87923855551E+01  0.87923855551E+01  0.00000000000E+00 0. -1.
          2    1    1    2  501    0  0.33187545842E+02  0.15552262241E+02  0.71597754308E+02  0.80433354287E+02  0.00000000000E+00 0. -1.
          1    1    1    2  502    0 -0.33187545842E+02 -0.15552262241E+02  0.72391889776E+02  0.81141060908E+02  0.00000000000E+00 0. -1.
</event>
<event>
 4    1  0.3593938E+003  0.5472792E+02  0.7546771E-02  0.1278880E+00
          2   -1    0    0  502    0  0.00000000000E+00  0.00000000000E+00  0.12300545264E+03  0.12300545264E+03  0.00000000000E+00 0. -1.
          1   -1    0    0  501    0 -0.00000000000E+00 -0.00000000000E+00 -0.30390174193E+03  0.30390174193E+03  0.00000000000E+00 0. -1.
          2    1    1    2  501    0 -0.16083993810E+01  0.54704279008E+02  0.11427560291E+03  0.12670461124E+03  0.00000000000E+00 0. -1.
          1    1    1    2  502    0  0.16083993810E+01 -0.54704279008E+02 -0.29517189220E+03  0.30020258333E+03  0.00000000000E+00 0. -1.
</event>
<event>
 4    1  0.3593938E+003  0.2075234E+02  0.7546771E-02  0.1522830E+00
          2   -1    0    0  502    0  0.00000000000E+00  0.00000000000E+00  0.10947004959E+04  0.10947004959E+04  0.00000000000E+00 0. -1.
          1   -1    0    0  501    0 -0.00000000000E+00 -0.00000000000E+00 -0.69998911757E+01  0.69998911757E+01  0.00000000000E+00 0. -1.
          2    1    1    2  501    0 -0.14474497455E+02 -0.14871061533E+02  0.10789973829E+04  0.10791969292E+04  0.00000000000E+00 0. -1.
          1    1    1    2  502    0  0.14474497455E+02  0.14871061533E+02  0.87032217695E+01  0.22503457887E+02  0.00000000000E+00 0. -1.
</event>
<event>
 4    1  0.3593938E+003  0.3247437E+02  0.7546771E-02  0.1399245E+00
          2   -1    0    0  502    0  0.00000000000E+00  0.00000000000E+00  0.13948732497E+04  0.13948732497E+04  0.00000000000E+00 0. -1.
          1   -1    0    0  501    0 -0.00000000000E+00 -0.00000000000E+00 -0.19945295290E+03  0.19945295290E+03  0.00000000000E+00 0. -1.
          2    1    1    2  501    0  0.23906764262E+02 -0.21978434890E+02  0.13933609575E+04  0.13937393382E+04  0.00000000000E+00 0. -1.
          1    1    1    2  502    0 -0.23906764262E+02  0.21978434890E+02 -0.19794066074E+03  0.20058686436E+03  0.00000000000E+00 0. -1.
</event>
<event>
 4    1  0.3593938E+003  0.2016157E+02  0.7546771E-02  0.1531580E+00
          2   -1    0    0  502    0  0.00000000000E+00  0.00000000000E+00  0.25390800693E+01  0.25390800693E+01  0.00000000000E+00 0.  1.
          1   -1    0    0  501    0 -0.00000000000E+00 -0.00000000000E+00 -0.71245152312E+03  0.71245152312E+03  0.00000000000E+00 0. -1.
          2    1    1    2  501    0  0.14303369889E+02 -0.14209240938E+02 -0.40179061414E+02  0.44953819574E+02  0.00000000000E+00 0.  1.
          1    1    1    2  502    0 -0.14303369889E+02  0.14209240938E+02 -0.66973338163E+03  0.67003678361E+03  0.00000000000E+00 0. -1.
</event>
<event>
 4    1  0.3593938E+003  0.1162131E+03  0.7546771E-02  0.1138345E+00
          2   -1    0    0  502    0  0.00000000000E+00  0.00000000000E+00  0.19528813479E+04  0.19528813479E+04  0.00000000000E+00 0.  1.
          1   -1    0    0  501    0 -0.00000000000E+00 -0.00000000000E+00 -0.11254028776E+02  0.11254028776E+02  0.00000000000E+00 0.  1.
          2    1    1    2  501    0 -0.11221999054E+03  0.30201817942E+02  0.15805615690E+04  0.15848281767E+04  0.00000000000E+00 0.  1.
          1    1    1    2  502    0  0.11221999054E+03 -0.30201817942E+02  0.36106575014E+03  0.37930720004E+03  0.00000000000E+00 0.  1.
</event>
<event>
 4    1  0.3593938E+003  0.4027257E+02  0.7546771E-02  0.1346896E+00
          2   -1    0    0  502    0  0.00000000000E+00  0.00000000000E+00  0.67673906397E+03  0.67673906397E+03  0.00000000000E+00 0.  1.
          1   -1    0    0  501    0 -0.00000000000E+00 -0.00000000000E+00 -0.23968795456E+01  0.23968795456E+01  0.00000000000E+00 0.  1.
          2    1    1    2  501    0 -0.24510372707E+02 -0.31954989238E+02  0.34077108340E+03  0.34314255200E+03  0.00000000000E+00 0.  1.
          1    1    1    2  502    0  0.24510372707E+02  0.31954989238E+02  0.33357110102E+03  0.33599339152E+03  0.00000000000E+00 0.  1.
</event>
<event>
 4    1  0.3593938E+003  0.2957614E+02  0.7546771E-02  0.1423316E+00
          2   -1    0    0  502    0  0.00000000000E+00  0.00000000000E+00  0.74569769075E+03  0.74569769075E+03  0.00000000000E+00 0. -1.
          1   -1    0    0  501    0 -0.00000000000E+00 -0.00000000000E+00 -0.25623178498E+01  0.25623178498E+01  0.00000000000E+00 0.  1.
          2    1    1    2  501    0 -0.21630829709E+02 -0.20170646274E+02  0.64705242513E+03  0.64772802057E+03  0.00000000000E+00 0. -1.
          1    1    1    2  502    0  0.21630829709E+02  0.20170646274E+02  0.96082947772E+02  0.10053198803E+03  0.00000000000E+00 0.  1.
</event>
<event>
 4    1  0.3593938E+003  0.2038715E+02  0.7546771E-02  0.1528197E+00
          2   -1    0    0  502    0  0.00000000000E+00  0.00000000000E+00  0.12557372029E+02  0.12557372029E+02  0.00000000000E+00 0. -1.
          1   -1    0    0  501    0 -0.00000000000E+00 -0.00000000000E+00 -0.47185955245E+03  0.47185955245E+03  0.00000000000E+00 0. -1.
          2    1    1    2  501    0 -0.20018269994E+02 -0.38606843671E+01  0.39079819490E+01  0.20758331828E+02  0.00000000000E+00 0. -1.
          1    1    1    2  502    0  0.20018269994E+02  0.38606843671E+01 -0.46321016237E+03  0.46365859265E+03  0.00000000000E+00 0. -1.
</event>
<event>
 4    1  0.3593938E+003  0.4634004E+02  0.7546771E-02  0.1314871E+00
          2   -1    0    0  502    0  0.00000000000E+00  0.00000000000E+00  0.20146276098E+04  0.20146276098E+04  0.00000000000E+00 0. -1.
          1   -1    0    0  501    0 -0.00000000000E+00 -0.00000000000E+00 -0.35742891059E+02  0.35742891059E+02  0.00000000000E+00 0. -1.
          2    1    1    2  501    0 -0.16221550279E+01 -0.46311634412E+02  0.19992256760E+04  0.19997626615E+04  0.00000000000E+00 0. -1.
          1    1    1    2  502    0  0.16221550279E+01  0.46311634412E+02 -0.20340957193E+02  0.50607839396E+02  0.00000000000E+00 0. -1.
</event>
<event>
 4    1  0.3593938E+003  0.2512587E+02  0.7546771E-02  0.1467400E+00
          2   -1    0    0  502    0  0.00000000000E+00  0.00000000000E+00  0.14036307502E+03  0.14036307502E+03  0.00000000000E+00 0.  1.
          1   -1    0    0  501    0 -0.00000000000E+00 -0.00000000000E+00 -0.51920475208E+02  0.51920475208E+02  0.00000000000E+00 0. -1.
          2    1    1    2  501    0  0.82058286466E+01  0.23748132329E+02  0.13610454853E+03  0.13840432632E+03  0.00000000000E+00 0.  1.
          1    1    1    2  502    0 -0.82058286466E+01 -0.23748132329E+02 -0.47661948722E+02  0.53879223907E+02  0.00000000000E+00 0. -1.
</event>
<event>
 4    1  0.3593938E+003  0.2015554E+02  0.7546771E-02  0.1531671E+00
          2   -1    0    0  502    0  0.00000000000E+00  0.00000000000E+00  0.35032896900E+03  0.35032896900E+03  0.00000000000E+00 0.  1.
          1   -1    0    0  501    0 -0.00000000000E+00 -0.00000000000E+00 -0.17535845218E+02  0.17535845218E+02  0.00000000000E+00 0.  1.
          2    1    1    2  501    0 -0.20102985435E+02 -0.14546261907E+01  0.34414340628E+03  0.34473312873E+03  0.00000000000E+00 0.  1.
          1    1    1    2  502    0  0.20102985435E+02  0.14546261907E+01 -0.11350282495E+02  0.23131685487E+02  0.00000000000E+00 0.  1.
</event>
<event>
 4    1  0.3593938E+003  0.2872935E+02  0.7546771E-02  0.1430969E+00
          2   -1    0    0  502    0  0.00000000000E+00  0.00000000000E+00  0.24213519682E+03  0.24213519682E+03  0.00000000000E+00 0. -1.
          1   -1    0    0  501    0 -0.00000000000E+00 -0.00000000000E+00 -0.72194597521E+01  0.72194597521E+01  0.00000000000E+00 0. -1.
          2    1    1    2  501    0 -0.27935239382E+02  0.67080662562E+01  0.20803919683E+03  0.21001353092E+03  0.00000000000E+00 0. -1.
          1    1    1    2  502    0  0.27935239382E+02 -0.67080662562E+01  0.26876540233E+02  0.39341125647E+02  0.00000000000E+00 0. -1.
</event>
<event>
 4    1  0.3593938E+003  0.2384054E+02  0.7546771E-02  0.1482205E+00
          2   -1    0    0  502    0  0.00000000000E+00  0.00000000000E+00  0.13039621733E+03  0.13039621733E+03  0.00000000000E+00 0.  1.
          1   -1    0    0  501    0 -0.00000000000E+00 -0.00000000000E+00 -0.60026933033E+01  0.60026933033E+01  0.00000000000E+00 0. -1.
          2    1    1    2  501    0 -0.20306725619E+02 -0.12490322871E+02  0.97886585510E+02  0.10074797712E+03  0.00000000000E+00 0.  1.
          1    1    1    2  502    0  0.20306725619E+02  0.12490322871E+02  0.26506938512E+02  0.35650933509E+02  0.00000000000E+00 0. -1.
</event>
<event>
 4    1  0.3593938E+003  0.2495683E+02  0.7546771E-02  0.1469287E+00
          2   -1    0    0  502    0  0.00000000000E+00  0.00000000000E+00  0.15681117784E+04  0.15681117784E+04  0.00000000000E+00 0. -1.
          1   -1    0    0  501    0 -0.00000000000E+00 -0.00000000000E+00 -0.18500245318E+03  0.18500245318E+03  0.00000000000E+00 0.  1.
          2    1    1    2  501    0  0.22244693131E+02 -0.11314454446E+02  0.15671703056E+04  0.15673690089E+04  0.00000000000E+00 0. -1.
          1    1    1    2  502    0 -0.22244693131E+02  0.11314454446E+02 -0.18406098038E+03  0.18574522269E+03  0.00000000000E+00 0.  1.
</event>
<event>
 4    1  0.3593938E+003  0.2671824E+02  0.7546771E-02  0.1450459E+00
          2   -1    0    0  502    0  0.00000000000E+00  0.00000000000E+00  0.46829249609E+00  0.46829249609E+00  0.00000000000E+00 0. -1.
          1   -1    0    0  501    0 -0.00000000000E+00 -0.00000000000E+00 -0.18724875098E+04  0.18724875098E+04  0.00000000000E+00 0. -1.
          2    1    1    2  501    0  0.24357563643E+02 -0.10980567281E+02 -0.13397796038E+04  0.13400459882E+04  0.00000000000E+00 0. -1.
          1    1    1    2  502    0 -0.24357563643E+02  0.10980567281E+02 -0.53223961353E+03  0.53290981411E+03  0.00000000000E+00 0. -1.
</event>
<event>
 4    1  0.3593938E+003  0.6245116E+02  0.7546771E-02  0.1251724E+00
          2   -1    0    0  502    0  0.00000000000E+00  0.00000000000E+00  0.13640405421E+02  0.13640405421E+02  0.00000000000E+00 0.  1.
          1   -1    0    0  501    0 -0.00000000000E+00 -0.00000000000E+00 -0.65175089039E+03  0.65175089039E+03  0.00000000000E+00 0.  1.
          2    1    1    2  501    0  0.61858118699E+02 -0.85860395828E+01 -0.69800796911E+02  0.93660547586E+02  0.00000000000E+00 0.  1.
          1    1    1    2  502    0 -0.61858118699E+02  0.85860395828E+01 -0.56830968806E+03  0.57173074823E+03  0.00000000000E+00 0.  1.
</event>
<event>
 4    1  0.3593938E+003  0.2488911E+02  0.7546771E-02  0.1470048E+00
          2   -1    0    0  502    0  0.00000000000E+00  0.00000000000E+00  0.17817027300E+03  0.17817027300E+03  0.00000000000E+00 0.  1.
          1   -1    0    0  501    0 -0.00000000000E+00 -0.00000000000E+00 -0.48328120842E+01  0.48328120842E+01  0.00000000000E+00 0.  1.
          2    1    1    2  501    0  0.63407533205E+01  0.24067873257E+02  0.13513677561E+03  0.13740966414E+03  0.00000000000E+00 0.  1.
          1    1    1    2  502    0 -0.63407533205E+01 -0.24067873257E+02  0.38200685296E+02  0.45593420939E+02  0.00000000000E+00 0.  1.
</event>
<event>
 4    1  0.3593938E+003  0.2446145E+02  0.7546771E-02  0.1474919E+00
          2   -1    0    0  502    0  0.00000000000E+00  0.00000000000E+00  0.74033864225E+03  0.74033864225E+03  0.00000000000E+00 0. -1.
          1   -1    0    0  501    0 -0.00000000000E+00 -0.00000000000E+00 -0.31056566574E+02  0.31056566574E+02  0.00000000000E+00 0.  1.
          2    1    1    2  501    0 -0.15299427534E+01  0.24413557876E+02  0.73528678557E+03  0.73569356363E+03  0.00000000000E+00 0. -1.
          1    1    1    2  502    0  0.15299427534E+01 -0.24413557876E+02 -0.26004709893E+02  0.35701645195E+02  0.00000000000E+00 0.  1.
</event>
<event>
 4    1  0.3593938E+003  0.2082434E+02  0.7546771E-02  0.1521788E+00
          2   -1    0    0  502    0  0.00000000000E+00  0.00000000000E+00  0.57282130124E+03  0.57282130124E+03  0.00000000000E+00 0.  1.
          1   -1    0    0  501    0 -0.00000000000E+00 -0.00000000000E+00 -0.97130671170E+00  0.97130671170E+00  0.00000000000E+00 0.  1.
          2    1    1    2  501    0 -0.35705569747E+00 -0.20821273124E+02  0.15117878551E+03  0.15260628457E+03  0.00000000000E+00 0.  1.
          1    1    1    2  502    0  0.35705569747E+00  0.20821273124E+02  0.42067120902E+03  0.42118632338E+03  0.00000000000E+00 0.  1.
</event>
<event>
 4    1  0.3593938E+003  0.3000885E+02  0.7546771E-02  0.1419520E+00
          2   -1    0    0  502    0  0.00000000000E+00  0.00000000000E+00  0.58000126630E+03  0.58000126630E+03  0.00000000000E+00 0.  1.
          1   -1    0    0  501    0 -0.00000000000E+00 -0.00000000000E+00 -0.47709708316E+01  0.47709708316E+01  0.00000000000E+00 0. -1.
          2    1    1    2  501    0  0.17978475622E+02 -0.24027176690E+02  0.52775762525E+03  0.52861010377E+03  0.00000000000E+00 0.  1.
          1    1    1    2  502    0 -0.17978475622E+02  0.24027176690E+02  0.47472670224E+02  0.56162133361E+02  0.00000000000E+00 0. -1.
</event>
<event>
 4    1  0.3593938E+003  0.2385088E+02  0.7546771E-02  0.1482081E+00
          2   -1    0    0  502    0  0.00000000000E+00  0.00000000000E+00  0.85544210042E+03  0.85544210042E+03  0.00000000000E+00 0.  1.
          1   -1    0    0  501    0 -0.00000000000E+00 -0.00000000000E+00 -0.67711333753E+02  0.67711333753E+02  0.00000000000E+00 0.  1.
          2    1    1    2  501    0 -0.58374647565E+01 -0.23125489790E+02  0.85316993043E+03  0.85350324806E+03  0.00000000000E+00 0.  1.
          1    1    1    2  502    0  0.58374647565E+01  0.23125489790E+02 -0.65439163754E+02  0.69650186114E+02  0.00000000000E+00 0.  1.
</event>
<event>
 4    1  0.3593938E+003  0.2053080E+02  0.7546771E-02  0.1526070E+00
          2   -1    0    0  502    0  0.00000000000E+00  0.00000000000E+00  0.72004844740E+03  0.72004844740E+03  0.00000000000E+00 0. -1.
          1   -1    0    0  501    0 -0.00000000000E+00 -0.00000000000E+00 -0.13894807332E+01  0.13894807332E+01  0.00000000000E+00 0.  1.
          2    1    1    2  501    0 -0.20400246376E+02  0.23116168448E+01  0.63373545910E+03  0.63406793465E+03  0.00000000000E+00 0. -1.
          1    1    1    2  502    0  0.20400246376E+02 -0.23116168448E+01  0.84923507568E+02  0.87369993489E+02  0.00000000000E+00 0.  1.
</event>
<event>
 4    1  0.3593938E+003  0.3414627E+02  0.7546771E-02  0.1386667E+00
          2   -1    0    0  502    0  0.00000000000E+00  0.00000000000E+00  0.25107917020E+02  0.25107917020E+02  0.00000000000E+00 0.  1.
          1   -1    0    0  501    0 -0.00000000000E+00 -0.00000000000E+00 -0.66645706504E+02  0.66645706504E+02  0.00000000000E+00 0.  1.
          2    1    1    2  501    0  0.19057029338E+02 -0.28333677891E+02  0.44928295871E+01  0.34440574730E+02  0.00000000000E+00 0.  1.
          1    1    1    2  502    0 -0.19057029338E+02  0.28333677891E+02 -0.46030619072E+02  0.57313048795E+02  0.00000000000E+00 0.  1.
</event>
<event>
 4    1  0.3593938E+003  0.2362932E+02  0.7546771E-02  0.1484743E+00
          2   -1    0    0  502    0  0.00000000000E+00  0.00000000000E+00  0.70218877748E+03  0.70218877748E+03  0.00000000000E+00 0. -1.
          1   -1    0    0  501    0 -0.00000000000E+00 -0.00000000000E+00 -0.58993967819E+01  0.58993967819E+01  0.00000000000E+00 0.  1.
          2    1    1    2  501    0 -0.17594995515E+02 -0.15772158820E+02  0.67746567636E+03  0.67787763461E+03  0.00000000000E+00 0. -1.
          1    1    1    2  502    0  0.17594995515E+02  0.15772158820E+02  0.18823704340E+02  0.30210539652E+02  0.00000000000E+00 0.  1.
</event>
<event>
 4    1  0.3593938E+003  0.4987349E+02  0.7546771E-02  0.1298722E+00
          2   -1    0    0  502    0  0.00000000000E+00  0.00000000000E+00  0.20579638809E+03  0.20579638809E+03  0.00000000000E+00 0.  1.
          1   -1    0    0  501    0 -0.00000000000E+00 -0.00000000000E+00 -0.19245132752E+04  0.19245132752E+04  0.00000000000E+00 0.  1.
          2    1    1    2  501    0 -0.27280733860E+02  0.41750768202E+02  0.20244637034E+03  0.20849915575E+03  0.00000000000E+00 0.  1.
          1    1    1    2  502    0  0.27280733860E+02 -0.41750768202E+02 -0.19211632574E+04  0.19218105075E+04  0.00000000000E+00 0.  1.
</event>
<event>
 4    1  0.3593938E+003  0.2095155E+02  0.7546771E-02  0.1519958E+00
          2   -1    0    0  502    0  0.00000000000E+00  0.00000000000E+00  0.69434043424E+02  0.69434043424E+02  0.00000000000E+00 0. -1.
          1   -1    0    0  501    0 -0.00000000000E+00 -0.00000000000E+00 -0.25850884353E+02  0.25850884353E+02  0.00000000000E+00 0.  1.
          2    1    1    2  501    0 -0.20921242176E+02  0.11264481713E+01  0.63200545828E+02  0.66582852542E+02  0.00000000000E+00 0. -1.
          1    1    1    2  502    0  0.20921242176E+02 -0.11264481713E+01 -0.19617386756E+02  0.28702075235E+02  0.00000000000E+00 0.  1.
</event>
<event>
 4    1  0.3593938E+003  0.2090289E+02  0.7546771E-02  0.1520656E+00
          2   -1    0    0  502    0  0.00000000000E+00  0.00000000000E+00  0.40293157094E+03  0.40293157094E+03  0.00000000000E+00 0. -1.
          1   -1    0    0  501    0 -0.00000000000E+00 -0.00000000000E+00 -0.72684184137E+01  0.72684184137E+01  0.00000000000E+00 0. -1.
          2    1    1    2  501    0 -0.13959485398E+02 -0.15558393041E+02  0.38701443686E+03  0.38757851484E+03  0.00000000000E+00 0. -1.
          1    1    1    2  502    0  0.13959485398E+02  0.15558393041E+02  0.86487156678E+01  0.22621474516E+02  0.00000000000E+00 0. -1.
</event>
<event>
 4    1  0.3593938E+003  0.2203349E+02  0.7546771E-02  0.1505005E+00
          2   -1    0    0  502    0  0.00000000000E+00  0.00000000000E+00  0.84778268593E+01  0.84778268593E+01  0.00000000000E+00 0. -1.
          1   -1    0    0  501    0 -0.00000000000E+00 -0.00000000000E+00 -0.69003211442E+03  0.69003211442E+03  0.00000000000E+00 0.  1.
          2    1    1    2  501    0  0.20070642053E+02  0.90908848747E+01 -0.63279035032E+01  0.22924162427E+02  0.00000000000E+00 0. -1.
          1    1    1    2  502    0 -0.20070642053E+02 -0.90908848747E+01 -0.67522638406E+03  0.67558577885E+03  0.00000000000E+00 0.  1.
</event>
<event>
 4    1  0.3593938E+003  0.2052606E+02  0.7546771E-02  0.1526140E+00
          2   -1    0    0  502    0  0.00000000000E+00  0.00000000000E+00  0.60704916213E+02  0.60704916213E+02  0.00000000000E+00 0.  1.
          1   -1    0    0  501    0 -0.00000000000E+00 -0.00000000000E+00 -0.42368664388E+02  0.42368664388E+02  0.00000000000E+00 0. -1.
          2    1    1    2  501    0 -0.11288883325E+02 -0.17142934633E+02  0.56295109908E+02  0.59920434696E+02  0.00000000000E+00 0.  1.
          1    1    1    2  502    0  0.11288883325E+02  0.17142934633E+02 -0.37958858083E+02  0.43153145905E+02  0.00000000000E+00 0. -1.
</event>
<event>
 4    1  0.3593938E+003  0.2632966E+02  0.7546771E-02  0.1454461E+00
          2   -1    0    0  502    0  0.00000000000E+00  0.00000000000E+00  0.90174221662E+01  0.90174221662E+01  0.00000000000E+00 0. -1.
          1   -1    0    0  501    0 -0.00000000000E+00 -0.00000000000E+00 -0.43651706764E+03  0.43651706764E+03  0.00000000000E+00 0. -1.
          2    1    1    2  501    0 -0.19436423962E+02  0.17761652978E+02 -0.11548722770E+02  0.28751067642E+02  0.00000000000E+00 0. -1.
          1    1    1    2  502    0  0.19436423962E+02 -0.17761652978E+02 -0.41595092270E+03  0.41678342216E+03  0.00000000000E+00 0. -1.
</event>
<event>
 4    1  0.3593938E+003  0.2299058E+02  0.7546771E-02  0.1492616E+00
          2   -1    0    0  502    0  0.00000000000E+00  0.00000000000E+00  0.13111702694E+02  0.13111702694E+02  0.00000000000E+00 0. -1.
          1   -1    0    0  501    0 -0.00000000000E+00 -0.00000000000E+00 -0.65756704352E+03  0.65756704352E+03  0.00000000000E+00 0. -1.
          2    1    1    2  501    0  0.15932111313E+02  0.16575123675E+02  0.26700314335E+01  0.23145106688E+02  0.00000000000E+00 0. -1.
          1    1    1    2  502    0 -0.15932111313E+02 -0.16575123675E+02 -0.64712537226E+03  0.64753363953E+03  0.00000000000E+00 0. -1.
</event>
<event>
 4    1  0.3593938E+003  0.2878345E+02  0.7546771E-02  0.1430471E+00
          2   -1    0    0  502    0  0.00000000000E+00  0.00000000000E+00  0.76483418174E+03  0.76483418174E+03  0.00000000000E+00 0.  1.
          1   -1    0    0  501    0 -0.00000000000E+00 -0.00000000000E+00 -0.36426588864E+01  0.36426588864E+01  0.00000000000E+00 0.  1.
          2    1    1    2  501    0 -0.27480299286E+02 -0.85627340005E+01  0.70267558603E+03  0.70326486224E+03  0.00000000000E+00 0.  1.
          1    1    1    2  502    0  0.27480299286E+02  0.85627340005E+01  0.58515936828E+02  0.65211978388E+02  0.00000000000E+00 0.  1.
</event>
<event>
 4    1  0.3593938E+003  0.9254087E+02  0.7546771E-02  0.1177401E+00
          2   -1    0    0  502    0  0.00000000000E+00  0.00000000000E+00  0.30731580030E+03  0.30731580030E+03  0.00000000000E+00 0.  1.
          1   -1    0    0  501    0 -0.00000000000E+00 -0.00000000000E+00 -0.18854176786E+03  0.18854176786E+03  0.00000000000E+00 0.  1.
          2    1    1    2  501    0  0.80141119732E+02  0.46273257239E+02  0.28826166435E+03  0.30275171435E+03  0.00000000000E+00 0.  1.
          1    1    1    2  502    0 -0.80141119732E+02 -0.46273257239E+02 -0.16948763191E+03  0.19310585382E+03  0.00000000000E+00 0.  1.
</event>
<event>
 4    1  0.3593938E+003  0.2736650E+02  0.7546771E-02  0.1443961E+00
          2   -1    0    0  502    0  0.00000000000E+00  0.00000000000E+00  0.24015583077E+02  0.24015583077E+02  0.00000000000E+00 0. -1.
          1   -1    0    0  501    0 -0.00000000000E+00 -0.00000000000E+00 -0.27036452332E+03  0.27036452332E+03  0.00000000000E+00 0. -1.
          2    1    1    2  501    0  0.23470133157E+02 -0.14074030545E+02  0.15266816313E+02  0.31336897845E+02  0.00000000000E+00 0. -1.
          1    1    1    2  502    0 -0.23470133157E+02  0.14074030545E+02 -0.26161575655E+03  0.26304320855E+03  0.00000000000E+00 0. -1.
</event>
<event>
 4    1  0.3593938E+003  0.4019450E+02  0.7546771E-02  0.1347350E+00
          2   -1    0    0  502    0  0.00000000000E+00  0.00000000000E+00  0.98823342325E+02  0.98823342325E+02  0.00000000000E+00 0.  1.
          1   -1    0    0  501    0 -0.00000000000E+00 -0.00000000000E+00 -0.31226841965E+02  0.31226841965E+02  0.00000000000E+00 0.  1.
          2    1    1    2  501    0 -0.35552720070E+02  0.18751043078E+02  0.78682767444E+02  0.88354826770E+02  0.00000000000E+00 0.  1.
          1    1    1    2  502    0  0.35552720070E+02 -0.18751043078E+02 -0.11086267084E+02  0.41695357520E+02  0.00000000000E+00 0.  1.
</event>
<event>
 4    1  0.3593938E+003  0.2756447E+02  0.7546771E-02  0.1442019E+00
          2   -1    0    0  502    0  0.00000000000E+00  0.00000000000E+00  0.33876700815E+02  0.33876700815E+02  0.00000000000E+00 0.  1.
          1   -1    0    0  501    0 -0.00000000000E+00 -0.00000000000E+00 -0.38800260775E+02  0.38800260775E+02  0.00000000000E+00 0. -1.
          2    1    1    2  501    0 -0.22291613598E+02 -0.16213689720E+02  0.21142928025E+02  0.34739360625E+02  0.00000000000E+00 0.  1.
          1    1    1    2  502    0  0.22291613598E+02  0.16213689720E+02 -0.26066487985E+02  0.37937600965E+02  0.00000000000E+00 0. -1.
</event>
<event>
 4    1  0.3593938E+003  0.2663275E+02  0.7546771E-02  0.1451332E+00
          2   -1    0    0  502    0  0.00000000000E+00  0.00000000000E+00  0.96270140696E+02  0.96270140696E+02  0.00000000000E+00 0. -1.
          1   -1    0    0  501    0 -0.00000000000E+00 -0.00000000000E+00 -0.84304313830E+01  0.84304313830E+01  0.00000000000E+00 0.  1.
          2    1    1    2  501    0 -0.26125535798E+02  0.51729826865E+01  0.62505451154E+02  0.67942878910E+02  0.00000000000E+00 0. -1.
          1    1    1    2  502    0  0.26125535798E+02 -0.51729826865E+01  0.25334258159E+02  0.36757693169E+02  0.00000000000E+00 0.  1.
</event>
<event>
 4    1  0.3593938E+003  0.2042413E+02  0.7546771E-02  0.1527648E+00
          2   -1    0    0  502    0  0.00000000000E+00  0.00000000000E+00  0.44319381374E+02  0.44319381374E+02  0.00000000000E+00 0.  1.
          1   -1    0    0  501    0 -0.00000000000E+00 -0.00000000000E+00 -0.18015333489E+03  0.18015333489E+03  0.00000000000E+00 0.  1.
          2    1    1    2  501    0 -0.18204188377E+02 -0.92602712387E+01  0.41348114170E+02  0.46117368131E+02  0.00000000000E+00 0.  1.
          1    1    1    2  502    0  0.18204188377E+02  0.92602712387E+01 -0.17718206769E+03  0.17835534814E+03  0.00000000000E+00 0.  1.
</event>
<event>
 4    1  0.3593938E+003  0.2690373E+02  0.7546771E-02  0.1448578E+00
          2   -1    0    0  502    0  0.00000000000E+00  0.00000000000E+00  0.45067802658E+03  0.45067802658E+03  0.00000000000E+00 0.  1.
          1   -1    0    0  501    0 -0.00000000000E+00 -0.00000000000E+00 -0.17765789008E+01  0.17765789008E+01  0.00000000000E+00 0. -1.
          2    1    1    2  501    0  0.21753706241E+02 -0.15829932165E+02  0.29454046690E+03  0.29576662613E+03  0.00000000000E+00 0.  1.
          1    1    1    2  502    0 -0.21753706241E+02  0.15829932165E+02  0.15436098077E+03  0.15668797935E+03  0.00000000000E+00 0. -1.
</event>
<event>
 4    1  0.3593938E+003  0.3009219E+02  0.7546771E-02  0.1418797E+00
          2   -1    0    0  502    0  0.00000000000E+00  0.00000000000E+00  0.30662356103E+04  0.30662356103E+04  0.00000000000E+00 0.  1.
          1   -1    0    0  501    0 -0.00000000000E+00 -0.00000000000E+00 -0.35806913459E+00  0.35806913459E+00  0.00000000000E+00 0.  1.
          2    1    1    2  501    0  0.19969605005E+02  0.22511216472E+02  0.21747759858E+04  0.21749841674E+04  0.00000000000E+00 0.  1.
          1    1    1    2  502    0 -0.19969605005E+02 -0.22511216472E+02  0.89110155534E+03  0.89160951202E+03  0.00000000000E+00 0.  1.
</event>
<event>
 4    1  0.3593938E+003  0.2131176E+02  0.7546771E-02  0.1514860E+00
          2   -1    0    0  502    0  0.00000000000E+00  0.00000000000E+00  0.27026998790E+02  0.27026998790E+02  0.00000000000E+00 0. -1.
          1   -1    0    0  501    0 -0.00000000000E+00 -0.00000000000E+00 -0.19619736052E+02  0.19619736052E+02  0.00000000000E+00 0.  1.
          2    1    1    2  501    0  0.20052157406E+02 -0.72181849832E+01  0.12537610839E+02  0.24726158145E+02  0.00000000000E+00 0. -1.
          1    1    1    2  502    0 -0.20052157406E+02  0.72181849832E+01 -0.51303481015E+01  0.21920576697E+02  0.00000000000E+00 0.  1.
</event>
<event>
 4    1  0.3593938E+003  0.2824242E+02  0.7546771E-02  0.1435512E+00
          2   -1    0    0  502    0  0.00000000000E+00  0.00000000000E+00  0.43839515306E+02  0.43839515306E+02  0.00000000000E+00 0. -1.
          1   -1    0    0  501    0 -0.00000000000E+00 -0.00000000000E+00 -0.47374272561E+02  0.47374272561E+02  0.00000000000E+00 0. -1.
          2    1    1    2  501    0 -0.25421258373E+02  0.12304212397E+02  0.34025848444E+02  0.44219818886E+02  0.00000000000E+00 0. -1.
          1    1    1    2  502    0  0.25421258373E+02 -0.12304212397E+02 -0.37560605700E+02  0.46993968980E+02  0.00000000000E+00 0. -1.
</event>
<event>
 4    1  0.3593938E+003  0.2440617E+02  0.7546771E-02  0.1475557E+00
          2   -1    0    0  502    0  0.00000000000E+00  0.00000000000E+00  0.79977384962E+03  0.79977384962E+03  0.00000000000E+00 0.  1.
          1   -1    0    0  501    0 -0.00000000000E+00 -0.00000000000E+00 -0.10738565865E+01  0.10738565865E+01  0.00000000000E+00 0. -1.
          2    1    1    2  501    0  0.37755649231E+01  0.24112367831E+02  0.62101169919E+03  0.62149110348E+03  0.00000000000E+00 0.  1.
          1    1    1    2  502    0 -0.37755649231E+01 -0.24112367831E+02  0.17768829385E+03  0.17935660273E+03  0.00000000000E+00 0. -1.
</event>
<event>
 4    1  0.3593938E+003  0.2565269E+02  0.7546771E-02  0.1461633E+00
          2   -1    0    0  502    0  0.00000000000E+00  0.00000000000E+00  0.14955029827E+02  0.14955029827E+02  0.00000000000E+00 0.  1.
          1   -1    0    0  501    0 -0.00000000000E+00 -0.00000000000E+00 -0.17634237915E+03  0.17634237915E+03  0.00000000000E+00 0.  1.
          2    1    1    2  501    0  0.16304597662E+02 -0.19804561392E+02  0.21665120007E+01  0.25744015442E+02  0.00000000000E+00 0.  1.
          1    1    1    2  502    0 -0.16304597662E+02  0.19804561392E+02 -0.16355386132E+03  0.16555339353E+03  0.00000000000E+00 0.  1.
</event>
<event>
 4    1  0.3593938E+003  0.2579050E+02  0.7546771E-02  0.1460151E+00
          2   -1    0    0  502    0  0.00000000000E+00  0.00000000000E+00  0.57111389384E+02  0.57111389384E+02  0.00000000000E+00 0.  1.
          1   -1    0    0  501    0 -0.00000000000E+00 -0.00000000000E+00 -0.19808678883E+03  0.19808678883E+03  0.00000000000E+00 0. -1.
          2    1    1    2  501    0  0.16212101762E+01  0.25739495833E+02  0.53303467375E+02  0.59214944080E+02  0.00000000000E+00 0.  1.
          1    1    1    2  502    0 -0.16212101762E+01 -0.25739495833E+02 -0.19427886682E+03  0.19598323413E+03  0.00000000000E+00 0. -1.
</event>
<event>
 4    1  0.3593938E+003  0.2009046E+02  0.7546771E-02  0.1532657E+00
          2   -1    0    0  502    0  0.00000000000E+00  0.00000000000E+00  0.51401604342E+03  0.51401604342E+03  0.00000000000E+00 0.  1.
          1   -1    0    0  501    0 -0.00000000000E+00 -0.00000000000E+00 -0.80535067804E+00  0.80535067804E+00  0.00000000000E+00 0.  1.
          2    1    1    2  501    0  0.17354035490E+02 -0.10122443836E+02  0.29728130429E+03  0.29795939370E+03  0.00000000000E+00 0.  1.
          1    1    1    2  502    0 -0.17354035490E+02  0.10122443836E+02  0.21592938846E+03  0.21686200040E+03  0.00000000000E+00 0.  1.
</event>
<event>
 4    1  0.3593938E+003  0.3030646E+02  0.7546771E-02  0.1416952E+00
          2   -1    0    0  502    0  0.00000000000E+00  0.00000000000E+00  0.16626166680E+03  0.16626166680E+03  0.00000000000E+00 0. -1.
          1   -1    0    0  501    0 -0.00000000000E+00 -0.00000000000E+00 -0.23399249123E+02  0.23399249123E+02  0.00000000000E+00 0. -1.
          2    1    1    2  501    0  0.13412962941E+02 -0.27176714881E+02  0.15431491118E+03  0.15726275217E+03  0.00000000000E+00 0. -1.
          1    1    1    2  502    0 -0.13412962941E+02  0.27176714881E+02 -0.11452493513E+02  0.32398163748E+02  0.00000000000E+00 0. -1.
</event>
<event>
 4    1  0.3593938E+003  0.2595762E+02  0.7546771E-02  0.1458370E+00
          2   -1    0    0  502    0  0.00000000000E+00  0.00000000000E+00  0.10786981316E+02  0.10786981316E+02  0.00000000000E+00 0.  1.
          1   -1    0    0  501    0 -0.00000000000E+00 -0.00000000000E+00 -0.46500526695E+03  0.46500526695E+03  0.00000000000E+00 0. -1.
          2    1    1    2  501    0  0.25704222631E+02  0.36181135299E+01 -0.57672371466E+01  0.26590577859E+02  0.00000000000E+00 0.  1.
          1    1    1    2  502    0 -0.25704222631E+02 -0.36181135299E+01 -0.44845104849E+03  0.44920167040E+03  0.00000000000E+00 0. -1.
</event>
<event>
 4    1  0.3593938E+003  0.2034854E+02  0.7546771E-02  0.1528773E+00
          2   -1    0    0  502    0  0.00000000000E+00  0.00000000000E+00  0.21434170321E+03  0.21434170321E+03  0.00000000000E+00 0. -1.
          1   -1    0    0  501    0 -0.00000000000E+00 -0.00000000000E+00 -0.28597333781E+02  0.28597333781E+02  0.00000000000E+00 0.  1.
          2    1    1    2  501    0  0.17927824281E+02  0.96257991907E+01  0.21016725777E+03  0.21115003939E+03  0.00000000000E+00 0. -1.
          1    1    1    2  502    0 -0.17927824281E+02 -0.96257991907E+01 -0.24422888345E+02  0.31788997603E+02  0.00000000000E+00 0.  1.
</event>
<event>
 4    1  0.3593938E+003  0.3234001E+02  0.7546771E-02  0.1400295E+00
          2   -1    0    0  502    0  0.00000000000E+00  0.00000000000E+00  0.19208023212E+04  0.19208023212E+04  0.00000000000E+00 0. -1.
          1   -1    0    0  501    0 -0.00000000000E+00 -0.00000000000E+00 -0.20297272707E+02  0.20297272707E+02  0.00000000000E+00 0.  1.
          2    1    1    2  501    0 -0.32319477328E+02  0.11521246267E+01  0.19076957215E+04  0.19079698221E+04  0.00000000000E+00 0. -1.
          1    1    1    2  502    0  0.32319477328E+02 -0.11521246267E+01 -0.71906729994E+01  0.33129771869E+02  0.00000000000E+00 0.  1.
</event>
<event>
 4    1  0.3593938E+003  0.2129286E+02  0.7546771E-02  0.1515124E+00
          2   -1    0    0  502    0  0.00000000000E+00  0.00000000000E+00  0.44610610720E+01  0.44610610720E+01  0.00000000000E+00 0. -1.
          1   -1    0    0  501    0 -0.00000000000E+00 -0.00000000000E+00 -0.91909945066E+03  0.91909945066E+03  0.00000000000E+00 0. -1.
          2    1    1    2  501    0  0.31488432098E+01 -0.21058738648E+02 -0.21817957396E+02  0.30486209209E+02  0.00000000000E+00 0. -1.
          1    1    1    2  502    0 -0.31488432098E+01  0.21058738648E+02 -0.89282043219E+03  0.89307430252E+03  0.00000000000E+00 0. -1.
</event>
<event>
 4    1  0.3593938E+003  0.2040478E+02  0.7546771E-02  0.1527935E+00
          2   -1    0    0  502    0  0.00000000000E+00  0.00000000000E+00  0.38192036492E+02  0.38192036492E+02  0.00000000000E+00 0.  1.
          1   -1    0    0  501    0 -0.00000000000E+00 -0.00000000000E+00 -0.25732500723E+03  0.25732500723E+03  0.00000000000E+00 0. -1.
          2    1    1    2  501    0  0.20043125162E+02 -0.38246559825E+01  0.35028258843E+02  0.40538053446E+02  0.00000000000E+00 0.  1.
          1    1    1    2  502    0 -0.20043125162E+02  0.38246559825E+01 -0.25416122958E+03  0.25497899027E+03  0.00000000000E+00 0. -1.
</event>
<event>
 4    1  0.5182484E+003  0.2150571E+02  0.7546771E-02  0.1512166E+00
          2   -1    0    0  502    0  0.00000000000E+00  0.00000000000E+00  0.99244658335E+03  0.99244658335E+03  0.00000000000E+00 0. -1.
          1   -1    0    0  501    0 -0.00000000000E+00 -0.00000000000E+00 -0.64738955559E+03  0.64738955559E+03  0.00000000000E+00 0. -1.
          2    1    1    2  501    0  0.97732725081E+01  0.19156688188E+02  0.99215142615E+03  0.99238447588E+03  0.00000000000E+00 0. -1.
          1    1    1    2  502    0 -0.97732725081E+01 -0.19156688188E+02 -0.64709439840E+03  0.64745166306E+03  0.00000000000E+00 0. -1.
</event>
<event>
 4    1  0.3593938E+003  0.2859965E+02  0.7546771E-02  0.1432169E+00
          2   -1    0    0  502    0  0.00000000000E+00  0.00000000000E+00  0.76425368375E+00  0.76425368375E+00  0.00000000000E+00 0.  1.
          1   -1    0    0  501    0 -0.00000000000E+00 -0.00000000000E+00 -0.11718330343E+04  0.11718330343E+04  0.00000000000E+00 0.  1.
          2    1    1    2  501    0 -0.22872578264E+02 -0.17169304247E+02 -0.41290924681E+03  0.41389852131E+03  0.00000000000E+00 0.  1.
          1    1    1    2  502    0  0.22872578264E+02  0.17169304247E+02 -0.75815953377E+03  0.75869876663E+03  0.00000000000E+00 0.  1.
</event>
<event>
 4    1  0.3593938E+003  0.2158254E+02  0.7546771E-02  0.1511108E+00
          2   -1    0    0  502    0  0.00000000000E+00  0.00000000000E+00  0.15219092546E+04  0.15219092546E+04  0.00000000000E+00 0. -1.
          1   -1    0    0  501    0 -0.00000000000E+00 -0.00000000000E+00 -0.25380175604E+03  0.25380175604E+03  0.00000000000E+00 0.  1.
          2    1    1    2  501    0  0.21573723419E+02 -0.61680813867E+00  0.15213737478E+04  0.15215268274E+04  0.00000000000E+00 0. -1.
          1    1    1    2  502    0 -0.21573723419E+02  0.61680813867E+00 -0.25326624925E+03  0.25418418323E+03  0.00000000000E+00 0.  1.
</event>
<event>
 4    1  0.3593938E+003  0.2491289E+02  0.7546771E-02  0.1469780E+00
          2   -1    0    0  502    0  0.00000000000E+00  0.00000000000E+00  0.10897597015E+04  0.10897597015E+04  0.00000000000E+00 0. -1.
          1   -1    0    0  501    0 -0.00000000000E+00 -0.00000000000E+00 -0.25218413046E+02  0.25218413046E+02  0.00000000000E+00 0. -1.
          2    1    1    2  501    0  0.20154474504E+02 -0.14644092950E+02  0.10834286000E+04  0.10837149918E+04  0.00000000000E+00 0. -1.
          1    1    1    2  502    0 -0.20154474504E+02  0.14644092950E+02 -0.18887311559E+02  0.31263122666E+02  0.00000000000E+00 0. -1.
</event>
<event>
 4    1  0.3593938E+003  0.2381309E+02  0.7546771E-02  0.1482533E+00
          2   -1    0    0  502    0  0.00000000000E+00  0.00000000000E+00  0.37191638843E+02  0.37191638843E+02  0.00000000000E+00 0. -1.
          1   -1    0    0  501    0 -0.00000000000E+00 -0.00000000000E+00 -0.20994865503E+03  0.20994865503E+03  0.00000000000E+00 0.  1.
          2    1    1    2  501    0 -0.22964134665E+02  0.63017151264E+01  0.32620069707E+02  0.40387275746E+02  0.00000000000E+00 0. -1.
          1    1    1    2  502    0  0.22964134665E+02 -0.63017151264E+01 -0.20537708590E+03  0.20675301813E+03  0.00000000000E+00 0.  1.
</event>
<event>
 4    1  0.3593938E+003  0.2093207E+02  0.7546771E-02  0.1520237E+00
          2   -1    0    0  502    0  0.00000000000E+00  0.00000000000E+00  0.28316832430E+03  0.28316832430E+03  0.00000000000E+00 0.  1.
          1   -1    0    0  501    0 -0.00000000000E+00 -0.00000000000E+00 -0.27895985424E+03  0.27895985424E+03  0.00000000000E+00 0.  1.
          2    1    1    2  501    0  0.12698508987E+01  0.20893513898E+02  0.28238774555E+03  0.28316248036E+03  0.00000000000E+00 0.  1.
          1    1    1    2  502    0 -0.12698508987E+01 -0.20893513898E+02 -0.27817927550E+03  0.27896569818E+03  0.00000000000E+00 0.  1.
</event>
<event>
 4    1  0.3593938E+003  0.3924031E+02  0.7546771E-02  0.1352996E+00
          2   -1    0    0  502    0  0.00000000000E+00  0.00000000000E+00  0.51628761038E+03  0.51628761038E+03  0.00000000000E+00 0. -1.
          1   -1    0    0  501    0 -0.00000000000E+00 -0.00000000000E+00 -0.69730760125E+02  0.69730760125E+02  0.00000000000E+00 0.  1.
          2    1    1    2  501    0  0.25418207011E+02  0.29895092501E+02  0.50995299780E+03  0.51146051829E+03  0.00000000000E+00 0. -1.
          1    1    1    2  502    0 -0.25418207011E+02 -0.29895092501E+02 -0.63396147546E+02  0.74557852215E+02  0.00000000000E+00 0.  1.
</event>
<event>
 4    1  0.3593938E+003  0.2305960E+02  0.7546771E-02  0.1491751E+00
          2   -1    0    0  502    0  0.00000000000E+00  0.00000000000E+00  0.56855305909E+02  0.56855305909E+02  0.00000000000E+00 0.  1.
          1   -1    0    0  501    0 -0.00000000000E+00 -0.00000000000E+00 -0.77741794375E+03  0.77741794375E+03  0.00000000000E+00 0.  1.
          2    1    1    2  501    0  0.11401820263E+02  0.20043538148E+02  0.54338566609E+02  0.59029016152E+02  0.00000000000E+00 0.  1.
          1    1    1    2  502    0 -0.11401820263E+02 -0.20043538148E+02 -0.77490120445E+03  0.77524423351E+03  0.00000000000E+00 0.  1.
</event>
<event>
 4    1  0.3593938E+003  0.2052712E+02  0.7546771E-02  0.1526125E+00
          2   -1    0    0  502    0  0.00000000000E+00  0.00000000000E+00  0.43899734517E+02  0.43899734517E+02  0.00000000000E+00 0.  1.
          1   -1    0    0  501    0 -0.00000000000E+00 -0.00000000000E+00 -0.28376852116E+02  0.28376852116E+02  0.00000000000E+00 0.  1.
          2    1    1    2  501    0 -0.73056771340E+01 -0.19183057928E+02  0.37159363150E+02  0.42452101238E+02  0.00000000000E+00 0.  1.
          1    1    1    2  502    0  0.73056771340E+01  0.19183057928E+02 -0.21636480749E+02  0.29824485394E+02  0.00000000000E+00 0.  1.
</event>
<event>
 4    1  0.3593938E+003  0.2220416E+02  0.7546771E-02  0.1502741E+00
          2   -1    0    0  502    0  0.00000000000E+00  0.00000000000E+00  0.17147149989E+03  0.17147149989E+03  0.00000000000E+00 0.  1.
          1   -1    0    0  501    0 -0.00000000000E+00 -0.00000000000E+00 -0.24702083681E+03  0.24702083681E+03  0.00000000000E+00 0. -1.
          2    1    1    2  501    0 -0.19595632853E+02 -0.10442023498E+02  0.17025015038E+03  0.17169198695E+03  0.00000000000E+00 0.  1.
          1    1    1    2  502    0  0.19595632853E+02  0.10442023498E+02 -0.24579948729E+03  0.24680034975E+03  0.00000000000E+00 0. -1.
</event>
<event>
 4    1  0.3593938E+003  0.4184851E+02  0.7546771E-02  0.1337981E+00
          2   -1    0    0  502    0  0.00000000000E+00  0.00000000000E+00  0.30441163260E+03  0.30441163260E+03  0.00000000000E+00 0.  1.
          1   -1    0    0  501    0 -0.00000000000E+00 -0.00000000000E+00 -0.66267512452E+01  0.66267512452E+01  0.00000000000E+00 0.  1.
          2    1    1    2  501    0 -0.16607698616E+02  0.38412001937E+02  0.20536186175E+03  0.20958242247E+03  0.00000000000E+00 0.  1.
          1    1    1    2  502    0  0.16607698616E+02 -0.38412001937E+02  0.92423019605E+02  0.10145596138E+03  0.00000000000E+00 0.  1.
</event>
<event>
 4    1  0.3593938E+003  0.2263908E+02  0.7546771E-02  0.1497081E+00
          2   -1    0    0  502    0  0.00000000000E+00  0.00000000000E+00  0.54530142139E+03  0.54530142139E+03  0.00000000000E+00 0.  1.
          1   -1    0    0  501    0 -0.00000000000E+00 -0.00000000000E+00 -0.98928614766E+02  0.98928614766E+02  0.00000000000E+00 0.  1.
          2    1    1    2  501    0  0.22516894864E+02 -0.23489364494E+01  0.54376759823E+03  0.54423866909E+03  0.00000000000E+00 0.  1.
          1    1    1    2  502    0 -0.22516894864E+02  0.23489364494E+01 -0.97394791599E+02  0.99991367064E+02  0.00000000000E+00 0.  1.
</event>
<event>
 4    1  0.3593938E+003  0.2445396E+02  0.7546771E-02  0.1475006E+00
          2   -1    0    0  502    0  0.00000000000E+00  0.00000000000E+00  0.93036745140E+03  0.93036745140E+03  0.00000000000E+00 0. -1.
          1   -1    0    0  501    0 -0.00000000000E+00 -0.00000000000E+00 -0.21709413247E+03  0.21709413247E+03  0.00000000000E+00 0. -1.
          2    1    1    2  501    0 -0.21330910096E+02  0.11957768460E+02  0.92951749701E+03  0.92983911146E+03  0.00000000000E+00 0. -1.
          1    1    1    2  502    0  0.21330910096E+02 -0.11957768460E+02 -0.21624417807E+03  0.21762247242E+03  0.00000000000E+00 0. -1.
</event>
<event>
 4    1  0.3593938E+003  0.2759234E+02  0.7546771E-02  0.1441747E+00
          2   -1    0    0  502    0  0.00000000000E+00  0.00000000000E+00  0.22287637873E+02  0.22287637873E+02  0.00000000000E+00 0.  1.
          1   -1    0    0  501    0 -0.00000000000E+00 -0.00000000000E+00 -0.16680709441E+03  0.16680709441E+03  0.00000000000E+00 0. -1.
          2    1    1    2  501    0 -0.24799796099E+02  0.12095755968E+02  0.12052714458E+02  0.30109884171E+02  0.00000000000E+00 0.  1.
          1    1    1    2  502    0  0.24799796099E+02 -0.12095755968E+02 -0.15657217100E+03  0.15898484812E+03  0.00000000000E+00 0. -1.
</event>
<event>
 4    1  0.3593938E+003  0.2089507E+02  0.7546771E-02  0.1520768E+00
          2   -1    0    0  502    0  0.00000000000E+00  0.00000000000E+00  0.92875033907E+03  0.92875033907E+03  0.00000000000E+00 0.  1.
          1   -1    0    0  501    0 -0.00000000000E+00 -0.00000000000E+00 -0.72737926041E+00  0.72737926041E+00  0.00000000000E+00 0.  1.
          2    1    1    2  501    0 -0.20682417377E+02  0.29734865183E+01  0.74040783058E+03  0.74070261211E+03  0.00000000000E+00 0.  1.
          1    1    1    2  502    0  0.20682417377E+02 -0.29734865183E+01  0.18761512924E+03  0.18877510622E+03  0.00000000000E+00 0.  1.
</event>
<event>
 4    1  0.3593938E+003  0.2042638E+02  0.7546771E-02  0.1527614E+00
          2   -1    0    0  502    0  0.00000000000E+00  0.00000000000E+00  0.53379534461E+03  0.53379534461E+03  0.00000000000E+00 0. -1.
          1   -1    0    0  501    0 -0.00000000000E+00 -0.00000000000E+00 -0.14181197070E+01  0.14181197070E+01  0.00000000000E+00 0.  1.
          2    1    1    2  501    0 -0.12303747241E+02  0.16305050692E+02  0.44546875070E+03  0.44593681696E+03  0.00000000000E+00 0. -1.
          1    1    1    2  502    0  0.12303747241E+02 -0.16305050692E+02  0.86908474209E+02  0.89276647358E+02  0.00000000000E+00 0.  1.
</event>
<event>
 4    1  0.3593938E+003  0.2369902E+02  0.7546771E-02  0.1483902E+00
          2   -1    0    0  502    0  0.00000000000E+00  0.00000000000E+00  0.74237787787E+01  0.74237787787E+01  0.00000000000E+00 0.  1.
          1   -1    0    0  501    0 -0.00000000000E+00 -0.00000000000E+00 -0.77060102644E+02  0.77060102644E+02  0.00000000000E+00 0.  1.
          2    1    1    2  501    0  0.20601846375E+02  0.11713533257E+02 -0.40523042273E+02  0.46944221055E+02  0.00000000000E+00 0.  1.
          1    1    1    2  502    0 -0.20601846375E+02 -0.11713533257E+02 -0.29113281592E+02  0.37539660368E+02  0.00000000000E+00 0.  1.
</event>
<event>
 4    1  0.3593938E+003  0.2296729E+02  0.7546771E-02  0.1492909E+00
          2   -1    0    0  502    0  0.00000000000E+00  0.00000000000E+00  0.35765303592E+03  0.35765303592E+03  0.00000000000E+00 0. -1.
          1   -1    0    0  501    0 -0.00000000000E+00 -0.00000000000E+00 -0.81543050461E+01  0.81543050461E+01  0.00000000000E+00 0. -1.
          2    1    1    2  501    0 -0.18501394482E+02 -0.13608630507E+02  0.34028762437E+03  0.34106181804E+03  0.00000000000E+00 0. -1.
          1    1    1    2  502    0  0.18501394482E+02  0.13608630507E+02  0.92111065023E+01  0.24745522929E+02  0.00000000000E+00 0. -1.
</event>
<event>
 4    1  0.6271896E+003  0.2185094E+02  0.7546771E-02  0.1507454E+00
          2   -1    0    0  502    0  0.00000000000E+00  0.00000000000E+00  0.15872865595E+04  0.15872865595E+04  0.00000000000E+00 0.  1.
          1   -1    0    0  501    0 -0.00000000000E+00 -0.00000000000E+00 -0.86106440473E+03  0.86106440473E+03  0.00000000000E+00 0.  1.
          2    1    1    2  501    0  0.12672532779E+02 -0.17800857422E+02  0.15870727136E+04  0.15872231292E+04  0.00000000000E+00 0.  1.
          1    1    1    2  502    0 -0.12672532779E+02  0.17800857422E+02 -0.86085055884E+03  0.86112783503E+03  0.00000000000E+00 0.  1.
</event>
<event>
 4    1  0.3593938E+003  0.2123308E+02  0.7546771E-02  0.1515963E+00
          2   -1    0    0  502    0  0.00000000000E+00  0.00000000000E+00  0.13810961318E+03  0.13810961318E+03  0.00000000000E+00 0. -1.
          1   -1    0    0  501    0 -0.00000000000E+00 -0.00000000000E+00 -0.44045719509E+03  0.44045719509E+03  0.00000000000E+00 0.  1.
          2    1    1    2  501    0  0.20044708165E+02 -0.70038228982E+01  0.13703562627E+03  0.13867085752E+03  0.00000000000E+00 0. -1.
          1    1    1    2  502    0 -0.20044708165E+02  0.70038228982E+01 -0.43938320818E+03  0.43989595075E+03  0.00000000000E+00 0.  1.
</event>
<event>
 4    1  0.3593938E+003  0.3099101E+02  0.7546771E-02  0.1411175E+00
          2   -1    0    0  502    0  0.00000000000E+00  0.00000000000E+00  0.18433332258E+04  0.18433332258E+04  0.00000000000E+00 0. -1.
          1   -1    0    0  501    0 -0.00000000000E+00 -0.00000000000E+00 -0.20080034623E+02  0.20080034623E+02  0.00000000000E+00 0.  1.
          2    1    1    2  501    0 -0.49582769753E+01  0.30591800368E+02  0.18311658353E+04  0.18314280655E+04  0.00000000000E+00 0. -1.
          1    1    1    2  502    0  0.49582769753E+01 -0.30591800368E+02 -0.79126440769E+01  0.31985194960E+02  0.00000000000E+00 0.  1.
</event>
<event>
 4    1  0.3593938E+003  0.2034313E+02  0.7546771E-02  0.1528853E+00
          2   -1    0    0  502    0  0.00000000000E+00  0.00000000000E+00  0.14317086144E+03  0.14317086144E+03  0.00000000000E+00 0.  1.
          1   -1    0    0  501    0 -0.00000000000E+00 -0.00000000000E+00 -0.48677117119E+02  0.48677117119E+02  0.00000000000E+00 0.  1.
          2    1    1    2  501    0 -0.34278227904E+01 -0.20052251052E+02  0.14027919014E+03  0.14174658347E+03  0.00000000000E+00 0.  1.
          1    1    1    2  502    0  0.34278227904E+01  0.20052251052E+02 -0.45785445814E+02  0.50101395087E+02  0.00000000000E+00 0.  1.
</event>
<event>
 4    1  0.3593938E+003  0.3263512E+02  0.7546771E-02  0.1397998E+00
          2   -1    0    0  502    0  0.00000000000E+00  0.00000000000E+00  0.22514284190E+01  0.22514284190E+01  0.00000000000E+00 0.  1.
          1   -1    0    0  501    0 -0.00000000000E+00 -0.00000000000E+00 -0.48672728468E+03  0.48672728468E+03  0.00000000000E+00 0. -1.
          2    1    1    2  501    0  0.14937273273E+02 -0.29016010021E+02 -0.20126216234E+03  0.20389092418E+03  0.00000000000E+00 0.  1.
          1    1    1    2  502    0 -0.14937273273E+02  0.29016010021E+02 -0.28321369392E+03  0.28508778892E+03  0.00000000000E+00 0. -1.
</event>
<event>
 4    1  0.3593938E+003  0.3057345E+02  0.7546771E-02  0.1414677E+00
          2   -1    0    0  502    0  0.00000000000E+00  0.00000000000E+00  0.18066558215E+04  0.18066558215E+04  0.00000000000E+00 0.  1.
          1   -1    0    0  501    0 -0.00000000000E+00 -0.00000000000E+00 -0.15564802641E+03  0.15564802641E+03  0.00000000000E+00 0. -1.
          2    1    1    2  501    0  0.23791880626E+02  0.19201102485E+02  0.18050237563E+04  0.18052826639E+04  0.00000000000E+00 0.  1.
          1    1    1    2  502    0 -0.23791880626E+02 -0.19201102485E+02 -0.15401596118E+03  0.15702118398E+03  0.00000000000E+00 0. -1.
</event>
<event>
 4    1  0.3593938E+003  0.3689662E+02  0.7546771E-02  0.1367698E+00
          2   -1    0    0  502    0  0.00000000000E+00  0.00000000000E+00  0.65255310082E+01  0.65255310082E+01  0.00000000000E+00 0.  1.
          1   -1    0    0  501    0 -0.00000000000E+00 -0.00000000000E+00 -0.22911105524E+03  0.22911105524E+03  0.00000000000E+00 0.  1.
          2    1    1    2  501    0  0.58934406975E+01  0.36422905180E+02 -0.76058535513E+02  0.84535563459E+02  0.00000000000E+00 0.  1.
          1    1    1    2  502    0 -0.58934406975E+01 -0.36422905180E+02 -0.14652698872E+03  0.15110102279E+03  0.00000000000E+00 0.  1.
</event>
<event>
 4    1  0.3593938E+003  0.2614187E+02  0.7546771E-02  0.1456424E+00
          2   -1    0    0  502    0  0.00000000000E+00  0.00000000000E+00  0.10107953235E+03  0.10107953235E+03  0.00000000000E+00 0. -1.
          1   -1    0    0  501    0 -0.00000000000E+00 -0.00000000000E+00 -0.12077061194E+02  0.12077061194E+02  0.00000000000E+00 0. -1.
          2    1    1    2  501    0  0.24705444809E+02  0.85462551921E+01  0.82038681685E+02  0.86103093868E+02  0.00000000000E+00 0. -1.
          1    1    1    2  502    0 -0.24705444809E+02 -0.85462551921E+01  0.69637894738E+01  0.27053499678E+02  0.00000000000E+00 0. -1.
</event>
<event>
 4    1  0.3593938E+003  0.3163693E+02  0.7546771E-02  0.1405886E+00
          2   -1    0    0  502    0  0.00000000000E+00  0.00000000000E+00  0.58124457695E+03  0.58124457695E+03  0.00000000000E+00 0.  1.
          1   -1    0    0  501    0 -0.00000000000E+00 -0.00000000000E+00 -0.47138847024E+01  0.47138847024E+01  0.00000000000E+00 0.  1.
          2    1    1    2  501    0 -0.90605288470E+01  0.30311744517E+02  0.52167606567E+03  0.52263449229E+03  0.00000000000E+00 0.  1.
          1    1    1    2  502    0  0.90605288470E+01 -0.30311744517E+02  0.54854626570E+02  0.63323969355E+02  0.00000000000E+00 0.  1.
</event>
<event>
 4    1  0.3593938E+003  0.5298332E+02  0.7546771E-02  0.1285731E+00
          2   -1    0    0  502    0  0.00000000000E+00  0.00000000000E+00  0.37960219996E+04  0.37960219996E+04  0.00000000000E+00 0.  1.
          1   -1    0    0  501    0 -0.00000000000E+00 -0.00000000000E+00 -0.48828056262E+01  0.48828056262E+01  0.00000000000E+00 0.  1.
          2    1    1    2  501    0  0.45028978989E+02  0.27921743581E+02  0.36462010859E+04  0.36465860186E+04  0.00000000000E+00 0.  1.
          1    1    1    2  502    0 -0.45028978989E+02 -0.27921743581E+02  0.14493810808E+03  0.15431878656E+03  0.00000000000E+00 0.  1.
</event>
<event>
 4    1  0.3593938E+003  0.2402949E+02  0.7546771E-02  0.1479960E+00
          2   -1    0    0  502    0  0.00000000000E+00  0.00000000000E+00  0.21252923240E+01  0.21252923240E+01  0.00000000000E+00 0.  1.
          1   -1    0    0  501    0 -0.00000000000E+00 -0.00000000000E+00 -0.80619994583E+03  0.80619994583E+03  0.00000000000E+00 0. -1.
          2    1    1    2  501    0 -0.15078727551E+02  0.18709575463E+02 -0.72948222455E+02  0.76804032433E+02  0.00000000000E+00 0.  1.
          1    1    1    2  502    0  0.15078727551E+02 -0.18709575463E+02 -0.73112643106E+03  0.73152120573E+03  0.00000000000E+00 0. -1.
</event>
<event>
 4    1  0.3593938E+003  0.4191990E+02  0.7546771E-02  0.1337588E+00
          2   -1    0    0  502    0  0.00000000000E+00  0.00000000000E+00  0.62769072347E+03  0.62769072347E+03  0.00000000000E+00 0.  1.
          1   -1    0    0  501    0 -0.00000000000E+00 -0.00000000000E+00 -0.17002696356E+02  0.17002696356E+02  0.00000000000E+00 0.  1.
          2    1    1    2  501    0 -0.41738109830E+02  0.38998146689E+01  0.59995977062E+03  0.60142248439E+03  0.00000000000E+00 0.  1.
          1    1    1    2  502    0  0.41738109830E+02 -0.38998146689E+01  0.10728256503E+02  0.43270935445E+02  0.00000000000E+00 0.  1.
</event>
<event>
 4    1  0.3593938E+003  0.2179840E+02  0.7546771E-02  0.1508164E+00
          2   -1    0    0  502    0  0.00000000000E+00  0.00000000000E+00  0.23433156577E+03  0.23433156577E+03  0.00000000000E+00 0.  1.
          1   -1    0    0  501    0 -0.00000000000E+00 -0.00000000000E+00 -0.27604784305E+02  0.27604784305E+02  0.00000000000E+00 0.  1.
          2    1    1    2  501    0  0.20084636948E+02 -0.84721601765E+01  0.22942955349E+03  0.23046277390E+03  0.00000000000E+00 0.  1.
          1    1    1    2  502    0 -0.20084636948E+02  0.84721601765E+01 -0.22702772027E+02  0.31473576173E+02  0.00000000000E+00 0.  1.
</event>
<event>
 4    1  0.3593938E+003  0.2374129E+02  0.7546771E-02  0.1483394E+00
          2   -1    0    0  502    0  0.00000000000E+00  0.00000000000E+00  0.14821030486E+02  0.14821030486E+02  0.00000000000E+00 0.  1.
          1   -1    0    0  501    0 -0.00000000000E+00 -0.00000000000E+00 -0.57317641299E+03  0.57317641299E+03  0.00000000000E+00 0. -1.
          2    1    1    2  501    0  0.20794079122E+02 -0.11456662138E+02  0.49002149309E+01  0.24241719004E+02  0.00000000000E+00 0.  1.
          1    1    1    2  502    0 -0.20794079122E+02  0.11456662138E+02 -0.56325559744E+03  0.56375572447E+03  0.00000000000E+00 0. -1.
</event>
<event>
 4    1  0.3593938E+003  0.2001871E+02  0.7546771E-02  0.1533750E+00
          2   -1    0    0  502    0  0.00000000000E+00  0.00000000000E+00  0.11078593854E+01  0.11078593854E+01  0.00000000000E+00 0.  1.
          1   -1    0    0  501    0 -0.00000000000E+00 -0.00000000000E+00 -0.38380979222E+03  0.38380979222E+03  0.00000000000E+00 0.  1.
          2    1    1    2  501    0 -0.17926972664E+02  0.89091144792E+01 -0.14519228662E+03  0.14656585129E+03  0.00000000000E+00 0.  1.
          1    1    1    2  502    0  0.17926972664E+02 -0.89091144792E+01 -0.23750964621E+03  0.23835180031E+03  0.00000000000E+00 0.  1.
</event>
<event>
 4    1  0.3593938E+003  0.3726322E+02  0.7546771E-02  0.1365315E+00
          2   -1    0    0  502    0  0.00000000000E+00  0.00000000000E+00  0.34190603257E+03  0.34190603257E+03  0.00000000000E+00 0.  1.
          1   -1    0    0  501    0 -0.00000000000E+00 -0.00000000000E+00 -0.53426834747E+02  0.53426834747E+02  0.00000000000E+00 0. -1.
          2    1    1    2  501    0 -0.42364130032E+01  0.37021625196E+02  0.33424483875E+03  0.33631556633E+03  0.00000000000E+00 0.  1.
          1    1    1    2  502    0  0.42364130032E+01 -0.37021625196E+02 -0.45765640920E+02  0.59017300990E+02  0.00000000000E+00 0. -1.
</event>
<event>
 4    1  0.3593938E+003  0.2678196E+02  0.7546771E-02  0.1449811E+00
          2   -1    0    0  502    0  0.00000000000E+00  0.00000000000E+00  0.24737764151E+03  0.24737764151E+03  0.00000000000E+00 0.  1.
          1   -1    0    0  501    0 -0.00000000000E+00 -0.00000000000E+00 -0.23807860285E+03  0.23807860285E+03  0.00000000000E+00 0. -1.
          2    1    1    2  501    0 -0.17006200686E+01  0.26727911421E+02  0.24589504708E+03  0.24734924204E+03  0.00000000000E+00 0.  1.
          1    1    1    2  502    0  0.17006200686E+01 -0.26727911421E+02 -0.23659600842E+03  0.23810700233E+03  0.00000000000E+00 0. -1.
</event>
<event>
 4    1  0.3593938E+003  0.2927531E+02  0.7546771E-02  0.1426000E+00
          2   -1    0    0  502    0  0.00000000000E+00  0.00000000000E+00  0.42524671465E+02  0.42524671465E+02  0.00000000000E+00 0. -1.
          1   -1    0    0  501    0 -0.00000000000E+00 -0.00000000000E+00 -0.90164050045E+02  0.90164050045E+02  0.00000000000E+00 0.  1.
          2    1    1    2  501    0  0.25767602312E+02 -0.13895131844E+02  0.34641463075E+02  0.45354988500E+02  0.00000000000E+00 0. -1.
          1    1    1    2  502    0 -0.25767602312E+02  0.13895131844E+02 -0.82280841656E+02  0.87333733010E+02  0.00000000000E+00 0.  1.
</event>
<event>
 4    1  0.3593938E+003  0.2784536E+02  0.7546771E-02  0.1439296E+00
          2   -1    0    0  502    0  0.00000000000E+00  0.00000000000E+00  0.12583432312E+03  0.12583432312E+03  0.00000000000E+00 0.  1.
          1   -1    0    0  501    0 -0.00000000000E+00 -0.00000000000E+00 -0.63374016958E+01  0.63374016958E+01  0.00000000000E+00 0. -1.
          2    1    1    2  501    0 -0.44175730356E+01 -0.27492712198E+02  0.70749521369E+02  0.76031960053E+02  0.00000000000E+00 0.  1.
          1    1    1    2  502    0  0.44175730356E+01  0.27492712198E+02  0.48747400059E+02  0.56139764767E+02  0.00000000000E+00 0. -1.
</event>
<event>
 4    1  0.3593938E+003  0.2040033E+02  0.7546771E-02  0.1528001E+00
          2   -1    0    0  502    0  0.00000000000E+00  0.00000000000E+00  0.97675867636E+02  0.97675867636E+02  0.00000000000E+00 0. -1.
          1   -1    0    0  501    0 -0.00000000000E+00 -0.00000000000E+00 -0.77873881490E+01  0.77873881490E+01  0.00000000000E+00 0. -1.
          2    1    1    2  501    0 -0.18534764143E+02 -0.85226773703E+01  0.80430076570E+02  0.82976928893E+02  0.00000000000E+00 0. -1.
          1    1    1    2  502    0  0.18534764143E+02  0.85226773703E+01  0.94584029174E+01  0.22486326893E+02  0.00000000000E+00 0. -1.
</event>
<event>
 4    1  0.3593938E+003  0.2655047E+02  0.7546771E-02  0.1452177E+00
          2   -1    0    0  502    0  0.00000000000E+00  0.00000000000E+00  0.81260683166E+03  0.81260683166E+03  0.00000000000E+00 0. -1.
          1   -1    0    0  501    0 -0.00000000000E+00 -0.00000000000E+00 -0.48905527740E+02  0.48905527740E+02  0.00000000000E+00 0. -1.
          2    1    1    2  501    0  0.19351389177E+02  0.18178317742E+02  0.80876934943E+03  0.80920503463E+03  0.00000000000E+00 0. -1.
          1    1    1    2  502    0 -0.19351389177E+02 -0.18178317742E+02 -0.45068045505E+02  0.52307324771E+02  0.00000000000E+00 0. -1.
</event>
<event>
 4    1  0.3593938E+003  0.2333928E+02  0.7546771E-02  0.1488281E+00
          2   -1    0    0  502    0  0.00000000000E+00  0.00000000000E+00  0.40105453115E+03  0.40105453115E+03  0.00000000000E+00 0.  1.
          1   -1    0    0  501    0 -0.00000000000E+00 -0.00000000000E+00 -0.53339623301E+01  0.53339623301E+01  0.00000000000E+00 0. -1.
          2    1    1    2  501    0  0.10542531791E+02 -0.20822507116E+02  0.37328684410E+03  0.37401576137E+03  0.00000000000E+00 0.  1.
          1    1    1    2  502    0 -0.10542531791E+02  0.20822507116E+02  0.22433724722E+02  0.32372732107E+02  0.00000000000E+00 0. -1.
</event>
<event>
 4    1  0.3593938E+003  0.4649706E+02  0.7546771E-02  0.1314119E+00
          2   -1    0    0  502    0  0.00000000000E+00  0.00000000000E+00  0.41417879215E+03  0.41417879215E+03  0.00000000000E+00 0.  1.
          1   -1    0    0  501    0 -0.00000000000E+00 -0.00000000000E+00 -0.21339344081E+04  0.21339344081E+04  0.00000000000E+00 0.  1.
          2    1    1    2  501    0 -0.43120691240E+02  0.17394902167E+02  0.41261957491E+03  0.41523112869E+03  0.00000000000E+00 0.  1.
          1    1    1    2  502    0  0.43120691240E+02 -0.17394902167E+02 -0.21323751909E+04  0.21328820716E+04  0.00000000000E+00 0.  1.
</event>
<event>
 4    1  0.3593938E+003  0.2106183E+02  0.7546771E-02  0.1518384E+00
          2   -1    0    0  502    0  0.00000000000E+00  0.00000000000E+00  0.74005769849E+02  0.74005769849E+02  0.00000000000E+00 0. -1.
          1   -1    0    0  501    0 -0.00000000000E+00 -0.00000000000E+00 -0.16342069311E+02  0.16342069311E+02  0.00000000000E+00 0. -1.
          2    1    1    2  501    0  0.64618559063E+01 -0.20046070232E+02  0.64778721786E+02  0.68116688922E+02  0.00000000000E+00 0. -1.
          1    1    1    2  502    0 -0.64618559063E+01  0.20046070232E+02 -0.71150212490E+01  0.22231150238E+02  0.00000000000E+00 0. -1.
</event>
<event>
 4    1  0.3593938E+003  0.2124505E+02  0.7546771E-02  0.1515795E+00
          2   -1    0    0  502    0  0.00000000000E+00  0.00000000000E+00  0.38207917593E+02  0.38207917593E+02  0.00000000000E+00 0.  1.
          1   -1    0    0  501    0 -0.00000000000E+00 -0.00000000000E+00 -0.69205668197E+03  0.69205668197E+03  0.00000000000E+00 0. -1.
          2    1    1    2  501    0  0.13002827885E+01  0.21205218102E+02  0.35078194780E+02  0.41010142150E+02  0.00000000000E+00 0.  1.
          1    1    1    2  502    0 -0.13002827885E+01 -0.21205218102E+02 -0.68892695915E+03  0.68925445741E+03  0.00000000000E+00 0. -1.
</event>
<event>
 4    1  0.3593938E+003  0.2358076E+02  0.7546771E-02  0.1485332E+00
          2   -1    0    0  502    0  0.00000000000E+00  0.00000000000E+00  0.36438567112E+03  0.36438567112E+03  0.00000000000E+00 0.  1.
          1   -1    0    0  501    0 -0.00000000000E+00 -0.00000000000E+00 -0.30273069497E+01  0.30273069497E+01  0.00000000000E+00 0. -1.
          2    1    1    2  501    0 -0.22884100122E+02 -0.56894676546E+01  0.31004847238E+03  0.31094389736E+03  0.00000000000E+00 0.  1.
          1    1    1    2  502    0  0.22884100122E+02  0.56894676546E+01  0.51309891788E+02  0.56469080707E+02  0.00000000000E+00 0. -1.
</event>
<event>
 4    1  0.3593938E+003  0.2313170E+02  0.7546771E-02  0.1490851E+00
          2   -1    0    0  502    0  0.00000000000E+00  0.00000000000E+00  0.39078164207E+02  0.39078164207E+02  0.00000000000E+00 0.  1.
          1   -1    0    0  501    0 -0.00000000000E+00 -0.00000000000E+00 -0.41889717167E+02  0.41889717167E+02  0.00000000000E+00 0.  1.
          2    1    1    2  501    0 -0.22096876507E+02 -0.68413161956E+01  0.31809098715E+02  0.39330577414E+02  0.00000000000E+00 0.  1.
          1    1    1    2  502    0  0.22096876507E+02  0.68413161956E+01 -0.34620651676E+02  0.41637303960E+02  0.00000000000E+00 0.  1.
</event>
<event>
 4    1  0.3593938E+003  0.2693796E+02  0.7546771E-02  0.1448232E+00
          2   -1    0    0  502    0  0.00000000000E+00  0.00000000000E+00  0.40571471607E+01  0.40571471607E+01  0.00000000000E+00 0. -1.
          1   -1    0    0  501    0 -0.00000000000E+00 -0.00000000000E+00 -0.26992463473E+03  0.26992463473E+03  0.00000000000E+00 0.  1.
          2    1    1    2  501    0  0.35299915382E+01 -0.26705672727E+02 -0.53363674083E+02  0.59777382911E+02  0.00000000000E+00 0. -1.
          1    1    1    2  502    0 -0.35299915382E+01  0.26705672727E+02 -0.21250381348E+03  0.21420439898E+03  0.00000000000E+00 0.  1.
</event>
<event>
 4    1  0.3593938E+003  0.2357826E+02  0.7546771E-02  0.1485362E+00
          2   -1    0    0  502    0  0.00000000000E+00  0.00000000000E+00  0.11809907238E+02  0.11809907238E+02  0.00000000000E+00 0.  1.
          1   -1    0    0  501    0 -0.00000000000E+00 -0.00000000000E+00 -0.81705040408E+03  0.81705040408E+03  0.00000000000E+00 0.  1.
          2    1    1    2  501    0  0.23487000011E+02  0.20724651008E+01 -0.30568030366E+00  0.23580240065E+02  0.00000000000E+00 0.  1.
          1    1    1    2  502    0 -0.23487000011E+02 -0.20724651008E+01 -0.80493481654E+03  0.80528007126E+03  0.00000000000E+00 0.  1.
</event>
<event>
 4    1  0.3593938E+003  0.4379546E+02  0.7546771E-02  0.1327573E+00
          2   -1    0    0  502    0  0.00000000000E+00  0.00000000000E+00  0.69209518482E+03  0.69209518482E+03  0.00000000000E+00 0.  1.
          1   -1    0    0  501    0 -0.00000000000E+00 -0.00000000000E+00 -0.15231091205E+02  0.15231091205E+02  0.00000000000E+00 0. -1.
          2    1    1    2  501    0 -0.39113550289E+02  0.19702082981E+02  0.65830586876E+03  0.65976106185E+03  0.00000000000E+00 0.  1.
          1    1    1    2  502    0  0.39113550289E+02 -0.19702082981E+02  0.18558224860E+02  0.47565214180E+02  0.00000000000E+00 0. -1.
</event>
<event>
 4    1  0.3593938E+003  0.5456411E+02  0.7546771E-02  0.1279511E+00
          2   -1    0    0  502    0  0.00000000000E+00  0.00000000000E+00  0.18950522611E+04  0.18950522611E+04  0.00000000000E+00 0.  1.
          1   -1    0    0  501    0 -0.00000000000E+00 -0.00000000000E+00 -0.11168169956E+02  0.11168169956E+02  0.00000000000E+00 0.  1.
          2    1    1    2  501    0 -0.52286897805E+02 -0.15598804578E+02  0.18254741475E+04  0.18262894365E+04  0.00000000000E+00 0.  1.
          1    1    1    2  502    0  0.52286897805E+02  0.15598804578E+02  0.58409943628E+02  0.79930994620E+02  0.00000000000E+00 0.  1.
</event>
<event>
 4    1  0.3593938E+003  0.2996586E+02  0.7546771E-02  0.1419893E+00
          2   -1    0    0  502    0  0.00000000000E+00  0.00000000000E+00  0.11471812652E+04  0.11471812652E+04  0.00000000000E+00 0. -1.
          1   -1    0    0  501    0 -0.00000000000E+00 -0.00000000000E+00 -0.27286307923E+01  0.27286307923E+01  0.00000000000E+00 0. -1.
          2    1    1    2  501    0  0.26340174656E+02  0.14288036059E+02  0.10577605667E+04  0.10581849409E+04  0.00000000000E+00 0. -1.
          1    1    1    2  502    0 -0.26340174656E+02 -0.14288036059E+02  0.86692067724E+02  0.91724955065E+02  0.00000000000E+00 0. -1.
</event>
<event>
 4    1  0.3593938E+003  0.2275175E+02  0.7546771E-02  0.1495639E+00
          2   -1    0    0  502    0  0.00000000000E+00  0.00000000000E+00  0.18842916601E+04  0.18842916601E+04  0.00000000000E+00 0.  1.
          1   -1    0    0  501    0 -0.00000000000E+00 -0.00000000000E+00 -0.30668768586E+00  0.30668768586E+00  0.00000000000E+00 0.  1.
          2    1    1    2  501    0  0.96110343065E+01 -0.20622079316E+02  0.12462448616E+04  0.12464525250E+04  0.00000000000E+00 0.  1.
          1    1    1    2  502    0 -0.96110343065E+01  0.20622079316E+02  0.63774011083E+03  0.63814582276E+03  0.00000000000E+00 0.  1.
</event>
<event>
 4    1  0.3593938E+003  0.3365886E+02  0.7546771E-02  0.1390245E+00
          2   -1    0    0  502    0  0.00000000000E+00  0.00000000000E+00  0.17357320822E+03  0.17357320822E+03  0.00000000000E+00 0.  1.
          1   -1    0    0  501    0 -0.00000000000E+00 -0.00000000000E+00 -0.43766316768E+03  0.43766316768E+03  0.00000000000E+00 0.  1.
          2    1    1    2  501    0 -0.28045945382E+02 -0.18610318735E+02  0.17128574716E+03  0.17456152553E+03  0.00000000000E+00 0.  1.
          1    1    1    2  502    0  0.28045945382E+02  0.18610318735E+02 -0.43537570663E+03  0.43667485036E+03  0.00000000000E+00 0.  1.
</event>
<event>
 4    1  0.3593938E+003  0.2979949E+02  0.7546771E-02  0.1421347E+00
          2   -1    0    0  502    0  0.00000000000E+00  0.00000000000E+00  0.56133481634E+02  0.56133481634E+02  0.00000000000E+00 0. -1.
          1   -1    0    0  501    0 -0.00000000000E+00 -0.00000000000E+00 -0.25454368895E+02  0.25454368895E+02  0.00000000000E+00 0.  1.
          2    1    1    2  501    0  0.24523291040E+02 -0.16929790527E+02  0.40437308484E+02  0.50231320191E+02  0.00000000000E+00 0. -1.
          1    1    1    2  502    0 -0.24523291040E+02  0.16929790527E+02 -0.97581957451E+01  0.31356530339E+02  0.00000000000E+00 0.  1.
</event>
<event>
 4    1  0.3593938E+003  0.2175628E+02  0.7546771E-02  0.1508735E+00
          2   -1    0    0  502    0  0.00000000000E+00  0.00000000000E+00  0.14579291348E+03  0.14579291348E+03  0.00000000000E+00 0. -1.
          1   -1    0    0  501    0 -0.00000000000E+00 -0.00000000000E+00 -0.95406158633E+01  0.95406158633E+01  0.00000000000E+00 0.  1.
          2    1    1    2  501    0 -0.21090195462E+02  0.53422419068E+01  0.13120878479E+03  0.13300030488E+03  0.00000000000E+00 0. -1.
          1    1    1    2  502    0  0.21090195462E+02 -0.53422419068E+01  0.50435128299E+01  0.22333224462E+02  0.00000000000E+00 0.  1.
</event>
<event>
 4    1  0.3593938E+003  0.2451718E+02  0.7546771E-02  0.1474278E+00
          2   -1    0    0  502    0  0.00000000000E+00  0.00000000000E+00  0.61899944292E+02  0.61899944292E+02  0.00000000000E+00 0.  1.
          1   -1    0    0  501    0 -0.00000000000E+00 -0.00000000000E+00 -0.47349102151E+03  0.47349102151E+03  0.00000000000E+00 0.  1.
          2    1    1    2  501    0  0.21793174060E+02 -0.11231643636E+02  0.59140674258E+02  0.64021180918E+02  0.00000000000E+00 0.  1.
          1    1    1    2  502    0 -0.21793174060E+02  0.11231643636E+02 -0.47073175147E+03  0.47136978488E+03  0.00000000000E+00 0.  1.
</event>
<event>
 4    1  0.3593938E+003  0.2292463E+02  0.7546771E-02  0.1493447E+00
          2   -1    0    0  502    0  0.00000000000E+00  0.00000000000E+00  0.55038488174E+03  0.55038488174E+03  0.00000000000E+00 0.  1.
          1   -1    0    0  501    0 -0.00000000000E+00 -0.00000000000E+00 -0.11322389856E+01  0.11322389856E+01  0.00000000000E+00 0.  1.
          2    1    1    2  501    0 -0.14281651412E+02 -0.17932456153E+02  0.38377422233E+03  0.38445831020E+03  0.00000000000E+00 0.  1.
          1    1    1    2  502    0  0.14281651412E+02  0.17932456153E+02  0.16547842042E+03  0.16705881053E+03  0.00000000000E+00 0.  1.
</event>
<event>
 4    1  0.3593938E+003  0.3080540E+02  0.7546771E-02  0.1412724E+00
          2   -1    0    0  502    0  0.00000000000E+00  0.00000000000E+00  0.90162481363E+02  0.90162481363E+02  0.00000000000E+00 0. -1.
          1   -1    0    0  501    0 -0.00000000000E+00 -0.00000000000E+00 -0.16750409224E+03  0.16750409224E+03  0.00000000000E+00 0. -1.
          2    1    1    2  501    0 -0.29589898017E+02  0.85679989197E+01  0.86049191049E+02  0.91397133163E+02  0.00000000000E+00 0. -1.
          1    1    1    2  502    0  0.29589898017E+02 -0.85679989197E+01 -0.16339080193E+03  0.16626944044E+03  0.00000000000E+00 0. -1.
</event>
<event>
 4    1  0.3593938E+003  0.4500630E+02  0.7546771E-02  0.1321408E+00
          2   -1    0    0  502    0  0.00000000000E+00  0.00000000000E+00  0.13356157709E+04  0.13356157709E+04  0.00000000000E+00 0.  1.
          1   -1    0    0  501    0 -0.00000000000E+00 -0.00000000000E+00 -0.32916042113E+01  0.32916042113E+01  0.00000000000E+00 0.  1.
          2    1    1    2  501    0 -0.45001585600E+02  0.65156834113E+00  0.11577701021E+04  0.11586445428E+04  0.00000000000E+00 0.  1.
          1    1    1    2  502    0  0.45001585600E+02 -0.65156834113E+00  0.17455406459E+03  0.18026283231E+03  0.00000000000E+00 0.  1.
</event>
<event>
 4    1  0.3593938E+003  0.3699280E+02  0.7546771E-02  0.1367070E+00
          2   -1    0    0  502    0  0.00000000000E+00  0.00000000000E+00  0.59934750374E+02  0.59934750374E+02  0.00000000000E+00 0.  1.
          1   -1    0    0  501    0 -0.00000000000E+00 -0.00000000000E+00 -0.26868116299E+02  0.26868116299E+02  0.00000000000E+00 0.  1.
          2    1    1    2  501    0 -0.17161698826E+02  0.32771078622E+02  0.33353620664E+02  0.49808950120E+02  0.00000000000E+00 0.  1.
          1    1    1    2  502    0  0.17161698826E+02 -0.32771078622E+02 -0.28698658921E+00  0.36993916553E+02  0.00000000000E+00 0.  1.
</event>
<event>
 4    1  0.3593938E+003  0.3127706E+02  0.7546771E-02  0.1408814E+00
          2   -1    0    0  502    0  0.00000000000E+00  0.00000000000E+00  0.36063805454E+02  0.36063805454E+02  0.00000000000E+00 0. -1.
          1   -1    0    0  501    0 -0.00000000000E+00 -0.00000000000E+00 -0.73245171510E+02  0.73245171510E+02  0.00000000000E+00 0. -1.
          2    1    1    2  501    0  0.29907141578E+02  0.91551799427E+01  0.24778245710E+02  0.39902580087E+02  0.00000000000E+00 0. -1.
          1    1    1    2  502    0 -0.29907141578E+02 -0.91551799427E+01 -0.61959611766E+02  0.69406396877E+02  0.00000000000E+00 0. -1.
</event>
<event>
 4    1  0.3593938E+003  0.2158454E+02  0.7546771E-02  0.1511080E+00
          2   -1    0    0  502    0  0.00000000000E+00  0.00000000000E+00  0.73376074243E+02  0.73376074243E+02  0.00000000000E+00 0.  1.
          1   -1    0    0  501    0 -0.00000000000E+00 -0.00000000000E+00 -0.63514880671E+01  0.63514880671E+01  0.00000000000E+00 0.  1.
          2    1    1    2  501    0  0.21514888338E+02  0.17325946323E+01  0.34239180528E+02  0.40474853769E+02  0.00000000000E+00 0.  1.
          1    1    1    2  502    0 -0.21514888338E+02 -0.17325946323E+01  0.32785405648E+02  0.39252708542E+02  0.00000000000E+00 0.  1.
</event>
<event>
 4    1  0.3593938E+003  0.4083557E+02  0.7546771E-02  0.1343658E+00
          2   -1    0    0  502    0  0.00000000000E+00  0.00000000000E+00  0.40092320447E+03  0.40092320447E+03  0.00000000000E+00 0. -1.
          1   -1    0    0  501    0 -0.00000000000E+00 -0.00000000000E+00 -0.21048325491E+03  0.21048325491E+03  0.00000000000E+00 0.  1.
          2    1    1    2  501    0 -0.40748598299E+02 -0.26636907254E+01  0.39788770606E+03  0.39997771206E+03  0.00000000000E+00 0. -1.
          1    1    1    2  502    0  0.40748598299E+02  0.26636907254E+01 -0.20744775650E+03  0.21142874731E+03  0.00000000000E+00 0.  1.
</event>
<event>
 4    1  0.3593938E+003  0.2171143E+02  0.7546771E-02  0.1509345E+00
          2   -1    0    0  502    0  0.00000000000E+00  0.00000000000E+00  0.15038481836E+01  0.15038481836E+01  0.00000000000E+00 0.  1.
          1   -1    0    0  501    0 -0.00000000000E+00 -0.00000000000E+00 -0.36711861328E+03  0.36711861328E+03  0.00000000000E+00 0.  1.
          2    1    1    2  501    0 -0.20777377047E+02 -0.62997513041E+01 -0.11233885519E+03  0.11441767630E+03  0.00000000000E+00 0.  1.
          1    1    1    2  502    0  0.20777377047E+02  0.62997513041E+01 -0.25327590991E+03  0.25420478517E+03  0.00000000000E+00 0.  1.
</event>
<event>
 4    1  0.3593938E+003  0.2421189E+02  0.7546771E-02  0.1477816E+00
          2   -1    0    0  502    0  0.00000000000E+00  0.00000000000E+00  0.16436710398E+04  0.16436710398E+04  0.00000000000E+00 0.  1.
          1   -1    0    0  501    0 -0.00000000000E+00 -0.00000000000E+00 -0.60602881704E+01  0.60602881704E+01  0.00000000000E+00 0.  1.
          2    1    1    2  501    0  0.18465222369E+02  0.15660501021E+02  0.16190311974E+04  0.16192122263E+04  0.00000000000E+00 0.  1.
          1    1    1    2  502    0 -0.18465222369E+02 -0.15660501021E+02  0.18579554212E+02  0.30519101627E+02  0.00000000000E+00 0.  1.
</event>
<event>
 4    1  0.3593938E+003  0.2550281E+02  0.7546771E-02  0.1463256E+00
          2   -1    0    0  502    0  0.00000000000E+00  0.00000000000E+00  0.14281518420E+04  0.14281518420E+04  0.00000000000E+00 0. -1.
          1   -1    0    0  501    0 -0.00000000000E+00 -0.00000000000E+00 -0.80391627093E+00  0.80391627093E+00  0.00000000000E+00 0.  1.
          2    1    1    2  501    0  0.18892935819E+02 -0.17130387023E+02  0.11840977866E+04  0.11843723914E+04  0.00000000000E+00 0. -1.
          1    1    1    2  502    0 -0.18892935819E+02  0.17130387023E+02  0.24325013912E+03  0.24458336690E+03  0.00000000000E+00 0.  1.
</event>
<event>
 4    1  0.3593938E+003  0.2170596E+02  0.7546771E-02  0.1509420E+00
          2   -1    0    0  502    0  0.00000000000E+00  0.00000000000E+00  0.10503646203E+04  0.10503646203E+04  0.00000000000E+00 0. -1.
          1   -1    0    0  501    0 -0.00000000000E+00 -0.00000000000E+00 -0.11735879306E+01  0.11735879306E+01  0.00000000000E+00 0. -1.
          2    1    1    2  501    0 -0.21629108279E+02 -0.18249396545E+01  0.93784794883E+03  0.93809910130E+03  0.00000000000E+00 0. -1.
          1    1    1    2  502    0  0.21629108279E+02  0.18249396545E+01  0.11134308351E+03  0.11343910690E+03  0.00000000000E+00 0. -1.
</event>
<event>
 4    1  0.3593938E+003  0.3351685E+02  0.7546771E-02  0.1391301E+00
          2   -1    0    0  502    0  0.00000000000E+00  0.00000000000E+00  0.28647811071E+02  0.28647811071E+02  0.00000000000E+00 0. -1.
          1   -1    0    0  501    0 -0.00000000000E+00 -0.00000000000E+00 -0.89298378372E+03  0.89298378372E+03  0.00000000000E+00 0. -1.
          2    1    1    2  501    0 -0.25985985829E+02 -0.21168556255E+02  0.18416365517E+02  0.38243192234E+02  0.00000000000E+00 0. -1.
          1    1    1    2  502    0  0.25985985829E+02  0.21168556255E+02 -0.88275233816E+03  0.88338840255E+03  0.00000000000E+00 0. -1.
</event>
<event>
 4    1  0.3593938E+003  0.2087082E+02  0.7546771E-02  0.1521117E+00
          2   -1    0    0  502    0  0.00000000000E+00  0.00000000000E+00  0.82567194388E+02  0.82567194388E+02  0.00000000000E+00 0.  1.
          1   -1    0    0  501    0 -0.00000000000E+00 -0.00000000000E+00 -0.19407297772E+03  0.19407297772E+03  0.00000000000E+00 0. -1.
          2    1    1    2  501    0 -0.16140922840E+02  0.13231088297E+02  0.80674224916E+02  0.83330196529E+02  0.00000000000E+00 0.  1.
          1    1    1    2  502    0  0.16140922840E+02 -0.13231088297E+02 -0.19218000825E+03  0.19330997558E+03  0.00000000000E+00 0. -1.
</event>
<event>
 4    1  0.3593938E+003  0.3082896E+02  0.7546771E-02  0.1412527E+00
          2   -1    0    0  502    0  0.00000000000E+00  0.00000000000E+00  0.97181120255E+02  0.97181120255E+02  0.00000000000E+00 0.  1.
          1   -1    0    0  501    0 -0.00000000000E+00 -0.00000000000E+00 -0.55617204614E+03  0.55617204614E+03  0.00000000000E+00 0.  1.
          2    1    1    2  501    0  0.30337907047E+02  0.54805287595E+01  0.94296181334E+02  0.99207835445E+02  0.00000000000E+00 0.  1.
          1    1    1    2  502    0 -0.30337907047E+02 -0.54805287595E+01 -0.55328710721E+03  0.55414533095E+03  0.00000000000E+00 0.  1.
</event>
<event>
 4    1  0.3593938E+003  0.6128436E+02  0.7546771E-02  0.1255530E+00
          2   -1    0    0  502    0  0.00000000000E+00  0.00000000000E+00  0.39062288308E+01  0.39062288308E+01  0.00000000000E+00 0.  1.
          1   -1    0    0  501    0 -0.00000000000E+00 -0.00000000000E+00 -0.11275858207E+04  0.11275858207E+04  0.00000000000E+00 0. -1.
          2    1    1    2  501    0  0.57660628567E+02 -0.20761146926E+02 -0.34470222273E+03  0.35010769152E+03  0.00000000000E+00 0.  1.
          1    1    1    2  502    0 -0.57660628567E+02  0.20761146926E+02 -0.77897736910E+03  0.78138435797E+03  0.00000000000E+00 0. -1.
</event>
<event>
 4    1  0.3593938E+003  0.2165591E+02  0.7546771E-02  0.1510103E+00
          2   -1    0    0  502    0  0.00000000000E+00  0.00000000000E+00  0.39716292576E+01  0.39716292576E+01  0.00000000000E+00 0. -1.
          1   -1    0    0  501    0 -0.00000000000E+00 -0.00000000000E+00 -0.85046862480E+03  0.85046862480E+03  0.00000000000E+00 0.  1.
          2    1    1    2  501    0  0.71770911275E+00  0.21644015684E+02 -0.26794579585E+02  0.34451821671E+02  0.00000000000E+00 0. -1.
          1    1    1    2  502    0 -0.71770911275E+00 -0.21644015684E+02 -0.81970241596E+03  0.81998843239E+03  0.00000000000E+00 0.  1.
</event>
<event>
 4    1  0.3593938E+003  0.2427740E+02  0.7546771E-02  0.1477052E+00
          2   -1    0    0  502    0  0.00000000000E+00  0.00000000000E+00  0.15978772342E+01  0.15978772342E+01  0.00000000000E+00 0.  1.
          1   -1    0    0  501    0 -0.00000000000E+00 -0.00000000000E+00 -0.14393929355E+04  0.14393929355E+04  0.00000000000E+00 0.  1.
          2    1    1    2  501    0  0.17467576478E+02 -0.16860491009E+02 -0.97539911492E+02  0.10051580333E+03  0.00000000000E+00 0.  1.
          1    1    1    2  502    0 -0.17467576478E+02  0.16860491009E+02 -0.13402551468E+04  0.13404750094E+04  0.00000000000E+00 0.  1.
</event>
<event>
 4    1  0.3593938E+003  0.2215635E+02  0.7546771E-02  0.1503373E+00
          2   -1    0    0  502    0  0.00000000000E+00  0.00000000000E+00  0.28208789459E+03  0.28208789459E+03  0.00000000000E+00 0. -1.
          1   -1    0    0  501    0 -0.00000000000E+00 -0.00000000000E+00 -0.32322211656E+01  0.32322211656E+01  0.00000000000E+00 0.  1.
          2    1    1    2  501    0  0.18602945798E+02  0.12034710721E+02  0.23635195783E+03  0.23738818805E+03  0.00000000000E+00 0. -1.
          1    1    1    2  502    0 -0.18602945798E+02 -0.12034710721E+02  0.42503715597E+02  0.47931927710E+02  0.00000000000E+00 0.  1.
</event>
<event>
 4    1  0.3593938E+003  0.3182961E+02  0.7546771E-02  0.1404336E+00
          2   -1    0    0  502    0  0.00000000000E+00  0.00000000000E+00  0.13681901342E+02  0.13681901342E+02  0.00000000000E+00 0.  1.
          1   -1    0    0  501    0 -0.00000000000E+00 -0.00000000000E+00 -0.16439508716E+04  0.16439508716E+04  0.00000000000E+00 0.  1.
          2    1    1    2  501    0  0.31621764634E+02 -0.36315431986E+01 -0.51993559560E+01  0.32251471392E+02  0.00000000000E+00 0.  1.
          1    1    1    2  502    0 -0.31621764634E+02  0.36315431986E+01 -0.16250696143E+04  0.16253813015E+04  0.00000000000E+00 0.  1.
</event>
<event>
 4    1  0.3593938E+003  0.2308158E+02  0.7546771E-02  0.1491476E+00
          2   -1    0    0  502    0  0.00000000000E+00  0.00000000000E+00  0.56146882447E+03  0.56146882447E+03  0.00000000000E+00 0. -1.
          1   -1    0    0  501    0 -0.00000000000E+00 -0.00000000000E+00 -0.58144694402E+01  0.58144694402E+01  0.00000000000E+00 0. -1.
          2    1    1    2  501    0  0.76566553965E+01 -0.21774645162E+02  0.53729483941E+03  0.53779039040E+03  0.00000000000E+00 0. -1.
          1    1    1    2  502    0 -0.76566553965E+01  0.21774645162E+02  0.18359515611E+02  0.29492903507E+02  0.00000000000E+00 0. -1.
</event>
<event>
 4    1  0.3593938E+003  0.2538044E+02  0.7546771E-02  0.1464592E+00
          2   -1    0    0  502    0  0.00000000000E+00  0.00000000000E+00  0.10576051113E+04  0.10576051113E+04  0.00000000000E+00 0. -1.
          1   -1    0    0  501    0 -0.00000000000E+00 -0.00000000000E+00 -0.10198623246E+01  0.10198623246E+01  0.00000000000E+00 0. -1.
          2    1    1    2  501    0 -0.11823130798E+02  0.22458418574E+02  0.86422109036E+03  0.86459369649E+03  0.00000000000E+00 0. -1.
          1    1    1    2  502    0  0.11823130798E+02 -0.22458418574E+02  0.19236415859E+03  0.19403127711E+03  0.00000000000E+00 0. -1.
</event>
<event>
 4    1  0.3593938E+003  0.2336277E+02  0.7546771E-02  0.1487992E+00
          2   -1    0    0  502    0  0.00000000000E+00  0.00000000000E+00  0.48660281076E+01  0.48660281076E+01  0.00000000000E+00 0. -1.
          1   -1    0    0  501    0 -0.00000000000E+00 -0.00000000000E+00 -0.17347376067E+03  0.17347376067E+03  0.00000000000E+00 0. -1.
          2    1    1    2  501    0  0.14978294773E+02 -0.17929581802E+02 -0.31295159322E+02  0.39053888601E+02  0.00000000000E+00 0. -1.
          1    1    1    2  502    0 -0.14978294773E+02  0.17929581802E+02 -0.13731257324E+03  0.13928590017E+03  0.00000000000E+00 0. -1.
</event>
<event>
 4    1  0.3593938E+003  0.2699762E+02  0.7546771E-02  0.1447632E+00
          2   -1    0    0  502    0  0.00000000000E+00  0.00000000000E+00  0.28292684002E+02  0.28292684002E+02  0.00000000000E+00 0.  1.
          1   -1    0    0  501    0 -0.00000000000E+00 -0.00000000000E+00 -0.25574768334E+03  0.25574768334E+03  0.00000000000E+00 0.  1.
          2    1    1    2  501    0 -0.41074307803E+01 -0.26683336349E+02  0.20949915831E+02  0.34172655730E+02  0.00000000000E+00 0.  1.
          1    1    1    2  502    0  0.41074307803E+01  0.26683336349E+02 -0.24840491517E+03  0.24986771162E+03  0.00000000000E+00 0.  1.
</event>
<event>
 4    1  0.3593938E+003  0.2253672E+02  0.7546771E-02  0.1498399E+00
          2   -1    0    0  502    0  0.00000000000E+00  0.00000000000E+00  0.93849467038E+03  0.93849467038E+03  0.00000000000E+00 0.  1.
          1   -1    0    0  501    0 -0.00000000000E+00 -0.00000000000E+00 -0.77653834092E+00  0.77653834092E+00  0.00000000000E+00 0.  1.
          2    1    1    2  501    0  0.21186847277E+02  0.76825375702E+01  0.72740349377E+03  0.72775253117E+03  0.00000000000E+00 0.  1.
          1    1    1    2  502    0 -0.21186847277E+02 -0.76825375702E+01  0.21031463827E+03  0.21151867755E+03  0.00000000000E+00 0.  1.
</event>
<event>
 4    1  0.3593938E+003  0.3367150E+02  0.7546771E-02  0.1390151E+00
          2   -1    0    0  502    0  0.00000000000E+00  0.00000000000E+00  0.30436850767E+01  0.30436850767E+01  0.00000000000E+00 0.  1.
          1   -1    0    0  501    0 -0.00000000000E+00 -0.00000000000E+00 -0.85595856150E+03  0.85595856150E+03  0.00000000000E+00 0.  1.
          2    1    1    2  501    0  0.32752659427E+02 -0.78123735220E+01 -0.10366899557E+03  0.10900014001E+03  0.00000000000E+00 0.  1.
          1    1    1    2  502    0 -0.32752659427E+02  0.78123735220E+01 -0.74924588085E+03  0.75000210656E+03  0.00000000000E+00 0.  1.
</event>
<event>
 4    1  0.3593938E+003  0.2541500E+02  0.7546771E-02  0.1464214E+00
          2   -1    0    0  502    0  0.00000000000E+00  0.00000000000E+00  0.10722089189E+04  0.10722089189E+04  0.00000000000E+00 0.  1.
          1   -1    0    0  501    0 -0.00000000000E+00 -0.00000000000E+00 -0.64812055047E+00  0.64812055047E+00  0.00000000000E+00 0. -1.
          2    1    1    2  501    0  0.10667315441E+02  0.23067941675E+02  0.39333834389E+03  0.39415856495E+03  0.00000000000E+00 0.  1.
          1    1    1    2  502    0 -0.10667315441E+02 -0.23067941675E+02  0.67822245444E+03  0.67869847448E+03  0.00000000000E+00 0. -1.
</event>
<event>
 4    1  0.3593938E+003  0.2695828E+02  0.7546771E-02  0.1448028E+00
          2   -1    0    0  502    0  0.00000000000E+00  0.00000000000E+00  0.58128408094E+03  0.58128408094E+03  0.00000000000E+00 0.  1.
          1   -1    0    0  501    0 -0.00000000000E+00 -0.00000000000E+00 -0.14863256234E+01  0.14863256234E+01  0.00000000000E+00 0.  1.
          2    1    1    2  501    0  0.13763654972E+02 -0.23179960906E+02  0.40602733953E+03  0.40692130595E+03  0.00000000000E+00 0.  1.
          1    1    1    2  502    0 -0.13763654972E+02  0.23179960906E+02  0.17377041578E+03  0.17584910061E+03  0.00000000000E+00 0.  1.
</event>
<event>
 4    1  0.5524674E+003  0.2314853E+02  0.7546771E-02  0.1490641E+00
          2   -1    0    0  502    0  0.00000000000E+00  0.00000000000E+00  0.14329280522E+04  0.14329280522E+04  0.00000000000E+00 0.  1.
          1   -1    0    0  501    0 -0.00000000000E+00 -0.00000000000E+00 -0.63406287285E+03  0.63406287285E+03  0.00000000000E+00 0. -1.
          2    1    1    2  501    0  0.22819313418E+02 -0.38901599228E+01  0.14326232397E+04  0.14328102461E+04  0.00000000000E+00 0.  1.
          1    1    1    2  502    0 -0.22819313418E+02  0.38901599228E+01 -0.63375806039E+03  0.63418067892E+03  0.00000000000E+00 0. -1.
</event>
<event>
 4    1  0.3593938E+003  0.3526591E+02  0.7546771E-02  0.1378703E+00
          2   -1    0    0  502    0  0.00000000000E+00  0.00000000000E+00  0.90532954155E+01  0.90532954155E+01  0.00000000000E+00 0.  1.
          1   -1    0    0  501    0 -0.00000000000E+00 -0.00000000000E+00 -0.35698003499E+03  0.35698003499E+03  0.00000000000E+00 0. -1.
          2    1    1    2  501    0  0.90337321058E+01 -0.34089236182E+02 -0.30417353639E+02  0.46571447708E+02  0.00000000000E+00 0.  1.
          1    1    1    2  502    0 -0.90337321058E+01  0.34089236182E+02 -0.31750938594E+03  0.31946188270E+03  0.00000000000E+00 0. -1.
</event>
<event>
 4    1  0.3593938E+003  0.2734882E+02  0.7546771E-02  0.1444135E+00
          2   -1    0    0  502    0  0.00000000000E+00  0.00000000000E+00  0.88180751765E+03  0.88180751765E+03  0.00000000000E+00 0. -1.
          1   -1    0    0  501    0 -0.00000000000E+00 -0.00000000000E+00 -0.11743613810E+01  0.11743613810E+01  0.00000000000E+00 0. -1.
          2    1    1    2  501    0 -0.24273042757E+02  0.12600679296E+02  0.67298138700E+03  0.67353686237E+03  0.00000000000E+00 0. -1.
          1    1    1    2  502    0  0.24273042757E+02 -0.12600679296E+02  0.20765176927E+03  0.20944501666E+03  0.00000000000E+00 0. -1.
</event>
<event>
 4    1  0.3593938E+003  0.3778527E+02  0.7546771E-02  0.1361977E+00
          2   -1    0    0  502    0  0.00000000000E+00  0.00000000000E+00  0.24587129811E+03  0.24587129811E+03  0.00000000000E+00 0. -1.
          1   -1    0    0  501    0 -0.00000000000E+00 -0.00000000000E+00 -0.13215685000E+02  0.13215685000E+02  0.00000000000E+00 0.  1.
          2    1    1    2  501    0  0.24802254227E+02 -0.28505692839E+02  0.21332230025E+03  0.21664286308E+03  0.00000000000E+00 0. -1.
          1    1    1    2  502    0 -0.24802254227E+02  0.28505692839E+02  0.19333312858E+02  0.42444120029E+02  0.00000000000E+00 0.  1.
</event>
<event>
 4    1  0.3593938E+003  0.3032481E+02  0.7546771E-02  0.1416794E+00
          2   -1    0    0  502    0  0.00000000000E+00  0.00000000000E+00  0.38895923827E+02  0.38895923827E+02  0.00000000000E+00 0.  1.
          1   -1    0    0  501    0 -0.00000000000E+00 -0.00000000000E+00 -0.24336989126E+03  0.24336989126E+03  0.00000000000E+00 0.  1.
          2    1    1    2  501    0  0.96157110362E+01 -0.28759909968E+02  0.31865564217E+02  0.43988731545E+02  0.00000000000E+00 0.  1.
          1    1    1    2  502    0 -0.96157110362E+01  0.28759909968E+02 -0.23633953165E+03  0.23827708354E+03  0.00000000000E+00 0.  1.
</event>
<event>
 4    1  0.3593938E+003  0.3806265E+02  0.7546771E-02  0.1360228E+00
          2   -1    0    0  502    0  0.00000000000E+00  0.00000000000E+00  0.99112297062E+02  0.99112297062E+02  0.00000000000E+00 0.  1.
          1   -1    0    0  501    0 -0.00000000000E+00 -0.00000000000E+00 -0.25352239048E+03  0.25352239048E+03  0.00000000000E+00 0.  1.
          2    1    1    2  501    0  0.29720560421E+02 -0.23779272691E+02  0.93953847394E+02  0.10137105584E+03  0.00000000000E+00 0.  1.
          1    1    1    2  502    0 -0.29720560421E+02  0.23779272691E+02 -0.24836394081E+03  0.25126363170E+03  0.00000000000E+00 0.  1.
</event>
<event>
 4    1  0.3593938E+003  0.2047547E+02  0.7546771E-02  0.1526887E+00
          2   -1    0    0  502    0  0.00000000000E+00  0.00000000000E+00  0.78657385624E+02  0.78657385624E+02  0.00000000000E+00 0. -1.
          1   -1    0    0  501    0 -0.00000000000E+00 -0.00000000000E+00 -0.41189782998E+02  0.41189782998E+02  0.00000000000E+00 0.  1.
          2    1    1    2  501    0 -0.18406806764E+02 -0.89685292103E+01  0.74646025387E+02  0.77403321360E+02  0.00000000000E+00 0. -1.
          1    1    1    2  502    0  0.18406806764E+02  0.89685292103E+01 -0.37178422761E+02  0.42443847262E+02  0.00000000000E+00 0.  1.
</event>
<event>
 4    1  0.3593938E+003  0.2394439E+02  0.7546771E-02  0.1480968E+00
          2   -1    0    0  502    0  0.00000000000E+00  0.00000000000E+00  0.11891976511E+02  0.11891976511E+02  0.00000000000E+00 0.  1.
          1   -1    0    0  501    0 -0.00000000000E+00 -0.00000000000E+00 -0.64735679778E+02  0.64735679778E+02  0.00000000000E+00 0. -1.
          2    1    1    2  501    0  0.20595849113E+02 -0.12212480352E+02 -0.70647820562E+01  0.24964871771E+02  0.00000000000E+00 0.  1.
          1    1    1    2  502    0 -0.20595849113E+02  0.12212480352E+02 -0.45778921211E+02  0.51662784519E+02  0.00000000000E+00 0. -1.
</event>
<event>
 4    1  0.3593938E+003  0.3724820E+02  0.7546771E-02  0.1365412E+00
          2   -1    0    0  502    0  0.00000000000E+00  0.00000000000E+00  0.10142689114E+04  0.10142689114E+04  0.00000000000E+00 0.  1.
          1   -1    0    0  501    0 -0.00000000000E+00 -0.00000000000E+00 -0.21641139987E+01  0.21641139987E+01  0.00000000000E+00 0.  1.
          2    1    1    2  501    0 -0.10643892195E+02 -0.35695038662E+02  0.81431509924E+03  0.81516655297E+03  0.00000000000E+00 0.  1.
          1    1    1    2  502    0  0.10643892195E+02  0.35695038662E+02  0.19778969813E+03  0.20126647240E+03  0.00000000000E+00 0.  1.
</event>
<event>
 4    1  0.3593938E+003  0.2177209E+02  0.7546771E-02  0.1508521E+00
          2   -1    0    0  502    0  0.00000000000E+00  0.00000000000E+00  0.42566660083E+03  0.42566660083E+03  0.00000000000E+00 0.  1.
          1   -1    0    0  501    0 -0.00000000000E+00 -0.00000000000E+00 -0.24439397398E+02  0.24439397398E+02  0.00000000000E+00 0. -1.
          2    1    1    2  501    0 -0.21461892856E+02 -0.36620998342E+01  0.42047944967E+03  0.42104274298E+03  0.00000000000E+00 0.  1.
          1    1    1    2  502    0  0.21461892856E+02  0.36620998342E+01 -0.19252246242E+02  0.29063255246E+02  0.00000000000E+00 0. -1.
</event>
<event>
 4    1  0.3593938E+003  0.2267898E+02  0.7546771E-02  0.1496569E+00
          2   -1    0    0  502    0  0.00000000000E+00  0.00000000000E+00  0.64208842554E+02  0.64208842554E+02  0.00000000000E+00 0.  1.
          1   -1    0    0  501    0 -0.00000000000E+00 -0.00000000000E+00 -0.13474937941E+03  0.13474937941E+03  0.00000000000E+00 0.  1.
          2    1    1    2  501    0  0.22568257030E+02  0.22382360402E+01  0.61206707131E+02  0.65273248148E+02  0.00000000000E+00 0.  1.
          1    1    1    2  502    0 -0.22568257030E+02 -0.22382360402E+01 -0.13174724398E+03  0.13368497381E+03  0.00000000000E+00 0.  1.
</event>
<event>
 4    1  0.3593938E+003  0.2445596E+02  0.7546771E-02  0.1474982E+00
          2   -1    0    0  502    0  0.00000000000E+00  0.00000000000E+00  0.26987617652E+01  0.26987617652E+01  0.00000000000E+00 0.  1.
          1   -1    0    0  501    0 -0.00000000000E+00 -0.00000000000E+00 -0.49192894110E+03  0.49192894110E+03  0.00000000000E+00 0. -1.
          2    1    1    2  501    0 -0.14344332824E+02 -0.19807430451E+02 -0.61286977569E+02  0.65986269821E+02  0.00000000000E+00 0.  1.
          1    1    1    2  502    0  0.14344332824E+02  0.19807430451E+02 -0.42794320177E+03  0.42864143305E+03  0.00000000000E+00 0. -1.
</event>
<event>
 4    1  0.3593938E+003  0.2319647E+02  0.7546771E-02  0.1490046E+00
          2   -1    0    0  502    0  0.00000000000E+00  0.00000000000E+00  0.11613027919E+04  0.11613027919E+04  0.00000000000E+00 0. -1.
          1   -1    0    0  501    0 -0.00000000000E+00 -0.00000000000E+00 -0.13903616959E+01  0.13903616959E+01  0.00000000000E+00 0.  1.
          2    1    1    2  501    0  0.21021692115E+02 -0.98063616544E+01  0.10546532597E+04  0.10549083252E+04  0.00000000000E+00 0. -1.
          1    1    1    2  502    0 -0.21021692115E+02  0.98063616544E+01  0.10525917044E+03  0.10778482838E+03  0.00000000000E+00 0.  1.
</event>
<event>
 4    1  0.3593938E+003  0.2023852E+02  0.7546771E-02  0.1530420E+00
          2   -1    0    0  502    0  0.00000000000E+00  0.00000000000E+00  0.11303461873E+02  0.11303461873E+02  0.00000000000E+00 0.  1.
          1   -1    0    0  501    0 -0.00000000000E+00 -0.00000000000E+00 -0.36349721463E+02  0.36349721463E+02  0.00000000000E+00 0.  1.
          2    1    1    2  501    0 -0.20231338484E+02 -0.53861243907E+00 -0.13853279722E+02  0.24525711392E+02  0.00000000000E+00 0.  1.
          1    1    1    2  502    0  0.20231338484E+02  0.53861243907E+00 -0.11192979868E+02  0.23127471945E+02  0.00000000000E+00 0.  1.
</event>
<event>
 4    1  0.3593938E+003  0.2473745E+02  0.7546771E-02  0.1471762E+00
          2   -1    0    0  502    0  0.00000000000E+00  0.00000000000E+00  0.20342649713E+03  0.20342649713E+03  0.00000000000E+00 0. -1.
          1   -1    0    0  501    0 -0.00000000000E+00 -0.00000000000E+00 -0.55259988205E+02  0.55259988205E+02  0.00000000000E+00 0. -1.
          2    1    1    2  501    0  0.20769734773E+02 -0.13437250930E+02  0.19985672709E+03  0.20138185856E+03  0.00000000000E+00 0. -1.
          1    1    1    2  502    0 -0.20769734773E+02  0.13437250930E+02 -0.51690218167E+02  0.57304626770E+02  0.00000000000E+00 0. -1.
</event>
<event>
 4    1  0.3593938E+003  0.2414305E+02  0.7546771E-02  0.1478623E+00
          2   -1    0    0  502    0  0.00000000000E+00  0.00000000000E+00  0.94175673110E+01  0.94175673110E+01  0.00000000000E+00 0.  1.
          1   -1    0    0  501    0 -0.00000000000E+00 -0.00000000000E+00 -0.13294248355E+04  0.13294248355E+04  0.00000000000E+00 0.  1.
          2    1    1    2  501    0  0.22454989170E+02 -0.88690704139E+01 -0.63511623767E+01  0.24964458980E+02  0.00000000000E+00 0.  1.
          1    1    1    2  502    0 -0.22454989170E+02  0.88690704139E+01 -0.13136561058E+04  0.13138779439E+04  0.00000000000E+00 0.  1.
</event>
<event>
 4    1  0.3593938E+003  0.2120807E+02  0.7546771E-02  0.1516315E+00
          2   -1    0    0  502    0  0.00000000000E+00  0.00000000000E+00  0.31515374550E+02  0.31515374550E+02  0.00000000000E+00 0.  1.
          1   -1    0    0  501    0 -0.00000000000E+00 -0.00000000000E+00 -0.28634406456E+03  0.28634406456E+03  0.00000000000E+00 0. -1.
          2    1    1    2  501    0  0.21103833038E+02  0.21001607025E+01  0.27504099117E+02  0.34731223879E+02  0.00000000000E+00 0.  1.
          1    1    1    2  502    0 -0.21103833038E+02 -0.21001607025E+01 -0.28233278913E+03  0.28312821523E+03  0.00000000000E+00 0. -1.
</event>
<event>
 4    1  0.3593938E+003  0.2773015E+02  0.7546771E-02  0.1440408E+00
          2   -1    0    0  502    0  0.00000000000E+00  0.00000000000E+00  0.16360377044E+03  0.16360377044E+03  0.00000000000E+00 0.  1.
          1   -1    0    0  501    0 -0.00000000000E+00 -0.00000000000E+00 -0.91869699418E+02  0.91869699418E+02  0.00000000000E+00 0.  1.
          2    1    1    2  501    0  0.18495671482E+02 -0.20660868736E+02  0.16029330417E+03  0.16267422882E+03  0.00000000000E+00 0.  1.
          1    1    1    2  502    0 -0.18495671482E+02  0.20660868736E+02 -0.88559233151E+02  0.92799241036E+02  0.00000000000E+00 0.  1.
</event>
<event>
 4    1  0.3593938E+003  0.2980256E+02  0.7546771E-02  0.1421320E+00
          2   -1    0    0  502    0  0.00000000000E+00  0.00000000000E+00  0.58519822692E+02  0.58519822692E+02  0.00000000000E+00 0.  1.
          1   -1    0    0  501    0 -0.00000000000E+00 -0.00000000000E+00 -0.17353811594E+03  0.17353811594E+03  0.00000000000E+00 0.  1.
          2    1    1    2  501    0  0.34157447505E+00 -0.29800599196E+02  0.53329803711E+02  0.61092228225E+02  0.00000000000E+00 0.  1.
          1    1    1    2  502    0 -0.34157447505E+00  0.29800599196E+02 -0.16834809695E+03  0.17096571040E+03  0.00000000000E+00 0.  1.
</event>
<event>
 4    1  0.3593938E+003  0.2958883E+02  0.7546771E-02  0.1423204E+00
          2   -1    0    0  502    0  0.00000000000E+00  0.00000000000E+00  0.20218855590E+04  0.20218855590E+04  0.00000000000E+00 0.  1.
          1   -1    0    0  501    0 -0.00000000000E+00 -0.00000000000E+00 -0.12964929346E+03  0.12964929346E+03  0.00000000000E+00 0. -1.
          2    1    1    2  501    0 -0.69752572351E+01 -0.28754904471E+02  0.20200875980E+04  0.20203042846E+04  0.00000000000E+00 0.  1.
          1    1    1    2  502    0  0.69752572351E+01  0.28754904471E+02 -0.12785133243E+03  0.13123056789E+03  0.00000000000E+00 0. -1.
</event>
<event>
 4    1  0.3593938E+003  0.2937319E+02  0.7546771E-02  0.1425123E+00
          2   -1    0    0  502    0  0.00000000000E+00  0.00000000000E+00  0.22608449982E+01  0.22608449982E+01  0.00000000000E+00 0.  1.
          1   -1    0    0  501    0 -0.00000000000E+00 -0.00000000000E+00 -0.38704483868E+03  0.38704483868E+03  0.00000000000E+00 0. -1.
          2    1    1    2  501    0  0.14679906163E+02 -0.25441788289E+02 -0.16934769982E+03  0.17187619868E+03  0.00000000000E+00 0.  1.
          1    1    1    2  502    0 -0.14679906163E+02  0.25441788289E+02 -0.21543629386E+03  0.21742948500E+03  0.00000000000E+00 0. -1.
</event>
<event>
 4    1  0.3593938E+003  0.5547980E+02  0.7546771E-02  0.1276016E+00
          2   -1    0    0  502    0  0.00000000000E+00  0.00000000000E+00  0.13504675177E+04  0.13504675177E+04  0.00000000000E+00 0. -1.
          1   -1    0    0  501    0 -0.00000000000E+00 -0.00000000000E+00 -0.43918728989E+01  0.43918728989E+01  0.00000000000E+00 0.  1.
          2    1    1    2  501    0  0.35030958842E+02  0.43021396579E+02  0.11428818633E+04  0.11442276706E+04  0.00000000000E+00 0. -1.
          1    1    1    2  502    0 -0.35030958842E+02 -0.43021396579E+02  0.20319378150E+03  0.21063172003E+03  0.00000000000E+00 0.  1.
</event>
<event>
 4    1  0.3593938E+003  0.4573632E+02  0.7546771E-02  0.1317798E+00
          2   -1    0    0  502    0  0.00000000000E+00  0.00000000000E+00  0.17422831767E+04  0.17422831767E+04  0.00000000000E+00 0. -1.
          1   -1    0    0  501    0 -0.00000000000E+00 -0.00000000000E+00 -0.17660105490E+01  0.17660105490E+01  0.00000000000E+00 0. -1.
          2    1    1    2  501    0  0.28824416582E+02  0.35510048577E+02  0.13636691545E+04  0.13644359177E+04  0.00000000000E+00 0. -1.
          1    1    1    2  502    0 -0.28824416582E+02 -0.35510048577E+02  0.37684801155E+03  0.37961326946E+03  0.00000000000E+00 0. -1.
</event>
<event>
 4    1  0.3593938E+003  0.4269057E+02  0.7546771E-02  0.1333402E+00
          2   -1    0    0  502    0  0.00000000000E+00  0.00000000000E+00  0.23401962423E+03  0.23401962423E+03  0.00000000000E+00 0. -1.
          1   -1    0    0  501    0 -0.00000000000E+00 -0.00000000000E+00 -0.11330663120E+02  0.11330663120E+02  0.00000000000E+00 0. -1.
          2    1    1    2  501    0 -0.39231252259E+02  0.16834236516E+02  0.42746691193E+02  0.60413262458E+02  0.00000000000E+00 0. -1.
          1    1    1    2  502    0  0.39231252259E+02 -0.16834236516E+02  0.17994226992E+03  0.18493702489E+03  0.00000000000E+00 0. -1.
</event>
<event>
 4    1  0.3593938E+003  0.2395597E+02  0.7546771E-02  0.1480831E+00
          2   -1    0    0  502    0  0.00000000000E+00  0.00000000000E+00  0.70360307890E+00  0.70360307890E+00  0.00000000000E+00 0. -1.
          1   -1    0    0  501    0 -0.00000000000E+00 -0.00000000000E+00 -0.95107148483E+03  0.95107148483E+03  0.00000000000E+00 0. -1.
          2    1    1    2  501    0  0.11361129802E+02 -0.21090599246E+02 -0.29560582810E+03  0.29657493869E+03  0.00000000000E+00 0. -1.
          1    1    1    2  502    0 -0.11361129802E+02  0.21090599246E+02 -0.65476205365E+03  0.65520014923E+03  0.00000000000E+00 0. -1.
</event>
<event>
 4    1  0.4035518E+003  0.2789861E+02  0.7546771E-02  0.1438784E+00
          2   -1    0    0  502    0  0.00000000000E+00  0.00000000000E+00  0.17791843265E+04  0.17791843265E+04  0.00000000000E+00 0.  1.
          1   -1    0    0  501    0 -0.00000000000E+00 -0.00000000000E+00 -0.32012351686E+03  0.32012351686E+03  0.00000000000E+00 0. -1.
          2    1    1    2  501    0 -0.24749212848E+01  0.27788612142E+02  0.17784668775E+04  0.17786856851E+04  0.00000000000E+00 0.  1.
          1    1    1    2  502    0  0.24749212848E+01 -0.27788612142E+02 -0.31940606782E+03  0.32062215825E+03  0.00000000000E+00 0. -1.
</event>
<event>
 4    1  0.3593938E+003  0.2392720E+02  0.7546771E-02  0.1481172E+00
          2   -1    0    0  502    0  0.00000000000E+00  0.00000000000E+00  0.54165875911E+00  0.54165875911E+00  0.00000000000E+00 0. -1.
          1   -1    0    0  501    0 -0.00000000000E+00 -0.00000000000E+00 -0.11530548204E+04  0.11530548204E+04  0.00000000000E+00 0. -1.
          2    1    1    2  501    0  0.15315720502E+02 -0.18383130745E+02 -0.40974191484E+03  0.41043994392E+03  0.00000000000E+00 0. -1.
          1    1    1    2  502    0 -0.15315720502E+02  0.18383130745E+02 -0.74277124683E+03  0.74315653526E+03  0.00000000000E+00 0. -1.
</event>
<event>
 4    1  0.3593938E+003  0.2211486E+02  0.7546771E-02  0.1503922E+00
          2   -1    0    0  502    0  0.00000000000E+00  0.00000000000E+00  0.19917408635E+02  0.19917408635E+02  0.00000000000E+00 0. -1.
          1   -1    0    0  501    0 -0.00000000000E+00 -0.00000000000E+00 -0.35972162765E+02  0.35972162765E+02  0.00000000000E+00 0.  1.
          2    1    1    2  501    0  0.43494624764E-01 -0.22114816784E+02  0.77161247000E+01  0.23422331087E+02  0.00000000000E+00 0. -1.
          1    1    1    2  502    0 -0.43494624764E-01  0.22114816784E+02 -0.23770878831E+02  0.32467240313E+02  0.00000000000E+00 0.  1.
</event>
<event>
 4    1  0.3593938E+003  0.2358495E+02  0.7546771E-02  0.1485281E+00
          2   -1    0    0  502    0  0.00000000000E+00  0.00000000000E+00  0.14413960324E+04  0.14413960324E+04  0.00000000000E+00 0. -1.
          1   -1    0    0  501    0 -0.00000000000E+00 -0.00000000000E+00 -0.17467417740E+02  0.17467417740E+02  0.00000000000E+00 0. -1.
          2    1    1    2  501    0  0.21228808015E+02  0.10275576087E+02  0.14332933035E+04  0.14334873364E+04  0.00000000000E+00 0. -1.
          1    1    1    2  502    0 -0.21228808015E+02 -0.10275576087E+02 -0.93646888101E+01  0.25376113772E+02  0.00000000000E+00 0. -1.
</event>
<event>
 4    1  0.3593938E+003  0.2436847E+02  0.7546771E-02  0.1475994E+00
          2   -1    0    0  502    0  0.00000000000E+00  0.00000000000E+00  0.47400503205E+02  0.47400503205E+02  0.00000000000E+00 0. -1.
          1   -1    0    0  501    0 -0.00000000000E+00 -0.00000000000E+00 -0.40689275844E+02  0.40689275844E+02  0.00000000000E+00 0.  1.
          2    1    1    2  501    0  0.11218345641E+02  0.21632638460E+02  0.39997981206E+02  0.46836533029E+02  0.00000000000E+00 0. -1.
          1    1    1    2  502    0 -0.11218345641E+02 -0.21632638460E+02 -0.33286753844E+02  0.41253246020E+02  0.00000000000E+00 0.  1.
</event>
<event>
 4    1  0.3593938E+003  0.5008684E+02  0.7546771E-02  0.1297796E+00
          2   -1    0    0  502    0  0.00000000000E+00  0.00000000000E+00  0.10487368839E+02  0.10487368839E+02  0.00000000000E+00 0. -1.
          1   -1    0    0  501    0 -0.00000000000E+00 -0.00000000000E+00 -0.23924372560E+03  0.23924372560E+03  0.00000000000E+00 0. -1.
          2    1    1    2  501    0  0.10085351557E+02  0.49060954676E+02 -0.11291270538E+03  0.12352315826E+03  0.00000000000E+00 0. -1.
          1    1    1    2  502    0 -0.10085351557E+02 -0.49060954676E+02 -0.11584365137E+03  0.12620793617E+03  0.00000000000E+00 0. -1.
</event>
<event>
 4    1  0.3593938E+003  0.3970987E+02  0.7546771E-02  0.1350194E+00
          2   -1    0    0  502    0  0.00000000000E+00  0.00000000000E+00  0.98339138573E+02  0.98339138573E+02  0.00000000000E+00 0. -1.
          1   -1    0    0  501    0 -0.00000000000E+00 -0.00000000000E+00 -0.41769117952E+02  0.41769117952E+02  0.00000000000E+00 0. -1.
          2    1    1    2  501    0  0.36986411719E+02 -0.14452655459E+02  0.83272035606E+02  0.92255654654E+02  0.00000000000E+00 0. -1.
          1    1    1    2  502    0 -0.36986411719E+02  0.14452655459E+02 -0.26702014984E+02  0.47852601871E+02  0.00000000000E+00 0. -1.
</event>
<event>
 4    1  0.3593938E+003  0.2475062E+02  0.7546771E-02  0.1471613E+00
          2   -1    0    0  502    0  0.00000000000E+00  0.00000000000E+00  0.66172883445E+00  0.66172883445E+00  0.00000000000E+00 0.  1.
          1   -1    0    0  501    0 -0.00000000000E+00 -0.00000000000E+00 -0.92785621344E+03  0.92785621344E+03  0.00000000000E+00 0.  1.
          2    1    1    2  501    0  0.24722010618E+02 -0.11896942732E+01 -0.44145981322E+03  0.44215309551E+03  0.00000000000E+00 0.  1.
          1    1    1    2  502    0 -0.24722010618E+02  0.11896942732E+01 -0.48573467139E+03  0.48636484676E+03  0.00000000000E+00 0.  1.
</event>
<event>
 4    1  0.3593938E+003  0.2551749E+02  0.7546771E-02  0.1463097E+00
          2   -1    0    0  502    0  0.00000000000E+00  0.00000000000E+00  0.11893730189E+02  0.11893730189E+02  0.00000000000E+00 0. -1.
          1   -1    0    0  501    0 -0.00000000000E+00 -0.00000000000E+00 -0.68103921620E+02  0.68103921620E+02  0.00000000000E+00 0. -1.
          2    1    1    2  501    0  0.11976516483E+02  0.22532299644E+02 -0.45819258110E+02  0.52445646989E+02  0.00000000000E+00 0. -1.
          1    1    1    2  502    0 -0.11976516483E+02 -0.22532299644E+02 -0.10390933320E+02  0.27552004820E+02  0.00000000000E+00 0. -1.
</event>
<event>
 4    1  0.3593938E+003  0.5066891E+02  0.7546771E-02  0.1295298E+00
          2   -1    0    0  502    0  0.00000000000E+00  0.00000000000E+00  0.61007093430E+03  0.61007093430E+03  0.00000000000E+00 0.  1.
          1   -1    0    0  501    0 -0.00000000000E+00 -0.00000000000E+00 -0.48841723566E+01  0.48841723566E+01  0.00000000000E+00 0.  1.
          2    1    1    2  501    0 -0.33897385259E+02 -0.37660403126E+02  0.41697659260E+03  0.42004382803E+03  0.00000000000E+00 0.  1.
          1    1    1    2  502    0  0.33897385259E+02  0.37660403126E+02  0.18821016934E+03  0.19491127862E+03  0.00000000000E+00 0.  1.
</event>
<event>
 4    1  0.3593938E+003  0.2718122E+02  0.7546771E-02  0.1445796E+00
          2   -1    0    0  502    0  0.00000000000E+00  0.00000000000E+00  0.91239831398E+01  0.91239831398E+01  0.00000000000E+00 0. -1.
          1   -1    0    0  501    0 -0.00000000000E+00 -0.00000000000E+00 -0.44829552918E+03  0.44829552918E+03  0.00000000000E+00 0. -1.
          2    1    1    2  501    0 -0.26809379881E+02  0.44805912213E+01 -0.12559803245E+02  0.29942732087E+02  0.00000000000E+00 0. -1.
          1    1    1    2  502    0  0.26809379881E+02 -0.44805912213E+01 -0.42661174280E+03  0.42747678023E+03  0.00000000000E+00 0. -1.
</event>
<event>
 4    1  0.3593938E+003  0.2114999E+02  0.7546771E-02  0.1517134E+00
          2   -1    0    0  502    0  0.00000000000E+00  0.00000000000E+00  0.64048775942E+03  0.64048775942E+03  0.00000000000E+00 0.  1.
          1   -1    0    0  501    0 -0.00000000000E+00 -0.00000000000E+00 -0.50460511967E+03  0.50460511967E+03  0.00000000000E+00 0. -1.
          2    1    1    2  501    0  0.25573269128E+01  0.20994807940E+02  0.64009140041E+03  0.64044072541E+03  0.00000000000E+00 0.  1.
          1    1    1    2  502    0 -0.25573269128E+01 -0.20994807940E+02 -0.50420876066E+03  0.50465215368E+03  0.00000000000E+00 0. -1.
</event>
<event>
 4    1  0.3593938E+003  0.2812370E+02  0.7546771E-02  0.1436635E+00
          2   -1    0    0  502    0  0.00000000000E+00  0.00000000000E+00  0.27858431334E+03  0.27858431334E+03  0.00000000000E+00 0.  1.
          1   -1    0    0  501    0 -0.00000000000E+00 -0.00000000000E+00 -0.33956904610E+03  0.33956904610E+03  0.00000000000E+00 0.  1.
          2    1    1    2  501    0  0.25627819451E+02  0.11582639826E+02  0.27728950005E+03  0.27871205484E+03  0.00000000000E+00 0.  1.
          1    1    1    2  502    0 -0.25627819451E+02 -0.11582639826E+02 -0.33827423282E+03  0.33944130459E+03  0.00000000000E+00 0.  1.
</event>
<event>
 4    1  0.3593938E+003  0.2359148E+02  0.7546771E-02  0.1485201E+00
          2   -1    0    0  502    0  0.00000000000E+00  0.00000000000E+00  0.70167782110E+03  0.70167782110E+03  0.00000000000E+00 0. -1.
          1   -1    0    0  501    0 -0.00000000000E+00 -0.00000000000E+00 -0.77002813925E+01  0.77002813925E+01  0.00000000000E+00 0.  1.
          2    1    1    2  501    0  0.23085895927E+02  0.48579286795E+01  0.68291378419E+03  0.68332115049E+03  0.00000000000E+00 0. -1.
          1    1    1    2  502    0 -0.23085895927E+02 -0.48579286795E+01  0.11063755516E+02  0.26056952007E+02  0.00000000000E+00 0.  1.
</event>
<event>
 4    1  0.3593938E+003  0.2336752E+02  0.7546771E-02  0.1487934E+00
          2   -1    0    0  502    0  0.00000000000E+00  0.00000000000E+00  0.59288340072E+01  0.59288340072E+01  0.00000000000E+00 0. -1.
          1   -1    0    0  501    0 -0.00000000000E+00 -0.00000000000E+00 -0.14304217747E+03  0.14304217747E+03  0.00000000000E+00 0. -1.
          2    1    1    2  501    0  0.11477130158E+02 -0.20354770111E+02 -0.24105659903E+02  0.33572667787E+02  0.00000000000E+00 0. -1.
          1    1    1    2  502    0 -0.11477130158E+02  0.20354770111E+02 -0.11300768356E+03  0.11539834369E+03  0.00000000000E+00 0. -1.
</event>
<event>
 4    1  0.3593938E+003  0.2025587E+02  0.7546771E-02  0.1530160E+00
          2   -1    0    0  502    0  0.00000000000E+00  0.00000000000E+00  0.20136320208E+04  0.20136320208E+04  0.00000000000E+00 0. -1.
          1   -1    0    0  501    0 -0.00000000000E+00 -0.00000000000E+00 -0.20549088958E+00  0.20549088958E+00  0.00000000000E+00 0.  1.
          2    1    1    2  501    0  0.10882189342E+02  0.17084441064E+02  0.10990929211E+04  0.10992795593E+04  0.00000000000E+00 0. -1.
          1    1    1    2  502    0 -0.10882189342E+02 -0.17084441064E+02  0.91433360879E+03  0.91455795242E+03  0.00000000000E+00 0.  1.
</event>
<event>
 4    1  0.3593938E+003  0.3811882E+02  0.7546771E-02  0.1359877E+00
          2   -1    0    0  502    0  0.00000000000E+00  0.00000000000E+00  0.49498885331E+02  0.49498885331E+02  0.00000000000E+00 0.  1.
          1   -1    0    0  501    0 -0.00000000000E+00 -0.00000000000E+00 -0.76879453261E+02  0.76879453261E+02  0.00000000000E+00 0. -1.
          2    1    1    2  501    0  0.28706407812E+02  0.25079603195E+02  0.35991324290E+02  0.52425373341E+02  0.00000000000E+00 0.  1.
          1    1    1    2  502    0 -0.28706407812E+02 -0.25079603195E+02 -0.63371892220E+02  0.73952965251E+02  0.00000000000E+00 0. -1.
</event>
<event>
 4    1  0.3593938E+003  0.2067811E+02  0.7546771E-02  0.1523911E+00
          2   -1    0    0  502    0  0.00000000000E+00  0.00000000000E+00  0.20121781081E+03  0.20121781081E+03  0.00000000000E+00 0. -1.
          1   -1    0    0  501    0 -0.00000000000E+00 -0.00000000000E+00 -0.58561411378E+01  0.58561411378E+01  0.00000000000E+00 0.  1.
          2    1    1    2  501    0  0.18271734934E+02 -0.96813231035E+01  0.18032488059E+03  0.18150660284E+03  0.00000000000E+00 0. -1.
          1    1    1    2  502    0 -0.18271734934E+02  0.96813231035E+01  0.15036789083E+02  0.25567349109E+02  0.00000000000E+00 0.  1.
</event>
<event>
 4    1  0.3593938E+003  0.2161700E+02  0.7546771E-02  0.1510635E+00
          2   -1    0    0  502    0  0.00000000000E+00  0.00000000000E+00  0.39958606481E+02  0.39958606481E+02  0.00000000000E+00 0.  1.
          1   -1    0    0  501    0 -0.00000000000E+00 -0.00000000000E+00 -0.16129550705E+03  0.16129550705E+03  0.00000000000E+00 0. -1.
          2    1    1    2  501    0  0.21604237159E+02  0.74273432688E+00  0.36242072746E+02  0.42199319360E+02  0.00000000000E+00 0.  1.
          1    1    1    2  502    0 -0.21604237159E+02 -0.74273432688E+00 -0.15757897331E+03  0.15905479417E+03  0.00000000000E+00 0. -1.
</event>
<event>
 4    1  0.3593938E+003  0.2711463E+02  0.7546771E-02  0.1446460E+00
          2   -1    0    0  502    0  0.00000000000E+00  0.00000000000E+00  0.14646836930E+04  0.14646836930E+04  0.00000000000E+00 0. -1.
          1   -1    0    0  501    0 -0.00000000000E+00 -0.00000000000E+00 -0.54375759769E+01  0.54375759769E+01  0.00000000000E+00 0. -1.
          2    1    1    2  501    0  0.26879992621E+02  0.35593891638E+01  0.14299348813E+04  0.14301919340E+04  0.00000000000E+00 0. -1.
          1    1    1    2  502    0 -0.26879992621E+02 -0.35593891638E+01  0.29311235752E+02  0.39929335029E+02  0.00000000000E+00 0. -1.
</event>
<event>
 4    1  0.3593938E+003  0.2265226E+02  0.7546771E-02  0.1496912E+00
          2   -1    0    0  502    0  0.00000000000E+00  0.00000000000E+00  0.74690044983E+02  0.74690044983E+02  0.00000000000E+00 0. -1.
          1   -1    0    0  501    0 -0.00000000000E+00 -0.00000000000E+00 -0.79916591797E+02  0.79916591797E+02  0.00000000000E+00 0. -1.
          2    1    1    2  501    0 -0.20206802154E+02  0.10237674815E+02  0.71292687929E+02  0.74804894165E+02  0.00000000000E+00 0. -1.
          1    1    1    2  502    0  0.20206802154E+02 -0.10237674815E+02 -0.76519234742E+02  0.79801742615E+02  0.00000000000E+00 0. -1.
</event>
<event>
 4    1  0.3593938E+003  0.2044377E+02  0.7546771E-02  0.1527357E+00
          2   -1    0    0  502    0  0.00000000000E+00  0.00000000000E+00  0.61896078774E+01  0.61896078774E+01  0.00000000000E+00 0.  1.
          1   -1    0    0  501    0 -0.00000000000E+00 -0.00000000000E+00 -0.75508868140E+02  0.75508868140E+02  0.00000000000E+00 0.  1.
          2    1    1    2  501    0  0.47402168685E+01 -0.19886629955E+02 -0.21376020342E+02  0.29578403483E+02  0.00000000000E+00 0.  1.
          1    1    1    2  502    0 -0.47402168685E+01  0.19886629955E+02 -0.47943239921E+02  0.52120072535E+02  0.00000000000E+00 0.  1.
</event>
<event>
 4    1  0.3593938E+003  0.2912782E+02  0.7546771E-02  0.1427330E+00
          2   -1    0    0  502    0  0.00000000000E+00  0.00000000000E+00  0.43553317815E+02  0.43553317815E+02  0.00000000000E+00 0. -1.
          1   -1    0    0  501    0 -0.00000000000E+00 -0.00000000000E+00 -0.13317088132E+04  0.13317088132E+04  0.00000000000E+00 0.  1.
          2    1    1    2  501    0 -0.19526708527E+02 -0.21613360870E+02  0.38505451497E+02  0.48281461338E+02  0.00000000000E+00 0. -1.
          1    1    1    2  502    0  0.19526708527E+02  0.21613360870E+02 -0.13266609469E+04  0.13269806697E+04  0.00000000000E+00 0.  1.
</event>
<event>
 4    1  0.3593938E+003  0.3014714E+02  0.7546771E-02  0.1418322E+00
          2   -1    0    0  502    0  0.00000000000E+00  0.00000000000E+00  0.21259680921E+01  0.21259680921E+01  0.00000000000E+00 0.  1.
          1   -1    0    0  501    0 -0.00000000000E+00 -0.00000000000E+00 -0.94316729755E+03  0.94316729755E+03  0.00000000000E+00 0.  1.
          2    1    1    2  501    0  0.64154949142E+01 -0.29456604507E+02 -0.12103671033E+03  0.12473465986E+03  0.00000000000E+00 0.  1.
          1    1    1    2  502    0 -0.64154949142E+01  0.29456604507E+02 -0.82000461913E+03  0.82055860578E+03  0.00000000000E+00 0.  1.
</event>
<event>
 4    1  0.3593938E+003  0.2849868E+02  0.7546771E-02  0.1433108E+00
          2   -1    0    0  502    0  0.00000000000E+00  0.00000000000E+00  0.61689048073E+03  0.61689048073E+03  0.00000000000E+00 0. -1.
          1   -1    0    0  501    0 -0.00000000000E+00 -0.00000000000E+00 -0.19395638013E+01  0.19395638013E+01  0.00000000000E+00 0.  1.
          2    1    1    2  501    0 -0.97208872959E+01 -0.26789536063E+02  0.48283678673E+03  0.48367710046E+03  0.00000000000E+00 0. -1.
          1    1    1    2  502    0  0.97208872959E+01  0.26789536063E+02  0.13211413020E+03  0.13515294407E+03  0.00000000000E+00 0.  1.
</event>
<event>
 4    1  0.3593938E+003  0.3694819E+02  0.7546771E-02  0.1367361E+00
          2   -1    0    0  502    0  0.00000000000E+00  0.00000000000E+00  0.12277641186E+02  0.12277641186E+02  0.00000000000E+00 0. -1.
          1   -1    0    0  501    0 -0.00000000000E+00 -0.00000000000E+00 -0.11800804705E+03  0.11800804705E+03  0.00000000000E+00 0. -1.
          2    1    1    2  501    0  0.29750514632E+02  0.21910626779E+02 -0.37208698068E+02  0.52437161428E+02  0.00000000000E+00 0. -1.
          1    1    1    2  502    0 -0.29750514632E+02 -0.21910626779E+02 -0.68521707792E+02  0.77848526803E+02  0.00000000000E+00 0. -1.
</event>
<event>
 4    1  0.3593938E+003  0.2864322E+02  0.7546771E-02  0.1431765E+00
          2   -1    0    0  502    0  0.00000000000E+00  0.00000000000E+00  0.13696091695E+02  0.13696091695E+02  0.00000000000E+00 0.  1.
          1   -1    0    0  501    0 -0.00000000000E+00 -0.00000000000E+00 -0.31149633448E+03  0.31149633448E+03  0.00000000000E+00 0.  1.
          2    1    1    2  501    0  0.21342650767E+02 -0.19103017053E+02 -0.27720308080E+01  0.28777042188E+02  0.00000000000E+00 0.  1.
          1    1    1    2  502    0 -0.21342650767E+02  0.19103017053E+02 -0.29502821198E+03  0.29641538399E+03  0.00000000000E+00 0.  1.
</event>
<event>
 4    1  0.3593938E+003  0.5643357E+02  0.7546771E-02  0.1272456E+00
          2   -1    0    0  502    0  0.00000000000E+00  0.00000000000E+00  0.68649495141E+03  0.68649495141E+03  0.00000000000E+00 0. -1.
          1   -1    0    0  501    0 -0.00000000000E+00 -0.00000000000E+00 -0.86455075208E+03  0.86455075208E+03  0.00000000000E+00 0.  1.
          2    1    1    2  501    0  0.56090028763E+02  0.62174000222E+01  0.68441144169E+03  0.68673413262E+03  0.00000000000E+00 0. -1.
          1    1    1    2  502    0 -0.56090028763E+02 -0.62174000222E+01 -0.86246724236E+03  0.86431157087E+03  0.00000000000E+00 0.  1.
</event>
<event>
 4    1  0.3593938E+003  0.3313347E+02  0.7546771E-02  0.1394183E+00
          2   -1    0    0  502    0  0.00000000000E+00  0.00000000000E+00  0.34793633859E+03  0.34793633859E+03  0.00000000000E+00 0. -1.
          1   -1    0    0  501    0 -0.00000000000E+00 -0.00000000000E+00 -0.34851811850E+01  0.34851811850E+01  0.00000000000E+00 0. -1.
          2    1    1    2  501    0  0.17953525924E+02 -0.27847740260E+02  0.11816283037E+03  0.12272033332E+03  0.00000000000E+00 0. -1.
          1    1    1    2  502    0 -0.17953525924E+02  0.27847740260E+02  0.22628832704E+03  0.22870118645E+03  0.00000000000E+00 0. -1.
</event>
<event>
 4    1  0.3593938E+003  0.2816784E+02  0.7546771E-02  0.1436217E+00
          2   -1    0    0  502    0  0.00000000000E+00  0.00000000000E+00  0.24643018599E+03  0.24643018599E+03  0.00000000000E+00 0.  1.
          1   -1    0    0  501    0 -0.00000000000E+00 -0.00000000000E+00 -0.22900672770E+02  0.22900672770E+02  0.00000000000E+00 0. -1.
          2    1    1    2  501    0 -0.23326281497E+02 -0.15789612214E+02  0.23660524508E+03  0.23827603585E+03  0.00000000000E+00 0.  1.
          1    1    1    2  502    0  0.23326281497E+02  0.15789612214E+02 -0.13075731858E+02  0.31054822910E+02  0.00000000000E+00 0. -1.
</event>
<event>
 4    1  0.3593938E+003  0.2481839E+02  0.7546771E-02  0.1470845E+00
          2   -1    0    0  502    0  0.00000000000E+00  0.00000000000E+00  0.28666084979E+03  0.28666084979E+03  0.00000000000E+00 0.  1.
          1   -1    0    0  501    0 -0.00000000000E+00 -0.00000000000E+00 -0.22410117485E+01  0.22410117485E+01  0.00000000000E+00 0.  1.
          2    1    1    2  501    0 -0.11764656651E+02 -0.21852793648E+02  0.11289440708E+03  0.11559021969E+03  0.00000000000E+00 0.  1.
          1    1    1    2  502    0  0.11764656651E+02  0.21852793648E+02  0.17152543096E+03  0.17331164186E+03  0.00000000000E+00 0.  1.
</event>
<event>
 4    1  0.3593938E+003  0.2011671E+02  0.7546771E-02  0.1532259E+00
          2   -1    0    0  502    0  0.00000000000E+00  0.00000000000E+00  0.35122492332E+03  0.35122492332E+03  0.00000000000E+00 0.  1.
          1   -1    0    0  501    0 -0.00000000000E+00 -0.00000000000E+00 -0.14083806755E+01  0.14083806755E+01  0.00000000000E+00 0.  1.
          2    1    1    2  501    0  0.14050922404E+00  0.20116220395E+02  0.25010600877E+03  0.25091372559E+03  0.00000000000E+00 0.  1.
          1    1    1    2  502    0 -0.14050922404E+00 -0.20116220395E+02  0.99710533881E+02  0.10171957841E+03  0.00000000000E+00 0.  1.
</event>
<event>
 4    1  0.3593938E+003  0.2056661E+02  0.7546771E-02  0.1525543E+00
          2   -1    0    0  502    0  0.00000000000E+00  0.00000000000E+00  0.10627566930E+04  0.10627566930E+04  0.00000000000E+00 0.  1.
          1   -1    0    0  501    0 -0.00000000000E+00 -0.00000000000E+00 -0.90928108964E+00  0.90928108964E+00  0.00000000000E+00 0.  1.
          2    1    1    2  501    0 -0.15243474601E+02 -0.13806587647E+02  0.92972152351E+03  0.92994897530E+03  0.00000000000E+00 0.  1.
          1    1    1    2  502    0  0.15243474601E+02  0.13806587647E+02  0.13212588845E+03  0.13371699884E+03  0.00000000000E+00 0.  1.
</event>
<event>
 4    1  0.3593938E+003  0.2660387E+02  0.7546771E-02  0.1451628E+00
          2   -1    0    0  502    0  0.00000000000E+00  0.00000000000E+00  0.60661115315E+01  0.60661115315E+01  0.00000000000E+00 0. -1.
          1   -1    0    0  501    0 -0.00000000000E+00 -0.00000000000E+00 -0.25330858439E+03  0.25330858439E+03  0.00000000000E+00 0. -1.
          2    1    1    2  501    0  0.18837663087E+02  0.18785854063E+02 -0.28374350950E+02  0.38895625144E+02  0.00000000000E+00 0. -1.
          1    1    1    2  502    0 -0.18837663087E+02 -0.18785854063E+02 -0.21886812191E+03  0.22047907078E+03  0.00000000000E+00 0. -1.
</event>
<event>
 4    1  0.3593938E+003  0.5073166E+02  0.7546771E-02  0.1295031E+00
          2   -1    0    0  502    0  0.00000000000E+00  0.00000000000E+00  0.97173914818E+03  0.97173914818E+03  0.00000000000E+00 0. -1.
          1   -1    0    0  501    0 -0.00000000000E+00 -0.00000000000E+00 -0.16972830667E+02  0.16972830667E+02  0.00000000000E+00 0.  1.
          2    1    1    2  501    0 -0.50159789774E+02  0.75958233409E+01  0.93153287941E+03  0.93291328990E+03  0.00000000000E+00 0. -1.
          1    1    1    2  502    0  0.50159789774E+02 -0.75958233409E+01  0.23233438102E+02  0.55798688949E+02  0.00000000000E+00 0.  1.
</event>
<event>
 4    1  0.3593938E+003  0.3069678E+02  0.7546771E-02  0.1413636E+00
          2   -1    0    0  502    0  0.00000000000E+00  0.00000000000E+00  0.11416603119E+04  0.11416603119E+04  0.00000000000E+00 0.  1.
          1   -1    0    0  501    0 -0.00000000000E+00 -0.00000000000E+00 -0.98735310211E+00  0.98735310211E+00  0.00000000000E+00 0. -1.
          2    1    1    2  501    0 -0.11090120172E+02 -0.28623441142E+02  0.80174586900E+03  0.80233330394E+03  0.00000000000E+00 0.  1.
          1    1    1    2  502    0  0.11090120172E+02  0.28623441142E+02  0.33892708983E+03  0.34031436110E+03  0.00000000000E+00 0. -1.
</event>
<event>
 4    1  0.3593938E+003  0.8704287E+02  0.7546771E-02  0.1188378E+00
          2   -1    0    0  502    0  0.00000000000E+00  0.00000000000E+00  0.10130753491E+02  0.10130753491E+02  0.00000000000E+00 0.  1.
          1   -1    0    0  501    0 -0.00000000000E+00 -0.00000000000E+00 -0.17555846584E+04  0.17555846584E+04  0.00000000000E+00 0.  1.
          2    1    1    2  501    0 -0.75708298231E+02  0.42950135145E+02 -0.20384548020E+03  0.22165161928E+03  0.00000000000E+00 0.  1.
          1    1    1    2  502    0  0.75708298231E+02 -0.42950135145E+02 -0.15416084247E+04  0.15440637926E+04  0.00000000000E+00 0.  1.
</event>
<event>
 4    1  0.3593938E+003  0.2367071E+02  0.7546771E-02  0.1484243E+00
          2   -1    0    0  502    0  0.00000000000E+00  0.00000000000E+00  0.14185219277E+04  0.14185219277E+04  0.00000000000E+00 0. -1.
          1   -1    0    0  501    0 -0.00000000000E+00 -0.00000000000E+00 -0.15909485684E+02  0.15909485684E+02  0.00000000000E+00 0. -1.
          2    1    1    2  501    0 -0.21807568207E+02 -0.92050196093E+01  0.14095626883E+04  0.14097614247E+04  0.00000000000E+00 0. -1.
          1    1    1    2  502    0  0.21807568207E+02  0.92050196093E+01 -0.69502462768E+01  0.24669988659E+02  0.00000000000E+00 0. -1.
</event>
<event>
 4    1  0.3593938E+003  0.2471429E+02  0.7546771E-02  0.1472025E+00
          2   -1    0    0  502    0  0.00000000000E+00  0.00000000000E+00  0.21973733804E+04  0.21973733804E+04  0.00000000000E+00 0. -1.
          1   -1    0    0  501    0 -0.00000000000E+00 -0.00000000000E+00 -0.33165453274E+00  0.33165453274E+00  0.00000000000E+00 0. -1.
          2    1    1    2  501    0 -0.12202605024E+02 -0.21491681859E+02  0.15406362257E+04  0.15408344415E+04  0.00000000000E+00 0. -1.
          1    1    1    2  502    0  0.12202605024E+02  0.21491681859E+02  0.65640550016E+03  0.65687059350E+03  0.00000000000E+00 0. -1.
</event>
<event>
 4    1  0.3593938E+003  0.2472976E+02  0.7546771E-02  0.1471849E+00
          2   -1    0    0  502    0  0.00000000000E+00  0.00000000000E+00  0.22540639926E+01  0.22540639926E+01  0.00000000000E+00 0.  1.
          1   -1    0    0  501    0 -0.00000000000E+00 -0.00000000000E+00 -0.42548921839E+03  0.42548921839E+03  0.00000000000E+00 0. -1.
          2    1    1    2  501    0  0.24719736578E+02  0.70408268581E+00 -0.82877144529E+02  0.86488046539E+02  0.00000000000E+00 0.  1.
          1    1    1    2  502    0 -0.24719736578E+02 -0.70408268581E+00 -0.34035800987E+03  0.34125523584E+03  0.00000000000E+00 0. -1.
</event>
<event>
 4    1  0.3593938E+003  0.4613292E+02  0.7546771E-02  0.1315870E+00
          2   -1    0    0  502    0  0.00000000000E+00  0.00000000000E+00  0.34860056990E+02  0.34860056990E+02  0.00000000000E+00 0. -1.
          1   -1    0    0  501    0 -0.00000000000E+00 -0.00000000000E+00 -0.17676857721E+04  0.17676857721E+04  0.00000000000E+00 0.  1.
          2    1    1    2  501    0  0.23400954754E+02  0.39757286070E+02  0.19159522002E+02  0.49953315830E+02  0.00000000000E+00 0. -1.
          1    1    1    2  502    0 -0.23400954754E+02 -0.39757286070E+02 -0.17519852371E+04  0.17525925133E+04  0.00000000000E+00 0.  1.
</event>
<event>
 4    1  0.3593938E+003  0.2751970E+02  0.7546771E-02  0.1442456E+00
          2   -1    0    0  502    0  0.00000000000E+00  0.00000000000E+00  0.24213156253E+02  0.24213156253E+02  0.00000000000E+00 0.  1.
          1   -1    0    0  501    0 -0.00000000000E+00 -0.00000000000E+00 -0.74705349745E+03  0.74705349745E+03  0.00000000000E+00 0.  1.
          2    1    1    2  501    0 -0.27437151768E+02  0.21299554125E+01  0.16053952558E+02  0.31860059635E+02  0.00000000000E+00 0.  1.
          1    1    1    2  502    0  0.27437151768E+02 -0.21299554125E+01 -0.73889429375E+03  0.73940659407E+03  0.00000000000E+00 0.  1.
</event>
<event>
 4    1  0.3593938E+003  0.2508917E+02  0.7546771E-02  0.1467808E+00
          2   -1    0    0  502    0  0.00000000000E+00  0.00000000000E+00  0.98744171054E+03  0.98744171054E+03  0.00000000000E+00 0. -1.
          1   -1    0    0  501    0 -0.00000000000E+00 -0.00000000000E+00 -0.19203214100E+01  0.19203214100E+01  0.00000000000E+00 0. -1.
          2    1    1    2  501    0  0.13192684606E+02  0.21340557577E+02  0.89708154829E+03  0.89743232090E+03  0.00000000000E+00 0. -1.
          1    1    1    2  502    0 -0.13192684606E+02 -0.21340557577E+02  0.88439840844E+02  0.91929711047E+02  0.00000000000E+00 0. -1.
</event>
<event>
 4    1  0.3593938E+003  0.2070407E+02  0.7546771E-02  0.1523532E+00
          2   -1    0    0  502    0  0.00000000000E+00  0.00000000000E+00  0.36184086018E+03  0.36184086018E+03  0.00000000000E+00 0. -1.
          1   -1    0    0  501    0 -0.00000000000E+00 -0.00000000000E+00 -0.21624941742E+01  0.21624941742E+01  0.00000000000E+00 0. -1.
          2    1    1    2  501    0 -0.71372106022E+01  0.19434977926E+02  0.57453482810E+02  0.61070130417E+02  0.00000000000E+00 0. -1.
          1    1    1    2  502    0  0.71372106022E+01 -0.19434977926E+02  0.30222488319E+03  0.30293322393E+03  0.00000000000E+00 0. -1.
</event>
<event>
 4    1  0.3593938E+003  0.3829057E+02  0.7546771E-02  0.1358805E+00
          2   -1    0    0  502    0  0.00000000000E+00  0.00000000000E+00  0.10864935654E+04  0.10864935654E+04  0.00000000000E+00 0.  1.
          1   -1    0    0  501    0 -0.00000000000E+00 -0.00000000000E+00 -0.39070978507E+01  0.39070978507E+01  0.00000000000E+00 0.  1.
          2    1    1    2  501    0  0.27867198298E+02 -0.26259992958E+02  0.98240577140E+03  0.98315170124E+03  0.00000000000E+00 0.  1.
          1    1    1    2  502    0 -0.27867198298E+02  0.26259992958E+02  0.10018069613E+03  0.10724896199E+03  0.00000000000E+00 0.  1.
</event>
<event>
 4    1  0.3593938E+003  0.6007840E+02  0.7546771E-02  0.1259566E+00
          2   -1    0    0  502    0  0.00000000000E+00  0.00000000000E+00  0.83448821841E+02  0.83448821841E+02  0.00000000000E+00 0. -1.
          1   -1    0    0  501    0 -0.00000000000E+00 -0.00000000000E+00 -0.33450663202E+03  0.33450663202E+03  0.00000000000E+00 0.  1.
          2    1    1    2  501    0 -0.36076680000E+02  0.48040476727E+02  0.69470500984E+02  0.91845330588E+02  0.00000000000E+00 0. -1.
          1    1    1    2  502    0  0.36076680000E+02 -0.48040476727E+02 -0.32052831117E+03  0.32611012328E+03  0.00000000000E+00 0.  1.
</event>
<event>
 4    1  0.3593938E+003  0.2779429E+02  0.7546771E-02  0.1439788E+00
          2   -1    0    0  502    0  0.00000000000E+00  0.00000000000E+00  0.84783942353E+02  0.84783942353E+02  0.00000000000E+00 0. -1.
          1   -1    0    0  501    0 -0.00000000000E+00 -0.00000000000E+00 -0.18452815689E+03  0.18452815689E+03  0.00000000000E+00 0.  1.
          2    1    1    2  501    0 -0.22544950157E+02  0.16255704268E+02  0.81417322149E+02  0.86030826131E+02  0.00000000000E+00 0. -1.
          1    1    1    2  502    0  0.22544950157E+02 -0.16255704268E+02 -0.18116153669E+03  0.18328127311E+03  0.00000000000E+00 0.  1.
</event>
<event>
 4    1  0.3593938E+003  0.2147925E+02  0.7546771E-02  0.1512531E+00
          2   -1    0    0  502    0  0.00000000000E+00  0.00000000000E+00  0.18192101214E+02  0.18192101214E+02  0.00000000000E+00 0. -1.
          1   -1    0    0  501    0 -0.00000000000E+00 -0.00000000000E+00 -0.26722166301E+03  0.26722166301E+03  0.00000000000E+00 0.  1.
          2    1    1    2  501    0  0.46183564902E+01 -0.20976870387E+02  0.11251611199E+02  0.24247825933E+02  0.00000000000E+00 0. -1.
          1    1    1    2  502    0 -0.46183564902E+01  0.20976870387E+02 -0.26028117300E+03  0.26116593829E+03  0.00000000000E+00 0.  1.
</event>
<event>
 4    1  0.3593938E+003  0.2138137E+02  0.7546771E-02  0.1513889E+00
          2   -1    0    0  502    0  0.00000000000E+00  0.00000000000E+00  0.31334522117E+03  0.31334522117E+03  0.00000000000E+00 0.  1.
          1   -1    0    0  501    0 -0.00000000000E+00 -0.00000000000E+00 -0.53038289318E+01  0.53038289318E+01  0.00000000000E+00 0.  1.
          2    1    1    2  501    0 -0.10439777805E+02  0.18659426389E+02  0.28967317844E+03  0.29046120818E+03  0.00000000000E+00 0.  1.
          1    1    1    2  502    0  0.10439777805E+02 -0.18659426389E+02  0.18368213803E+02  0.28187841920E+02  0.00000000000E+00 0.  1.
</event>
<event>
 4    1  0.3593938E+003  0.2958538E+02  0.7546771E-02  0.1423234E+00
          2   -1    0    0  502    0  0.00000000000E+00  0.00000000000E+00  0.14379233363E+04  0.14379233363E+04  0.00000000000E+00 0.  1.
          1   -1    0    0  501    0 -0.00000000000E+00 -0.00000000000E+00 -0.84709224627E+00  0.84709224627E+00  0.00000000000E+00 0. -1.
          2    1    1    2  501    0  0.19454936578E+01 -0.29521340680E+02  0.11001508518E+04  0.11005485865E+04  0.00000000000E+00 0.  1.
          1    1    1    2  502    0 -0.19454936578E+01  0.29521340680E+02  0.33692539230E+03  0.33822184211E+03  0.00000000000E+00 0. -1.
</event>
<event>
 4    1  0.3593938E+003  0.5836925E+02  0.7546771E-02  0.1265476E+00
          2   -1    0    0  502    0  0.00000000000E+00  0.00000000000E+00  0.11290471875E+04  0.11290471875E+04  0.00000000000E+00 0.  1.
          1   -1    0    0  501    0 -0.00000000000E+00 -0.00000000000E+00 -0.44408961767E+01  0.44408961767E+01  0.00000000000E+00 0. -1.
          2    1    1    2  501    0 -0.57824753790E+02 -0.79540495849E+01  0.88315548095E+03  0.88508224057E+03  0.00000000000E+00 0.  1.
          1    1    1    2  502    0  0.57824753790E+02  0.79540495849E+01  0.24145081039E+03  0.24840584311E+03  0.00000000000E+00 0. -1.
</event>
<event>
 4    1  0.3593938E+003  0.2194411E+02  0.7546771E-02  0.1506200E+00
          2   -1    0    0  502    0  0.00000000000E+00  0.00000000000E+00  0.19104627325E+02  0.19104627325E+02  0.00000000000E+00 0. -1.
          1   -1    0    0  501    0 -0.00000000000E+00 -0.00000000000E+00 -0.63832976785E+03  0.63832976785E+03  0.00000000000E+00 0. -1.
          2    1    1    2  501    0  0.14568668529E+02  0.16410300885E+02  0.12549261231E+02  0.25279003843E+02  0.00000000000E+00 0. -1.
          1    1    1    2  502    0 -0.14568668529E+02 -0.16410300885E+02 -0.63177440175E+03  0.63215539133E+03  0.00000000000E+00 0. -1.
</event>
<event>
 4    1  0.3593938E+003  0.2786222E+02  0.7546771E-02  0.1439134E+00
          2   -1    0    0  502    0  0.00000000000E+00  0.00000000000E+00  0.49790525713E+03  0.49790525713E+03  0.00000000000E+00 0. -1.
          1   -1    0    0  501    0 -0.00000000000E+00 -0.00000000000E+00 -0.50311475688E+01  0.50311475688E+01  0.00000000000E+00 0.  1.
          2    1    1    2  501    0  0.25019600069E+02  0.12260622245E+02  0.45533779363E+03  0.45618944481E+03  0.00000000000E+00 0. -1.
          1    1    1    2  502    0 -0.25019600069E+02 -0.12260622245E+02  0.37536315934E+02  0.46746959894E+02  0.00000000000E+00 0.  1.
</event>
<event>
 4    1  0.3593938E+003  0.3010169E+02  0.7546771E-02  0.1418715E+00
          2   -1    0    0  502    0  0.00000000000E+00  0.00000000000E+00  0.30579236712E+02  0.30579236712E+02  0.00000000000E+00 0.  1.
          1   -1    0    0  501    0 -0.00000000000E+00 -0.00000000000E+00 -0.22816557791E+03  0.22816557791E+03  0.00000000000E+00 0. -1.
          2    1    1    2  501    0 -0.98213707854E+01 -0.28454390538E+02  0.21886473448E+02  0.37217326409E+02  0.00000000000E+00 0.  1.
          1    1    1    2  502    0  0.98213707854E+01  0.28454390538E+02 -0.21947281464E+03  0.22152748821E+03  0.00000000000E+00 0. -1.
</event>
<event>
 4    1  0.3593938E+003  0.3469275E+02  0.7546771E-02  0.1382736E+00
          2   -1    0    0  502    0  0.00000000000E+00  0.00000000000E+00  0.12585509109E+04  0.12585509109E+04  0.00000000000E+00 0.  1.
          1   -1    0    0  501    0 -0.00000000000E+00 -0.00000000000E+00 -0.46966599716E+02  0.46966599716E+02  0.00000000000E+00 0. -1.
          2    1    1    2  501    0 -0.18840985582E+02  0.29130816413E+02  0.12518710380E+04  0.12523516610E+04  0.00000000000E+00 0.  1.
          1    1    1    2  502    0  0.18840985582E+02 -0.29130816413E+02 -0.40286726804E+02  0.53165849558E+02  0.00000000000E+00 0. -1.
</event>
<event>
 4    1  0.3593938E+003  0.3035043E+02  0.7546771E-02  0.1416575E+00
          2   -1    0    0  502    0  0.00000000000E+00  0.00000000000E+00  0.40117694904E+03  0.40117694904E+03  0.00000000000E+00 0.  1.
          1   -1    0    0  501    0 -0.00000000000E+00 -0.00000000000E+00 -0.91767412169E+01  0.91767412169E+01  0.00000000000E+00 0. -1.
          2    1    1    2  501    0  0.27942653501E+02  0.11847221221E+02  0.37366354861E+03  0.37489411318E+03  0.00000000000E+00 0.  1.
          1    1    1    2  502    0 -0.27942653501E+02 -0.11847221221E+02  0.18336659206E+02  0.35459577073E+02  0.00000000000E+00 0. -1.
</event>
<event>
 4    1  0.3593938E+003  0.3381489E+02  0.7546771E-02  0.1389092E+00
          2   -1    0    0  502    0  0.00000000000E+00  0.00000000000E+00  0.17385309933E+03  0.17385309933E+03  0.00000000000E+00 0. -1.
          1   -1    0    0  501    0 -0.00000000000E+00 -0.00000000000E+00 -0.77402919394E+01  0.77402919394E+01  0.00000000000E+00 0.  1.
          2    1    1    2  501    0  0.25623969993E+02 -0.22064883450E+02  0.11825452910E+03  0.12299422984E+03  0.00000000000E+00 0. -1.
          1    1    1    2  502    0 -0.25623969993E+02  0.22064883450E+02  0.47858278284E+02  0.58599161429E+02  0.00000000000E+00 0.  1.
</event>
<event>
 4    1  0.3593938E+003  0.3264383E+02  0.7546771E-02  0.1397930E+00
          2   -1    0    0  502    0  0.00000000000E+00  0.00000000000E+00  0.45787159301E+03  0.45787159301E+03  0.00000000000E+00 0.  1.
          1   -1    0    0  501    0 -0.00000000000E+00 -0.00000000000E+00 -0.36860372556E+01  0.36860372556E+01  0.00000000000E+00 0.  1.
          2    1    1    2  501    0 -0.20501851977E+02 -0.25402632648E+02  0.36720581363E+03  0.36865394239E+03  0.00000000000E+00 0.  1.
          1    1    1    2  502    0  0.20501851977E+02  0.25402632648E+02  0.86979742130E+02  0.92903687876E+02  0.00000000000E+00 0.  1.
</event>
<event>
 4    1  0.3593938E+003  0.2531127E+02  0.7546771E-02  0.1465351E+00
          2   -1    0    0  502    0  0.00000000000E+00  0.00000000000E+00  0.27468621722E+03  0.27468621722E+03  0.00000000000E+00 0. -1.
          1   -1    0    0  501    0 -0.00000000000E+00 -0.00000000000E+00 -0.15232109869E+03  0.15232109869E+03  0.00000000000E+00 0. -1.
          2    1    1    2  501    0 -0.24347595176E+02  0.69177429994E+01  0.27304533093E+03  0.27421599753E+03  0.00000000000E+00 0. -1.
          1    1    1    2  502    0  0.24347595176E+02 -0.69177429994E+01 -0.15068021241E+03  0.15279131838E+03  0.00000000000E+00 0. -1.
</event>
<event>
 4    1  0.3593938E+003  0.2813248E+02  0.7546771E-02  0.1436552E+00
          2   -1    0    0  502    0  0.00000000000E+00  0.00000000000E+00  0.61646155841E+03  0.61646155841E+03  0.00000000000E+00 0. -1.
          1   -1    0    0  501    0 -0.00000000000E+00 -0.00000000000E+00 -0.13081834856E+01  0.13081834856E+01  0.00000000000E+00 0. -1.
          2    1    1    2  501    0  0.63234848119E+01  0.27412572248E+02  0.26543723947E+03  0.26692389117E+03  0.00000000000E+00 0. -1.
          1    1    1    2  502    0 -0.63234848119E+01 -0.27412572248E+02  0.34971613546E+03  0.35084585073E+03  0.00000000000E+00 0. -1.
</event>
<event>
 4    1  0.3593938E+003  0.2025899E+02  0.7546771E-02  0.1530113E+00
          2   -1    0    0  502    0  0.00000000000E+00  0.00000000000E+00  0.28867372630E+02  0.28867372630E+02  0.00000000000E+00 0. -1.
          1   -1    0    0  501    0 -0.00000000000E+00 -0.00000000000E+00 -0.15349289652E+02  0.15349289652E+02  0.00000000000E+00 0. -1.
          2    1    1    2  501    0 -0.88258567012E+01 -0.18235431321E+02  0.12761961614E+02  0.23943566280E+02  0.00000000000E+00 0. -1.
          1    1    1    2  502    0  0.88258567012E+01  0.18235431321E+02  0.75612136468E+00  0.20273096002E+02  0.00000000000E+00 0. -1.
</event>
<event>
 4    1  0.3593938E+003  0.2209160E+02  0.7546771E-02  0.1504231E+00
          2   -1    0    0  502    0  0.00000000000E+00  0.00000000000E+00  0.39017194505E+02  0.39017194505E+02  0.00000000000E+00 0. -1.
          1   -1    0    0  501    0 -0.00000000000E+00 -0.00000000000E+00 -0.13093412182E+02  0.13093412182E+02  0.00000000000E+00 0. -1.
          2    1    1    2  501    0 -0.19653963545E+02  0.10087615371E+02  0.74538889346E+01  0.23315203777E+02  0.00000000000E+00 0. -1.
          1    1    1    2  502    0  0.19653963545E+02 -0.10087615371E+02  0.18469893389E+02  0.28795402909E+02  0.00000000000E+00 0. -1.
</event>
<event>
 4    1  0.3593938E+003  0.3594508E+02  0.7546771E-02  0.1374038E+00
          2   -1    0    0  502    0  0.00000000000E+00  0.00000000000E+00  0.43711947584E+02  0.43711947584E+02  0.00000000000E+00 0.  1.
          1   -1    0    0  501    0 -0.00000000000E+00 -0.00000000000E+00 -0.49050288327E+02  0.49050288327E+02  0.00000000000E+00 0.  1.
          2    1    1    2  501    0 -0.33469303803E+02 -0.13109324231E+02  0.26568923593E+02  0.44698505341E+02  0.00000000000E+00 0.  1.
          1    1    1    2  502    0  0.33469303803E+02  0.13109324231E+02 -0.31907264336E+02  0.48063730570E+02  0.00000000000E+00 0.  1.
</event>
<event>
 4    1  0.3593938E+003  0.2494292E+02  0.7546771E-02  0.1469443E+00
          2   -1    0    0  502    0  0.00000000000E+00  0.00000000000E+00  0.14477198916E+03  0.14477198916E+03  0.00000000000E+00 0.  1.
          1   -1    0    0  501    0 -0.00000000000E+00 -0.00000000000E+00 -0.56716318489E+02  0.56716318489E+02  0.00000000000E+00 0.  1.
          2    1    1    2  501    0  0.15353408706E+02 -0.19657619397E+02  0.14088008062E+03  0.14307112314E+03  0.00000000000E+00 0.  1.
          1    1    1    2  502    0 -0.15353408706E+02  0.19657619397E+02 -0.52824409954E+02  0.58417184511E+02  0.00000000000E+00 0.  1.
</event>
<event>
 4    1  0.3593938E+003  0.2469449E+02  0.7546771E-02  0.1472250E+00
          2   -1    0    0  502    0  0.00000000000E+00  0.00000000000E+00  0.44411983242E+00  0.44411983242E+00  0.00000000000E+00 0. -1.
          1   -1    0    0  501    0 -0.00000000000E+00 -0.00000000000E+00 -0.19131395233E+04  0.19131395233E+04  0.00000000000E+00 0. -1.
          2    1    1    2  501    0  0.72625957908E+01  0.23602379793E+02 -0.44800112415E+03  0.44868120628E+03  0.00000000000E+00 0. -1.
          1    1    1    2  502    0 -0.72625957908E+01 -0.23602379793E+02 -0.14646942793E+04  0.14649024368E+04  0.00000000000E+00 0. -1.
</event>
<event>
 4    1  0.3593938E+003  0.2702885E+02  0.7546771E-02  0.1447319E+00
          2   -1    0    0  502    0  0.00000000000E+00  0.00000000000E+00  0.25856238050E+02  0.25856238050E+02  0.00000000000E+00 0.  1.
          1   -1    0    0  501    0 -0.00000000000E+00 -0.00000000000E+00 -0.53031279379E+02  0.53031279379E+02  0.00000000000E+00 0.  1.
          2    1    1    2  501    0  0.83472977491E+01 -0.25707608074E+02  0.13373325020E+02  0.30156331254E+02  0.00000000000E+00 0.  1.
          1    1    1    2  502    0 -0.83472977491E+01  0.25707608074E+02 -0.40548366349E+02  0.48731186176E+02  0.00000000000E+00 0.  1.
</event>
<event>
 4    1  0.3593938E+003  0.2538523E+02  0.7546771E-02  0.1464540E+00
          2   -1    0    0  502    0  0.00000000000E+00  0.00000000000E+00  0.10979977457E+04  0.10979977457E+04  0.00000000000E+00 0.  1.
          1   -1    0    0  501    0 -0.00000000000E+00 -0.00000000000E+00 -0.14183775368E+02  0.14183775368E+02  0.00000000000E+00 0.  1.
          2    1    1    2  501    0 -0.17509273866E+02 -0.18380298409E+02  0.10863712563E+04  0.10866678042E+04  0.00000000000E+00 0.  1.
          1    1    1    2  502    0  0.17509273866E+02  0.18380298409E+02 -0.25572859511E+01  0.25513716945E+02  0.00000000000E+00 0.  1.
</event>
<event>
 4    1  0.3593938E+003  0.4800589E+02  0.7546771E-02  0.1307058E+00
          2   -1    0    0  502    0  0.00000000000E+00  0.00000000000E+00  0.76502588560E+01  0.76502588560E+01  0.00000000000E+00 0. -1.
          1   -1    0    0  501    0 -0.00000000000E+00 -0.00000000000E+00 -0.36317255859E+03  0.36317255859E+03  0.00000000000E+00 0. -1.
          2    1    1    2  501    0  0.47808894625E+02  0.43444963472E+01 -0.10119462102E+03  0.11200409090E+03  0.00000000000E+00 0. -1.
          1    1    1    2  502    0 -0.47808894625E+02 -0.43444963472E+01 -0.25432767871E+03  0.25881872655E+03  0.00000000000E+00 0. -1.
</event>
<event>
 4    1  0.3593938E+003  0.4510504E+02  0.7546771E-02  0.1320915E+00
          2   -1    0    0  502    0  0.00000000000E+00  0.00000000000E+00  0.17521501882E+04  0.17521501882E+04  0.00000000000E+00 0. -1.
          1   -1    0    0  501    0 -0.00000000000E+00 -0.00000000000E+00 -0.13290769092E+01  0.13290769092E+01  0.00000000000E+00 0.  1.
          2    1    1    2  501    0  0.12386372000E+02  0.43370982897E+02  0.11870761104E+04  0.11879327238E+04  0.00000000000E+00 0. -1.
          1    1    1    2  502    0 -0.12386372000E+02 -0.43370982897E+02  0.56374500093E+03  0.56554654136E+03  0.00000000000E+00 0.  1.
</event>
<event>
 4    1  0.3593938E+003  0.2004659E+02  0.7546771E-02  0.1533325E+00
          2   -1    0    0  502    0  0.00000000000E+00  0.00000000000E+00  0.44600517024E+02  0.44600517024E+02  0.00000000000E+00 0.  1.
          1   -1    0    0  501    0 -0.00000000000E+00 -0.00000000000E+00 -0.60773898064E+02  0.60773898064E+02  0.00000000000E+00 0. -1.
          2    1    1    2  501    0 -0.30125936360E+01  0.19818929287E+02  0.40538208078E+02  0.45224020086E+02  0.00000000000E+00 0.  1.
          1    1    1    2  502    0  0.30125936360E+01 -0.19818929287E+02 -0.56711589119E+02  0.60150395002E+02  0.00000000000E+00 0. -1.
</event>
<event>
 4    1  0.3593938E+003  0.5342951E+02  0.7546771E-02  0.1283951E+00
          2   -1    0    0  502    0  0.00000000000E+00  0.00000000000E+00  0.29994409047E+02  0.29994409047E+02  0.00000000000E+00 0.  1.
          1   -1    0    0  501    0 -0.00000000000E+00 -0.00000000000E+00 -0.11784907998E+04  0.11784907998E+04  0.00000000000E+00 0.  1.
          2    1    1    2  501    0 -0.42641467292E+02  0.32193447988E+02  0.50815367801E+01  0.53670614327E+02  0.00000000000E+00 0.  1.
          1    1    1    2  502    0  0.42641467292E+02 -0.32193447988E+02 -0.11535779276E+04  0.11548145946E+04  0.00000000000E+00 0.  1.
</event>
<event>
 4    1  0.3593938E+003  0.3115918E+02  0.7546771E-02  0.1409784E+00
          2   -1    0    0  502    0  0.00000000000E+00  0.00000000000E+00  0.89836857828E+03  0.89836857828E+03  0.00000000000E+00 0. -1.
          1   -1    0    0  501    0 -0.00000000000E+00 -0.00000000000E+00 -0.33501950441E+01  0.33501950441E+01  0.00000000000E+00 0.  1.
          2    1    1    2  501    0 -0.19712916527E+02 -0.24130791815E+02  0.81858939419E+03  0.81918220834E+03  0.00000000000E+00 0. -1.
          1    1    1    2  502    0  0.19712916527E+02  0.24130791815E+02  0.76428989044E+02  0.82536564975E+02  0.00000000000E+00 0.  1.
</event>
<event>
 4    1  0.3593938E+003  0.2531584E+02  0.7546771E-02  0.1465301E+00
          2   -1    0    0  502    0  0.00000000000E+00  0.00000000000E+00  0.19344785260E+04  0.19344785260E+04  0.00000000000E+00 0.  1.
          1   -1    0    0  501    0 -0.00000000000E+00 -0.00000000000E+00 -0.14511285434E+01  0.14511285434E+01  0.00000000000E+00 0. -1.
          2    1    1    2  501    0 -0.22272008506E+02 -0.12035330445E+02  0.18168339465E+04  0.18170103139E+04  0.00000000000E+00 0.  1.
          1    1    1    2  502    0  0.22272008506E+02  0.12035330445E+02  0.11619345095E+03  0.11891934067E+03  0.00000000000E+00 0. -1.
</event>
<event>
 4    1  0.3593938E+003  0.4080653E+02  0.7546771E-02  0.1343823E+00
          2   -1    0    0  502    0  0.00000000000E+00  0.00000000000E+00  0.23373081280E+02  0.23373081280E+02  0.00000000000E+00 0.  1.
          1   -1    0    0  501    0 -0.00000000000E+00 -0.00000000000E+00 -0.82669049675E+02  0.82669049675E+02  0.00000000000E+00 0.  1.
          2    1    1    2  501    0 -0.12395561313E+02 -0.38878307527E+02 -0.99363999632E+01  0.41998866421E+02  0.00000000000E+00 0.  1.
          1    1    1    2  502    0  0.12395561313E+02  0.38878307527E+02 -0.49359568432E+02  0.64043264534E+02  0.00000000000E+00 0.  1.
</event>
<event>
 4    1  0.3593938E+003  0.2287149E+02  0.7546771E-02  0.1494118E+00
          2   -1    0    0  502    0  0.00000000000E+00  0.00000000000E+00  0.18284755168E+01  0.18284755168E+01  0.00000000000E+00 0. -1.
          1   -1    0    0  501    0 -0.00000000000E+00 -0.00000000000E+00 -0.68636872017E+03  0.68636872017E+03  0.00000000000E+00 0.  1.
          2    1    1    2  501    0 -0.56230543932E+01  0.22169487354E+02 -0.79493639413E+02  0.82718459955E+02  0.00000000000E+00 0. -1.
          1    1    1    2  502    0  0.56230543932E+01 -0.22169487354E+02 -0.60504660524E+03  0.60547873573E+03  0.00000000000E+00 0.  1.
</event>
<event>
 4    1  0.3593938E+003  0.3868425E+02  0.7546771E-02  0.1356373E+00
          2   -1    0    0  502    0  0.00000000000E+00  0.00000000000E+00  0.10059989288E+02  0.10059989288E+02  0.00000000000E+00 0.  1.
          1   -1    0    0  501    0 -0.00000000000E+00 -0.00000000000E+00 -0.40743153087E+03  0.40743153087E+03  0.00000000000E+00 0.  1.
          2    1    1    2  501    0 -0.30035984227E+02  0.24378455975E+02 -0.36501524445E+03  0.36705939321E+03  0.00000000000E+00 0.  1.
          1    1    1    2  502    0  0.30035984227E+02 -0.24378455975E+02 -0.32356297132E+02  0.50432126946E+02  0.00000000000E+00 0.  1.
</event>
<event>
 4    1  0.3593938E+003  0.2419896E+02  0.7546771E-02  0.1477968E+00
          2   -1    0    0  502    0  0.00000000000E+00  0.00000000000E+00  0.52025124128E+03  0.52025124128E+03  0.00000000000E+00 0.  1.
          1   -1    0    0  501    0 -0.00000000000E+00 -0.00000000000E+00 -0.13184233161E+01  0.13184233161E+01  0.00000000000E+00 0.  1.
          2    1    1    2  501    0  0.41761418654E+01  0.23835890278E+02  0.35920091127E+03  0.36001511702E+03  0.00000000000E+00 0.  1.
          1    1    1    2  502    0 -0.41761418654E+01 -0.23835890278E+02  0.15973190670E+03  0.16155454758E+03  0.00000000000E+00 0.  1.
</event>
<event>
 4    1  0.3593938E+003  0.8159004E+02  0.7546771E-02  0.1200204E+00
          2   -1    0    0  502    0  0.00000000000E+00  0.00000000000E+00  0.77672223233E+03  0.77672223233E+03  0.00000000000E+00 0.  1.
          1   -1    0    0  501    0 -0.00000000000E+00 -0.00000000000E+00 -0.45485384197E+02  0.45485384197E+02  0.00000000000E+00 0.  1.
          2    1    1    2  501    0 -0.80055638076E+02  0.15748925769E+02  0.73597157937E+03  0.74048031674E+03  0.00000000000E+00 0.  1.
          1    1    1    2  502    0  0.80055638076E+02 -0.15748925769E+02 -0.47347312287E+01  0.81727299787E+02  0.00000000000E+00 0.  1.
</event>
<event>
 4    1  0.3593938E+003  0.2701742E+02  0.7546771E-02  0.1447433E+00
          2   -1    0    0  502    0  0.00000000000E+00  0.00000000000E+00  0.22238687096E+01  0.22238687096E+01  0.00000000000E+00 0.  1.
          1   -1    0    0  501    0 -0.00000000000E+00 -0.00000000000E+00 -0.10282097439E+04  0.10282097439E+04  0.00000000000E+00 0.  1.
          2    1    1    2  501    0  0.20133473898E+02  0.18016214706E+02 -0.87892205516E+02  0.91950968206E+02  0.00000000000E+00 0.  1.
          1    1    1    2  502    0 -0.20133473898E+02 -0.18016214706E+02 -0.93809366969E+03  0.93848264442E+03  0.00000000000E+00 0.  1.
</event>
<event>
 4    1  0.3593938E+003  0.4120425E+02  0.7546771E-02  0.1341570E+00
          2   -1    0    0  502    0  0.00000000000E+00  0.00000000000E+00  0.29150882800E+02  0.29150882800E+02  0.00000000000E+00 0.  1.
          1   -1    0    0  501    0 -0.00000000000E+00 -0.00000000000E+00 -0.22788569849E+03  0.22788569849E+03  0.00000000000E+00 0.  1.
          2    1    1    2  501    0  0.40499327360E+02  0.75891420328E+01  0.11518392459E+02  0.42783921726E+02  0.00000000000E+00 0.  1.
          1    1    1    2  502    0 -0.40499327360E+02 -0.75891420328E+01 -0.21025320815E+03  0.21425265957E+03  0.00000000000E+00 0.  1.
</event>
<event>
 4    1  0.3593938E+003  0.2102117E+02  0.7546771E-02  0.1518963E+00
          2   -1    0    0  502    0  0.00000000000E+00  0.00000000000E+00  0.27291498908E+03  0.27291498908E+03  0.00000000000E+00 0.  1.
          1   -1    0    0  501    0 -0.00000000000E+00 -0.00000000000E+00 -0.47436068362E+02  0.47436068362E+02  0.00000000000E+00 0. -1.
          2    1    1    2  501    0  0.30255580098E+00  0.21018997506E+02  0.27015759780E+03  0.27097420070E+03  0.00000000000E+00 0.  1.
          1    1    1    2  502    0 -0.30255580098E+00 -0.21018997506E+02 -0.44678677081E+02  0.49376856743E+02  0.00000000000E+00 0. -1.
</event>
<event>
 4    1  0.3593938E+003  0.3227360E+02  0.7546771E-02  0.1400815E+00
          2   -1    0    0  502    0  0.00000000000E+00  0.00000000000E+00  0.17235741196E+04  0.17235741196E+04  0.00000000000E+00 0. -1.
          1   -1    0    0  501    0 -0.00000000000E+00 -0.00000000000E+00 -0.73040250476E+00  0.73040250476E+00  0.00000000000E+00 0. -1.
          2    1    1    2  501    0  0.79575335239E+01  0.31277191476E+02  0.12196300559E+04  0.12200569897E+04  0.00000000000E+00 0. -1.
          1    1    1    2  502    0 -0.79575335239E+01 -0.31277191476E+02  0.50321366129E+03  0.50424753242E+03  0.00000000000E+00 0. -1.
</event>
<event>
 4    1  0.3593938E+003  0.2489409E+02  0.7546771E-02  0.1469992E+00
          2   -1    0    0  502    0  0.00000000000E+00  0.00000000000E+00  0.14818855673E+01  0.14818855673E+01  0.00000000000E+00 0.  1.
          1   -1    0    0  501    0 -0.00000000000E+00 -0.00000000000E+00 -0.87682513250E+03  0.87682513250E+03  0.00000000000E+00 0. -1.
          2    1    1    2  501    0 -0.19193310851E+02  0.15853472646E+02 -0.12006350936E+03  0.12261713606E+03  0.00000000000E+00 0.  1.
          1    1    1    2  502    0  0.19193310851E+02 -0.15853472646E+02 -0.75527973757E+03  0.75568988200E+03  0.00000000000E+00 0. -1.
</event>
<event>
 4    1  0.3593938E+003  0.2306914E+02  0.7546771E-02  0.1491632E+00
          2   -1    0    0  502    0  0.00000000000E+00  0.00000000000E+00  0.88562480319E+03  0.88562480319E+03  0.00000000000E+00 0. -1.
          1   -1    0    0  501    0 -0.00000000000E+00 -0.00000000000E+00 -0.19280211600E+02  0.19280211600E+02  0.00000000000E+00 0.  1.
          2    1    1    2  501    0  0.60904146288E+01 -0.22250660871E+02  0.87851809756E+03  0.87882093330E+03  0.00000000000E+00 0. -1.
          1    1    1    2  502    0 -0.60904146288E+01  0.22250660871E+02 -0.12173505973E+02  0.26084081491E+02  0.00000000000E+00 0.  1.
</event>
<event>
 4    1  0.3593938E+003  0.2258532E+02  0.7546771E-02  0.1497772E+00
          2   -1    0    0  502    0  0.00000000000E+00  0.00000000000E+00  0.11459077907E+01  0.11459077907E+01  0.00000000000E+00 0.  1.
          1   -1    0    0  501    0 -0.00000000000E+00 -0.00000000000E+00 -0.90623190166E+03  0.90623190166E+03  0.00000000000E+00 0. -1.
          2    1    1    2  501    0  0.17360591383E+02  0.14446679981E+02 -0.12892755869E+03  0.13089084034E+03  0.00000000000E+00 0.  1.
          1    1    1    2  502    0 -0.17360591383E+02 -0.14446679981E+02 -0.77615843518E+03  0.77648696911E+03  0.00000000000E+00 0. -1.
</event>
<event>
 4    1  0.3593938E+003  0.2303727E+02  0.7546771E-02  0.1492031E+00
          2   -1    0    0  502    0  0.00000000000E+00  0.00000000000E+00  0.11857500483E+04  0.11857500483E+04  0.00000000000E+00 0.  1.
          1   -1    0    0  501    0 -0.00000000000E+00 -0.00000000000E+00 -0.44975490136E+00  0.44975490136E+00  0.00000000000E+00 0.  1.
          2    1    1    2  501    0  0.19049871612E+02  0.12954454693E+02  0.55138625032E+03  0.55186729614E+03  0.00000000000E+00 0.  1.
          1    1    1    2  502    0 -0.19049871612E+02 -0.12954454693E+02  0.63391404309E+03  0.63433250707E+03  0.00000000000E+00 0.  1.
</event>
<event>
 4    1  0.3593938E+003  0.2626964E+02  0.7546771E-02  0.1455086E+00
          2   -1    0    0  502    0  0.00000000000E+00  0.00000000000E+00  0.53643673636E+02  0.53643673636E+02  0.00000000000E+00 0. -1.
          1   -1    0    0  501    0 -0.00000000000E+00 -0.00000000000E+00 -0.11943210706E+04  0.11943210706E+04  0.00000000000E+00 0. -1.
          2    1    1    2  501    0 -0.13971819908E+02 -0.22245951162E+02  0.50274019994E+02  0.56723638644E+02  0.00000000000E+00 0. -1.
          1    1    1    2  502    0  0.13971819908E+02  0.22245951162E+02 -0.11909514170E+04  0.11912411056E+04  0.00000000000E+00 0. -1.
</event>
<event>
 4    1  0.3593938E+003  0.4590140E+02  0.7546771E-02  0.1316993E+00
          2   -1    0    0  502    0  0.00000000000E+00  0.00000000000E+00  0.51892939767E+02  0.51892939767E+02  0.00000000000E+00 0. -1.
          1   -1    0    0  501    0 -0.00000000000E+00 -0.00000000000E+00 -0.55472374476E+03  0.55472374476E+03  0.00000000000E+00 0.  1.
          2    1    1    2  501    0  0.24974369387E+02 -0.38512592229E+02  0.40582083476E+02  0.61268624807E+02  0.00000000000E+00 0. -1.
          1    1    1    2  502    0 -0.24974369387E+02  0.38512592229E+02 -0.54341288847E+03  0.54534805972E+03  0.00000000000E+00 0.  1.
</event>
<event>
 4    1  0.3593938E+003  0.2977194E+02  0.7546771E-02  0.1421589E+00
          2   -1    0    0  502    0  0.00000000000E+00  0.00000000000E+00  0.10925496706E+03  0.10925496706E+03  0.00000000000E+00 0. -1.
          1   -1    0    0  501    0 -0.00000000000E+00 -0.00000000000E+00 -0.31308966909E+02  0.31308966909E+02  0.00000000000E+00 0.  1.
          2    1    1    2  501    0  0.23623030424E+02  0.18119624804E+02  0.99467689441E+02  0.10382769193E+03  0.00000000000E+00 0. -1.
          1    1    1    2  502    0 -0.23623030424E+02 -0.18119624804E+02 -0.21521689286E+02  0.36736242039E+02  0.00000000000E+00 0.  1.
</event>
<event>
 4    1  0.3593938E+003  0.4690005E+02  0.7546771E-02  0.1312203E+00
          2   -1    0    0  502    0  0.00000000000E+00  0.00000000000E+00  0.21727508359E+01  0.21727508359E+01  0.00000000000E+00 0. -1.
          1   -1    0    0  501    0 -0.00000000000E+00 -0.00000000000E+00 -0.10178600273E+04  0.10178600273E+04  0.00000000000E+00 0. -1.
          2    1    1    2  501    0  0.46645743446E+02 -0.48772001837E+01 -0.54532416704E+03  0.54733724487E+03  0.00000000000E+00 0. -1.
          1    1    1    2  502    0 -0.46645743446E+02  0.48772001837E+01 -0.47036310946E+03  0.47269553330E+03  0.00000000000E+00 0. -1.
</event>
<event>
 4    1  0.3593938E+003  0.2084205E+02  0.7546771E-02  0.1521532E+00
          2   -1    0    0  502    0  0.00000000000E+00  0.00000000000E+00  0.71990848888E+03  0.71990848888E+03  0.00000000000E+00 0.  1.
          1   -1    0    0  501    0 -0.00000000000E+00 -0.00000000000E+00 -0.42874120136E+01  0.42874120136E+01  0.00000000000E+00 0. -1.
          2    1    1    2  501    0 -0.20063225786E+02 -0.56443036129E+01  0.69346243496E+03  0.69377556883E+03  0.00000000000E+00 0.  1.
          1    1    1    2  502    0  0.20063225786E+02  0.56443036129E+01  0.22158641903E+02  0.30420332070E+02  0.00000000000E+00 0. -1.
</event>
<event>
 4    1  0.3593938E+003  0.3324268E+02  0.7546771E-02  0.1393357E+00
          2   -1    0    0  502    0  0.00000000000E+00  0.00000000000E+00  0.11804488812E+04  0.11804488812E+04  0.00000000000E+00 0. -1.
          1   -1    0    0  501    0 -0.00000000000E+00 -0.00000000000E+00 -0.18659064226E+01  0.18659064226E+01  0.00000000000E+00 0.  1.
          2    1    1    2  501    0 -0.27390698183E+02 -0.18836813712E+02  0.10065863626E+04  0.10071351356E+04  0.00000000000E+00 0. -1.
          1    1    1    2  502    0  0.27390698183E+02  0.18836813712E+02  0.17199661217E+03  0.17517965206E+03  0.00000000000E+00 0.  1.
</event>
<event>
 4    1  0.3593938E+003  0.3986314E+02  0.7546771E-02  0.1349290E+00
          2   -1    0    0  502    0  0.00000000000E+00  0.00000000000E+00  0.52659121643E+02  0.52659121643E+02  0.00000000000E+00 0. -1.
          1   -1    0    0  501    0 -0.00000000000E+00 -0.00000000000E+00 -0.60487096735E+02  0.60487096735E+02  0.00000000000E+00 0. -1.
          2    1    1    2  501    0  0.16610786343E+02  0.36237436218E+02  0.36133534210E+02  0.53802437687E+02  0.00000000000E+00 0. -1.
          1    1    1    2  502    0 -0.16610786343E+02 -0.36237436218E+02 -0.43961509302E+02  0.59343780691E+02  0.00000000000E+00 0. -1.
</event>
<event>
 4    1  0.3593938E+003  0.4195523E+02  0.7546771E-02  0.1337394E+00
          2   -1    0    0  502    0  0.00000000000E+00  0.00000000000E+00  0.19432515791E+01  0.19432515791E+01  0.00000000000E+00 0. -1.
          1   -1    0    0  501    0 -0.00000000000E+00 -0.00000000000E+00 -0.10133939831E+04  0.10133939831E+04  0.00000000000E+00 0.  1.
          2    1    1    2  501    0  0.32863997481E+02  0.26080594111E+02 -0.67112748452E+03  0.67243761063E+03  0.00000000000E+00 0. -1.
          1    1    1    2  502    0 -0.32863997481E+02 -0.26080594111E+02 -0.34032324699E+03  0.34289962403E+03  0.00000000000E+00 0.  1.
</event>
<event>
 4    1  0.3593938E+003  0.2563325E+02  0.7546771E-02  0.1461842E+00
          2   -1    0    0  502    0  0.00000000000E+00  0.00000000000E+00  0.77219944546E+03  0.77219944546E+03  0.00000000000E+00 0. -1.
          1   -1    0    0  501    0 -0.00000000000E+00 -0.00000000000E+00 -0.20846560505E+01  0.20846560505E+01  0.00000000000E+00 0. -1.
          2    1    1    2  501    0  0.13297224492E+02 -0.21914547862E+02  0.68288709102E+03  0.68336801408E+03  0.00000000000E+00 0. -1.
          1    1    1    2  502    0 -0.13297224492E+02  0.21914547862E+02  0.87227698391E+02  0.90916087431E+02  0.00000000000E+00 0. -1.
</event>
<event>
 4    1  0.3593938E+003  0.2855254E+02  0.7546771E-02  0.1432606E+00
          2   -1    0    0  502    0  0.00000000000E+00  0.00000000000E+00  0.10168673119E+03  0.10168673119E+03  0.00000000000E+00 0. -1.
          1   -1    0    0  501    0 -0.00000000000E+00 -0.00000000000E+00 -0.21031269070E+03  0.21031269070E+03  0.00000000000E+00 0.  1.
          2    1    1    2  501    0 -0.19458989937E+02 -0.20894866346E+02  0.98684438883E+02  0.10273201160E+03  0.00000000000E+00 0. -1.
          1    1    1    2  502    0  0.19458989937E+02  0.20894866346E+02 -0.20731039839E+03  0.20926741029E+03  0.00000000000E+00 0.  1.
</event>
<event>
 4    1  0.3593938E+003  0.2172039E+02  0.7546771E-02  0.1509223E+00
          2   -1    0    0  502    0  0.00000000000E+00  0.00000000000E+00  0.11460097592E+04  0.11460097592E+04  0.00000000000E+00 0. -1.
          1   -1    0    0  501    0 -0.00000000000E+00 -0.00000000000E+00 -0.53655489700E+00  0.53655489700E+00  0.00000000000E+00 0. -1.
          2    1    1    2  501    0 -0.18351576247E+02 -0.11618732794E+02  0.84931186370E+03  0.84958955804E+03  0.00000000000E+00 0. -1.
          1    1    1    2  502    0  0.18351576247E+02  0.11618732794E+02  0.29616134065E+03  0.29695675611E+03  0.00000000000E+00 0. -1.
</event>
<event>
 4    1  0.3593938E+003  0.2479531E+02  0.7546771E-02  0.1471106E+00
          2   -1    0    0  502    0  0.00000000000E+00  0.00000000000E+00  0.76437387999E+02  0.76437387999E+02  0.00000000000E+00 0.  1.
          1   -1    0    0  501    0 -0.00000000000E+00 -0.00000000000E+00 -0.44250547957E+03  0.44250547957E+03  0.00000000000E+00 0. -1.
          2    1    1    2  501    0 -0.55750908635E+00  0.24789041853E+02  0.74068408745E+02  0.78108492409E+02  0.00000000000E+00 0.  1.
          1    1    1    2  502    0  0.55750908635E+00 -0.24789041853E+02 -0.44013650032E+03  0.44083437516E+03  0.00000000000E+00 0. -1.
</event>
<event>
 4    1  0.3593938E+003  0.2304083E+02  0.7546771E-02  0.1491986E+00
          2   -1    0    0  502    0  0.00000000000E+00  0.00000000000E+00  0.13513935950E+03  0.13513935950E+03  0.00000000000E+00 0.  1.
          1   -1    0    0  501    0 -0.00000000000E+00 -0.00000000000E+00 -0.14586281438E+02  0.14586281438E+02  0.00000000000E+00 0. -1.
          2    1    1    2  501    0 -0.23040729086E+02 -0.67602811668E-01  0.12426911436E+03  0.12638707430E+03  0.00000000000E+00 0.  1.
          1    1    1    2  502    0  0.23040729086E+02  0.67602811668E-01 -0.37160362962E+01  0.23338566638E+02  0.00000000000E+00 0. -1.
</event>
<event>
 4    1  0.3593938E+003  0.2298567E+02  0.7546771E-02  0.1492678E+00
          2   -1    0    0  502    0  0.00000000000E+00  0.00000000000E+00  0.35268035312E+02  0.35268035312E+02  0.00000000000E+00 0.  1.
          1   -1    0    0  501    0 -0.00000000000E+00 -0.00000000000E+00 -0.98619924279E+02  0.98619924279E+02  0.00000000000E+00 0.  1.
          2    1    1    2  501    0 -0.18737494146E+00  0.22984906467E+02  0.29974201097E+02  0.37772923716E+02  0.00000000000E+00 0.  1.
          1    1    1    2  502    0  0.18737494146E+00 -0.22984906467E+02 -0.93326090063E+02  0.96115035875E+02  0.00000000000E+00 0.  1.
</event>
<event>
 4    1  0.3593938E+003  0.2415525E+02  0.7546771E-02  0.1478480E+00
          2   -1    0    0  502    0  0.00000000000E+00  0.00000000000E+00  0.57352988552E+03  0.57352988552E+03  0.00000000000E+00 0. -1.
          1   -1    0    0  501    0 -0.00000000000E+00 -0.00000000000E+00 -0.23498352197E+02  0.23498352197E+02  0.00000000000E+00 0.  1.
          2    1    1    2  501    0  0.24078088388E+02 -0.19291660223E+01  0.56699642540E+03  0.56751072452E+03  0.00000000000E+00 0. -1.
          1    1    1    2  502    0 -0.24078088388E+02  0.19291660223E+01 -0.16964892084E+02  0.29517513197E+02  0.00000000000E+00 0.  1.
</event>
<event>
 4    1  0.3593938E+003  0.2007634E+02  0.7546771E-02  0.1532872E+00
          2   -1    0    0  502    0  0.00000000000E+00  0.00000000000E+00  0.21658892554E+02  0.21658892554E+02  0.00000000000E+00 0. -1.
          1   -1    0    0  501    0 -0.00000000000E+00 -0.00000000000E+00 -0.12651971336E+03  0.12651971336E+03  0.00000000000E+00 0.  1.
          2    1    1    2  501    0  0.17018992085E+02 -0.10649561499E+02  0.15993495573E+02  0.25668096002E+02  0.00000000000E+00 0. -1.
          1    1    1    2  502    0 -0.17018992085E+02  0.10649561499E+02 -0.12085431638E+03  0.12251050991E+03  0.00000000000E+00 0.  1.
</event>
<event>
 4    1  0.3593938E+003  0.2274303E+02  0.7546771E-02  0.1495750E+00
          2   -1    0    0  502    0  0.00000000000E+00  0.00000000000E+00  0.13693768951E+04  0.13693768951E+04  0.00000000000E+00 0.  1.
          1   -1    0    0  501    0 -0.00000000000E+00 -0.00000000000E+00 -0.17598568840E+01  0.17598568840E+01  0.00000000000E+00 0.  1.
          2    1    1    2  501    0 -0.22364170200E+02 -0.41339337063E+01  0.12913656400E+04  0.12915658952E+04  0.00000000000E+00 0.  1.
          1    1    1    2  502    0  0.22364170200E+02  0.41339337063E+01  0.76251398214E+02  0.79570856765E+02  0.00000000000E+00 0.  1.
</event>
<event>
 4    1  0.3593938E+003  0.3116116E+02  0.7546771E-02  0.1409767E+00
          2   -1    0    0  502    0  0.00000000000E+00  0.00000000000E+00  0.17466209761E+04  0.17466209761E+04  0.00000000000E+00 0. -1.
          1   -1    0    0  501    0 -0.00000000000E+00 -0.00000000000E+00 -0.40175926261E+02  0.40175926261E+02  0.00000000000E+00 0. -1.
          2    1    1    2  501    0 -0.13299065333E+02  0.28180712233E+02  0.17404181725E+04  0.17406971112E+04  0.00000000000E+00 0. -1.
          1    1    1    2  502    0  0.13299065333E+02 -0.28180712233E+02 -0.33973122683E+02  0.46099791166E+02  0.00000000000E+00 0. -1.
</event>
<event>
 4    1  0.3593938E+003  0.3533165E+02  0.7546771E-02  0.1378247E+00
          2   -1    0    0  502    0  0.00000000000E+00  0.00000000000E+00  0.83158604095E+02  0.83158604095E+02  0.00000000000E+00 0.  1.
          1   -1    0    0  501    0 -0.00000000000E+00 -0.00000000000E+00 -0.15415495770E+02  0.15415495770E+02  0.00000000000E+00 0.  1.
          2    1    1    2  501    0 -0.34810370284E+02  0.60467717553E+01  0.41851638511E+02  0.54771205702E+02  0.00000000000E+00 0.  1.
          1    1    1    2  502    0  0.34810370284E+02 -0.60467717553E+01  0.25891469814E+02  0.43802894164E+02  0.00000000000E+00 0.  1.
</event>
<event>
 4    1  0.3593938E+003  0.2545818E+02  0.7546771E-02  0.1463743E+00
          2   -1    0    0  502    0  0.00000000000E+00  0.00000000000E+00  0.51113526694E+03  0.51113526694E+03  0.00000000000E+00 0. -1.
          1   -1    0    0  501    0 -0.00000000000E+00 -0.00000000000E+00 -0.14644781244E+03  0.14644781244E+03  0.00000000000E+00 0. -1.
          2    1    1    2  501    0 -0.18707998565E+02 -0.17266429344E+02  0.50970877391E+03  0.51034415153E+03  0.00000000000E+00 0. -1.
          1    1    1    2  502    0  0.18707998565E+02  0.17266429344E+02 -0.14502131941E+03  0.14723892786E+03  0.00000000000E+00 0. -1.
</event>
<event>
 4    1  0.3593938E+003  0.2989951E+02  0.7546771E-02  0.1420472E+00
          2   -1    0    0  502    0  0.00000000000E+00  0.00000000000E+00  0.31600548086E+02  0.31600548086E+02  0.00000000000E+00 0. -1.
          1   -1    0    0  501    0 -0.00000000000E+00 -0.00000000000E+00 -0.18087529836E+04  0.18087529836E+04  0.00000000000E+00 0.  1.
          2    1    1    2  501    0 -0.28360858806E+02 -0.94679777830E+01  0.24376113759E+02  0.38576882164E+02  0.00000000000E+00 0. -1.
          1    1    1    2  502    0  0.28360858806E+02  0.94679777830E+01 -0.18015285493E+04  0.18017766495E+04  0.00000000000E+00 0.  1.
</event>
<event>
 4    1  0.3593938E+003  0.4845995E+02  0.7546771E-02  0.1304991E+00
          2   -1    0    0  502    0  0.00000000000E+00  0.00000000000E+00  0.12209808333E+04  0.12209808333E+04  0.00000000000E+00 0. -1.
          1   -1    0    0  501    0 -0.00000000000E+00 -0.00000000000E+00 -0.32699680738E+01  0.32699680738E+01  0.00000000000E+00 0. -1.
          2    1    1    2  501    0 -0.69388130728E+01 -0.47960604535E+02  0.10016737753E+04  0.10028453115E+04  0.00000000000E+00 0. -1.
          1    1    1    2  502    0  0.69388130728E+01  0.47960604535E+02  0.21603709000E+03  0.22140548993E+03  0.00000000000E+00 0. -1.
</event>
<event>
 4    1  0.3593938E+003  0.3384550E+02  0.7546771E-02  0.1388866E+00
          2   -1    0    0  502    0  0.00000000000E+00  0.00000000000E+00  0.15416444042E+02  0.15416444042E+02  0.00000000000E+00 0. -1.
          1   -1    0    0  501    0 -0.00000000000E+00 -0.00000000000E+00 -0.25128215002E+03  0.25128215002E+03  0.00000000000E+00 0. -1.
          2    1    1    2  501    0  0.32753614947E+01 -0.33686643031E+02 -0.60229327749E+01  0.34377225467E+02  0.00000000000E+00 0. -1.
          1    1    1    2  502    0 -0.32753614947E+01  0.33686643031E+02 -0.22984277320E+03  0.23232136859E+03  0.00000000000E+00 0. -1.
</event>
<event>
 4    1  0.3593938E+003  0.6754756E+02  0.7546771E-02  0.1236141E+00
          2   -1    0    0  502    0  0.00000000000E+00  0.00000000000E+00  0.12972347794E+04  0.12972347794E+04  0.00000000000E+00 0.  1.
          1   -1    0    0  501    0 -0.00000000000E+00 -0.00000000000E+00 -0.59555008489E+02  0.59555008489E+02  0.00000000000E+00 0. -1.
          2    1    1    2  501    0  0.67467492137E+02 -0.32878990945E+01  0.12768974428E+04  0.12786828192E+04  0.00000000000E+00 0.  1.
          1    1    1    2  502    0 -0.67467492137E+02  0.32878990945E+01 -0.39217671839E+02  0.78106968704E+02  0.00000000000E+00 0. -1.
</event>
<event>
 4    1  0.3593938E+003  0.2055614E+02  0.7546771E-02  0.1525697E+00
          2   -1    0    0  502    0  0.00000000000E+00  0.00000000000E+00  0.97424688285E+03  0.97424688285E+03  0.00000000000E+00 0.  1.
          1   -1    0    0  501    0 -0.00000000000E+00 -0.00000000000E+00 -0.22154663415E+03  0.22154663415E+03  0.00000000000E+00 0. -1.
          2    1    1    2  501    0 -0.14409316219E+02  0.14660365072E+02  0.97366134136E+03  0.97387830983E+03  0.00000000000E+00 0.  1.
          1    1    1    2  502    0  0.14409316219E+02 -0.14660365072E+02 -0.22096109267E+03  0.22191520717E+03  0.00000000000E+00 0. -1.
</event>
<event>
 4    1  0.3593938E+003  0.3276388E+02  0.7546771E-02  0.1397004E+00
          2   -1    0    0  502    0  0.00000000000E+00  0.00000000000E+00  0.38122689072E+03  0.38122689072E+03  0.00000000000E+00 0. -1.
          1   -1    0    0  501    0 -0.00000000000E+00 -0.00000000000E+00 -0.55999045411E+03  0.55999045411E+03  0.00000000000E+00 0. -1.
          2    1    1    2  501    0 -0.16560486104E+02  0.28270516508E+02  0.38004220432E+03  0.38145189588E+03  0.00000000000E+00 0. -1.
          1    1    1    2  502    0  0.16560486104E+02 -0.28270516508E+02 -0.55880576772E+03  0.55976544895E+03  0.00000000000E+00 0. -1.
</event>
<event>
 4    1  0.3593938E+003  0.2769404E+02  0.7546771E-02  0.1440758E+00
          2   -1    0    0  502    0  0.00000000000E+00  0.00000000000E+00  0.40547829590E+03  0.40547829590E+03  0.00000000000E+00 0.  1.
          1   -1    0    0  501    0 -0.00000000000E+00 -0.00000000000E+00 -0.24451570793E+02  0.24451570793E+02  0.00000000000E+00 0.  1.
          2    1    1    2  501    0  0.16349275303E+01 -0.27645734805E+02  0.39699647035E+03  0.39796125077E+03  0.00000000000E+00 0.  1.
          1    1    1    2  502    0 -0.16349275303E+01  0.27645734805E+02 -0.15969745245E+02  0.31968615924E+02  0.00000000000E+00 0.  1.
</event>
<event>
 4    1  0.3593938E+003  0.2160122E+02  0.7546771E-02  0.1510852E+00
          2   -1    0    0  502    0  0.00000000000E+00  0.00000000000E+00  0.64767234252E+02  0.64767234252E+02  0.00000000000E+00 0. -1.
          1   -1    0    0  501    0 -0.00000000000E+00 -0.00000000000E+00 -0.25030337421E+02  0.25030337421E+02  0.00000000000E+00 0. -1.
          2    1    1    2  501    0 -0.18519551108E+02 -0.11119295879E+02  0.57758638533E+02  0.61665815808E+02  0.00000000000E+00 0. -1.
          1    1    1    2  502    0  0.18519551108E+02  0.11119295879E+02 -0.18021741702E+02  0.28131755865E+02  0.00000000000E+00 0. -1.
</event>
<event>
 4    1  0.3593938E+003  0.2156405E+02  0.7546771E-02  0.1511362E+00
          2   -1    0    0  502    0  0.00000000000E+00  0.00000000000E+00  0.12682341162E+03  0.12682341162E+03  0.00000000000E+00 0. -1.
          1   -1    0    0  501    0 -0.00000000000E+00 -0.00000000000E+00 -0.19768571127E+02  0.19768571127E+02  0.00000000000E+00 0.  1.
          2    1    1    2  501    0  0.20581558918E+02  0.64348958148E+01  0.11967780075E+03  0.12160503461E+03  0.00000000000E+00 0. -1.
          1    1    1    2  502    0 -0.20581558918E+02 -0.64348958148E+01 -0.12622960251E+02  0.24986948136E+02  0.00000000000E+00 0.  1.
</event>
<event>
 4    1  0.3593938E+003  0.2334949E+02  0.7546771E-02  0.1488156E+00
          2   -1    0    0  502    0  0.00000000000E+00  0.00000000000E+00  0.15639237486E+03  0.15639237486E+03  0.00000000000E+00 0. -1.
          1   -1    0    0  501    0 -0.00000000000E+00 -0.00000000000E+00 -0.53320580086E+03  0.53320580086E+03  0.00000000000E+00 0. -1.
          2    1    1    2  501    0  0.57652350556E+01  0.22626545305E+02  0.15526338013E+03  0.15700928539E+03  0.00000000000E+00 0. -1.
          1    1    1    2  502    0 -0.57652350556E+01 -0.22626545305E+02 -0.53207680613E+03  0.53258889033E+03  0.00000000000E+00 0. -1.
</event>
<event>
 4    1  0.3593938E+003  0.2293528E+02  0.7546771E-02  0.1493312E+00
          2   -1    0    0  502    0  0.00000000000E+00  0.00000000000E+00  0.31913711894E+03  0.31913711894E+03  0.00000000000E+00 0.  1.
          1   -1    0    0  501    0 -0.00000000000E+00 -0.00000000000E+00 -0.18491112722E+01  0.18491112722E+01  0.00000000000E+00 0.  1.
          2    1    1    2  501    0  0.21276847424E+02 -0.85628809258E+01  0.21153614034E+03  0.21277585820E+03  0.00000000000E+00 0.  1.
          1    1    1    2  502    0 -0.21276847424E+02  0.85628809258E+01  0.10575186733E+03  0.10821037201E+03  0.00000000000E+00 0.  1.
</event>
<event>
 4    1  0.3593938E+003  0.2576544E+02  0.7546771E-02  0.1460420E+00
          2   -1    0    0  502    0  0.00000000000E+00  0.00000000000E+00  0.59447156711E+01  0.59447156711E+01  0.00000000000E+00 0. -1.
          1   -1    0    0  501    0 -0.00000000000E+00 -0.00000000000E+00 -0.12113048147E+03  0.12113048147E+03  0.00000000000E+00 0. -1.
          2    1    1    2  501    0 -0.14698280622E+02 -0.21161724013E+02 -0.39838080882E+02  0.47443974378E+02  0.00000000000E+00 0. -1.
          1    1    1    2  502    0  0.14698280622E+02  0.21161724013E+02 -0.75347684920E+02  0.79631222766E+02  0.00000000000E+00 0. -1.
</event>
<event>
 4    1  0.3593938E+003  0.2584522E+02  0.7546771E-02  0.1459566E+00
          2   -1    0    0  502    0  0.00000000000E+00  0.00000000000E+00  0.55867305527E+02  0.55867305527E+02  0.00000000000E+00 0. -1.
          1   -1    0    0  501    0 -0.00000000000E+00 -0.00000000000E+00 -0.45923668358E+02  0.45923668358E+02  0.00000000000E+00 0.  1.
          2    1    1    2  501    0 -0.11944342901E+02  0.22919595434E+02  0.48743267010E+02  0.55171380815E+02  0.00000000000E+00 0. -1.
          1    1    1    2  502    0  0.11944342901E+02 -0.22919595434E+02 -0.38799629842E+02  0.46619593070E+02  0.00000000000E+00 0.  1.
</event>
<event>
 4    1  0.3593938E+003  0.2664514E+02  0.7546771E-02  0.1451206E+00
          2   -1    0    0  502    0  0.00000000000E+00  0.00000000000E+00  0.14137237914E+04  0.14137237914E+04  0.00000000000E+00 0.  1.
          1   -1    0    0  501    0 -0.00000000000E+00 -0.00000000000E+00 -0.16854070282E+01  0.16854070282E+01  0.00000000000E+00 0. -1.
          2    1    1    2  501    0 -0.15678868886E+02  0.21543830002E+02  0.12989869747E+04  0.12992602218E+04  0.00000000000E+00 0.  1.
          1    1    1    2  502    0  0.15678868886E+02 -0.21543830002E+02  0.11305140973E+03  0.11614897667E+03  0.00000000000E+00 0. -1.
</event>
<event>
 4    1  0.3593938E+003  0.4930807E+02  0.7546771E-02  0.1301201E+00
          2   -1    0    0  502    0  0.00000000000E+00  0.00000000000E+00  0.34528897427E+03  0.34528897427E+03  0.00000000000E+00 0.  1.
          1   -1    0    0  501    0 -0.00000000000E+00 -0.00000000000E+00 -0.16406770036E+04  0.16406770036E+04  0.00000000000E+00 0.  1.
          2    1    1    2  501    0 -0.49303184615E+02  0.69377872168E+00  0.34315588682E+03  0.34668032537E+03  0.00000000000E+00 0.  1.
          1    1    1    2  502    0  0.49303184615E+02 -0.69377872168E+00 -0.16385439161E+04  0.16392856525E+04  0.00000000000E+00 0.  1.
</event>
<event>
 4    1  0.3593938E+003  0.2534726E+02  0.7546771E-02  0.1464956E+00
          2   -1    0    0  502    0  0.00000000000E+00  0.00000000000E+00  0.85410820873E+03  0.85410820873E+03  0.00000000000E+00 0. -1.
          1   -1    0    0  501    0 -0.00000000000E+00 -0.00000000000E+00 -0.38611037363E+01  0.38611037363E+01  0.00000000000E+00 0.  1.
          2    1    1    2  501    0  0.20200870437E+02 -0.15310396177E+02  0.81005887409E+03  0.81045534293E+03  0.00000000000E+00 0. -1.
          1    1    1    2  502    0 -0.20200870437E+02  0.15310396177E+02  0.40188230899E+02  0.47513969529E+02  0.00000000000E+00 0.  1.
</event>
<event>
 4    1  0.3593938E+003  0.4154337E+02  0.7546771E-02  0.1339672E+00
          2   -1    0    0  502    0  0.00000000000E+00  0.00000000000E+00  0.21848921359E+03  0.21848921359E+03  0.00000000000E+00 0. -1.
          1   -1    0    0  501    0 -0.00000000000E+00 -0.00000000000E+00 -0.76037373628E+02  0.76037373628E+02  0.00000000000E+00 0. -1.
          2    1    1    2  501    0  0.24043174237E+02 -0.33878867855E+02  0.21063040787E+03  0.21468819398E+03  0.00000000000E+00 0. -1.
          1    1    1    2  502    0 -0.24043174237E+02  0.33878867855E+02 -0.68178567903E+02  0.79838393244E+02  0.00000000000E+00 0. -1.
</event>
<event>
 4    1  0.3593938E+003  0.2416289E+02  0.7546771E-02  0.1478390E+00
          2   -1    0    0  502    0  0.00000000000E+00  0.00000000000E+00  0.14906401254E+02  0.14906401254E+02  0.00000000000E+00 0. -1.
          1   -1    0    0  501    0 -0.00000000000E+00 -0.00000000000E+00 -0.79639576053E+02  0.79639576053E+02  0.00000000000E+00 0. -1.
          2    1    1    2  501    0 -0.23172653022E+02 -0.68464321951E+01  0.13331632410E+01  0.24199644752E+02  0.00000000000E+00 0. -1.
          1    1    1    2  502    0  0.23172653022E+02  0.68464321951E+01 -0.66066338040E+02  0.70346332555E+02  0.00000000000E+00 0. -1.
</event>
<event>
 4    1  0.3593938E+003  0.2500701E+02  0.7546771E-02  0.1468725E+00
          2   -1    0    0  502    0  0.00000000000E+00  0.00000000000E+00  0.11431826218E+03  0.11431826218E+03  0.00000000000E+00 0.  1.
          1   -1    0    0  501    0 -0.00000000000E+00 -0.00000000000E+00 -0.51140382643E+02  0.51140382643E+02  0.00000000000E+00 0. -1.
          2    1    1    2  501    0 -0.17055795258E+02 -0.18287989653E+02  0.10976856162E+03  0.11258102788E+03  0.00000000000E+00 0.  1.
          1    1    1    2  502    0  0.17055795258E+02  0.18287989653E+02 -0.46590682081E+02  0.52877616949E+02  0.00000000000E+00 0. -1.
</event>
<event>
 4    1  0.3593938E+003  0.2930740E+02  0.7546771E-02  0.1425712E+00
          2   -1    0    0  502    0  0.00000000000E+00  0.00000000000E+00  0.12722718496E+03  0.12722718496E+03  0.00000000000E+00 0. -1.
          1   -1    0    0  501    0 -0.00000000000E+00 -0.00000000000E+00 -0.21900313278E+03  0.21900313278E+03  0.00000000000E+00 0. -1.
          2    1    1    2  501    0  0.22147403193E+02 -0.19194168895E+02  0.12453803081E+03  0.12794000432E+03  0.00000000000E+00 0. -1.
          1    1    1    2  502    0 -0.22147403193E+02  0.19194168895E+02 -0.21631397863E+03  0.21829031343E+03  0.00000000000E+00 0. -1.
</event>
<event>
 4    1  0.3593938E+003  0.2480804E+02  0.7546771E-02  0.1470962E+00
          2   -1    0    0  502    0  0.00000000000E+00  0.00000000000E+00  0.22234978880E+02  0.22234978880E+02  0.00000000000E+00 0. -1.
          1   -1    0    0  501    0 -0.00000000000E+00 -0.00000000000E+00 -0.23248295920E+03  0.23248295920E+03  0.00000000000E+00 0.  1.
          2    1    1    2  501    0 -0.22457303552E+02 -0.10540797769E+02  0.14413268845E+02  0.28691134854E+02  0.00000000000E+00 0. -1.
          1    1    1    2  502    0  0.22457303552E+02  0.10540797769E+02 -0.22466124917E+03  0.22602680323E+03  0.00000000000E+00 0.  1.
</event>
<event>
 4    1  0.3593938E+003  0.8337156E+02  0.7546771E-02  0.1196229E+00
          2   -1    0    0  502    0  0.00000000000E+00  0.00000000000E+00  0.15414292985E+04  0.15414292985E+04  0.00000000000E+00 0. -1.
          1   -1    0    0  501    0 -0.00000000000E+00 -0.00000000000E+00 -0.67059015557E+02  0.67059015557E+02  0.00000000000E+00 0.  1.
          2    1    1    2  501    0  0.73606139134E+02 -0.39152951776E+02  0.15139183690E+04  0.15162122692E+04  0.00000000000E+00 0. -1.
          1    1    1    2  502    0 -0.73606139134E+02  0.39152951776E+02 -0.39548086012E+02  0.92276044877E+02  0.00000000000E+00 0.  1.
</event>
<event>
 4    1  0.3593938E+003  0.3274566E+02  0.7546771E-02  0.1397144E+00
          2   -1    0    0  502    0  0.00000000000E+00  0.00000000000E+00  0.12180909633E+02  0.12180909633E+02  0.00000000000E+00 0. -1.
          1   -1    0    0  501    0 -0.00000000000E+00 -0.00000000000E+00 -0.89379285500E+02  0.89379285500E+02  0.00000000000E+00 0.  1.
          2    1    1    2  501    0  0.31058312289E+02 -0.10375920604E+02 -0.32358689533E+02  0.46036542865E+02  0.00000000000E+00 0. -1.
          1    1    1    2  502    0 -0.31058312289E+02  0.10375920604E+02 -0.44839686334E+02  0.55523652268E+02  0.00000000000E+00 0.  1.
</event>
<event>
 4    1  0.3593938E+003  0.5815863E+02  0.7546771E-02  0.1266221E+00
          2   -1    0    0  502    0  0.00000000000E+00  0.00000000000E+00  0.30541014875E+03  0.30541014875E+03  0.00000000000E+00 0.  1.
          1   -1    0    0  501    0 -0.00000000000E+00 -0.00000000000E+00 -0.39621862059E+03  0.39621862059E+03  0.00000000000E+00 0. -1.
          2    1    1    2  501    0  0.56226223335E+02 -0.14867363474E+02  0.30047245003E+03  0.30604921159E+03  0.00000000000E+00 0.  1.
          1    1    1    2  502    0 -0.56226223335E+02  0.14867363474E+02 -0.39128092187E+03  0.39557955775E+03  0.00000000000E+00 0. -1.
</event>
<event>
 4    1  0.3593938E+003  0.2508139E+02  0.7546771E-02  0.1467895E+00
          2   -1    0    0  502    0  0.00000000000E+00  0.00000000000E+00  0.13729037586E+01  0.13729037586E+01  0.00000000000E+00 0. -1.
          1   -1    0    0  501    0 -0.00000000000E+00 -0.00000000000E+00 -0.85572887540E+03  0.85572887540E+03  0.00000000000E+00 0.  1.
          2    1    1    2  501    0  0.24929214536E+02 -0.27587333789E+01 -0.13508983810E+03  0.13739847417E+03  0.00000000000E+00 0. -1.
          1    1    1    2  502    0 -0.24929214536E+02  0.27587333789E+01 -0.71926613354E+03  0.71970330499E+03  0.00000000000E+00 0.  1.
</event>
<event>
 4    1  0.3593938E+003  0.2055530E+02  0.7546771E-02  0.1525710E+00
          2   -1    0    0  502    0  0.00000000000E+00  0.00000000000E+00  0.16266919371E+03  0.16266919371E+03  0.00000000000E+00 0.  1.
          1   -1    0    0  501    0 -0.00000000000E+00 -0.00000000000E+00 -0.33732202500E+02  0.33732202500E+02  0.00000000000E+00 0.  1.
          2    1    1    2  501    0 -0.20510515824E+02 -0.13562052797E+01  0.15881267895E+03  0.16013740209E+03  0.00000000000E+00 0.  1.
          1    1    1    2  502    0  0.20510515824E+02  0.13562052797E+01 -0.29875687738E+02  0.36263994125E+02  0.00000000000E+00 0.  1.
</event>
<event>
 4    1  0.3593938E+003  0.2599169E+02  0.7546771E-02  0.1458008E+00
          2   -1    0    0  502    0  0.00000000000E+00  0.00000000000E+00  0.56211606803E+01  0.56211606803E+01  0.00000000000E+00 0.  1.
          1   -1    0    0  501    0 -0.00000000000E+00 -0.00000000000E+00 -0.34938092593E+03  0.34938092593E+03  0.00000000000E+00 0.  1.
          2    1    1    2  501    0 -0.22064378827E+02  0.13737941080E+02 -0.28113721751E+02  0.38287715900E+02  0.00000000000E+00 0.  1.
          1    1    1    2  502    0  0.22064378827E+02 -0.13737941080E+02 -0.31564604350E+03  0.31671437071E+03  0.00000000000E+00 0.  1.
</event>
<event>
 4    1  0.3593938E+003  0.2583581E+02  0.7546771E-02  0.1459667E+00
          2   -1    0    0  502    0  0.00000000000E+00  0.00000000000E+00  0.48529485755E+01  0.48529485755E+01  0.00000000000E+00 0.  1.
          1   -1    0    0  501    0 -0.00000000000E+00 -0.00000000000E+00 -0.35224823768E+03  0.35224823768E+03  0.00000000000E+00 0.  1.
          2    1    1    2  501    0  0.17064081882E+02 -0.19398606803E+02 -0.34299093876E+02  0.42940850913E+02  0.00000000000E+00 0.  1.
          1    1    1    2  502    0 -0.17064081882E+02  0.19398606803E+02 -0.31309619522E+03  0.31416033534E+03  0.00000000000E+00 0.  1.
</event>
<event>
 4    1  0.3593938E+003  0.4613720E+02  0.7546771E-02  0.1315849E+00
          2   -1    0    0  502    0  0.00000000000E+00  0.00000000000E+00  0.21037234478E+04  0.21037234478E+04  0.00000000000E+00 0. -1.
          1   -1    0    0  501    0 -0.00000000000E+00 -0.00000000000E+00 -0.47399788710E+01  0.47399788710E+01  0.00000000000E+00 0.  1.
          2    1    1    2  501    0 -0.46041838710E+02 -0.29647962028E+01  0.19844530758E+04  0.19849893327E+04  0.00000000000E+00 0. -1.
          1    1    1    2  502    0  0.46041838710E+02  0.29647962028E+01  0.11453039311E+03  0.12347409394E+03  0.00000000000E+00 0.  1.
</event>
<event>
 4    1  0.3593938E+003  0.2035721E+02  0.7546771E-02  0.1528643E+00
          2   -1    0    0  502    0  0.00000000000E+00  0.00000000000E+00  0.39990493342E+01  0.39990493342E+01  0.00000000000E+00 0. -1.
          1   -1    0    0  501    0 -0.00000000000E+00 -0.00000000000E+00 -0.25015106147E+03  0.25015106147E+03  0.00000000000E+00 0.  1.
          2    1    1    2  501    0 -0.14046246340E+02  0.14734952129E+02 -0.25821160630E+02  0.32880817915E+02  0.00000000000E+00 0. -1.
          1    1    1    2  502    0  0.14046246340E+02 -0.14734952129E+02 -0.22033085151E+03  0.22126929289E+03  0.00000000000E+00 0.  1.
</event>
<event>
 4    1  0.3593938E+003  0.3735175E+02  0.7546771E-02  0.1364744E+00
          2   -1    0    0  502    0  0.00000000000E+00  0.00000000000E+00  0.31548093366E+03  0.31548093366E+03  0.00000000000E+00 0. -1.
          1   -1    0    0  501    0 -0.00000000000E+00 -0.00000000000E+00 -0.83197885771E+01  0.83197885771E+01  0.00000000000E+00 0.  1.
          2    1    1    2  501    0  0.13486174720E+02  0.34832118754E+02  0.26439179139E+03  0.26701717690E+03  0.00000000000E+00 0. -1.
          1    1    1    2  502    0 -0.13486174720E+02 -0.34832118754E+02  0.42769353686E+02  0.56783545330E+02  0.00000000000E+00 0.  1.
</event>
<event>
 4    1  0.3593938E+003  0.2525636E+02  0.7546771E-02  0.1465956E+00
          2   -1    0    0  502    0  0.00000000000E+00  0.00000000000E+00  0.17711420614E+04  0.17711420614E+04  0.00000000000E+00 0.  1.
          1   -1    0    0  501    0 -0.00000000000E+00 -0.00000000000E+00 -0.50580765177E+00  0.50580765177E+00  0.00000000000E+00 0.  1.
          2    1    1    2  501    0  0.23521649299E+02 -0.91986924150E+01  0.13606701829E+04  0.13609045633E+04  0.00000000000E+00 0.  1.
          1    1    1    2  502    0 -0.23521649299E+02  0.91986924150E+01  0.40996607092E+03  0.41074330577E+03  0.00000000000E+00 0.  1.
</event>
<event>
 4    1  0.3593938E+003  0.2984921E+02  0.7546771E-02  0.1420911E+00
          2   -1    0    0  502    0  0.00000000000E+00  0.00000000000E+00  0.14045947822E+03  0.14045947822E+03  0.00000000000E+00 0.  1.
          1   -1    0    0  501    0 -0.00000000000E+00 -0.00000000000E+00 -0.16136896761E+03  0.16136896761E+03  0.00000000000E+00 0. -1.
          2    1    1    2  501    0 -0.27745919476E+02  0.11006334185E+02  0.13746357963E+03  0.14066702231E+03  0.00000000000E+00 0.  1.
          1    1    1    2  502    0  0.27745919476E+02 -0.11006334185E+02 -0.15837306903E+03  0.16116142353E+03  0.00000000000E+00 0. -1.
</event>
<event>
 4    1  0.3593938E+003  0.2447787E+02  0.7546771E-02  0.1474730E+00
          2   -1    0    0  502    0  0.00000000000E+00  0.00000000000E+00  0.16120389695E+03  0.16120389695E+03  0.00000000000E+00 0. -1.
          1   -1    0    0  501    0 -0.00000000000E+00 -0.00000000000E+00 -0.12987988806E+03  0.12987988806E+03  0.00000000000E+00 0. -1.
          2    1    1    2  501    0  0.69458002105E+01 -0.23471722413E+02  0.15910626814E+03  0.16097816763E+03  0.00000000000E+00 0. -1.
          1    1    1    2  502    0 -0.69458002105E+01  0.23471722413E+02 -0.12778225925E+03  0.13010561738E+03  0.00000000000E+00 0. -1.
</event>
<event>
 4    1  0.3593938E+003  0.2525306E+02  0.7546771E-02  0.1465992E+00
          2   -1    0    0  502    0  0.00000000000E+00  0.00000000000E+00  0.52581697756E+01  0.52581697756E+01  0.00000000000E+00 0. -1.
          1   -1    0    0  501    0 -0.00000000000E+00 -0.00000000000E+00 -0.49518327870E+03  0.49518327870E+03  0.00000000000E+00 0.  1.
          2    1    1    2  501    0 -0.11136202294E+02  0.22664996827E+02 -0.27532668835E+02  0.37359937579E+02  0.00000000000E+00 0. -1.
          1    1    1    2  502    0  0.11136202294E+02 -0.22664996827E+02 -0.46239244009E+03  0.46308151090E+03  0.00000000000E+00 0.  1.
</event>
<event>
 4    1  0.3593938E+003  0.2128970E+02  0.7546771E-02  0.1515169E+00
          2   -1    0    0  502    0  0.00000000000E+00  0.00000000000E+00  0.13918072607E+02  0.13918072607E+02  0.00000000000E+00 0.  1.
          1   -1    0    0  501    0 -0.00000000000E+00 -0.00000000000E+00 -0.38914785768E+03  0.38914785768E+03  0.00000000000E+00 0. -1.
          2    1    1    2  501    0  0.16485642090E+02 -0.13471259804E+02  0.53012639079E+01  0.21939795689E+02  0.00000000000E+00 0.  1.
          1    1    1    2  502    0 -0.16485642090E+02  0.13471259804E+02 -0.38053104899E+03  0.38112613460E+03  0.00000000000E+00 0. -1.
</event>
<event>
 4    1  0.3593938E+003  0.2738547E+02  0.7546771E-02  0.1443774E+00
          2   -1    0    0  502    0  0.00000000000E+00  0.00000000000E+00  0.15608909737E+03  0.15608909737E+03  0.00000000000E+00 0.  1.
          1   -1    0    0  501    0 -0.00000000000E+00 -0.00000000000E+00 -0.12463103357E+03  0.12463103357E+03  0.00000000000E+00 0.  1.
          2    1    1    2  501    0 -0.19935943647E+02  0.18775572154E+02  0.15335695885E+03  0.15578292842E+03  0.00000000000E+00 0.  1.
          1    1    1    2  502    0  0.19935943647E+02 -0.18775572154E+02 -0.12189889506E+03  0.12493720252E+03  0.00000000000E+00 0.  1.
</event>
<event>
 4    1  0.3593938E+003  0.2170355E+02  0.7546771E-02  0.1509453E+00
          2   -1    0    0  502    0  0.00000000000E+00  0.00000000000E+00  0.44921252078E+01  0.44921252078E+01  0.00000000000E+00 0. -1.
          1   -1    0    0  501    0 -0.00000000000E+00 -0.00000000000E+00 -0.27926204963E+03  0.27926204963E+03  0.00000000000E+00 0. -1.
          2    1    1    2  501    0 -0.21239195954E+02  0.44655059622E+01 -0.25265214224E+02  0.33307285060E+02  0.00000000000E+00 0. -1.
          1    1    1    2  502    0  0.21239195954E+02 -0.44655059622E+01 -0.24950471020E+03  0.25044688978E+03  0.00000000000E+00 0. -1.
</event>
<event>
 4    1  0.3593938E+003  0.2790806E+02  0.7546771E-02  0.1438694E+00
          2   -1    0    0  502    0  0.00000000000E+00  0.00000000000E+00  0.29492000240E+03  0.29492000240E+03  0.00000000000E+00 0.  1.
          1   -1    0    0  501    0 -0.00000000000E+00 -0.00000000000E+00 -0.98272859755E+01  0.98272859755E+01  0.00000000000E+00 0.  1.
          2    1    1    2  501    0  0.63912318363E+01  0.27166379994E+02  0.27284735297E+03  0.27427092093E+03  0.00000000000E+00 0.  1.
          1    1    1    2  502    0 -0.63912318363E+01 -0.27166379994E+02  0.12245363453E+02  0.30476367442E+02  0.00000000000E+00 0.  1.
</event>
<event>
 4    1  0.3593938E+003  0.3636038E+02  0.7546771E-02  0.1371243E+00
          2   -1    0    0  502    0  0.00000000000E+00  0.00000000000E+00  0.52103736388E+03  0.52103736388E+03  0.00000000000E+00 0.  1.
          1   -1    0    0  501    0 -0.00000000000E+00 -0.00000000000E+00 -0.29521455218E+02  0.29521455218E+02  0.00000000000E+00 0.  1.
          2    1    1    2  501    0 -0.34956753327E+02 -0.10005141663E+02  0.50894135733E+03  0.51023855466E+03  0.00000000000E+00 0.  1.
          1    1    1    2  502    0  0.34956753327E+02  0.10005141663E+02 -0.17425448669E+02  0.40320264436E+02  0.00000000000E+00 0.  1.
</event>
<event>
 4    1  0.3593938E+003  0.2708483E+02  0.7546771E-02  0.1446758E+00
          2   -1    0    0  502    0  0.00000000000E+00  0.00000000000E+00  0.56884968133E+01  0.56884968133E+01  0.00000000000E+00 0.  1.
          1   -1    0    0  501    0 -0.00000000000E+00 -0.00000000000E+00 -0.11443294963E+04  0.11443294963E+04  0.00000000000E+00 0.  1.
          2    1    1    2  501    0 -0.23028663175E+02  0.14257237939E+02 -0.27679957586E+02  0.38726840992E+02  0.00000000000E+00 0.  1.
          1    1    1    2  502    0  0.23028663175E+02 -0.14257237939E+02 -0.11109610419E+04  0.11112911522E+04  0.00000000000E+00 0.  1.
</event>
<event>
 4    1  0.3593938E+003  0.2580497E+02  0.7546771E-02  0.1459996E+00
          2   -1    0    0  502    0  0.00000000000E+00  0.00000000000E+00  0.54661383756E+01  0.54661383756E+01  0.00000000000E+00 0.  1.
          1   -1    0    0  501    0 -0.00000000000E+00 -0.00000000000E+00 -0.42837547331E+03  0.42837547331E+03  0.00000000000E+00 0.  1.
          2    1    1    2  501    0 -0.10332140699E+02  0.23646212777E+02 -0.27952181066E+02  0.38042357136E+02  0.00000000000E+00 0.  1.
          1    1    1    2  502    0  0.10332140699E+02 -0.23646212777E+02 -0.39495715387E+03  0.39579925455E+03  0.00000000000E+00 0.  1.
</event>
<event>
 4    1  0.3593938E+003  0.6271363E+02  0.7546771E-02  0.1250881E+00
          2   -1    0    0  502    0  0.00000000000E+00  0.00000000000E+00  0.41735436494E+03  0.41735436494E+03  0.00000000000E+00 0. -1.
          1   -1    0    0  501    0 -0.00000000000E+00 -0.00000000000E+00 -0.10868827374E+03  0.10868827374E+03  0.00000000000E+00 0. -1.
          2    1    1    2  501    0 -0.54987190494E+02 -0.30156399240E+02  0.40569345025E+03  0.41051208887E+03  0.00000000000E+00 0. -1.
          1    1    1    2  502    0  0.54987190494E+02  0.30156399240E+02 -0.97027359052E+02  0.11553054980E+03  0.00000000000E+00 0. -1.
</event>
<event>
 4    1  0.3593938E+003  0.2774747E+02  0.7546771E-02  0.1440241E+00
          2   -1    0    0  502    0  0.00000000000E+00  0.00000000000E+00  0.34925435272E+02  0.34925435272E+02  0.00000000000E+00 0.  1.
          1   -1    0    0  501    0 -0.00000000000E+00 -0.00000000000E+00 -0.71366425263E+02  0.71366425263E+02  0.00000000000E+00 0.  1.
          2    1    1    2  501    0  0.27692450170E+02  0.17464608480E+01  0.25961164354E+02  0.37998736512E+02  0.00000000000E+00 0.  1.
          1    1    1    2  502    0 -0.27692450170E+02 -0.17464608480E+01 -0.62402154345E+02  0.68293124023E+02  0.00000000000E+00 0.  1.
</event>
<event>
 4    1  0.3593938E+003  0.2819731E+02  0.7546771E-02  0.1435938E+00
          2   -1    0    0  502    0  0.00000000000E+00  0.00000000000E+00  0.59994162790E+01  0.59994162790E+01  0.00000000000E+00 0. -1.
          1   -1    0    0  501    0 -0.00000000000E+00 -0.00000000000E+00 -0.40847136709E+03  0.40847136709E+03  0.00000000000E+00 0.  1.
          2    1    1    2  501    0  0.24688017042E+02 -0.13623142276E+02 -0.30905084570E+02  0.41835540432E+02  0.00000000000E+00 0. -1.
          1    1    1    2  502    0 -0.24688017042E+02  0.13623142276E+02 -0.37156686624E+03  0.37263524294E+03  0.00000000000E+00 0.  1.
</event>
<event>
 4    1  0.3593938E+003  0.2629426E+02  0.7546771E-02  0.1454829E+00
          2   -1    0    0  502    0  0.00000000000E+00  0.00000000000E+00  0.25603795982E+01  0.25603795982E+01  0.00000000000E+00 0.  1.
          1   -1    0    0  501    0 -0.00000000000E+00 -0.00000000000E+00 -0.42366837709E+03  0.42366837709E+03  0.00000000000E+00 0. -1.
          2    1    1    2  501    0  0.10032469285E+02  0.24305091996E+02 -0.82219086981E+02  0.86321296334E+02  0.00000000000E+00 0.  1.
          1    1    1    2  502    0 -0.10032469285E+02 -0.24305091996E+02 -0.33888891052E+03  0.33990746036E+03  0.00000000000E+00 0. -1.
</event>
<event>
 4    1  0.3593938E+003  0.5993231E+02  0.7546771E-02  0.1260063E+00
          2   -1    0    0  502    0  0.00000000000E+00  0.00000000000E+00  0.59173294018E+03  0.59173294018E+03  0.00000000000E+00 0.  1.
          1   -1    0    0  501    0 -0.00000000000E+00 -0.00000000000E+00 -0.31535025857E+03  0.31535025857E+03  0.00000000000E+00 0.  1.
          2    1    1    2  501    0  0.53773149785E+02 -0.26463762127E+02  0.58734666924E+03  0.59039647035E+03  0.00000000000E+00 0.  1.
          1    1    1    2  502    0 -0.53773149785E+02  0.26463762127E+02 -0.31096398762E+03  0.31668672839E+03  0.00000000000E+00 0.  1.
</event>
<event>
 4    1  0.3593938E+003  0.2055004E+02  0.7546771E-02  0.1525787E+00
          2   -1    0    0  502    0  0.00000000000E+00  0.00000000000E+00  0.27805277273E+03  0.27805277273E+03  0.00000000000E+00 0.  1.
          1   -1    0    0  501    0 -0.00000000000E+00 -0.00000000000E+00 -0.25314258227E+01  0.25314258227E+01  0.00000000000E+00 0. -1.
          2    1    1    2  501    0  0.26277288081E+01  0.20381342428E+02  0.22649200880E+03  0.22742236945E+03  0.00000000000E+00 0.  1.
          1    1    1    2  502    0 -0.26277288081E+01 -0.20381342428E+02  0.49029338110E+02  0.53161829101E+02  0.00000000000E+00 0. -1.
</event>
<event>
 4    1  0.3593938E+003  0.2427575E+02  0.7546771E-02  0.1477071E+00
          2   -1    0    0  502    0  0.00000000000E+00  0.00000000000E+00  0.25799830416E+02  0.25799830416E+02  0.00000000000E+00 0.  1.
          1   -1    0    0  501    0 -0.00000000000E+00 -0.00000000000E+00 -0.16659342614E+03  0.16659342614E+03  0.00000000000E+00 0. -1.
          2    1    1    2  501    0  0.22242593488E+02 -0.97251747072E+01  0.18962028111E+02  0.30803741627E+02  0.00000000000E+00 0.  1.
          1    1    1    2  502    0 -0.22242593488E+02  0.97251747072E+01 -0.15975562384E+03  0.16158951493E+03  0.00000000000E+00 0. -1.
</event>
<event>
 4    1  0.3593938E+003  0.3431368E+02  0.7546771E-02  0.1385453E+00
          2   -1    0    0  502    0  0.00000000000E+00  0.00000000000E+00  0.11619437038E+02  0.11619437038E+02  0.00000000000E+00 0.  1.
          1   -1    0    0  501    0 -0.00000000000E+00 -0.00000000000E+00 -0.90722739172E+03  0.90722739172E+03  0.00000000000E+00 0.  1.
          2    1    1    2  501    0 -0.13742963095E+02  0.31441363201E+02 -0.14797683635E+02  0.37368433143E+02  0.00000000000E+00 0.  1.
          1    1    1    2  502    0  0.13742963095E+02 -0.31441363201E+02 -0.88081027105E+03  0.88147839562E+03  0.00000000000E+00 0.  1.
</event>
<event>
 4    1  0.3593938E+003  0.5005877E+02  0.7546771E-02  0.1297918E+00
          2   -1    0    0  502    0  0.00000000000E+00  0.00000000000E+00  0.31618401111E+03  0.31618401111E+03  0.00000000000E+00 0.  1.
          1   -1    0    0  501    0 -0.00000000000E+00 -0.00000000000E+00 -0.20797867397E+02  0.20797867397E+02  0.00000000000E+00 0. -1.
          2    1    1    2  501    0 -0.42375521060E+02 -0.26649489814E+02  0.28024873851E+03  0.28468444904E+03  0.00000000000E+00 0.  1.
          1    1    1    2  502    0  0.42375521060E+02  0.26649489814E+02  0.15137405210E+02  0.52297429468E+02  0.00000000000E+00 0. -1.
</event>
<event>
 4    1  0.3593938E+003  0.2902236E+02  0.7546771E-02  0.1428287E+00
          2   -1    0    0  502    0  0.00000000000E+00  0.00000000000E+00  0.21674002135E+03  0.21674002135E+03  0.00000000000E+00 0.  1.
          1   -1    0    0  501    0 -0.00000000000E+00 -0.00000000000E+00 -0.90466555271E+02  0.90466555271E+02  0.00000000000E+00 0.  1.
          2    1    1    2  501    0 -0.25933296038E+02  0.13029252895E+02  0.21340460718E+03  0.21536904058E+03  0.00000000000E+00 0.  1.
          1    1    1    2  502    0  0.25933296038E+02 -0.13029252895E+02 -0.87131141108E+02  0.91837536036E+02  0.00000000000E+00 0.  1.
</event>
<event>
 4    1  0.3593938E+003  0.2550683E+02  0.7546771E-02  0.1463213E+00
          2   -1    0    0  502    0  0.00000000000E+00  0.00000000000E+00  0.10873184052E+02  0.10873184052E+02  0.00000000000E+00 0. -1.
          1   -1    0    0  501    0 -0.00000000000E+00 -0.00000000000E+00 -0.72799881587E+03  0.72799881587E+03  0.00000000000E+00 0. -1.
          2    1    1    2  501    0 -0.17294825639E+02  0.18747991540E+02 -0.46344939276E+01  0.25924442417E+02  0.00000000000E+00 0. -1.
          1    1    1    2  502    0  0.17294825639E+02 -0.18747991540E+02 -0.71249113789E+03  0.71294755750E+03  0.00000000000E+00 0. -1.
</event>
<event>
 4    1  0.3593938E+003  0.3003237E+02  0.7546771E-02  0.1419315E+00
          2   -1    0    0  502    0  0.00000000000E+00  0.00000000000E+00  0.54109074102E+03  0.54109074102E+03  0.00000000000E+00 0.  1.
          1   -1    0    0  501    0 -0.00000000000E+00 -0.00000000000E+00 -0.13078549644E+02  0.13078549644E+02  0.00000000000E+00 0. -1.
          2    1    1    2  501    0  0.29212221727E+02 -0.69705984312E+01  0.52283151002E+03  0.52369335590E+03  0.00000000000E+00 0.  1.
          1    1    1    2  502    0 -0.29212221727E+02  0.69705984312E+01  0.51806813587E+01  0.30475934769E+02  0.00000000000E+00 0. -1.
</event>
<event>
 4    1  0.3593938E+003  0.7364174E+02  0.7546771E-02  0.1219431E+00
          2   -1    0    0  502    0  0.00000000000E+00  0.00000000000E+00  0.12273302018E+03  0.12273302018E+03  0.00000000000E+00 0. -1.
          1   -1    0    0  501    0 -0.00000000000E+00 -0.00000000000E+00 -0.10131118147E+03  0.10131118147E+03  0.00000000000E+00 0. -1.
          2    1    1    2  501    0 -0.34536653630E+02  0.65040956341E+02  0.94828745054E+02  0.12006497130E+03  0.00000000000E+00 0. -1.
          1    1    1    2  502    0  0.34536653630E+02 -0.65040956341E+02 -0.73406906344E+02  0.10397923035E+03  0.00000000000E+00 0. -1.
</event>
<event>
 4    1  0.3593938E+003  0.3067430E+02  0.7546771E-02  0.1413825E+00
          2   -1    0    0  502    0  0.00000000000E+00  0.00000000000E+00  0.22407767777E+01  0.22407767777E+01  0.00000000000E+00 0.  1.
          1   -1    0    0  501    0 -0.00000000000E+00 -0.00000000000E+00 -0.86745995739E+03  0.86745995739E+03  0.00000000000E+00 0. -1.
          2    1    1    2  501    0 -0.70188403056E+01  0.29860489681E+02 -0.12026182910E+03  0.12411212874E+03  0.00000000000E+00 0.  1.
          1    1    1    2  502    0  0.70188403056E+01 -0.29860489681E+02 -0.74495735151E+03  0.74558860542E+03  0.00000000000E+00 0. -1.
</event>
<event>
 4    1  0.3593938E+003  0.2026940E+02  0.7546771E-02  0.1529957E+00
          2   -1    0    0  502    0  0.00000000000E+00  0.00000000000E+00  0.12754301142E+04  0.12754301142E+04  0.00000000000E+00 0. -1.
          1   -1    0    0  501    0 -0.00000000000E+00 -0.00000000000E+00 -0.28880253899E+03  0.28880253899E+03  0.00000000000E+00 0.  1.
          2    1    1    2  501    0  0.14454703565E+02  0.14209510204E+02  0.12749938127E+04  0.12751549204E+04  0.00000000000E+00 0. -1.
          1    1    1    2  502    0 -0.14454703565E+02 -0.14209510204E+02 -0.28836623751E+03  0.28907773275E+03  0.00000000000E+00 0.  1.
</event>
<event>
 4    1  0.3593938E+003  0.2039760E+02  0.7546771E-02  0.1528042E+00
          2   -1    0    0  502    0  0.00000000000E+00  0.00000000000E+00  0.39666916596E+02  0.39666916596E+02  0.00000000000E+00 0. -1.
          1   -1    0    0  501    0 -0.00000000000E+00 -0.00000000000E+00 -0.12225085009E+02  0.12225085009E+02  0.00000000000E+00 0. -1.
          2    1    1    2  501    0  0.12533987710E+02  0.16092277645E+02  0.23498751076E+02  0.31116772806E+02  0.00000000000E+00 0. -1.
          1    1    1    2  502    0 -0.12533987710E+02 -0.16092277645E+02  0.39430805109E+01  0.20775228799E+02  0.00000000000E+00 0. -1.
</event>
<event>
 4    1  0.3593938E+003  0.3242788E+02  0.7546771E-02  0.1399608E+00
          2   -1    0    0  502    0  0.00000000000E+00  0.00000000000E+00  0.71702702871E+03  0.71702702871E+03  0.00000000000E+00 0.  1.
          1   -1    0    0  501    0 -0.00000000000E+00 -0.00000000000E+00 -0.22500974085E+02  0.22500974085E+02  0.00000000000E+00 0.  1.
          2    1    1    2  501    0  0.48835198326E+01 -0.32058048815E+02  0.70477378848E+03  0.70551942581E+03  0.00000000000E+00 0.  1.
          1    1    1    2  502    0 -0.48835198326E+01  0.32058048815E+02 -0.10247733854E+02  0.34008576990E+02  0.00000000000E+00 0.  1.
</event>
<event>
 4    1  0.3593938E+003  0.2433669E+02  0.7546771E-02  0.1476362E+00
          2   -1    0    0  502    0  0.00000000000E+00  0.00000000000E+00  0.31208366214E+02  0.31208366214E+02  0.00000000000E+00 0.  1.
          1   -1    0    0  501    0 -0.00000000000E+00 -0.00000000000E+00 -0.11683249204E+03  0.11683249204E+03  0.00000000000E+00 0.  1.
          2    1    1    2  501    0  0.11666435564E+02  0.21358103948E+02  0.24930250413E+02  0.34839513612E+02  0.00000000000E+00 0.  1.
          1    1    1    2  502    0 -0.11666435564E+02 -0.21358103948E+02 -0.11055437623E+03  0.11320134464E+03  0.00000000000E+00 0.  1.
</event>
<event>
 4    1  0.3593938E+003  0.4048097E+02  0.7546771E-02  0.1345690E+00
          2   -1    0    0  502    0  0.00000000000E+00  0.00000000000E+00  0.15107258990E+02  0.15107258990E+02  0.00000000000E+00 0. -1.
          1   -1    0    0  501    0 -0.00000000000E+00 -0.00000000000E+00 -0.24063382040E+03  0.24063382040E+03  0.00000000000E+00 0.  1.
          2    1    1    2  501    0 -0.35107680781E+02 -0.20153397312E+02 -0.17998750178E+02  0.44301960239E+02  0.00000000000E+00 0. -1.
          1    1    1    2  502    0  0.35107680781E+02  0.20153397312E+02 -0.20752781124E+03  0.21143911916E+03  0.00000000000E+00 0.  1.
</event>
<event>
 4    1  0.3593938E+003  0.2796883E+02  0.7546771E-02  0.1438111E+00
          2   -1    0    0  502    0  0.00000000000E+00  0.00000000000E+00  0.17592700734E+04  0.17592700734E+04  0.00000000000E+00 0.  1.
          1   -1    0    0  501    0 -0.00000000000E+00 -0.00000000000E+00 -0.18140389097E+02  0.18140389097E+02  0.00000000000E+00 0. -1.
          2    1    1    2  501    0  0.22304086087E+02 -0.16875518244E+02  0.17483107616E+04  0.17485344648E+04  0.00000000000E+00 0.  1.
          1    1    1    2  502    0 -0.22304086087E+02  0.16875518244E+02 -0.71810773146E+01  0.28875997707E+02  0.00000000000E+00 0. -1.
</event>
<event>
 4    1  0.3593938E+003  0.2470043E+02  0.7546771E-02  0.1472183E+00
          2   -1    0    0  502    0  0.00000000000E+00  0.00000000000E+00  0.14034746289E+02  0.14034746289E+02  0.00000000000E+00 0.  1.
          1   -1    0    0  501    0 -0.00000000000E+00 -0.00000000000E+00 -0.11589986843E+03  0.11589986843E+03  0.00000000000E+00 0. -1.
          2    1    1    2  501    0 -0.22989640054E+02  0.90325868493E+01  0.42540436004E+00  0.24704091642E+02  0.00000000000E+00 0.  1.
          1    1    1    2  502    0  0.22989640054E+02 -0.90325868493E+01 -0.10229052651E+03  0.10523052308E+03  0.00000000000E+00 0. -1.
</event>
<event>
 4    1  0.3593938E+003  0.3349744E+02  0.7546771E-02  0.1391446E+00
          2   -1    0    0  502    0  0.00000000000E+00  0.00000000000E+00  0.14632394271E+02  0.14632394271E+02  0.00000000000E+00 0.  1.
          1   -1    0    0  501    0 -0.00000000000E+00 -0.00000000000E+00 -0.13781799337E+03  0.13781799337E+03  0.00000000000E+00 0. -1.
          2    1    1    2  501    0  0.15960000096E+02 -0.29450924977E+02 -0.10825390234E+02  0.35203233641E+02  0.00000000000E+00 0.  1.
          1    1    1    2  502    0 -0.15960000096E+02  0.29450924977E+02 -0.11236020887E+03  0.11724715400E+03  0.00000000000E+00 0. -1.
</event>
<event>
 4    1  0.3593938E+003  0.2043622E+02  0.7546771E-02  0.1527468E+00
          2   -1    0    0  502    0  0.00000000000E+00  0.00000000000E+00  0.56818598470E+03  0.56818598470E+03  0.00000000000E+00 0. -1.
          1   -1    0    0  501    0 -0.00000000000E+00 -0.00000000000E+00 -0.64410661355E+01  0.64410661355E+01  0.00000000000E+00 0. -1.
          2    1    1    2  501    0  0.98573409982E+01  0.17901730408E+02  0.55129574821E+03  0.55167439774E+03  0.00000000000E+00 0. -1.
          1    1    1    2  502    0 -0.98573409982E+01 -0.17901730408E+02  0.10449170352E+02  0.22952653097E+02  0.00000000000E+00 0. -1.
</event>
<event>
 4    1  0.3593938E+003  0.3097742E+02  0.7546771E-02  0.1411288E+00
          2   -1    0    0  502    0  0.00000000000E+00  0.00000000000E+00  0.14636221454E+04  0.14636221454E+04  0.00000000000E+00 0. -1.
          1   -1    0    0  501    0 -0.00000000000E+00 -0.00000000000E+00 -0.10109042150E+01  0.10109042150E+01  0.00000000000E+00 0. -1.
          2    1    1    2  501    0  0.21159346817E+02 -0.22624820528E+02  0.11654390427E+04  0.11658506605E+04  0.00000000000E+00 0. -1.
          1    1    1    2  502    0 -0.21159346817E+02  0.22624820528E+02  0.29717219855E+03  0.29878238913E+03  0.00000000000E+00 0. -1.
</event>
<event>
 4    1  0.3593938E+003  0.2618727E+02  0.7546771E-02  0.1455947E+00
          2   -1    0    0  502    0  0.00000000000E+00  0.00000000000E+00  0.42785849456E+03  0.42785849456E+03  0.00000000000E+00 0.  1.
          1   -1    0    0  501    0 -0.00000000000E+00 -0.00000000000E+00 -0.64473947825E+01  0.64473947825E+01  0.00000000000E+00 0. -1.
          2    1    1    2  501    0  0.23304363741E+02  0.11944865712E+02  0.39894131910E+03  0.39979988653E+03  0.00000000000E+00 0.  1.
          1    1    1    2  502    0 -0.23304363741E+02 -0.11944865712E+02  0.22469780678E+02  0.34506002811E+02  0.00000000000E+00 0. -1.
</event>
<event>
 4    1  0.3593938E+003  0.2031994E+02  0.7546771E-02  0.1529200E+00
          2   -1    0    0  502    0  0.00000000000E+00  0.00000000000E+00  0.24596190880E+01  0.24596190880E+01  0.00000000000E+00 0.  1.
          1   -1    0    0  501    0 -0.00000000000E+00 -0.00000000000E+00 -0.89403560924E+03  0.89403560924E+03  0.00000000000E+00 0.  1.
          2    1    1    2  501    0  0.29424145241E+01  0.20105771657E+02 -0.41809749322E+02  0.46486073135E+02  0.00000000000E+00 0.  1.
          1    1    1    2  502    0 -0.29424145241E+01 -0.20105771657E+02 -0.84976624083E+03  0.85000915519E+03  0.00000000000E+00 0.  1.
</event>
<event>
 4    1  0.3593938E+003  0.2090336E+02  0.7546771E-02  0.1520649E+00
          2   -1    0    0  502    0  0.00000000000E+00  0.00000000000E+00  0.17372957428E+03  0.17372957428E+03  0.00000000000E+00 0. -1.
          1   -1    0    0  501    0 -0.00000000000E+00 -0.00000000000E+00 -0.14288635822E+02  0.14288635822E+02  0.00000000000E+00 0.  1.
          2    1    1    2  501    0 -0.18186632075E+02  0.10305179850E+02  0.16505556179E+03  0.16637394266E+03  0.00000000000E+00 0. -1.
          1    1    1    2  502    0  0.18186632075E+02 -0.10305179850E+02 -0.56146233324E+01  0.21644267443E+02  0.00000000000E+00 0.  1.
</event>
<event>
 4    1  0.3593938E+003  0.2194247E+02  0.7546771E-02  0.1506222E+00
          2   -1    0    0  502    0  0.00000000000E+00  0.00000000000E+00  0.64957409295E+01  0.64957409295E+01  0.00000000000E+00 0.  1.
          1   -1    0    0  501    0 -0.00000000000E+00 -0.00000000000E+00 -0.90433659546E+02  0.90433659546E+02  0.00000000000E+00 0. -1.
          2    1    1    2  501    0 -0.10505629445E+02 -0.19264051247E+02 -0.21385394288E+02  0.30639957724E+02  0.00000000000E+00 0.  1.
          1    1    1    2  502    0  0.10505629445E+02  0.19264051247E+02 -0.62552524328E+02  0.66289442751E+02  0.00000000000E+00 0. -1.
</event>
<event>
 4    1  0.3593938E+003  0.2447294E+02  0.7546771E-02  0.1474787E+00
          2   -1    0    0  502    0  0.00000000000E+00  0.00000000000E+00  0.53090632774E+03  0.53090632774E+03  0.00000000000E+00 0.  1.
          1   -1    0    0  501    0 -0.00000000000E+00 -0.00000000000E+00 -0.13130970479E+01  0.13130970479E+01  0.00000000000E+00 0. -1.
          2    1    1    2  501    0  0.22490696672E+02  0.96484924195E+01  0.36467554892E+03  0.36549580138E+03  0.00000000000E+00 0.  1.
          1    1    1    2  502    0 -0.22490696672E+02 -0.96484924195E+01  0.16491768176E+03  0.16672362340E+03  0.00000000000E+00 0. -1.
</event>
<event>
 4    1  0.3593938E+003  0.2414422E+02  0.7546771E-02  0.1478609E+00
          2   -1    0    0  502    0  0.00000000000E+00  0.00000000000E+00  0.45887000101E+02  0.45887000101E+02  0.00000000000E+00 0. -1.
          1   -1    0    0  501    0 -0.00000000000E+00 -0.00000000000E+00 -0.32273083253E+02  0.32273083253E+02  0.00000000000E+00 0. -1.
          2    1    1    2  501    0 -0.22246079567E+02 -0.93837784563E+01  0.37238311406E+02  0.44380572220E+02  0.00000000000E+00 0. -1.
          1    1    1    2  502    0  0.22246079567E+02  0.93837784563E+01 -0.23624394558E+02  0.33779511134E+02  0.00000000000E+00 0. -1.
</event>
<event>
 4    1  0.3593938E+003  0.2163817E+02  0.7546771E-02  0.1510345E+00
          2   -1    0    0  502    0  0.00000000000E+00  0.00000000000E+00  0.15658663094E+04  0.15658663094E+04  0.00000000000E+00 0. -1.
          1   -1    0    0  501    0 -0.00000000000E+00 -0.00000000000E+00 -0.25202584256E+02  0.25202584256E+02  0.00000000000E+00 0.  1.
          2    1    1    2  501    0  0.82195252969E+01  0.20016234569E+02  0.15611330090E+04  0.15612829603E+04  0.00000000000E+00 0. -1.
          1    1    1    2  502    0 -0.82195252969E+01 -0.20016234569E+02 -0.20469283891E+02  0.29785933349E+02  0.00000000000E+00 0.  1.
</event>
<event>
 4    1  0.3593938E+003  0.2152090E+02  0.7546771E-02  0.1511956E+00
          2   -1    0    0  502    0  0.00000000000E+00  0.00000000000E+00  0.76991367510E+03  0.76991367510E+03  0.00000000000E+00 0. -1.
          1   -1    0    0  501    0 -0.00000000000E+00 -0.00000000000E+00 -0.11103948449E+01  0.11103948449E+01  0.00000000000E+00 0. -1.
          2    1    1    2  501    0 -0.12017533718E+02 -0.17852960294E+02  0.64536986006E+03  0.64572858508E+03  0.00000000000E+00 0. -1.
          1    1    1    2  502    0  0.12017533718E+02  0.17852960294E+02  0.12343342019E+03  0.12529548487E+03  0.00000000000E+00 0. -1.
</event>
<event>
 4    1  0.3593938E+003  0.3647669E+02  0.7546771E-02  0.1370469E+00
          2   -1    0    0  502    0  0.00000000000E+00  0.00000000000E+00  0.14953691470E+04  0.14953691470E+04  0.00000000000E+00 0. -1.
          1   -1    0    0  501    0 -0.00000000000E+00 -0.00000000000E+00 -0.30844756088E+01  0.30844756088E+01  0.00000000000E+00 0. -1.
          2    1    1    2  501    0 -0.18339415098E+02  0.31531170329E+02  0.13781317945E+04  0.13786144464E+04  0.00000000000E+00 0. -1.
          1    1    1    2  502    0  0.18339415098E+02 -0.31531170329E+02  0.11415287688E+03  0.11983917618E+03  0.00000000000E+00 0. -1.
</event>
<event>
 4    1  0.3593938E+003  0.2381342E+02  0.7546771E-02  0.1482529E+00
          2   -1    0    0  502    0  0.00000000000E+00  0.00000000000E+00  0.88660412671E+03  0.88660412671E+03  0.00000000000E+00 0. -1.
          1   -1    0    0  501    0 -0.00000000000E+00 -0.00000000000E+00 -0.25990876174E+01  0.25990876174E+01  0.00000000000E+00 0.  1.
          2    1    1    2  501    0 -0.12363232162E+02  0.20352632924E+02  0.82804129808E+03  0.82838364935E+03  0.00000000000E+00 0. -1.
          1    1    1    2  502    0  0.12363232162E+02 -0.20352632924E+02  0.55963741007E+02  0.60819564976E+02  0.00000000000E+00 0.  1.
</event>
<event>
 4    1  0.3593938E+003  0.2205633E+02  0.7546771E-02  0.1504700E+00
          2   -1    0    0  502    0  0.00000000000E+00  0.00000000000E+00  0.37315959461E+03  0.37315959461E+03  0.00000000000E+00 0.  1.
          1   -1    0    0  501    0 -0.00000000000E+00 -0.00000000000E+00 -0.88710300900E+01  0.88710300900E+01  0.00000000000E+00 0.  1.
          2    1    1    2  501    0 -0.79219056062E+01 -0.20584578813E+02  0.35856639168E+03  0.35924412134E+03  0.00000000000E+00 0.  1.
          1    1    1    2  502    0  0.79219056062E+01  0.20584578813E+02  0.57221728368E+01  0.22786503359E+02  0.00000000000E+00 0.  1.
</event>
<event>
 4    1  0.3593938E+003  0.2196155E+02  0.7546771E-02  0.1505967E+00
          2   -1    0    0  502    0  0.00000000000E+00  0.00000000000E+00  0.24187040905E+02  0.24187040905E+02  0.00000000000E+00 0. -1.
          1   -1    0    0  501    0 -0.00000000000E+00 -0.00000000000E+00 -0.22379267834E+02  0.22379267834E+02  0.00000000000E+00 0. -1.
          2    1    1    2  501    0 -0.69570907960E+01  0.20830472594E+02  0.85894305543E+01  0.23581518571E+02  0.00000000000E+00 0. -1.
          1    1    1    2  502    0  0.69570907960E+01 -0.20830472594E+02 -0.67816574831E+01  0.22984790168E+02  0.00000000000E+00 0. -1.
</event>
<event>
 4    1  0.3593938E+003  0.2056037E+02  0.7546771E-02  0.1525635E+00
          2   -1    0    0  502    0  0.00000000000E+00  0.00000000000E+00  0.17470311778E+02  0.17470311778E+02  0.00000000000E+00 0. -1.
          1   -1    0    0  501    0 -0.00000000000E+00 -0.00000000000E+00 -0.27833352623E+02  0.27833352623E+02  0.00000000000E+00 0. -1.
          2    1    1    2  501    0  0.13541963037E+02  0.15470742416E+02  0.30060543743E+01  0.20778955621E+02  0.00000000000E+00 0. -1.
          1    1    1    2  502    0 -0.13541963037E+02 -0.15470742416E+02 -0.13369095219E+02  0.24524708781E+02  0.00000000000E+00 0. -1.
</event>
<event>
 4    1  0.3593938E+003  0.2870380E+02  0.7546771E-02  0.1431205E+00
          2   -1    0    0  502    0  0.00000000000E+00  0.00000000000E+00  0.32117616015E+01  0.32117616015E+01  0.00000000000E+00 0.  1.
          1   -1    0    0  501    0 -0.00000000000E+00 -0.00000000000E+00 -0.59012274288E+03  0.59012274288E+03  0.00000000000E+00 0.  1.
          2    1    1    2  501    0  0.25833616248E+02 -0.12511283757E+02 -0.70402631274E+02  0.76029194655E+02  0.00000000000E+00 0.  1.
          1    1    1    2  502    0 -0.25833616248E+02  0.12511283757E+02 -0.51650835000E+03  0.51730530982E+03  0.00000000000E+00 0.  1.
</event>
<event>
 4    1  0.3593938E+003  0.3106637E+02  0.7546771E-02  0.1410550E+00
          2   -1    0    0  502    0  0.00000000000E+00  0.00000000000E+00  0.89418141625E+03  0.89418141625E+03  0.00000000000E+00 0. -1.
          1   -1    0    0  501    0 -0.00000000000E+00 -0.00000000000E+00 -0.20782708752E+02  0.20782708752E+02  0.00000000000E+00 0. -1.
          2    1    1    2  501    0 -0.12608108738E+02  0.28392872108E+02  0.88214355885E+03  0.88269042026E+03  0.00000000000E+00 0. -1.
          1    1    1    2  502    0  0.12608108738E+02 -0.28392872108E+02 -0.87448513561E+01  0.32273704742E+02  0.00000000000E+00 0. -1.
</event>
<event>
 4    1  0.3593938E+003  0.2524639E+02  0.7546771E-02  0.1466066E+00
          2   -1    0    0  502    0  0.00000000000E+00  0.00000000000E+00  0.75879942342E+01  0.75879942342E+01  0.00000000000E+00 0.  1.
          1   -1    0    0  501    0 -0.00000000000E+00 -0.00000000000E+00 -0.12055932353E+03  0.12055932353E+03  0.00000000000E+00 0. -1.
          2    1    1    2  501    0  0.12743486843E+02 -0.21794122498E+02 -0.21200915751E+02  0.32967545572E+02  0.00000000000E+00 0.  1.
          1    1    1    2  502    0 -0.12743486843E+02  0.21794122498E+02 -0.91770413547E+02  0.95179772195E+02  0.00000000000E+00 0. -1.
</event>
<event>
 4    1  0.3593938E+003  0.2650242E+02  0.7546771E-02  0.1452671E+00
          2   -1    0    0  502    0  0.00000000000E+00  0.00000000000E+00  0.32015839647E+02  0.32015839647E+02  0.00000000000E+00 0. -1.
          1   -1    0    0  501    0 -0.00000000000E+00 -0.00000000000E+00 -0.68937238653E+02  0.68937238653E+02  0.00000000000E+00 0.  1.
          2    1    1    2  501    0 -0.15731200001E+02 -0.21328560401E+02  0.23217209849E+02  0.35233747678E+02  0.00000000000E+00 0. -1.
          1    1    1    2  502    0  0.15731200001E+02  0.21328560401E+02 -0.60138608856E+02  0.65719330622E+02  0.00000000000E+00 0.  1.
</event>
<event>
 4    1  0.3593938E+003  0.2183608E+02  0.7546771E-02  0.1507655E+00
          2   -1    0    0  502    0  0.00000000000E+00  0.00000000000E+00  0.25028035152E+02  0.25028035152E+02  0.00000000000E+00 0. -1.
          1   -1    0    0  501    0 -0.00000000000E+00 -0.00000000000E+00 -0.28502293680E+03  0.28502293680E+03  0.00000000000E+00 0.  1.
          2    1    1    2  501    0 -0.10180269462E+02  0.19317779918E+02  0.19757409908E+02  0.29447746154E+02  0.00000000000E+00 0. -1.
          1    1    1    2  502    0  0.10180269462E+02 -0.19317779918E+02 -0.27975231155E+03  0.28060322580E+03  0.00000000000E+00 0.  1.
</event>
<event>
 4    1  0.3593938E+003  0.3187429E+02  0.7546771E-02  0.1403979E+00
          2   -1    0    0  502    0  0.00000000000E+00  0.00000000000E+00  0.41741599120E+02  0.41741599120E+02  0.00000000000E+00 0.  1.
          1   -1    0    0  501    0 -0.00000000000E+00 -0.00000000000E+00 -0.24643331222E+02  0.24643331222E+02  0.00000000000E+00 0.  1.
          2    1    1    2  501    0 -0.78982988425E+00  0.31864502736E+02  0.12234611535E+02  0.34141705951E+02  0.00000000000E+00 0.  1.
          1    1    1    2  502    0  0.78982988425E+00 -0.31864502736E+02  0.48636563636E+01  0.32243224390E+02  0.00000000000E+00 0.  1.
</event>
<event>
 4    1  0.3593938E+003  0.5857955E+02  0.7546771E-02  0.1264737E+00
          2   -1    0    0  502    0  0.00000000000E+00  0.00000000000E+00  0.44609228638E+01  0.44609228638E+01  0.00000000000E+00 0. -1.
          1   -1    0    0  501    0 -0.00000000000E+00 -0.00000000000E+00 -0.76927332163E+03  0.76927332163E+03  0.00000000000E+00 0. -1.
          2    1    1    2  501    0  0.47462065454E+02  0.34335338026E+02 -0.38025755970E+03  0.38474325830E+03  0.00000000000E+00 0. -1.
          1    1    1    2  502    0 -0.47462065454E+02 -0.34335338026E+02 -0.38455483907E+03  0.38899098620E+03  0.00000000000E+00 0. -1.
</event>
<event>
 4    1  0.3593938E+003  0.2348437E+02  0.7546771E-02  0.1486504E+00
          2   -1    0    0  502    0  0.00000000000E+00  0.00000000000E+00  0.12400460651E+03  0.12400460651E+03  0.00000000000E+00 0. -1.
          1   -1    0    0  501    0 -0.00000000000E+00 -0.00000000000E+00 -0.69874186015E+01  0.69874186015E+01  0.00000000000E+00 0. -1.
          2    1    1    2  501    0  0.16017233995E+02  0.17174507734E+02  0.97996392532E+02  0.10077106951E+03  0.00000000000E+00 0. -1.
          1    1    1    2  502    0 -0.16017233995E+02 -0.17174507734E+02  0.19020795375E+02  0.30220955601E+02  0.00000000000E+00 0. -1.
</event>
<event>
 4    1  0.3593938E+003  0.4692479E+02  0.7546771E-02  0.1312086E+00
          2   -1    0    0  502    0  0.00000000000E+00  0.00000000000E+00  0.34987351842E+02  0.34987351842E+02  0.00000000000E+00 0. -1.
          1   -1    0    0  501    0 -0.00000000000E+00 -0.00000000000E+00 -0.87513296992E+03  0.87513296992E+03  0.00000000000E+00 0. -1.
          2    1    1    2  501    0  0.42297441302E+02 -0.20319015523E+02  0.18319261153E+02  0.50373914496E+02  0.00000000000E+00 0. -1.
          1    1    1    2  502    0 -0.42297441302E+02  0.20319015523E+02 -0.85846487923E+03  0.85974640726E+03  0.00000000000E+00 0. -1.
</event>
<event>
 4    1  0.3593938E+003  0.2600737E+02  0.7546771E-02  0.1457842E+00
          2   -1    0    0  502    0  0.00000000000E+00  0.00000000000E+00  0.41322311740E+03  0.41322311740E+03  0.00000000000E+00 0. -1.
          1   -1    0    0  501    0 -0.00000000000E+00 -0.00000000000E+00 -0.25589766666E+01  0.25589766666E+01  0.00000000000E+00 0. -1.
          2    1    1    2  501    0 -0.25053041352E+02 -0.69805694835E+01  0.33012744823E+03  0.33115029111E+03  0.00000000000E+00 0. -1.
          1    1    1    2  502    0  0.25053041352E+02  0.69805694835E+01  0.80536692504E+02  0.84631802951E+02  0.00000000000E+00 0. -1.
</event>
<event>
 4    1  0.3593938E+003  0.3716190E+02  0.7546771E-02  0.1365971E+00
          2   -1    0    0  502    0  0.00000000000E+00  0.00000000000E+00  0.13493004821E+03  0.13493004821E+03  0.00000000000E+00 0.  1.
          1   -1    0    0  501    0 -0.00000000000E+00 -0.00000000000E+00 -0.17114859447E+02  0.17114859447E+02  0.00000000000E+00 0. -1.
          2    1    1    2  501    0 -0.36738914910E+02 -0.55909725341E+01  0.10710742508E+03  0.11337110456E+03  0.00000000000E+00 0.  1.
          1    1    1    2  502    0  0.36738914910E+02  0.55909725341E+01  0.10707763684E+02  0.38673803094E+02  0.00000000000E+00 0. -1.
</event>
<event>
 4    1  0.3593938E+003  0.2088715E+02  0.7546771E-02  0.1520882E+00
          2   -1    0    0  502    0  0.00000000000E+00  0.00000000000E+00  0.15123784492E+02  0.15123784492E+02  0.00000000000E+00 0.  1.
          1   -1    0    0  501    0 -0.00000000000E+00 -0.00000000000E+00 -0.35045259399E+02  0.35045259399E+02  0.00000000000E+00 0. -1.
          2    1    1    2  501    0  0.32295677645E+01 -0.20635965156E+02  0.58877018608E+00  0.20895449653E+02  0.00000000000E+00 0.  1.
          1    1    1    2  502    0 -0.32295677645E+01  0.20635965156E+02 -0.20510245092E+02  0.29273594238E+02  0.00000000000E+00 0. -1.
</event>
<event>
 4    1  0.3593938E+003  0.6721355E+02  0.7546771E-02  0.1237115E+00
          2   -1    0    0  502    0  0.00000000000E+00  0.00000000000E+00  0.28125600863E+03  0.28125600863E+03  0.00000000000E+00 0.  1.
          1   -1    0    0  501    0 -0.00000000000E+00 -0.00000000000E+00 -0.20662877563E+02  0.20662877563E+02  0.00000000000E+00 0.  1.
          2    1    1    2  501    0  0.61547876229E+02  0.27009638950E+02  0.20152670581E+03  0.21243981458E+03  0.00000000000E+00 0.  1.
          1    1    1    2  502    0 -0.61547876229E+02 -0.27009638950E+02  0.59066425264E+02  0.89479071620E+02  0.00000000000E+00 0.  1.
</event>
<event>
 4    1  0.3593938E+003  0.8312938E+02  0.7546771E-02  0.1196763E+00
          2   -1    0    0  502    0  0.00000000000E+00  0.00000000000E+00  0.51419218530E+03  0.51419218530E+03  0.00000000000E+00 0. -1.
          1   -1    0    0  501    0 -0.00000000000E+00 -0.00000000000E+00 -0.17285787859E+02  0.17285787859E+02  0.00000000000E+00 0.  1.
          2    1    1    2  501    0 -0.78465727561E+02  0.27452193309E+02  0.37380505212E+03  0.38293695344E+03  0.00000000000E+00 0. -1.
          1    1    1    2  502    0  0.78465727561E+02 -0.27452193309E+02  0.12310134532E+03  0.14854101972E+03  0.00000000000E+00 0.  1.
</event>
<event>
 4    1  0.3593938E+003  0.2145762E+02  0.7546771E-02  0.1512830E+00
          2   -1    0    0  502    0  0.00000000000E+00  0.00000000000E+00  0.50568394618E+02  0.50568394618E+02  0.00000000000E+00 0.  1.
          1   -1    0    0  501    0 -0.00000000000E+00 -0.00000000000E+00 -0.32060221860E+02  0.32060221860E+02  0.00000000000E+00 0.  1.
          2    1    1    2  501    0  0.12382717858E+02  0.17524208100E+02  0.44212938128E+02  0.49144821385E+02  0.00000000000E+00 0.  1.
          1    1    1    2  502    0 -0.12382717858E+02 -0.17524208100E+02 -0.25704765370E+02  0.33483795093E+02  0.00000000000E+00 0.  1.
</event>
<event>
 4    1  0.3593938E+003  0.2470505E+02  0.7546771E-02  0.1472130E+00
          2   -1    0    0  502    0  0.00000000000E+00  0.00000000000E+00  0.16105489715E+04  0.16105489715E+04  0.00000000000E+00 0.  1.
          1   -1    0    0  501    0 -0.00000000000E+00 -0.00000000000E+00 -0.73201279062E+00  0.73201279062E+00  0.00000000000E+00 0.  1.
          2    1    1    2  501    0 -0.12044200752E+02 -0.21570276144E+02  0.13644077241E+04  0.13646313705E+04  0.00000000000E+00 0.  1.
          1    1    1    2  502    0  0.12044200752E+02  0.21570276144E+02  0.24540923457E+03  0.24664961382E+03  0.00000000000E+00 0.  1.
</event>
<event>
 4    1  0.3593938E+003  0.3504734E+02  0.7546771E-02  0.1380231E+00
          2   -1    0    0  502    0  0.00000000000E+00  0.00000000000E+00  0.46365657366E+01  0.46365657366E+01  0.00000000000E+00 0. -1.
          1   -1    0    0  501    0 -0.00000000000E+00 -0.00000000000E+00 -0.79774269899E+03  0.79774269899E+03  0.00000000000E+00 0. -1.
          2    1    1    2  501    0 -0.34786999578E+02 -0.42638926981E+01 -0.68676865962E+02  0.77102710970E+02  0.00000000000E+00 0. -1.
          1    1    1    2  502    0  0.34786999578E+02  0.42638926981E+01 -0.72442926729E+03  0.72527655375E+03  0.00000000000E+00 0. -1.
</event>
<event>
 4    1  0.3593938E+003  0.3312458E+02  0.7546771E-02  0.1394250E+00
          2   -1    0    0  502    0  0.00000000000E+00  0.00000000000E+00  0.44628404446E+03  0.44628404446E+03  0.00000000000E+00 0.  1.
          1   -1    0    0  501    0 -0.00000000000E+00 -0.00000000000E+00 -0.33051472975E+03  0.33051472975E+03  0.00000000000E+00 0.  1.
          2    1    1    2  501    0  0.10846499917E+02 -0.31298419335E+02  0.44483674980E+03  0.44606834856E+03  0.00000000000E+00 0.  1.
          1    1    1    2  502    0 -0.10846499917E+02  0.31298419335E+02 -0.32906743509E+03  0.33073042565E+03  0.00000000000E+00 0.  1.
</event>
<event>
 4    1  0.3593938E+003  0.2131118E+02  0.7546771E-02  0.1514868E+00
          2   -1    0    0  502    0  0.00000000000E+00  0.00000000000E+00  0.21792175257E+04  0.21792175257E+04  0.00000000000E+00 0.  1.
          1   -1    0    0  501    0 -0.00000000000E+00 -0.00000000000E+00 -0.21442930765E+00  0.21442930765E+00  0.00000000000E+00 0. -1.
          2    1    1    2  501    0  0.36003889082E+01  0.21004848990E+02  0.12721074239E+04  0.12722859209E+04  0.00000000000E+00 0.  1.
          1    1    1    2  502    0 -0.36003889082E+01 -0.21004848990E+02  0.90689567246E+03  0.90714603411E+03  0.00000000000E+00 0. -1.
</event>
<event>
 4    1  0.3593938E+003  0.2947401E+02  0.7546771E-02  0.1424223E+00
          2   -1    0    0  502    0  0.00000000000E+00  0.00000000000E+00  0.15604781728E+04  0.15604781728E+04  0.00000000000E+00 0.  1.
          1   -1    0    0  501    0 -0.00000000000E+00 -0.00000000000E+00 -0.96512802937E+01  0.96512802937E+01  0.00000000000E+00 0.  1.
          2    1    1    2  501    0  0.25808963146E+02 -0.14234271178E+02  0.15375000871E+04  0.15377825708E+04  0.00000000000E+00 0.  1.
          1    1    1    2  502    0 -0.25808963146E+02  0.14234271178E+02  0.13326805388E+02  0.32346882330E+02  0.00000000000E+00 0.  1.
</event>
<event>
 4    1  0.3593938E+003  0.2690988E+02  0.7546771E-02  0.1448515E+00
          2   -1    0    0  502    0  0.00000000000E+00  0.00000000000E+00  0.36451229067E+01  0.36451229067E+01  0.00000000000E+00 0.  1.
          1   -1    0    0  501    0 -0.00000000000E+00 -0.00000000000E+00 -0.18846607190E+04  0.18846607190E+04  0.00000000000E+00 0.  1.
          2    1    1    2  501    0 -0.10416704501E+01 -0.26889715083E+02 -0.47501405109E+02  0.54594187803E+02  0.00000000000E+00 0.  1.
          1    1    1    2  502    0  0.10416704501E+01  0.26889715083E+02 -0.18335141910E+04  0.18337116542E+04  0.00000000000E+00 0.  1.
</event>
<event>
 4    1  0.3593938E+003  0.2401821E+02  0.7546771E-02  0.1480094E+00
          2   -1    0    0  502    0  0.00000000000E+00  0.00000000000E+00  0.13452639470E+04  0.13452639470E+04  0.00000000000E+00 0.  1.
          1   -1    0    0  501    0 -0.00000000000E+00 -0.00000000000E+00 -0.68627616124E+00  0.68627616124E+00  0.00000000000E+00 0. -1.
          2    1    1    2  501    0  0.72547545955E+01  0.22896347339E+02  0.10844835157E+04  0.10847494503E+04  0.00000000000E+00 0.  1.
          1    1    1    2  502    0 -0.72547545955E+01 -0.22896347339E+02  0.26009415519E+03  0.26120077288E+03  0.00000000000E+00 0. -1.
</event>
<event>
 4    1  0.3593938E+003  0.2250041E+02  0.7546771E-02  0.1498869E+00
          2   -1    0    0  502    0  0.00000000000E+00  0.00000000000E+00  0.68134476336E+00  0.68134476336E+00  0.00000000000E+00 0.  1.
          1   -1    0    0  501    0 -0.00000000000E+00 -0.00000000000E+00 -0.11810081362E+04  0.11810081362E+04  0.00000000000E+00 0. -1.
          2    1    1    2  501    0  0.19329263923E+02  0.11517292418E+02 -0.23035881264E+03  0.23145507345E+03  0.00000000000E+00 0.  1.
          1    1    1    2  502    0 -0.19329263923E+02 -0.11517292418E+02 -0.94996797875E+03  0.95023440746E+03  0.00000000000E+00 0. -1.
</event>
<event>
 4    1  0.3593938E+003  0.2783695E+02  0.7546771E-02  0.1439377E+00
          2   -1    0    0  502    0  0.00000000000E+00  0.00000000000E+00  0.19076642884E+04  0.19076642884E+04  0.00000000000E+00 0.  1.
          1   -1    0    0  501    0 -0.00000000000E+00 -0.00000000000E+00 -0.46494596937E+01  0.46494596937E+01  0.00000000000E+00 0.  1.
          2    1    1    2  501    0  0.23112687137E+02  0.15514490566E+02  0.18649424119E+04  0.18651501536E+04  0.00000000000E+00 0.  1.
          1    1    1    2  502    0 -0.23112687137E+02 -0.15514490566E+02  0.38072416750E+02  0.47163594449E+02  0.00000000000E+00 0.  1.
</event>
<event>
 4    1  0.3593938E+003  0.2676099E+02  0.7546771E-02  0.1450024E+00
          2   -1    0    0  502    0  0.00000000000E+00  0.00000000000E+00  0.45093787336E+03  0.45093787336E+03  0.00000000000E+00 0. -1.
          1   -1    0    0  501    0 -0.00000000000E+00 -0.00000000000E+00 -0.16006601958E+01  0.16006601958E+01  0.00000000000E+00 0. -1.
          2    1    1    2  501    0  0.21576195034E+02 -0.15830926707E+02  0.24468381281E+03  0.24614288266E+03  0.00000000000E+00 0. -1.
          1    1    1    2  502    0 -0.21576195034E+02  0.15830926707E+02  0.20465340036E+03  0.20639565090E+03  0.00000000000E+00 0. -1.
</event>
<event>
 4    1  0.3593938E+003  0.2191105E+02  0.7546771E-02  0.1506644E+00
          2   -1    0    0  502    0  0.00000000000E+00  0.00000000000E+00  0.12627582907E+03  0.12627582907E+03  0.00000000000E+00 0.  1.
          1   -1    0    0  501    0 -0.00000000000E+00 -0.00000000000E+00 -0.24985739524E+02  0.24985739524E+02  0.00000000000E+00 0. -1.
          2    1    1    2  501    0 -0.20803673824E+02 -0.68776029259E+01  0.12028433503E+03  0.12226371301E+03  0.00000000000E+00 0.  1.
          1    1    1    2  502    0  0.20803673824E+02  0.68776029259E+01 -0.18994245485E+02  0.28997855578E+02  0.00000000000E+00 0. -1.
</event>
<event>
 4    1  0.3593938E+003  0.2608585E+02  0.7546771E-02  0.1457013E+00
          2   -1    0    0  502    0  0.00000000000E+00  0.00000000000E+00  0.31251280568E+02  0.31251280568E+02  0.00000000000E+00 0.  1.
          1   -1    0    0  501    0 -0.00000000000E+00 -0.00000000000E+00 -0.22083750876E+02  0.22083750876E+02  0.00000000000E+00 0.  1.
          2    1    1    2  501    0  0.20065937535E+02  0.16668225631E+02  0.77410442975E+01  0.27210206939E+02  0.00000000000E+00 0.  1.
          1    1    1    2  502    0 -0.20065937535E+02 -0.16668225631E+02  0.14264853948E+01  0.26124824505E+02  0.00000000000E+00 0.  1.
</event>
<event>
 4    1  0.3593938E+003  0.2093513E+02  0.7546771E-02  0.1520193E+00
          2   -1    0    0  502    0  0.00000000000E+00  0.00000000000E+00  0.59887153326E+03  0.59887153326E+03  0.00000000000E+00 0. -1.
          1   -1    0    0  501    0 -0.00000000000E+00 -0.00000000000E+00 -0.11537462747E+01  0.11537462747E+01  0.00000000000E+00 0.  1.
          2    1    1    2  501    0 -0.19554682711E+02  0.74762404070E+01  0.48028132195E+03  0.48073737945E+03  0.00000000000E+00 0. -1.
          1    1    1    2  502    0  0.19554682711E+02 -0.74762404070E+01  0.11743646503E+03  0.11928790008E+03  0.00000000000E+00 0.  1.
</event>
<event>
 4    1  0.3593938E+003  0.2869553E+02  0.7546771E-02  0.1431281E+00
          2   -1    0    0  502    0  0.00000000000E+00  0.00000000000E+00  0.34080114360E+03  0.34080114360E+03  0.00000000000E+00 0. -1.
          1   -1    0    0  501    0 -0.00000000000E+00 -0.00000000000E+00 -0.86321177985E+01  0.86321177985E+01  0.00000000000E+00 0. -1.
          2    1    1    2  501    0  0.27039366302E+02 -0.96076080784E+01  0.31434630655E+03  0.31565334451E+03  0.00000000000E+00 0. -1.
          1    1    1    2  502    0 -0.27039366302E+02  0.96076080784E+01  0.17822719250E+02  0.33779916880E+02  0.00000000000E+00 0. -1.
</event>
<event>
 4    1  0.3593938E+003  0.2019209E+02  0.7546771E-02  0.1531119E+00
          2   -1    0    0  502    0  0.00000000000E+00  0.00000000000E+00  0.40811283946E+03  0.40811283946E+03  0.00000000000E+00 0.  1.
          1   -1    0    0  501    0 -0.00000000000E+00 -0.00000000000E+00 -0.56707604055E+01  0.56707604055E+01  0.00000000000E+00 0.  1.
          2    1    1    2  501    0 -0.20107183466E+02 -0.18497568638E+01  0.38900613589E+03  0.38952983735E+03  0.00000000000E+00 0.  1.
          1    1    1    2  502    0  0.20107183466E+02  0.18497568638E+01  0.13435943167E+02  0.24253762516E+02  0.00000000000E+00 0.  1.
</event>
<event>
 4    1  0.3593938E+003  0.2705016E+02  0.7546771E-02  0.1447105E+00
          2   -1    0    0  502    0  0.00000000000E+00  0.00000000000E+00  0.10033638395E+01  0.10033638395E+01  0.00000000000E+00 0.  1.
          1   -1    0    0  501    0 -0.00000000000E+00 -0.00000000000E+00 -0.14000158661E+04  0.14000158661E+04  0.00000000000E+00 0. -1.
          2    1    1    2  501    0  0.23411783105E+02 -0.13549897244E+02 -0.21463052198E+03  0.21632838989E+03  0.00000000000E+00 0.  1.
          1    1    1    2  502    0 -0.23411783105E+02  0.13549897244E+02 -0.11843819802E+04  0.11846908400E+04  0.00000000000E+00 0. -1.
</event>
<event>
 4    1  0.3593938E+003  0.2310001E+02  0.7546771E-02  0.1491246E+00
          2   -1    0    0  502    0  0.00000000000E+00  0.00000000000E+00  0.15177950476E+04  0.15177950476E+04  0.00000000000E+00 0. -1.
          1   -1    0    0  501    0 -0.00000000000E+00 -0.00000000000E+00 -0.20836580080E+01  0.20836580080E+01  0.00000000000E+00 0. -1.
          2    1    1    2  501    0  0.24231122711E+01 -0.22972568675E+02  0.14507241034E+04  0.14509080035E+04  0.00000000000E+00 0. -1.
          1    1    1    2  502    0 -0.24231122711E+01  0.22972568675E+02  0.64987286139E+02  0.68970702072E+02  0.00000000000E+00 0. -1.
</event>
<event>
 4    1  0.3593938E+003  0.2947220E+02  0.7546771E-02  0.1424239E+00
          2   -1    0    0  502    0  0.00000000000E+00  0.00000000000E+00  0.14331669752E+02  0.14331669752E+02  0.00000000000E+00 0. -1.
          1   -1    0    0  501    0 -0.00000000000E+00 -0.00000000000E+00 -0.31765541978E+03  0.31765541978E+03  0.00000000000E+00 0.  1.
          2    1    1    2  501    0 -0.22024802326E+02 -0.19583635790E+02 -0.23412243978E+01  0.29565047606E+02  0.00000000000E+00 0. -1.
          1    1    1    2  502    0  0.22024802326E+02  0.19583635790E+02 -0.30098252563E+03  0.30242204193E+03  0.00000000000E+00 0.  1.
</event>
<event>
 4    1  0.3593938E+003  0.3088649E+02  0.7546771E-02  0.1412046E+00
          2   -1    0    0  502    0  0.00000000000E+00  0.00000000000E+00  0.12918950854E+04  0.12918950854E+04  0.00000000000E+00 0. -1.
          1   -1    0    0  501    0 -0.00000000000E+00 -0.00000000000E+00 -0.30595300483E+03  0.30595300483E+03  0.00000000000E+00 0.  1.
          2    1    1    2  501    0 -0.28708348190E+02 -0.11393242199E+02  0.12909303840E+04  0.12912998225E+04  0.00000000000E+00 0. -1.
          1    1    1    2  502    0  0.28708348190E+02  0.11393242199E+02 -0.30498830343E+03  0.30654826774E+03  0.00000000000E+00 0.  1.
</event>
<event>
 4    1  0.3593938E+003  0.2225031E+02  0.7546771E-02  0.1502133E+00
          2   -1    0    0  502    0  0.00000000000E+00  0.00000000000E+00  0.15078760455E+01  0.15078760455E+01  0.00000000000E+00 0.  1.
          1   -1    0    0  501    0 -0.00000000000E+00 -0.00000000000E+00 -0.52780405814E+03  0.52780405814E+03  0.00000000000E+00 0.  1.
          2    1    1    2  501    0  0.88741722482E+01 -0.20404047399E+02 -0.10044640742E+03  0.10288127549E+03  0.00000000000E+00 0.  1.
          1    1    1    2  502    0 -0.88741722482E+01  0.20404047399E+02 -0.42584977467E+03  0.42643065869E+03  0.00000000000E+00 0.  1.
</event>
<event>
 4    1  0.3593938E+003  0.2323504E+02  0.7546771E-02  0.1489568E+00
          2   -1    0    0  502    0  0.00000000000E+00  0.00000000000E+00  0.14531457852E+04  0.14531457852E+04  0.00000000000E+00 0.  1.
          1   -1    0    0  501    0 -0.00000000000E+00 -0.00000000000E+00 -0.10088900286E+02  0.10088900286E+02  0.00000000000E+00 0.  1.
          2    1    1    2  501    0  0.26652428279E+01  0.23081667794E+02  0.14395488135E+04  0.14397363138E+04  0.00000000000E+00 0.  1.
          1    1    1    2  502    0 -0.26652428279E+01 -0.23081667794E+02  0.35080714637E+01  0.23498371707E+02  0.00000000000E+00 0.  1.
</event>
<event>
 4    1  0.3593938E+003  0.3107796E+02  0.7546771E-02  0.1410455E+00
          2   -1    0    0  502    0  0.00000000000E+00  0.00000000000E+00  0.85332678326E+03  0.85332678326E+03  0.00000000000E+00 0. -1.
          1   -1    0    0  501    0 -0.00000000000E+00 -0.00000000000E+00 -0.82746988234E+01  0.82746988234E+01  0.00000000000E+00 0. -1.
          2    1    1    2  501    0  0.48481187141E+01 -0.30697479861E+02  0.82278035109E+03  0.82336707832E+03  0.00000000000E+00 0. -1.
          1    1    1    2  502    0 -0.48481187141E+01  0.30697479861E+02  0.22271733351E+02  0.38234403766E+02  0.00000000000E+00 0. -1.
</event>
<event>
 4    1  0.3593938E+003  0.2320735E+02  0.7546771E-02  0.1489911E+00
          2   -1    0    0  502    0  0.00000000000E+00  0.00000000000E+00  0.61861871689E+03  0.61861871689E+03  0.00000000000E+00 0. -1.
          1   -1    0    0  501    0 -0.00000000000E+00 -0.00000000000E+00 -0.45768341214E+01  0.45768341214E+01  0.00000000000E+00 0. -1.
          2    1    1    2  501    0 -0.22411589879E+02 -0.60250776088E+01  0.58742035519E+03  0.58787860534E+03  0.00000000000E+00 0. -1.
          1    1    1    2  502    0  0.22411589879E+02  0.60250776088E+01  0.26621527574E+02  0.35316945670E+02  0.00000000000E+00 0. -1.
</event>
<event>
 4    1  0.3593938E+003  0.3275528E+02  0.7546771E-02  0.1397070E+00
          2   -1    0    0  502    0  0.00000000000E+00  0.00000000000E+00  0.22206795853E+02  0.22206795853E+02  0.00000000000E+00 0.  1.
          1   -1    0    0  501    0 -0.00000000000E+00 -0.00000000000E+00 -0.10385738426E+04  0.10385738426E+04  0.00000000000E+00 0.  1.
          2    1    1    2  501    0 -0.31899713190E+02  0.74375172661E+01  0.97230118620E+01  0.34167899033E+02  0.00000000000E+00 0.  1.
          1    1    1    2  502    0  0.31899713190E+02 -0.74375172661E+01 -0.10260900586E+04  0.10266127394E+04  0.00000000000E+00 0.  1.
</event>
<event>
 4    1  0.3593938E+003  0.4155419E+02  0.7546771E-02  0.1339611E+00
          2   -1    0    0  502    0  0.00000000000E+00  0.00000000000E+00  0.62647838835E+03  0.62647838835E+03  0.00000000000E+00 0.  1.
          1   -1    0    0  501    0 -0.00000000000E+00 -0.00000000000E+00 -0.12469244287E+02  0.12469244287E+02  0.00000000000E+00 0. -1.
          2    1    1    2  501    0  0.76459260549E+01 -0.40844716318E+02  0.58896687997E+03  0.59043097542E+03  0.00000000000E+00 0.  1.
          1    1    1    2  502    0 -0.76459260549E+01  0.40844716318E+02  0.25042264090E+02  0.48516657213E+02  0.00000000000E+00 0. -1.
</event>
<event>
 4    1  0.3593938E+003  0.6465409E+02  0.7546771E-02  0.1244790E+00
          2   -1    0    0  502    0  0.00000000000E+00  0.00000000000E+00  0.69650124105E+03  0.69650124105E+03  0.00000000000E+00 0. -1.
          1   -1    0    0  501    0 -0.00000000000E+00 -0.00000000000E+00 -0.61032082223E+01  0.61032082223E+01  0.00000000000E+00 0.  1.
          2    1    1    2  501    0 -0.64445120404E+02 -0.51940253895E+01  0.39051750377E+03  0.39583338944E+03  0.00000000000E+00 0. -1.
          1    1    1    2  502    0  0.64445120404E+02  0.51940253895E+01  0.29988052905E+03  0.30677105983E+03  0.00000000000E+00 0.  1.
</event>
<event>
 4    1  0.3593938E+003  0.2287730E+02  0.7546771E-02  0.1494045E+00
          2   -1    0    0  502    0  0.00000000000E+00  0.00000000000E+00  0.10046560833E+01  0.10046560833E+01  0.00000000000E+00 0. -1.
          1   -1    0    0  501    0 -0.00000000000E+00 -0.00000000000E+00 -0.99296323668E+03  0.99296323668E+03  0.00000000000E+00 0. -1.
          2    1    1    2  501    0  0.14625782558E+02  0.17591402061E+02 -0.15332593307E+03  0.15502326500E+03  0.00000000000E+00 0. -1.
          1    1    1    2  502    0 -0.14625782558E+02 -0.17591402061E+02 -0.83863264753E+03  0.83894462776E+03  0.00000000000E+00 0. -1.
</event>
<event>
 4    1  0.3593938E+003  0.2609562E+02  0.7546771E-02  0.1456911E+00
          2   -1    0    0  502    0  0.00000000000E+00  0.00000000000E+00  0.75663057520E+03  0.75663057520E+03  0.00000000000E+00 0. -1.
          1   -1    0    0  501    0 -0.00000000000E+00 -0.00000000000E+00 -0.28152420474E+02  0.28152420474E+02  0.00000000000E+00 0.  1.
          2    1    1    2  501    0  0.26009656265E+02  0.21163525645E+01  0.75030735252E+03  0.75076101684E+03  0.00000000000E+00 0. -1.
          1    1    1    2  502    0 -0.26009656265E+02 -0.21163525645E+01 -0.21829197794E+02  0.34021978830E+02  0.00000000000E+00 0.  1.
</event>
<event>
 4    1  0.3593938E+003  0.2178583E+02  0.7546771E-02  0.1508334E+00
          2   -1    0    0  502    0  0.00000000000E+00  0.00000000000E+00  0.87067679793E+03  0.87067679793E+03  0.00000000000E+00 0. -1.
          1   -1    0    0  501    0 -0.00000000000E+00 -0.00000000000E+00 -0.18041919370E+02  0.18041919370E+02  0.00000000000E+00 0.  1.
          2    1    1    2  501    0 -0.51697392105E+01  0.21163561187E+02  0.86391236767E+03  0.86418701769E+03  0.00000000000E+00 0. -1.
          1    1    1    2  502    0  0.51697392105E+01 -0.21163561187E+02 -0.11277489105E+02  0.24531699618E+02  0.00000000000E+00 0.  1.
</event>
<event>
 4    1  0.3593938E+003  0.2353783E+02  0.7546771E-02  0.1485853E+00
          2   -1    0    0  502    0  0.00000000000E+00  0.00000000000E+00  0.11474600660E+02  0.11474600660E+02  0.00000000000E+00 0.  1.
          1   -1    0    0  501    0 -0.00000000000E+00 -0.00000000000E+00 -0.52083157268E+02  0.52083157268E+02  0.00000000000E+00 0. -1.
          2    1    1    2  501    0 -0.19381336481E+02  0.13356395327E+02 -0.11720392089E+02  0.26294430792E+02  0.00000000000E+00 0.  1.
          1    1    1    2  502    0  0.19381336481E+02 -0.13356395327E+02 -0.28888164519E+02  0.37263327135E+02  0.00000000000E+00 0. -1.
</event>
<event>
 4    1  0.3593938E+003  0.3720875E+02  0.7546771E-02  0.1365667E+00
          2   -1    0    0  502    0  0.00000000000E+00  0.00000000000E+00  0.87135704782E+03  0.87135704782E+03  0.00000000000E+00 0. -1.
          1   -1    0    0  501    0 -0.00000000000E+00 -0.00000000000E+00 -0.18201829674E+01  0.18201829674E+01  0.00000000000E+00 0. -1.
          2    1    1    2  501    0  0.28179606733E+02 -0.24298171777E+02  0.59039908600E+03  0.59157042872E+03  0.00000000000E+00 0. -1.
          1    1    1    2  502    0 -0.28179606733E+02  0.24298171777E+02  0.27913777885E+03  0.28160680206E+03  0.00000000000E+00 0. -1.
</event>
<event>
 4    1  0.3593938E+003  0.2036176E+02  0.7546771E-02  0.1528576E+00
          2   -1    0    0  502    0  0.00000000000E+00  0.00000000000E+00  0.23684498340E+03  0.23684498340E+03  0.00000000000E+00 0. -1.
          1   -1    0    0  501    0 -0.00000000000E+00 -0.00000000000E+00 -0.10997415683E+02  0.10997415683E+02  0.00000000000E+00 0.  1.
          2    1    1    2  501    0  0.20354540050E+02  0.54211390390E+00  0.22655517824E+03  0.22746834939E+03  0.00000000000E+00 0. -1.
          1    1    1    2  502    0 -0.20354540050E+02 -0.54211390390E+00 -0.70761052384E+00  0.20374049690E+02  0.00000000000E+00 0.  1.
</event>
<event>
 4    1  0.3593938E+003  0.2033432E+02  0.7546771E-02  0.1528985E+00
          2   -1    0    0  502    0  0.00000000000E+00  0.00000000000E+00  0.33977141879E+02  0.33977141879E+02  0.00000000000E+00 0. -1.
          1   -1    0    0  501    0 -0.00000000000E+00 -0.00000000000E+00 -0.13075141531E+04  0.13075141531E+04  0.00000000000E+00 0. -1.
          2    1    1    2  501    0 -0.52939819627E+01 -0.19633088367E+02  0.30848413682E+02  0.36947381917E+02  0.00000000000E+00 0. -1.
          1    1    1    2  502    0  0.52939819627E+01  0.19633088367E+02 -0.13043854249E+04  0.13045439131E+04  0.00000000000E+00 0. -1.
</event>
<event>
 4    1  0.3593938E+003  0.2229308E+02  0.7546771E-02  0.1501571E+00
          2   -1    0    0  502    0  0.00000000000E+00  0.00000000000E+00  0.39320552758E+02  0.39320552758E+02  0.00000000000E+00 0. -1.
          1   -1    0    0  501    0 -0.00000000000E+00 -0.00000000000E+00 -0.41077282083E+02  0.41077282083E+02  0.00000000000E+00 0. -1.
          2    1    1    2  501    0 -0.22111054146E+02 -0.28430291932E+01  0.32569117125E+02  0.39468074703E+02  0.00000000000E+00 0. -1.
          1    1    1    2  502    0  0.22111054146E+02  0.28430291932E+01 -0.34325846450E+02  0.40929760138E+02  0.00000000000E+00 0. -1.
</event>
<event>
 4    1  0.3593938E+003  0.3696767E+02  0.7546771E-02  0.1367234E+00
          2   -1    0    0  502    0  0.00000000000E+00  0.00000000000E+00  0.99088495132E+03  0.99088495132E+03  0.00000000000E+00 0.  1.
          1   -1    0    0  501    0 -0.00000000000E+00 -0.00000000000E+00 -0.41439708710E+01  0.41439708710E+01  0.00000000000E+00 0.  1.
          2    1    1    2  501    0 -0.36887431205E+02 -0.24343269887E+01  0.89974692824E+03  0.90050604852E+03  0.00000000000E+00 0.  1.
          1    1    1    2  502    0  0.36887431205E+02  0.24343269887E+01  0.86994052203E+02  0.94522873673E+02  0.00000000000E+00 0.  1.
</event>
<event>
 4    1  0.3593938E+003  0.2760017E+02  0.7546771E-02  0.1441671E+00
          2   -1    0    0  502    0  0.00000000000E+00  0.00000000000E+00  0.92450372513E+02  0.92450372513E+02  0.00000000000E+00 0.  1.
          1   -1    0    0  501    0 -0.00000000000E+00 -0.00000000000E+00 -0.38525881097E+02  0.38525881097E+02  0.00000000000E+00 0.  1.
          2    1    1    2  501    0  0.22041757552E+02  0.16611149122E+02  0.85026395213E+02  0.89393832192E+02  0.00000000000E+00 0.  1.
          1    1    1    2  502    0 -0.22041757552E+02 -0.16611149122E+02 -0.31101903797E+02  0.41582421417E+02  0.00000000000E+00 0.  1.
</event>
<event>
 4    1  0.3593938E+003  0.2020339E+02  0.7546771E-02  0.1530949E+00
          2   -1    0    0  502    0  0.00000000000E+00  0.00000000000E+00  0.19111726218E+00  0.19111726218E+00  0.00000000000E+00 0.  1.
          1   -1    0    0  501    0 -0.00000000000E+00 -0.00000000000E+00 -0.22822737904E+04  0.22822737904E+04  0.00000000000E+00 0.  1.
          2    1    1    2  501    0 -0.79664906131E+01  0.18566414358E+02 -0.14302156088E+04  0.14303582993E+04  0.00000000000E+00 0.  1.
          1    1    1    2  502    0  0.79664906131E+01 -0.18566414358E+02 -0.85186706434E+03  0.85210660837E+03  0.00000000000E+00 0.  1.
</event>
<event>
 4    1  0.3593938E+003  0.2179839E+02  0.7546771E-02  0.1508164E+00
          2   -1    0    0  502    0  0.00000000000E+00  0.00000000000E+00  0.22701311905E+03  0.22701311905E+03  0.00000000000E+00 0.  1.
          1   -1    0    0  501    0 -0.00000000000E+00 -0.00000000000E+00 -0.77189423263E+01  0.77189423263E+01  0.00000000000E+00 0.  1.
          2    1    1    2  501    0 -0.48724843511E+01  0.21246852540E+02  0.20984434250E+03  0.21097350053E+03  0.00000000000E+00 0.  1.
          1    1    1    2  502    0  0.48724843511E+01 -0.21246852540E+02  0.94498342226E+01  0.23758560845E+02  0.00000000000E+00 0.  1.
</event>
<event>
 4    1  0.3593938E+003  0.3604946E+02  0.7546771E-02  0.1373332E+00
          2   -1    0    0  502    0  0.00000000000E+00  0.00000000000E+00  0.22678165301E+04  0.22678165301E+04  0.00000000000E+00 0. -1.
          1   -1    0    0  501    0 -0.00000000000E+00 -0.00000000000E+00 -0.88404191026E+00  0.88404191026E+00  0.00000000000E+00 0.  1.
          2    1    1    2  501    0  0.31709830173E+02  0.17147889910E+02  0.18062693916E+04  0.18066290927E+04  0.00000000000E+00 0. -1.
          1    1    1    2  502    0 -0.31709830173E+02 -0.17147889910E+02  0.46066309653E+03  0.46207147928E+03  0.00000000000E+00 0.  1.
</event>
<event>
 4    1  0.3593938E+003  0.3091215E+02  0.7546771E-02  0.1411832E+00
          2   -1    0    0  502    0  0.00000000000E+00  0.00000000000E+00  0.26215788944E+04  0.26215788944E+04  0.00000000000E+00 0. -1.
          1   -1    0    0  501    0 -0.00000000000E+00 -0.00000000000E+00 -0.37317777755E+00  0.37317777755E+00  0.00000000000E+00 0.  1.
          2    1    1    2  501    0 -0.77544353418E+01 -0.29923735275E+02  0.15105348200E+04  0.15108510858E+04  0.00000000000E+00 0. -1.
          1    1    1    2  502    0  0.77544353418E+01  0.29923735275E+02  0.11106708966E+04  0.11111009863E+04  0.00000000000E+00 0.  1.
</event>
<event>
 4    1  0.3593938E+003  0.2258010E+02  0.7546771E-02  0.1497839E+00
          2   -1    0    0  502    0  0.00000000000E+00  0.00000000000E+00  0.54431564432E+03  0.54431564432E+03  0.00000000000E+00 0. -1.
          1   -1    0    0  501    0 -0.00000000000E+00 -0.00000000000E+00 -0.65622426817E+01  0.65622426817E+01  0.00000000000E+00 0. -1.
          2    1    1    2  501    0 -0.22527787555E+02  0.15361720898E+01  0.52390088779E+03  0.52438726269E+03  0.00000000000E+00 0. -1.
          1    1    1    2  502    0  0.22527787555E+02 -0.15361720898E+01  0.13852513846E+02  0.26490624316E+02  0.00000000000E+00 0. -1.
</event>
<event>
 4    1  0.3593938E+003  0.2366897E+02  0.7546771E-02  0.1484264E+00
          2   -1    0    0  502    0  0.00000000000E+00  0.00000000000E+00  0.93254227719E+01  0.93254227719E+01  0.00000000000E+00 0. -1.
          1   -1    0    0  501    0 -0.00000000000E+00 -0.00000000000E+00 -0.11597095951E+03  0.11597095951E+03  0.00000000000E+00 0.  1.
          2    1    1    2  501    0  0.12105133976E+01 -0.23637996327E+02 -0.98291020522E+01  0.25628723343E+02  0.00000000000E+00 0. -1.
          1    1    1    2  502    0 -0.12105133976E+01  0.23637996327E+02 -0.96816434683E+02  0.99667658936E+02  0.00000000000E+00 0.  1.
</event>
<event>
 4    1  0.3593938E+003  0.2333203E+02  0.7546771E-02  0.1488370E+00
          2   -1    0    0  502    0  0.00000000000E+00  0.00000000000E+00  0.35796412454E+03  0.35796412454E+03  0.00000000000E+00 0. -1.
          1   -1    0    0  501    0 -0.00000000000E+00 -0.00000000000E+00 -0.21401407947E+02  0.21401407947E+02  0.00000000000E+00 0. -1.
          2    1    1    2  501    0  0.21963253877E+02  0.78739636161E+01  0.35110054682E+03  0.35187494625E+03  0.00000000000E+00 0. -1.
          1    1    1    2  502    0 -0.21963253877E+02 -0.78739636161E+01 -0.14537830224E+02  0.27490586235E+02  0.00000000000E+00 0. -1.
</event>
<event>
 4    1  0.3593938E+003  0.2281698E+02  0.7546771E-02  0.1494809E+00
          2   -1    0    0  502    0  0.00000000000E+00  0.00000000000E+00  0.30995951402E+03  0.30995951402E+03  0.00000000000E+00 0.  1.
          1   -1    0    0  501    0 -0.00000000000E+00 -0.00000000000E+00 -0.81843397026E+03  0.81843397026E+03  0.00000000000E+00 0.  1.
          2    1    1    2  501    0 -0.42880008384E+01 -0.22410432811E+02  0.30938028386E+03  0.31022052558E+03  0.00000000000E+00 0.  1.
          1    1    1    2  502    0  0.42880008384E+01  0.22410432811E+02 -0.81785474010E+03  0.81817295870E+03  0.00000000000E+00 0.  1.
</event>
<event>
 4    1  0.3593938E+003  0.2601573E+03  0.7546771E-02  0.1019139E+00
          2   -1    0    0  502    0  0.00000000000E+00  0.00000000000E+00  0.62266627193E+03  0.62266627193E+03  0.00000000000E+00 0.  1.
          1   -1    0    0  501    0 -0.00000000000E+00 -0.00000000000E+00 -0.22888177412E+03  0.22888177412E+03  0.00000000000E+00 0.  1.
          2    1    1    2  501    0  0.25273761436E+03  0.61688932606E+02  0.50542314283E+03  0.56844910012E+03  0.00000000000E+00 0.  1.
          1    1    1    2  502    0 -0.25273761436E+03 -0.61688932606E+02 -0.11163864502E+03  0.28309894592E+03  0.00000000000E+00 0.  1.
</event>
<event>
 4    1  0.3593938E+003  0.4897745E+02  0.7546771E-02  0.1302668E+00
          2   -1    0    0  502    0  0.00000000000E+00  0.00000000000E+00  0.60282935193E+01  0.60282935193E+01  0.00000000000E+00 0.  1.
          1   -1    0    0  501    0 -0.00000000000E+00 -0.00000000000E+00 -0.20738857065E+04  0.20738857065E+04  0.00000000000E+00 0.  1.
          2    1    1    2  501    0 -0.31710976221E+02 -0.37325655207E+02 -0.99049975362E+02  0.11049745775E+03  0.00000000000E+00 0.  1.
          1    1    1    2  502    0  0.31710976221E+02  0.37325655207E+02 -0.19688074376E+04  0.19694165422E+04  0.00000000000E+00 0.  1.
</event>
<event>
 4    1  0.3593938E+003  0.3491306E+02  0.7546771E-02  0.1381175E+00
          2   -1    0    0  502    0  0.00000000000E+00  0.00000000000E+00  0.57024246599E+03  0.57024246599E+03  0.00000000000E+00 0.  1.
          1   -1    0    0  501    0 -0.00000000000E+00 -0.00000000000E+00 -0.28640086188E+01  0.28640086188E+01  0.00000000000E+00 0.  1.
          2    1    1    2  501    0 -0.34895954850E+02 -0.10925877814E+01  0.42800832253E+03  0.42942990763E+03  0.00000000000E+00 0.  1.
          1    1    1    2  502    0  0.34895954850E+02  0.10925877814E+01  0.13937013485E+03  0.14367656698E+03  0.00000000000E+00 0.  1.
</event>
<event>
 4    1  0.3593938E+003  0.2973539E+02  0.7546771E-02  0.1421910E+00
          2   -1    0    0  502    0  0.00000000000E+00  0.00000000000E+00  0.87599759484E+03  0.87599759484E+03  0.00000000000E+00 0. -1.
          1   -1    0    0  501    0 -0.00000000000E+00 -0.00000000000E+00 -0.69127148175E+01  0.69127148175E+01  0.00000000000E+00 0.  1.
          2    1    1    2  501    0 -0.17092794800E+00 -0.29734901157E+02  0.84249706125E+03  0.84302164372E+03  0.00000000000E+00 0. -1.
          1    1    1    2  502    0  0.17092794800E+00  0.29734901157E+02  0.26587818767E+02  0.39888665933E+02  0.00000000000E+00 0.  1.
</event>
<event>
 4    1  0.3593938E+003  0.2254622E+02  0.7546771E-02  0.1498276E+00
          2   -1    0    0  502    0  0.00000000000E+00  0.00000000000E+00  0.15516805208E+04  0.15516805208E+04  0.00000000000E+00 0.  1.
          1   -1    0    0  501    0 -0.00000000000E+00 -0.00000000000E+00 -0.19517966403E+01  0.19517966403E+01  0.00000000000E+00 0. -1.
          2    1    1    2  501    0  0.15958154007E+02  0.15926997606E+02  0.14834953693E+04  0.14836666886E+04  0.00000000000E+00 0.  1.
          1    1    1    2  502    0 -0.15958154007E+02 -0.15926997606E+02  0.66233354836E+02  0.69965628882E+02  0.00000000000E+00 0. -1.
</event>
<event>
 4    1  0.3593938E+003  0.2728420E+02  0.7546771E-02  0.1444774E+00
          2   -1    0    0  502    0  0.00000000000E+00  0.00000000000E+00  0.16693163459E+03  0.16693163459E+03  0.00000000000E+00 0. -1.
          1   -1    0    0  501    0 -0.00000000000E+00 -0.00000000000E+00 -0.13909793743E+02  0.13909793743E+02  0.00000000000E+00 0.  1.
          2    1    1    2  501    0 -0.91194927248E+01 -0.25715022773E+02  0.15104086588E+03  0.15348540879E+03  0.00000000000E+00 0. -1.
          1    1    1    2  502    0  0.91194927248E+01  0.25715022773E+02  0.19809749669E+01  0.27356019549E+02  0.00000000000E+00 0.  1.
</event>
<event>
 4    1  0.3593938E+003  0.2128254E+02  0.7546771E-02  0.1515269E+00
          2   -1    0    0  502    0  0.00000000000E+00  0.00000000000E+00  0.51838547629E+01  0.51838547629E+01  0.00000000000E+00 0.  1.
          1   -1    0    0  501    0 -0.00000000000E+00 -0.00000000000E+00 -0.17236932391E+03  0.17236932391E+03  0.00000000000E+00 0.  1.
          2    1    1    2  501    0 -0.21267923127E+02 -0.78862288168E+00 -0.21253725446E+02  0.30077688168E+02  0.00000000000E+00 0.  1.
          1    1    1    2  502    0  0.21267923127E+02  0.78862288168E+00 -0.14593174370E+03  0.14747549051E+03  0.00000000000E+00 0.  1.
</event>
<event>
 4    1  0.3593938E+003  0.2189603E+02  0.7546771E-02  0.1506846E+00
          2   -1    0    0  502    0  0.00000000000E+00  0.00000000000E+00  0.16800448616E+02  0.16800448616E+02  0.00000000000E+00 0.  1.
          1   -1    0    0  501    0 -0.00000000000E+00 -0.00000000000E+00 -0.37838813951E+03  0.37838813951E+03  0.00000000000E+00 0. -1.
          2    1    1    2  501    0 -0.21667537870E+02  0.31550003869E+01  0.92033633226E+01  0.23751591973E+02  0.00000000000E+00 0.  1.
          1    1    1    2  502    0  0.21667537870E+02 -0.31550003869E+01 -0.37079105422E+03  0.37143699616E+03  0.00000000000E+00 0. -1.
</event>
<event>
 4    1  0.3593938E+003  0.3124711E+02  0.7546771E-02  0.1409060E+00
          2   -1    0    0  502    0  0.00000000000E+00  0.00000000000E+00  0.20961737710E+03  0.20961737710E+03  0.00000000000E+00 0.  1.
          1   -1    0    0  501    0 -0.00000000000E+00 -0.00000000000E+00 -0.16723826613E+02  0.16723826613E+02  0.00000000000E+00 0.  1.
          2    1    1    2  501    0 -0.39376990050E+00  0.31244629737E+02  0.19257384281E+03  0.19509245726E+03  0.00000000000E+00 0.  1.
          1    1    1    2  502    0  0.39376990050E+00 -0.31244629737E+02  0.31970767211E+00  0.31248746457E+02  0.00000000000E+00 0.  1.
</event>
<event>
 4    1  0.3593938E+003  0.3257535E+02  0.7546771E-02  0.1398460E+00
          2   -1    0    0  502    0  0.00000000000E+00  0.00000000000E+00  0.21766312633E+02  0.21766312633E+02  0.00000000000E+00 0.  1.
          1   -1    0    0  501    0 -0.00000000000E+00 -0.00000000000E+00 -0.44845499910E+03  0.44845499910E+03  0.00000000000E+00 0.  1.
          2    1    1    2  501    0 -0.32444742153E+02 -0.29141409417E+01  0.86191370907E+01  0.33696335631E+02  0.00000000000E+00 0.  1.
          1    1    1    2  502    0  0.32444742153E+02  0.29141409417E+01 -0.43530782356E+03  0.43652497610E+03  0.00000000000E+00 0.  1.
</event>
<event>
 4    1  0.3593938E+003  0.2464954E+02  0.7546771E-02  0.1472762E+00
          2   -1    0    0  502    0  0.00000000000E+00  0.00000000000E+00  0.30029110563E+03  0.30029110563E+03  0.00000000000E+00 0. -1.
          1   -1    0    0  501    0 -0.00000000000E+00 -0.00000000000E+00 -0.41648721173E+02  0.41648721173E+02  0.00000000000E+00 0.  1.
          2    1    1    2  501    0 -0.38862142824E+01  0.24341269263E+02  0.29608638801E+03  0.29711066830E+03  0.00000000000E+00 0. -1.
          1    1    1    2  502    0  0.38862142824E+01 -0.24341269263E+02 -0.37444003550E+02  0.44829158509E+02  0.00000000000E+00 0.  1.
</event>
<event>
 4    1  0.3593938E+003  0.2361456E+02  0.7546771E-02  0.1484922E+00
          2   -1    0    0  502    0  0.00000000000E+00  0.00000000000E+00  0.35292956633E+03  0.35292956633E+03  0.00000000000E+00 0. -1.
          1   -1    0    0  501    0 -0.00000000000E+00 -0.00000000000E+00 -0.27170338176E+02  0.27170338176E+02  0.00000000000E+00 0. -1.
          2    1    1    2  501    0 -0.23152357847E+02 -0.46492839391E+01  0.34732075644E+03  0.34812261543E+03  0.00000000000E+00 0. -1.
          1    1    1    2  502    0  0.23152357847E+02  0.46492839391E+01 -0.21561528286E+02  0.31977289082E+02  0.00000000000E+00 0. -1.
</event>
<event>
 4    1  0.3593938E+003  0.3272121E+02  0.7546771E-02  0.1397333E+00
          2   -1    0    0  502    0  0.00000000000E+00  0.00000000000E+00  0.22152875504E+04  0.22152875504E+04  0.00000000000E+00 0. -1.
          1   -1    0    0  501    0 -0.00000000000E+00 -0.00000000000E+00 -0.52550972413E+01  0.52550972413E+01  0.00000000000E+00 0. -1.
          2    1    1    2  501    0  0.27447845521E+02  0.17812733215E+02  0.21630003131E+04  0.21632477972E+04  0.00000000000E+00 0. -1.
          1    1    1    2  502    0 -0.27447845521E+02 -0.17812733215E+02  0.47032140134E+02  0.57294850501E+02  0.00000000000E+00 0. -1.
</event>
<event>
 4    1  0.3593938E+003  0.3008342E+02  0.7546771E-02  0.1418873E+00
          2   -1    0    0  502    0  0.00000000000E+00  0.00000000000E+00  0.46937433682E+03  0.46937433682E+03  0.00000000000E+00 0.  1.
          1   -1    0    0  501    0 -0.00000000000E+00 -0.00000000000E+00 -0.20742025212E+01  0.20742025212E+01  0.00000000000E+00 0.  1.
          2    1    1    2  501    0  0.23179345266E+02  0.19176289696E+02  0.29620639369E+03  0.29773014594E+03  0.00000000000E+00 0.  1.
          1    1    1    2  502    0 -0.23179345266E+02 -0.19176289696E+02  0.17109374061E+03  0.17371839341E+03  0.00000000000E+00 0.  1.
</event>
<event>
 4    1  0.3593938E+003  0.2225912E+02  0.7546771E-02  0.1502017E+00
          2   -1    0    0  502    0  0.00000000000E+00  0.00000000000E+00  0.24070728309E+02  0.24070728309E+02  0.00000000000E+00 0.  1.
          1   -1    0    0  501    0 -0.00000000000E+00 -0.00000000000E+00 -0.22165773084E+02  0.22165773084E+02  0.00000000000E+00 0. -1.
          2    1    1    2  501    0 -0.76586901223E+01 -0.20900068802E+02  0.71284501627E+01  0.23372702284E+02  0.00000000000E+00 0.  1.
          1    1    1    2  502    0  0.76586901223E+01  0.20900068802E+02 -0.52234949376E+01  0.22863799109E+02  0.00000000000E+00 0. -1.
</event>
<event>
 4    1  0.3593938E+003  0.2087777E+02  0.7546771E-02  0.1521017E+00
          2   -1    0    0  502    0  0.00000000000E+00  0.00000000000E+00  0.80827741563E+01  0.80827741563E+01  0.00000000000E+00 0.  1.
          1   -1    0    0  501    0 -0.00000000000E+00 -0.00000000000E+00 -0.22248796919E+03  0.22248796919E+03  0.00000000000E+00 0.  1.
          2    1    1    2  501    0 -0.16608415250E+02  0.12650769967E+02 -0.68568018764E+01  0.21974921384E+02  0.00000000000E+00 0.  1.
          1    1    1    2  502    0  0.16608415250E+02 -0.12650769967E+02 -0.20754839316E+03  0.20859582197E+03  0.00000000000E+00 0.  1.
</event>
<event>
 4    1  0.3593938E+003  0.2137760E+02  0.7546771E-02  0.1513941E+00
          2   -1    0    0  502    0  0.00000000000E+00  0.00000000000E+00  0.15364644988E+04  0.15364644988E+04  0.00000000000E+00 0. -1.
          1   -1    0    0  501    0 -0.00000000000E+00 -0.00000000000E+00 -0.56740456974E+00  0.56740456974E+00  0.00000000000E+00 0. -1.
          2    1    1    2  501    0 -0.47637473273E+01 -0.20840068408E+02  0.12980537755E+04  0.12982297970E+04  0.00000000000E+00 0. -1.
          1    1    1    2  502    0  0.47637473273E+01  0.20840068408E+02  0.23784331866E+03  0.23880210630E+03  0.00000000000E+00 0. -1.
</event>
<event>
 4    1  0.3593938E+003  0.2645330E+02  0.7546771E-02  0.1453178E+00
          2   -1    0    0  502    0  0.00000000000E+00  0.00000000000E+00  0.76237097537E+02  0.76237097537E+02  0.00000000000E+00 0.  1.
          1   -1    0    0  501    0 -0.00000000000E+00 -0.00000000000E+00 -0.92647860387E+01  0.92647860387E+01  0.00000000000E+00 0.  1.
          2    1    1    2  501    0  0.23559158753E+02 -0.12030894283E+02  0.29371181978E+02  0.39527746068E+02  0.00000000000E+00 0.  1.
          1    1    1    2  502    0 -0.23559158753E+02  0.12030894283E+02  0.37601129520E+02  0.45974137508E+02  0.00000000000E+00 0.  1.
</event>
<event>
 4    1  0.3593938E+003  0.2389666E+02  0.7546771E-02  0.1481535E+00
          2   -1    0    0  502    0  0.00000000000E+00  0.00000000000E+00  0.58013330069E+03  0.58013330069E+03  0.00000000000E+00 0.  1.
          1   -1    0    0  501    0 -0.00000000000E+00 -0.00000000000E+00 -0.53812114941E+03  0.53812114941E+03  0.00000000000E+00 0.  1.
          2    1    1    2  501    0 -0.63420725708E+01  0.23039720254E+02  0.57962168233E+03  0.58011407949E+03  0.00000000000E+00 0.  1.
          1    1    1    2  502    0  0.63420725708E+01 -0.23039720254E+02 -0.53760953106E+03  0.53814037061E+03  0.00000000000E+00 0.  1.
</event>
<event>
 4    1  0.3593938E+003  0.2820864E+02  0.7546771E-02  0.1435831E+00
          2   -1    0    0  502    0  0.00000000000E+00  0.00000000000E+00  0.56890694636E+03  0.56890694636E+03  0.00000000000E+00 0.  1.
          1   -1    0    0  501    0 -0.00000000000E+00 -0.00000000000E+00 -0.89822959418E+01  0.89822959418E+01  0.00000000000E+00 0.  1.
          2    1    1    2  501    0  0.19278798008E+02  0.20592600768E+02  0.54545874709E+03  0.54618767108E+03  0.00000000000E+00 0.  1.
          1    1    1    2  502    0 -0.19278798008E+02 -0.20592600768E+02  0.14465903328E+02  0.31701571225E+02  0.00000000000E+00 0.  1.
</event>
<event>
 4    1  0.3593938E+003  0.2215981E+02  0.7546771E-02  0.1503327E+00
          2   -1    0    0  502    0  0.00000000000E+00  0.00000000000E+00  0.74934109757E+03  0.74934109757E+03  0.00000000000E+00 0.  1.
          1   -1    0    0  501    0 -0.00000000000E+00 -0.00000000000E+00 -0.45699922992E+01  0.45699922992E+01  0.00000000000E+00 0.  1.
          2    1    1    2  501    0 -0.18526269678E+02 -0.12158726955E+02  0.72126884723E+03  0.72160917906E+03  0.00000000000E+00 0.  1.
          1    1    1    2  502    0  0.18526269678E+02  0.12158726955E+02  0.23502258041E+02  0.32301910816E+02  0.00000000000E+00 0.  1.
</event>
<event>
 4    1  0.3593938E+003  0.3578535E+02  0.7546771E-02  0.1375124E+00
          2   -1    0    0  502    0  0.00000000000E+00  0.00000000000E+00  0.11437317400E+03  0.11437317400E+03  0.00000000000E+00 0.  1.
          1   -1    0    0  501    0 -0.00000000000E+00 -0.00000000000E+00 -0.22572535035E+02  0.22572535035E+02  0.00000000000E+00 0. -1.
          2    1    1    2  501    0 -0.29446301161E+02  0.20334865741E+02  0.94509879936E+02  0.10105794784E+03  0.00000000000E+00 0.  1.
          1    1    1    2  502    0  0.29446301161E+02 -0.20334865741E+02 -0.27092409707E+01  0.35887761192E+02  0.00000000000E+00 0. -1.
</event>
<event>
 4    1  0.3593938E+003  0.3129505E+02  0.7546771E-02  0.1408667E+00
          2   -1    0    0  502    0  0.00000000000E+00  0.00000000000E+00  0.33936689440E+03  0.33936689440E+03  0.00000000000E+00 0. -1.
          1   -1    0    0  501    0 -0.00000000000E+00 -0.00000000000E+00 -0.50651774196E+01  0.50651774196E+01  0.00000000000E+00 0. -1.
          2    1    1    2  501    0 -0.28535293077E+02 -0.12849788991E+02  0.28011281131E+03  0.28185557842E+03  0.00000000000E+00 0. -1.
          1    1    1    2  502    0  0.28535293077E+02  0.12849788991E+02  0.54188905671E+02  0.62576493398E+02  0.00000000000E+00 0. -1.
</event>
<event>
 4    1  0.3593938E+003  0.3625670E+02  0.7546771E-02  0.1371937E+00
          2   -1    0    0  502    0  0.00000000000E+00  0.00000000000E+00  0.89486386405E+02  0.89486386405E+02  0.00000000000E+00 0. -1.
          1   -1    0    0  501    0 -0.00000000000E+00 -0.00000000000E+00 -0.46121084197E+02  0.46121084197E+02  0.00000000000E+00 0. -1.
          2    1    1    2  501    0 -0.16833312576E+02  0.32112109409E+02  0.77656360640E+02  0.85703315751E+02  0.00000000000E+00 0. -1.
          1    1    1    2  502    0  0.16833312576E+02 -0.32112109409E+02 -0.34291058432E+02  0.49904154851E+02  0.00000000000E+00 0. -1.
</event>
<event>
 4    1  0.3593938E+003  0.2229397E+02  0.7546771E-02  0.1501559E+00
          2   -1    0    0  502    0  0.00000000000E+00  0.00000000000E+00  0.23936323267E+01  0.23936323267E+01  0.00000000000E+00 0. -1.
          1   -1    0    0  501    0 -0.00000000000E+00 -0.00000000000E+00 -0.43154344438E+03  0.43154344438E+03  0.00000000000E+00 0. -1.
          2    1    1    2  501    0 -0.10034562022E+02 -0.19908004554E+02 -0.58291831797E+02  0.62409604505E+02  0.00000000000E+00 0. -1.
          1    1    1    2  502    0  0.10034562022E+02  0.19908004554E+02 -0.37085798025E+03  0.37152747220E+03  0.00000000000E+00 0. -1.
</event>
<event>
 4    1  0.3593938E+003  0.2180959E+02  0.7546771E-02  0.1508013E+00
          2   -1    0    0  502    0  0.00000000000E+00  0.00000000000E+00  0.18293518458E+01  0.18293518458E+01  0.00000000000E+00 0. -1.
          1   -1    0    0  501    0 -0.00000000000E+00 -0.00000000000E+00 -0.30643315376E+03  0.30643315376E+03  0.00000000000E+00 0. -1.
          2    1    1    2  501    0 -0.15235125302E+02 -0.15606065517E+02 -0.92313361369E+02  0.94854704739E+02  0.00000000000E+00 0. -1.
          1    1    1    2  502    0  0.15235125302E+02  0.15606065517E+02 -0.21229044054E+03  0.21340780087E+03  0.00000000000E+00 0. -1.
</event>
<event>
 4    1  0.3593938E+003  0.2837144E+02  0.7546771E-02  0.1434298E+00
          2   -1    0    0  502    0  0.00000000000E+00  0.00000000000E+00  0.34997317203E+03  0.34997317203E+03  0.00000000000E+00 0. -1.
          1   -1    0    0  501    0 -0.00000000000E+00 -0.00000000000E+00 -0.59872219458E+03  0.59872219458E+03  0.00000000000E+00 0.  1.
          2    1    1    2  501    0 -0.23032993419E+02 -0.16565624162E+02  0.34906118813E+03  0.35021229526E+03  0.00000000000E+00 0. -1.
          1    1    1    2  502    0  0.23032993419E+02  0.16565624162E+02 -0.59781021069E+03  0.59848307135E+03  0.00000000000E+00 0.  1.
</event>
<event>
 4    1  0.3593938E+003  0.2550730E+02  0.7546771E-02  0.1463208E+00
          2   -1    0    0  502    0  0.00000000000E+00  0.00000000000E+00  0.14354789738E+04  0.14354789738E+04  0.00000000000E+00 0. -1.
          1   -1    0    0  501    0 -0.00000000000E+00 -0.00000000000E+00 -0.34313019242E+01  0.34313019242E+01  0.00000000000E+00 0.  1.
          2    1    1    2  501    0  0.24060615145E+02  0.84681229981E+01  0.13862800019E+04  0.13865146468E+04  0.00000000000E+00 0. -1.
          1    1    1    2  502    0 -0.24060615145E+02 -0.84681229981E+01  0.45767669970E+02  0.52395628851E+02  0.00000000000E+00 0.  1.
</event>
<event>
 4    1  0.3593938E+003  0.2222453E+02  0.7546771E-02  0.1502472E+00
          2   -1    0    0  502    0  0.00000000000E+00  0.00000000000E+00  0.41917070251E+01  0.41917070251E+01  0.00000000000E+00 0.  1.
          1   -1    0    0  501    0 -0.00000000000E+00 -0.00000000000E+00 -0.20038592646E+03  0.20038592646E+03  0.00000000000E+00 0. -1.
          2    1    1    2  501    0 -0.19922637835E+02 -0.98497741450E+01 -0.32443943102E+02  0.39326059974E+02  0.00000000000E+00 0.  1.
          1    1    1    2  502    0  0.19922637835E+02  0.98497741450E+01 -0.16375027633E+03  0.16525157351E+03  0.00000000000E+00 0. -1.
</event>
<event>
 4    1  0.3593938E+003  0.4333475E+02  0.7546771E-02  0.1329979E+00
          2   -1    0    0  502    0  0.00000000000E+00  0.00000000000E+00  0.67217616780E+02  0.67217616780E+02  0.00000000000E+00 0.  1.
          1   -1    0    0  501    0 -0.00000000000E+00 -0.00000000000E+00 -0.48037224981E+03  0.48037224981E+03  0.00000000000E+00 0. -1.
          2    1    1    2  501    0 -0.37703843157E+02 -0.21361660005E+02  0.59136642617E+02  0.73314683434E+02  0.00000000000E+00 0.  1.
          1    1    1    2  502    0  0.37703843157E+02  0.21361660005E+02 -0.47229127565E+03  0.47427518316E+03  0.00000000000E+00 0. -1.
</event>
<event>
 4    1  0.3593938E+003  0.2478986E+02  0.7546771E-02  0.1471168E+00
          2   -1    0    0  502    0  0.00000000000E+00  0.00000000000E+00  0.13365912364E+04  0.13365912364E+04  0.00000000000E+00 0. -1.
          1   -1    0    0  501    0 -0.00000000000E+00 -0.00000000000E+00 -0.24412679728E+01  0.24412679728E+01  0.00000000000E+00 0. -1.
          2    1    1    2  501    0  0.16339930032E+00  0.24789323666E+02  0.12702580921E+04  0.12704999638E+04  0.00000000000E+00 0. -1.
          1    1    1    2  502    0 -0.16339930032E+00 -0.24789323666E+02  0.63891876268E+02  0.68532540594E+02  0.00000000000E+00 0. -1.
</event>
<event>
 4    1  0.3953375E+003  0.3908550E+02  0.7546771E-02  0.1353930E+00
          2   -1    0    0  502    0  0.00000000000E+00  0.00000000000E+00  0.11967345278E+04  0.11967345278E+04  0.00000000000E+00 0. -1.
          1   -1    0    0  501    0 -0.00000000000E+00 -0.00000000000E+00 -0.64153623444E+03  0.64153623444E+03  0.00000000000E+00 0. -1.
          2    1    1    2  501    0 -0.70754351823E+01  0.38439747296E+02  0.11958196187E+04  0.11964582051E+04  0.00000000000E+00 0. -1.
          1    1    1    2  502    0  0.70754351823E+01 -0.38439747296E+02 -0.64062132540E+03  0.64181255714E+03  0.00000000000E+00 0. -1.
</event>
<event>
 4    1  0.3593938E+003  0.2195849E+02  0.7546771E-02  0.1506007E+00
          2   -1    0    0  502    0  0.00000000000E+00  0.00000000000E+00  0.40257282135E+01  0.40257282135E+01  0.00000000000E+00 0. -1.
          1   -1    0    0  501    0 -0.00000000000E+00 -0.00000000000E+00 -0.17404868268E+03  0.17404868268E+03  0.00000000000E+00 0.  1.
          2    1    1    2  501    0 -0.21759185951E+02  0.29518305245E+01 -0.35290817995E+02  0.41564616098E+02  0.00000000000E+00 0. -1.
          1    1    1    2  502    0  0.21759185951E+02 -0.29518305245E+01 -0.13473213648E+03  0.13650979480E+03  0.00000000000E+00 0.  1.
</event>
<event>
 4    1  0.3593938E+003  0.2529392E+02  0.7546771E-02  0.1465542E+00
          2   -1    0    0  502    0  0.00000000000E+00  0.00000000000E+00  0.66292328731E+02  0.66292328731E+02  0.00000000000E+00 0.  1.
          1   -1    0    0  501    0 -0.00000000000E+00 -0.00000000000E+00 -0.21176546610E+03  0.21176546610E+03  0.00000000000E+00 0. -1.
          2    1    1    2  501    0 -0.18939009168E+02 -0.16765922538E+02  0.63087360664E+02  0.67969090787E+02  0.00000000000E+00 0.  1.
          1    1    1    2  502    0  0.18939009168E+02  0.16765922538E+02 -0.20856049803E+03  0.21008870404E+03  0.00000000000E+00 0. -1.
</event>
<event>
 4    1  0.3593938E+003  0.2250366E+02  0.7546771E-02  0.1498827E+00
          2   -1    0    0  502    0  0.00000000000E+00  0.00000000000E+00  0.76044618502E+02  0.76044618502E+02  0.00000000000E+00 0.  1.
          1   -1    0    0  501    0 -0.00000000000E+00 -0.00000000000E+00 -0.20009066188E+02  0.20009066188E+02  0.00000000000E+00 0.  1.
          2    1    1    2  501    0 -0.22216799855E+02 -0.35816887555E+01  0.67246587682E+02  0.70912045838E+02  0.00000000000E+00 0.  1.
          1    1    1    2  502    0  0.22216799855E+02  0.35816887555E+01 -0.11211035368E+02  0.25141638852E+02  0.00000000000E+00 0.  1.
</event>
<event>
 4    1  0.3593938E+003  0.2051107E+02  0.7546771E-02  0.1526361E+00
          2   -1    0    0  502    0  0.00000000000E+00  0.00000000000E+00  0.48175257960E+02  0.48175257960E+02  0.00000000000E+00 0.  1.
          1   -1    0    0  501    0 -0.00000000000E+00 -0.00000000000E+00 -0.88272178422E+01  0.88272178422E+01  0.00000000000E+00 0. -1.
          2    1    1    2  501    0 -0.20331718348E+02  0.27065214752E+01  0.22621969580E+02  0.30536167689E+02  0.00000000000E+00 0.  1.
          1    1    1    2  502    0  0.20331718348E+02 -0.27065214752E+01  0.16726070538E+02  0.26466308113E+02  0.00000000000E+00 0. -1.
</event>
<event>
 4    1  0.3593938E+003  0.2310137E+02  0.7546771E-02  0.1491229E+00
          2   -1    0    0  502    0  0.00000000000E+00  0.00000000000E+00  0.20367559452E+02  0.20367559452E+02  0.00000000000E+00 0.  1.
          1   -1    0    0  501    0 -0.00000000000E+00 -0.00000000000E+00 -0.10433673787E+03  0.10433673787E+03  0.00000000000E+00 0.  1.
          2    1    1    2  501    0 -0.22934604100E+02  0.27708113402E+01  0.11973245389E+02  0.26019839850E+02  0.00000000000E+00 0.  1.
          1    1    1    2  502    0  0.22934604100E+02 -0.27708113402E+01 -0.95942423805E+02  0.98684457471E+02  0.00000000000E+00 0.  1.
</event>
<event>
 4    1  0.3593938E+003  0.2604215E+02  0.7546771E-02  0.1457475E+00
          2   -1    0    0  502    0  0.00000000000E+00  0.00000000000E+00  0.68721434997E+03  0.68721434997E+03  0.00000000000E+00 0. -1.
          1   -1    0    0  501    0 -0.00000000000E+00 -0.00000000000E+00 -0.93770679316E+02  0.93770679316E+02  0.00000000000E+00 0. -1.
          2    1    1    2  501    0  0.79603477098E+01 -0.24795689158E+02  0.68515407990E+03  0.68564882158E+03  0.00000000000E+00 0. -1.
          1    1    1    2  502    0 -0.79603477098E+01  0.24795689158E+02 -0.91710409242E+02  0.95336207706E+02  0.00000000000E+00 0. -1.
</event>
<event>
 4    1  0.3593938E+003  0.4707637E+02  0.7546771E-02  0.1311371E+00
          2   -1    0    0  502    0  0.00000000000E+00  0.00000000000E+00  0.34919587519E+04  0.34919587519E+04  0.00000000000E+00 0.  1.
          1   -1    0    0  501    0 -0.00000000000E+00 -0.00000000000E+00 -0.17505437937E+04  0.17505437937E+04  0.00000000000E+00 0.  1.
          2    1    1    2  501    0 -0.47001435364E+02  0.26551194090E+01  0.34914835459E+04  0.34918009015E+04  0.00000000000E+00 0.  1.
          1    1    1    2  502    0  0.47001435364E+02 -0.26551194090E+01 -0.17500685877E+04  0.17507016440E+04  0.00000000000E+00 0.  1.
</event>
<event>
 4    1  0.3593938E+003  0.2875254E+02  0.7546771E-02  0.1430756E+00
          2   -1    0    0  502    0  0.00000000000E+00  0.00000000000E+00  0.36754832555E+03  0.36754832555E+03  0.00000000000E+00 0. -1.
          1   -1    0    0  501    0 -0.00000000000E+00 -0.00000000000E+00 -0.11744466441E+03  0.11744466441E+03  0.00000000000E+00 0.  1.
          2    1    1    2  501    0  0.28567166603E+02 -0.32597257420E+01  0.36521500314E+03  0.36634506594E+03  0.00000000000E+00 0. -1.
          1    1    1    2  502    0 -0.28567166603E+02  0.32597257420E+01 -0.11511134200E+03  0.11864792403E+03  0.00000000000E+00 0.  1.
</event>
<event>
 4    1  0.3593938E+003  0.3891681E+02  0.7546771E-02  0.1354953E+00
          2   -1    0    0  502    0  0.00000000000E+00  0.00000000000E+00  0.25725575219E+02  0.25725575219E+02  0.00000000000E+00 0.  1.
          1   -1    0    0  501    0 -0.00000000000E+00 -0.00000000000E+00 -0.11694770810E+04  0.11694770810E+04  0.00000000000E+00 0.  1.
          2    1    1    2  501    0 -0.47608572971E+01  0.38624500662E+02  0.10489575740E+02  0.40305694546E+02  0.00000000000E+00 0.  1.
          1    1    1    2  502    0  0.47608572971E+01 -0.38624500662E+02 -0.11542410816E+04  0.11548969617E+04  0.00000000000E+00 0.  1.
</event>
<event>
 4    1  0.3593938E+003  0.2238277E+02  0.7546771E-02  0.1500398E+00
          2   -1    0    0  502    0  0.00000000000E+00  0.00000000000E+00  0.94786905610E+03  0.94786905610E+03  0.00000000000E+00 0.  1.
          1   -1    0    0  501    0 -0.00000000000E+00 -0.00000000000E+00 -0.17883946905E+01  0.17883946905E+01  0.00000000000E+00 0. -1.
          2    1    1    2  501    0 -0.22268563322E+02  0.22581855457E+01  0.87157419974E+03  0.87186155666E+03  0.00000000000E+00 0.  1.
          1    1    1    2  502    0  0.22268563322E+02 -0.22581855457E+01  0.74506461669E+02  0.77795894138E+02  0.00000000000E+00 0. -1.
</event>
<event>
 4    1  0.3593938E+003  0.4908898E+02  0.7546771E-02  0.1302171E+00
          2   -1    0    0  502    0  0.00000000000E+00  0.00000000000E+00  0.63157139516E+03  0.63157139516E+03  0.00000000000E+00 0.  1.
          1   -1    0    0  501    0 -0.00000000000E+00 -0.00000000000E+00 -0.29748454846E+03  0.29748454846E+03  0.00000000000E+00 0. -1.
          2    1    1    2  501    0  0.24579906575E+02 -0.42491831858E+02  0.62858283339E+03  0.63049671372E+03  0.00000000000E+00 0.  1.
          1    1    1    2  502    0 -0.24579906575E+02  0.42491831858E+02 -0.29449598669E+03  0.29855922990E+03  0.00000000000E+00 0. -1.
</event>
<event>
 4    1  0.3593938E+003  0.5656426E+02  0.7546771E-02  0.1271975E+00
          2   -1    0    0  502    0  0.00000000000E+00  0.00000000000E+00  0.11172149045E+03  0.11172149045E+03  0.00000000000E+00 0.  1.
          1   -1    0    0  501    0 -0.00000000000E+00 -0.00000000000E+00 -0.87070636007E+03  0.87070636007E+03  0.00000000000E+00 0.  1.
          2    1    1    2  501    0 -0.29950969658E+02  0.47983906883E+02  0.10357571445E+03  0.11801459455E+03  0.00000000000E+00 0.  1.
          1    1    1    2  502    0  0.29950969658E+02 -0.47983906883E+02 -0.86256058407E+03  0.86441325597E+03  0.00000000000E+00 0.  1.
</event>
<event>
 4    1  0.3593938E+003  0.3275781E+02  0.7546771E-02  0.1397051E+00
          2   -1    0    0  502    0  0.00000000000E+00  0.00000000000E+00  0.67292565618E+03  0.67292565618E+03  0.00000000000E+00 0. -1.
          1   -1    0    0  501    0 -0.00000000000E+00 -0.00000000000E+00 -0.14148296195E+03  0.14148296195E+03  0.00000000000E+00 0. -1.
          2    1    1    2  501    0 -0.18088863275E+02  0.27310572983E+02  0.67062437392E+03  0.67142395345E+03  0.00000000000E+00 0. -1.
          1    1    1    2  502    0  0.18088863275E+02 -0.27310572983E+02 -0.13918167969E+03  0.14298466468E+03  0.00000000000E+00 0. -1.
</event>
<event>
 4    1  0.3772848E+003  0.2930687E+02  0.7546771E-02  0.1425717E+00
          2   -1    0    0  502    0  0.00000000000E+00  0.00000000000E+00  0.62550390468E+03  0.62550390468E+03  0.00000000000E+00 0.  1.
          1   -1    0    0  501    0 -0.00000000000E+00 -0.00000000000E+00 -0.55921761237E+03  0.55921761237E+03  0.00000000000E+00 0. -1.
          2    1    1    2  501    0  0.10698156001E+02  0.27284464538E+02  0.62477620683E+03  0.62546318930E+03  0.00000000000E+00 0.  1.
          1    1    1    2  502    0 -0.10698156001E+02 -0.27284464538E+02 -0.55848991452E+03  0.55925832776E+03  0.00000000000E+00 0. -1.
</event>
<event>
 4    1  0.3593938E+003  0.2387500E+02  0.7546771E-02  0.1481794E+00
          2   -1    0    0  502    0  0.00000000000E+00  0.00000000000E+00  0.72023193571E+03  0.72023193571E+03  0.00000000000E+00 0. -1.
          1   -1    0    0  501    0 -0.00000000000E+00 -0.00000000000E+00 -0.57972233974E+01  0.57972233974E+01  0.00000000000E+00 0.  1.
          2    1    1    2  501    0  0.20922178435E+02  0.11501223755E+02  0.69454377620E+03  0.69495400766E+03  0.00000000000E+00 0. -1.
          1    1    1    2  502    0 -0.20922178435E+02 -0.11501223755E+02  0.19890936112E+02  0.31075151452E+02  0.00000000000E+00 0.  1.
</event>
<event>
 4    1  0.3593938E+003  0.4042648E+02  0.7546771E-02  0.1346005E+00
          2   -1    0    0  502    0  0.00000000000E+00  0.00000000000E+00  0.15998863782E+04  0.15998863782E+04  0.00000000000E+00 0.  1.
          1   -1    0    0  501    0 -0.00000000000E+00 -0.00000000000E+00 -0.49187793166E+02  0.49187793166E+02  0.00000000000E+00 0. -1.
          2    1    1    2  501    0  0.40407307202E+02  0.12450283862E+01  0.15912796472E+04  0.15917930821E+04  0.00000000000E+00 0.  1.
          1    1    1    2  502    0 -0.40407307202E+02 -0.12450283862E+01 -0.40581062228E+02  0.57281089222E+02  0.00000000000E+00 0. -1.
</event>
<event>
 4    1  0.3593938E+003  0.2648656E+02  0.7546771E-02  0.1452835E+00
          2   -1    0    0  502    0  0.00000000000E+00  0.00000000000E+00  0.24224875878E+02  0.24224875878E+02  0.00000000000E+00 0. -1.
          1   -1    0    0  501    0 -0.00000000000E+00 -0.00000000000E+00 -0.16213023793E+03  0.16213023793E+03  0.00000000000E+00 0. -1.
          2    1    1    2  501    0 -0.25896204817E+02  0.55609647339E+01  0.15494252375E+02  0.30685658040E+02  0.00000000000E+00 0. -1.
          1    1    1    2  502    0  0.25896204817E+02 -0.55609647339E+01 -0.15339961442E+03  0.15566945576E+03  0.00000000000E+00 0. -1.
</event>
<event>
 4    1  0.3593938E+003  0.2809958E+02  0.7546771E-02  0.1436865E+00
          2   -1    0    0  502    0  0.00000000000E+00  0.00000000000E+00  0.59337193544E+02  0.59337193544E+02  0.00000000000E+00 0.  1.
          1   -1    0    0  501    0 -0.00000000000E+00 -0.00000000000E+00 -0.74340568112E+03  0.74340568112E+03  0.00000000000E+00 0. -1.
          2    1    1    2  501    0  0.48101101615E+01  0.27684823061E+02  0.55728749543E+02  0.62412179207E+02  0.00000000000E+00 0.  1.
          1    1    1    2  502    0 -0.48101101615E+01 -0.27684823061E+02 -0.73979723712E+03  0.74033069546E+03  0.00000000000E+00 0. -1.
</event>
<event>
 4    1  0.3593938E+003  0.2107444E+02  0.7546771E-02  0.1518205E+00
          2   -1    0    0  502    0  0.00000000000E+00  0.00000000000E+00  0.28977916995E+03  0.28977916995E+03  0.00000000000E+00 0. -1.
          1   -1    0    0  501    0 -0.00000000000E+00 -0.00000000000E+00 -0.13366212195E+04  0.13366212195E+04  0.00000000000E+00 0. -1.
          2    1    1    2  501    0 -0.20409449642E+02 -0.52522839064E+01  0.28931280200E+03  0.29007935039E+03  0.00000000000E+00 0. -1.
          1    1    1    2  502    0  0.20409449642E+02  0.52522839064E+01 -0.13361548516E+04  0.13363210391E+04  0.00000000000E+00 0. -1.
</event>
<event>
 4    1  0.3593938E+003  0.2489022E+02  0.7546771E-02  0.1470035E+00
          2   -1    0    0  502    0  0.00000000000E+00  0.00000000000E+00  0.45824105083E+02  0.45824105083E+02  0.00000000000E+00 0. -1.
          1   -1    0    0  501    0 -0.00000000000E+00 -0.00000000000E+00 -0.13523422621E+02  0.13523422621E+02  0.00000000000E+00 0. -1.
          2    1    1    2  501    0 -0.24428841926E+02  0.47701132242E+01  0.15649635639E+02  0.29401248164E+02  0.00000000000E+00 0. -1.
          1    1    1    2  502    0  0.24428841926E+02 -0.47701132242E+01  0.16651046823E+02  0.29946279540E+02  0.00000000000E+00 0. -1.
</event>
<event>
 4    1  0.3593938E+003  0.4129343E+02  0.7546771E-02  0.1341069E+00
          2   -1    0    0  502    0  0.00000000000E+00  0.00000000000E+00  0.42331121900E+03  0.42331121900E+03  0.00000000000E+00 0.  1.
          1   -1    0    0  501    0 -0.00000000000E+00 -0.00000000000E+00 -0.26314504460E+02  0.26314504460E+02  0.00000000000E+00 0.  1.
          2    1    1    2  501    0 -0.41252451743E+02  0.18392031200E+01  0.40539020906E+03  0.40748787594E+03  0.00000000000E+00 0.  1.
          1    1    1    2  502    0  0.41252451743E+02 -0.18392031200E+01 -0.83934945171E+01  0.42137847514E+02  0.00000000000E+00 0.  1.
</event>
<event>
 4    1  0.3593938E+003  0.3286790E+02  0.7546771E-02  0.1396206E+00
          2   -1    0    0  502    0  0.00000000000E+00  0.00000000000E+00  0.20613863323E+03  0.20613863323E+03  0.00000000000E+00 0.  1.
          1   -1    0    0  501    0 -0.00000000000E+00 -0.00000000000E+00 -0.14052342350E+02  0.14052342350E+02  0.00000000000E+00 0.  1.
          2    1    1    2  501    0 -0.59761099218E+01 -0.32320040886E+02  0.18322477870E+03  0.18614945196E+03  0.00000000000E+00 0.  1.
          1    1    1    2  502    0  0.59761099218E+01  0.32320040886E+02  0.88615121774E+01  0.34041523625E+02  0.00000000000E+00 0.  1.
</event>
<event>
 4    1  0.3593938E+003  0.4085453E+02  0.7546771E-02  0.1343550E+00
          2   -1    0    0  502    0  0.00000000000E+00  0.00000000000E+00  0.23580449887E+04  0.23580449887E+04  0.00000000000E+00 0. -1.
          1   -1    0    0  501    0 -0.00000000000E+00 -0.00000000000E+00 -0.28272124193E+02  0.28272124193E+02  0.00000000000E+00 0.  1.
          2    1    1    2  501    0  0.19162482660E+02  0.36081738743E+02  0.23430141839E+04  0.23433703417E+04  0.00000000000E+00 0. -1.
          1    1    1    2  502    0 -0.19162482660E+02 -0.36081738743E+02 -0.13241319396E+02  0.42946771144E+02  0.00000000000E+00 0.  1.
</event>
<event>
 4    1  0.3593938E+003  0.2007871E+02  0.7546771E-02  0.1532836E+00
          2   -1    0    0  502    0  0.00000000000E+00  0.00000000000E+00  0.17864084317E+03  0.17864084317E+03  0.00000000000E+00 0. -1.
          1   -1    0    0  501    0 -0.00000000000E+00 -0.00000000000E+00 -0.36656493414E+03  0.36656493414E+03  0.00000000000E+00 0. -1.
          2    1    1    2  501    0 -0.77221922470E+01 -0.18534353375E+02  0.17780039624E+03  0.17893053237E+03  0.00000000000E+00 0. -1.
          1    1    1    2  502    0  0.77221922470E+01  0.18534353375E+02 -0.36572448721E+03  0.36627524494E+03  0.00000000000E+00 0. -1.
</event>
<event>
 4    1  0.3593938E+003  0.2470010E+02  0.7546771E-02  0.1472186E+00
          2   -1    0    0  502    0  0.00000000000E+00  0.00000000000E+00  0.13705409283E+04  0.13705409283E+04  0.00000000000E+00 0. -1.
          1   -1    0    0  501    0 -0.00000000000E+00 -0.00000000000E+00 -0.25843534816E+03  0.25843534816E+03  0.00000000000E+00 0. -1.
          2    1    1    2  501    0  0.96082537114E+01  0.22754705307E+02  0.13698391570E+04  0.13700618276E+04  0.00000000000E+00 0. -1.
          1    1    1    2  502    0 -0.96082537114E+01 -0.22754705307E+02 -0.25773357694E+03  0.25891444887E+03  0.00000000000E+00 0. -1.
</event>
<event>
 4    1  0.3593938E+003  0.3033348E+02  0.7546771E-02  0.1416720E+00
          2   -1    0    0  502    0  0.00000000000E+00  0.00000000000E+00  0.75666539351E+01  0.75666539351E+01  0.00000000000E+00 0.  1.
          1   -1    0    0  501    0 -0.00000000000E+00 -0.00000000000E+00 -0.94911989408E+03  0.94911989408E+03  0.00000000000E+00 0. -1.
          2    1    1    2  501    0 -0.25024855784E+02  0.17142831317E+02 -0.24126107739E+02  0.38758084927E+02  0.00000000000E+00 0.  1.
          1    1    1    2  502    0  0.25024855784E+02 -0.17142831317E+02 -0.91742713241E+03  0.91792846309E+03  0.00000000000E+00 0. -1.
</event>
<event>
 4    1  0.3593938E+003  0.2276781E+02  0.7546771E-02  0.1495435E+00
          2   -1    0    0  502    0  0.00000000000E+00  0.00000000000E+00  0.56065595581E+03  0.56065595581E+03  0.00000000000E+00 0. -1.
          1   -1    0    0  501    0 -0.00000000000E+00 -0.00000000000E+00 -0.98937916216E+01  0.98937916216E+01  0.00000000000E+00 0. -1.
          2    1    1    2  501    0 -0.22474172372E+02  0.36448264439E+01  0.54699948772E+03  0.54747311601E+03  0.00000000000E+00 0. -1.
          1    1    1    2  502    0  0.22474172372E+02 -0.36448264439E+01  0.37626764649E+01  0.23076631422E+02  0.00000000000E+00 0. -1.
</event>
<event>
 4    1  0.3593938E+003  0.2185131E+02  0.7546771E-02  0.1507449E+00
          2   -1    0    0  502    0  0.00000000000E+00  0.00000000000E+00  0.81914189985E+03  0.81914189985E+03  0.00000000000E+00 0. -1.
          1   -1    0    0  501    0 -0.00000000000E+00 -0.00000000000E+00 -0.58696190256E+00  0.58696190256E+00  0.00000000000E+00 0. -1.
          2    1    1    2  501    0 -0.10826292231E+02  0.18980806058E+02  0.44336403554E+03  0.44390218249E+03  0.00000000000E+00 0. -1.
          1    1    1    2  502    0  0.10826292231E+02 -0.18980806058E+02  0.37519090241E+03  0.37582667927E+03  0.00000000000E+00 0. -1.
</event>
<event>
 4    1  0.3593938E+003  0.2523406E+02  0.7546771E-02  0.1466202E+00
          2   -1    0    0  502    0  0.00000000000E+00  0.00000000000E+00  0.45064333023E+00  0.45064333023E+00  0.00000000000E+00 0. -1.
          1   -1    0    0  501    0 -0.00000000000E+00 -0.00000000000E+00 -0.14708830722E+04  0.14708830722E+04  0.00000000000E+00 0.  1.
          2    1    1    2  501    0  0.19274522155E+02  0.16286508065E+02 -0.58927424817E+03  0.58981429035E+03  0.00000000000E+00 0. -1.
          1    1    1    2  502    0 -0.19274522155E+02 -0.16286508065E+02 -0.88115818069E+03  0.88151942516E+03  0.00000000000E+00 0.  1.
</event>
<event>
 4    1  0.3593938E+003  0.6412671E+02  0.7546771E-02  0.1246421E+00
          2   -1    0    0  502    0  0.00000000000E+00  0.00000000000E+00  0.36913792933E+03  0.36913792933E+03  0.00000000000E+00 0. -1.
          1   -1    0    0  501    0 -0.00000000000E+00 -0.00000000000E+00 -0.12466748881E+02  0.12466748881E+02  0.00000000000E+00 0. -1.
          2    1    1    2  501    0  0.39024230806E+01 -0.64007855268E+02  0.24057774869E+03  0.24897768495E+03  0.00000000000E+00 0. -1.
          1    1    1    2  502    0 -0.39024230806E+01  0.64007855268E+02  0.11609343176E+03  0.13262699326E+03  0.00000000000E+00 0. -1.
</event>
<event>
 4    1  0.3593938E+003  0.4808917E+02  0.7546771E-02  0.1306677E+00
          2   -1    0    0  502    0  0.00000000000E+00  0.00000000000E+00  0.14301708526E+03  0.14301708526E+03  0.00000000000E+00 0. -1.
          1   -1    0    0  501    0 -0.00000000000E+00 -0.00000000000E+00 -0.52851084963E+02  0.52851084963E+02  0.00000000000E+00 0.  1.
          2    1    1    2  501    0 -0.47335458629E+02 -0.84807321288E+01  0.12667146102E+03  0.13549253669E+03  0.00000000000E+00 0. -1.
          1    1    1    2  502    0  0.47335458629E+02  0.84807321288E+01 -0.36505460729E+02  0.60375633530E+02  0.00000000000E+00 0.  1.
</event>
<event>
 4    1  0.3593938E+003  0.4130663E+02  0.7546771E-02  0.1340995E+00
          2   -1    0    0  502    0  0.00000000000E+00  0.00000000000E+00  0.20182823674E+03  0.20182823674E+03  0.00000000000E+00 0. -1.
          1   -1    0    0  501    0 -0.00000000000E+00 -0.00000000000E+00 -0.40136843720E+02  0.40136843720E+02  0.00000000000E+00 0. -1.
          2    1    1    2  501    0  0.39957640465E+02  0.10470166229E+02  0.18833464047E+03  0.19281123985E+03  0.00000000000E+00 0. -1.
          1    1    1    2  502    0 -0.39957640465E+02 -0.10470166229E+02 -0.26643247446E+02  0.49153840611E+02  0.00000000000E+00 0. -1.
</event>
<event>
 4    1  0.3593938E+003  0.3968462E+02  0.7546771E-02  0.1350344E+00
          2   -1    0    0  502    0  0.00000000000E+00  0.00000000000E+00  0.54987475043E+01  0.54987475043E+01  0.00000000000E+00 0.  1.
          1   -1    0    0  501    0 -0.00000000000E+00 -0.00000000000E+00 -0.14823267419E+04  0.14823267419E+04  0.00000000000E+00 0. -1.
          2    1    1    2  501    0 -0.22916840295E+02  0.32398886580E+02 -0.70221820026E+02  0.80659614606E+02  0.00000000000E+00 0.  1.
          1    1    1    2  502    0  0.22916840295E+02 -0.32398886580E+02 -0.14066061744E+04  0.14071658748E+04  0.00000000000E+00 0. -1.
</event>
<event>
 4    1  0.3593938E+003  0.2539272E+02  0.7546771E-02  0.1464458E+00
          2   -1    0    0  502    0  0.00000000000E+00  0.00000000000E+00  0.67282941701E+02  0.67282941701E+02  0.00000000000E+00 0. -1.
          1   -1    0    0  501    0 -0.00000000000E+00 -0.00000000000E+00 -0.11633607260E+02  0.11633607260E+02  0.00000000000E+00 0.  1.
          2    1    1    2  501    0 -0.25392691253E+02 -0.40446554688E-01  0.44389758912E+02  0.51139428050E+02  0.00000000000E+00 0. -1.
          1    1    1    2  502    0  0.25392691253E+02  0.40446554688E-01  0.11259575530E+02  0.27777120911E+02  0.00000000000E+00 0.  1.
</event>
<event>
 4    1  0.3593938E+003  0.3368888E+02  0.7546771E-02  0.1390023E+00
          2   -1    0    0  502    0  0.00000000000E+00  0.00000000000E+00  0.11359098027E+03  0.11359098027E+03  0.00000000000E+00 0.  1.
          1   -1    0    0  501    0 -0.00000000000E+00 -0.00000000000E+00 -0.10001529734E+02  0.10001529734E+02  0.00000000000E+00 0.  1.
          2    1    1    2  501    0  0.89461208710E+01  0.32479322918E+02  0.49833698701E+02  0.60152614424E+02  0.00000000000E+00 0.  1.
          1    1    1    2  502    0 -0.89461208710E+01 -0.32479322918E+02  0.53755751834E+02  0.63439895579E+02  0.00000000000E+00 0.  1.
</event>
<event>
 4    1  0.3593938E+003  0.2160642E+02  0.7546771E-02  0.1510780E+00
          2   -1    0    0  502    0  0.00000000000E+00  0.00000000000E+00  0.71499454049E+03  0.71499454049E+03  0.00000000000E+00 0.  1.
          1   -1    0    0  501    0 -0.00000000000E+00 -0.00000000000E+00 -0.11980254446E+01  0.11980254446E+01  0.00000000000E+00 0.  1.
          2    1    1    2  501    0 -0.44588063015E+01 -0.21141341210E+02  0.59844732533E+03  0.59883723870E+03  0.00000000000E+00 0.  1.
          1    1    1    2  502    0  0.44588063015E+01  0.21141341210E+02  0.11534918971E+03  0.11735532723E+03  0.00000000000E+00 0.  1.
</event>
<event>
 4    1  0.3593938E+003  0.3957854E+02  0.7546771E-02  0.1350973E+00
          2   -1    0    0  502    0  0.00000000000E+00  0.00000000000E+00  0.10481470385E+03  0.10481470385E+03  0.00000000000E+00 0. -1.
          1   -1    0    0  501    0 -0.00000000000E+00 -0.00000000000E+00 -0.18663277907E+02  0.18663277907E+02  0.00000000000E+00 0.  1.
          2    1    1    2  501    0 -0.18294775749E+02  0.35096470821E+02  0.70632813209E+02  0.80965766751E+02  0.00000000000E+00 0. -1.
          1    1    1    2  502    0  0.18294775749E+02 -0.35096470821E+02  0.15518612737E+02  0.42512215010E+02  0.00000000000E+00 0.  1.
</event>
<event>
 4    1  0.3593938E+003  0.3177988E+02  0.7546771E-02  0.1404735E+00
          2   -1    0    0  502    0  0.00000000000E+00  0.00000000000E+00  0.28212385433E+02  0.28212385433E+02  0.00000000000E+00 0. -1.
          1   -1    0    0  501    0 -0.00000000000E+00 -0.00000000000E+00 -0.51514717492E+03  0.51514717492E+03  0.00000000000E+00 0. -1.
          2    1    1    2  501    0 -0.19717271148E+02  0.24923681195E+02  0.18602677342E+02  0.36824180509E+02  0.00000000000E+00 0. -1.
          1    1    1    2  502    0  0.19717271148E+02 -0.24923681195E+02 -0.50553746683E+03  0.50653537984E+03  0.00000000000E+00 0. -1.
</event>
<event>
 4    1  0.3593938E+003  0.2514313E+02  0.7546771E-02  0.1467208E+00
          2   -1    0    0  502    0  0.00000000000E+00  0.00000000000E+00  0.37741575334E+01  0.37741575334E+01  0.00000000000E+00 0. -1.
          1   -1    0    0  501    0 -0.00000000000E+00 -0.00000000000E+00 -0.29717156285E+03  0.29717156285E+03  0.00000000000E+00 0. -1.
          2    1    1    2  501    0 -0.17142012402E+02 -0.18393705760E+02 -0.47301437867E+02  0.53568675782E+02  0.00000000000E+00 0. -1.
          1    1    1    2  502    0  0.17142012402E+02  0.18393705760E+02 -0.24609596745E+03  0.24737704460E+03  0.00000000000E+00 0. -1.
</event>
<event>
 4    1  0.3593938E+003  0.2500145E+02  0.7546771E-02  0.1468787E+00
          2   -1    0    0  502    0  0.00000000000E+00  0.00000000000E+00  0.50903630222E+03  0.50903630222E+03  0.00000000000E+00 0.  1.
          1   -1    0    0  501    0 -0.00000000000E+00 -0.00000000000E+00 -0.15528538711E+02  0.15528538711E+02  0.00000000000E+00 0. -1.
          2    1    1    2  501    0 -0.18001854158E+02  0.17349511340E+02  0.49845248856E+03  0.49907910761E+03  0.00000000000E+00 0.  1.
          1    1    1    2  502    0  0.18001854158E+02 -0.17349511340E+02 -0.49447250580E+01  0.25485733318E+02  0.00000000000E+00 0. -1.
</event>
<event>
 4    1  0.3593938E+003  0.3861025E+02  0.7546771E-02  0.1356828E+00
          2   -1    0    0  502    0  0.00000000000E+00  0.00000000000E+00  0.20586863975E+03  0.20586863975E+03  0.00000000000E+00 0. -1.
          1   -1    0    0  501    0 -0.00000000000E+00 -0.00000000000E+00 -0.31307232470E+03  0.31307232470E+03  0.00000000000E+00 0.  1.
          2    1    1    2  501    0 -0.20327176221E+02 -0.32826172256E+02  0.20285034435E+03  0.20649216422E+03  0.00000000000E+00 0. -1.
          1    1    1    2  502    0  0.20327176221E+02  0.32826172256E+02 -0.31005402931E+03  0.31244880023E+03  0.00000000000E+00 0.  1.
</event>
<event>
 4    1  0.3593938E+003  0.2595920E+02  0.7546771E-02  0.1458353E+00
          2   -1    0    0  502    0  0.00000000000E+00  0.00000000000E+00  0.41163494373E+02  0.41163494373E+02  0.00000000000E+00 0. -1.
          1   -1    0    0  501    0 -0.00000000000E+00 -0.00000000000E+00 -0.13520182100E+03  0.13520182100E+03  0.00000000000E+00 0.  1.
          2    1    1    2  501    0  0.30326154419E+00  0.25957429028E+02  0.35652522532E+02  0.44101955197E+02  0.00000000000E+00 0. -1.
          1    1    1    2  502    0 -0.30326154419E+00 -0.25957429028E+02 -0.12969084916E+03  0.13226336017E+03  0.00000000000E+00 0.  1.
</event>
<event>
 4    1  0.3593938E+003  0.2133925E+02  0.7546771E-02  0.1514476E+00
          2   -1    0    0  502    0  0.00000000000E+00  0.00000000000E+00  0.33949164711E+03  0.33949164711E+03  0.00000000000E+00 0.  1.
          1   -1    0    0  501    0 -0.00000000000E+00 -0.00000000000E+00 -0.15627789561E+03  0.15627789561E+03  0.00000000000E+00 0. -1.
          2    1    1    2  501    0 -0.15459546709E+02  0.14709383728E+02  0.33842557555E+03  0.33909767582E+03  0.00000000000E+00 0.  1.
          1    1    1    2  502    0  0.15459546709E+02 -0.14709383728E+02 -0.15521182405E+03  0.15667186691E+03  0.00000000000E+00 0. -1.
</event>
<event>
 4    1  0.4496743E+003  0.3713973E+02  0.7546771E-02  0.1366114E+00
          2   -1    0    0  502    0  0.00000000000E+00  0.00000000000E+00  0.98339271552E+03  0.98339271552E+03  0.00000000000E+00 0. -1.
          1   -1    0    0  501    0 -0.00000000000E+00 -0.00000000000E+00 -0.96420358971E+03  0.96420358971E+03  0.00000000000E+00 0. -1.
          2    1    1    2  501    0  0.25388176565E+02  0.27107199174E+02  0.98268415197E+03  0.98338573424E+03  0.00000000000E+00 0. -1.
          1    1    1    2  502    0 -0.25388176565E+02 -0.27107199174E+02 -0.96349502617E+03  0.96421057099E+03  0.00000000000E+00 0. -1.
</event>
<event>
 4    1  0.3593938E+003  0.2495557E+02  0.7546771E-02  0.1469301E+00
          2   -1    0    0  502    0  0.00000000000E+00  0.00000000000E+00  0.27903676612E+03  0.27903676612E+03  0.00000000000E+00 0.  1.
          1   -1    0    0  501    0 -0.00000000000E+00 -0.00000000000E+00 -0.67525173016E+01  0.67525173016E+01  0.00000000000E+00 0.  1.
          2    1    1    2  501    0  0.80690469924E-01  0.24955443551E+02  0.25306035063E+03  0.25428787178E+03  0.00000000000E+00 0.  1.
          1    1    1    2  502    0 -0.80690469924E-01 -0.24955443551E+02  0.19223898186E+02  0.31501411639E+02  0.00000000000E+00 0.  1.
</event>
<event>
 4    1  0.3593938E+003  0.2110986E+02  0.7546771E-02  0.1517702E+00
          2   -1    0    0  502    0  0.00000000000E+00  0.00000000000E+00  0.62151853151E+02  0.62151853151E+02  0.00000000000E+00 0. -1.
          1   -1    0    0  501    0 -0.00000000000E+00 -0.00000000000E+00 -0.20661798419E+03  0.20661798419E+03  0.00000000000E+00 0. -1.
          2    1    1    2  501    0 -0.18512797863E+02  0.10144084277E+02  0.59799585971E+02  0.63416217270E+02  0.00000000000E+00 0. -1.
          1    1    1    2  502    0  0.18512797863E+02 -0.10144084277E+02 -0.20426571701E+03  0.20535362007E+03  0.00000000000E+00 0. -1.
</event>
<event>
 4    1  0.3593938E+003  0.2264962E+02  0.7546771E-02  0.1496945E+00
          2   -1    0    0  502    0  0.00000000000E+00  0.00000000000E+00  0.49422569504E+02  0.49422569504E+02  0.00000000000E+00 0.  1.
          1   -1    0    0  501    0 -0.00000000000E+00 -0.00000000000E+00 -0.53584273250E+03  0.53584273250E+03  0.00000000000E+00 0. -1.
          2    1    1    2  501    0 -0.11996024143E+02  0.19211992469E+02  0.46574368806E+02  0.51789739134E+02  0.00000000000E+00 0.  1.
          1    1    1    2  502    0  0.11996024143E+02 -0.19211992469E+02 -0.53299453180E+03  0.53347556287E+03  0.00000000000E+00 0. -1.
</event>
<event>
 4    1  0.3593938E+003  0.2444433E+02  0.7546771E-02  0.1475117E+00
          2   -1    0    0  502    0  0.00000000000E+00  0.00000000000E+00  0.64166853447E+02  0.64166853447E+02  0.00000000000E+00 0. -1.
          1   -1    0    0  501    0 -0.00000000000E+00 -0.00000000000E+00 -0.25895064726E+02  0.25895064726E+02  0.00000000000E+00 0.  1.
          2    1    1    2  501    0  0.49783025273E+01 -0.23932029008E+02  0.55171707406E+02  0.60344368475E+02  0.00000000000E+00 0. -1.
          1    1    1    2  502    0 -0.49783025273E+01  0.23932029008E+02 -0.16899918685E+02  0.29717549698E+02  0.00000000000E+00 0.  1.
</event>
<event>
 4    1  0.3593938E+003  0.3437342E+02  0.7546771E-02  0.1385022E+00
          2   -1    0    0  502    0  0.00000000000E+00  0.00000000000E+00  0.63088305609E+03  0.63088305609E+03  0.00000000000E+00 0. -1.
          1   -1    0    0  501    0 -0.00000000000E+00 -0.00000000000E+00 -0.10290735639E+03  0.10290735639E+03  0.00000000000E+00 0.  1.
          2    1    1    2  501    0  0.70000429867E+01 -0.33653106623E+02  0.62752914241E+03  0.62846985350E+03  0.00000000000E+00 0. -1.
          1    1    1    2  502    0 -0.70000429867E+01  0.33653106623E+02 -0.99553442710E+02  0.10532055897E+03  0.00000000000E+00 0.  1.
</event>
<event>
 4    1  0.3593938E+003  0.3704774E+02  0.7546771E-02  0.1366712E+00
          2   -1    0    0  502    0  0.00000000000E+00  0.00000000000E+00  0.39789472707E+03  0.39789472707E+03  0.00000000000E+00 0. -1.
          1   -1    0    0  501    0 -0.00000000000E+00 -0.00000000000E+00 -0.38019487524E+01  0.38019487524E+01  0.00000000000E+00 0.  1.
          2    1    1    2  501    0  0.36919434472E+02 -0.30806813111E+01  0.25819930386E+03  0.26084366151E+03  0.00000000000E+00 0. -1.
          1    1    1    2  502    0 -0.36919434472E+02  0.30806813111E+01  0.13589347446E+03  0.14085301430E+03  0.00000000000E+00 0.  1.
</event>
<event>
 4    1  0.3593938E+003  0.3938054E+02  0.7546771E-02  0.1352155E+00
          2   -1    0    0  502    0  0.00000000000E+00  0.00000000000E+00  0.34689657645E+03  0.34689657645E+03  0.00000000000E+00 0.  1.
          1   -1    0    0  501    0 -0.00000000000E+00 -0.00000000000E+00 -0.32058815770E+03  0.32058815770E+03  0.00000000000E+00 0.  1.
          2    1    1    2  501    0 -0.77605307691E+01 -0.38608300061E+02  0.34456140299E+03  0.34680453731E+03  0.00000000000E+00 0.  1.
          1    1    1    2  502    0  0.77605307691E+01  0.38608300061E+02 -0.31825298423E+03  0.32068019684E+03  0.00000000000E+00 0.  1.
</event>
<event>
 4    1  0.5305946E+003  0.2225429E+02  0.7546771E-02  0.1502080E+00
          2   -1    0    0  502    0  0.00000000000E+00  0.00000000000E+00  0.15546670908E+04  0.15546670908E+04  0.00000000000E+00 0. -1.
          1   -1    0    0  501    0 -0.00000000000E+00 -0.00000000000E+00 -0.14319711471E+04  0.14319711471E+04  0.00000000000E+00 0. -1.
          2    1    1    2  501    0 -0.19430224480E+02  0.10849883839E+02  0.15545009781E+04  0.15546602666E+04  0.00000000000E+00 0. -1.
          1    1    1    2  502    0  0.19430224480E+02 -0.10849883839E+02 -0.14318050344E+04  0.14319779713E+04  0.00000000000E+00 0. -1.
</event>
<event>
 4    1  0.3593938E+003  0.1002664E+03  0.7546771E-02  0.1163347E+00
          2   -1    0    0  502    0  0.00000000000E+00  0.00000000000E+00  0.36668106000E+03  0.36668106000E+03  0.00000000000E+00 0.  1.
          1   -1    0    0  501    0 -0.00000000000E+00 -0.00000000000E+00 -0.21838856611E+03  0.21838856611E+03  0.00000000000E+00 0.  1.
          2    1    1    2  501    0  0.52561156798E+02 -0.85385399367E+02  0.34770260757E+03  0.36187075723E+03  0.00000000000E+00 0.  1.
          1    1    1    2  502    0 -0.52561156798E+02  0.85385399367E+02 -0.19941011368E+03  0.22319886888E+03  0.00000000000E+00 0.  1.
</event>
<event>
 4    1  0.3593938E+003  0.2064868E+02  0.7546771E-02  0.1524340E+00
          2   -1    0    0  502    0  0.00000000000E+00  0.00000000000E+00  0.98722325565E+00  0.98722325565E+00  0.00000000000E+00 0. -1.
          1   -1    0    0  501    0 -0.00000000000E+00 -0.00000000000E+00 -0.71108535253E+03  0.71108535253E+03  0.00000000000E+00 0. -1.
          2    1    1    2  501    0 -0.18276621937E+02 -0.96090025192E+01 -0.13195364604E+03  0.13355947193E+03  0.00000000000E+00 0. -1.
          1    1    1    2  502    0  0.18276621937E+02  0.96090025192E+01 -0.57814448323E+03  0.57851310385E+03  0.00000000000E+00 0. -1.
</event>
<event>
 4    1  0.3593938E+003  0.2362535E+02  0.7546771E-02  0.1484791E+00
          2   -1    0    0  502    0  0.00000000000E+00  0.00000000000E+00  0.43526310204E+03  0.43526310204E+03  0.00000000000E+00 0.  1.
          1   -1    0    0  501    0 -0.00000000000E+00 -0.00000000000E+00 -0.47355003510E+02  0.47355003510E+02  0.00000000000E+00 0. -1.
          2    1    1    2  501    0 -0.28391039646E+01  0.23454139383E+02  0.43197342837E+03  0.43261900095E+03  0.00000000000E+00 0.  1.
          1    1    1    2  502    0  0.28391039646E+01 -0.23454139383E+02 -0.44065329847E+02  0.49999104592E+02  0.00000000000E+00 0. -1.
</event>
<event>
 4    1  0.3593938E+003  0.2642811E+02  0.7546771E-02  0.1453439E+00
          2   -1    0    0  502    0  0.00000000000E+00  0.00000000000E+00  0.42877663685E+03  0.42877663685E+03  0.00000000000E+00 0.  1.
          1   -1    0    0  501    0 -0.00000000000E+00 -0.00000000000E+00 -0.26753066812E+01  0.26753066812E+01  0.00000000000E+00 0. -1.
          2    1    1    2  501    0 -0.25632228510E+02  0.64369197959E+01  0.34796579830E+03  0.34896796682E+03  0.00000000000E+00 0.  1.
          1    1    1    2  502    0  0.25632228510E+02 -0.64369197959E+01  0.78135531863E+02  0.82483976713E+02  0.00000000000E+00 0. -1.
</event>
<event>
 4    1  0.3593938E+003  0.2178921E+02  0.7546771E-02  0.1508289E+00
          2   -1    0    0  502    0  0.00000000000E+00  0.00000000000E+00  0.15647912882E+04  0.15647912882E+04  0.00000000000E+00 0. -1.
          1   -1    0    0  501    0 -0.00000000000E+00 -0.00000000000E+00 -0.67259406251E+02  0.67259406251E+02  0.00000000000E+00 0.  1.
          2    1    1    2  501    0 -0.21789008871E+02 -0.92835320794E-01  0.15629486603E+04  0.15631005356E+04  0.00000000000E+00 0. -1.
          1    1    1    2  502    0  0.21789008871E+02  0.92835320794E-01 -0.65416778335E+02  0.68950158910E+02  0.00000000000E+00 0.  1.
</event>
<event>
 4    1  0.3593938E+003  0.2074555E+02  0.7546771E-02  0.1522929E+00
          2   -1    0    0  502    0  0.00000000000E+00  0.00000000000E+00  0.49110119001E+03  0.49110119001E+03  0.00000000000E+00 0. -1.
          1   -1    0    0  501    0 -0.00000000000E+00 -0.00000000000E+00 -0.87300884913E+02  0.87300884913E+02  0.00000000000E+00 0.  1.
          2    1    1    2  501    0 -0.16128280214E+02  0.13048230564E+02  0.48964598546E+03  0.49008526689E+03  0.00000000000E+00 0. -1.
          1    1    1    2  502    0  0.16128280214E+02 -0.13048230564E+02 -0.85845680365E+02  0.88316808032E+02  0.00000000000E+00 0.  1.
</event>
<event>
 4    1  0.3593938E+003  0.2112644E+02  0.7546771E-02  0.1517467E+00
          2   -1    0    0  502    0  0.00000000000E+00  0.00000000000E+00  0.34756430086E+03  0.34756430086E+03  0.00000000000E+00 0. -1.
          1   -1    0    0  501    0 -0.00000000000E+00 -0.00000000000E+00 -0.40725937461E+02  0.40725937461E+02  0.00000000000E+00 0.  1.
          2    1    1    2  501    0 -0.63261298544E+01  0.20157049666E+02  0.34447892784E+03  0.34512614838E+03  0.00000000000E+00 0. -1.
          1    1    1    2  502    0  0.63261298544E+01 -0.20157049666E+02 -0.37640564434E+02  0.43164089948E+02  0.00000000000E+00 0.  1.
</event>
<event>
 4    1  0.3593938E+003  0.3238378E+02  0.7546771E-02  0.1399952E+00
          2   -1    0    0  502    0  0.00000000000E+00  0.00000000000E+00  0.23019720452E+03  0.23019720452E+03  0.00000000000E+00 0. -1.
          1   -1    0    0  501    0 -0.00000000000E+00 -0.00000000000E+00 -0.56858220233E+01  0.56858220233E+01  0.00000000000E+00 0. -1.
          2    1    1    2  501    0  0.27847314152E+02 -0.16529857688E+02  0.16483719329E+03  0.16798812277E+03  0.00000000000E+00 0. -1.
          1    1    1    2  502    0 -0.27847314152E+02  0.16529857688E+02  0.59674189209E+02  0.67894903774E+02  0.00000000000E+00 0. -1.
</event>
<event>
 4    1  0.3593938E+003  0.2323694E+02  0.7546771E-02  0.1489544E+00
          2   -1    0    0  502    0  0.00000000000E+00  0.00000000000E+00  0.15070134242E+04  0.15070134242E+04  0.00000000000E+00 0. -1.
          1   -1    0    0  501    0 -0.00000000000E+00 -0.00000000000E+00 -0.60034401176E+00  0.60034401176E+00  0.00000000000E+00 0. -1.
          2    1    1    2  501    0  0.20195348233E+02  0.11493627140E+02  0.12318493698E+04  0.12320685149E+04  0.00000000000E+00 0. -1.
          1    1    1    2  502    0 -0.20195348233E+02 -0.11493627140E+02  0.27456371036E+03  0.27554525328E+03  0.00000000000E+00 0. -1.
</event>
<event>
 4    1  0.3593938E+003  0.2132611E+02  0.7546771E-02  0.1514660E+00
          2   -1    0    0  502    0  0.00000000000E+00  0.00000000000E+00  0.72917800386E+00  0.72917800386E+00  0.00000000000E+00 0.  1.
          1   -1    0    0  501    0 -0.00000000000E+00 -0.00000000000E+00 -0.68469934448E+03  0.68469934448E+03  0.00000000000E+00 0. -1.
          2    1    1    2  501    0 -0.53899000595E+01  0.20633742122E+02 -0.44426170397E+03  0.44477327252E+03  0.00000000000E+00 0.  1.
          1    1    1    2  502    0  0.53899000595E+01 -0.20633742122E+02 -0.23970846251E+03  0.24065524996E+03  0.00000000000E+00 0. -1.
</event>
<event>
 4    1  0.3593938E+003  0.2590714E+02  0.7546771E-02  0.1458906E+00
          2   -1    0    0  502    0  0.00000000000E+00  0.00000000000E+00  0.31681153876E+01  0.31681153876E+01  0.00000000000E+00 0. -1.
          1   -1    0    0  501    0 -0.00000000000E+00 -0.00000000000E+00 -0.21223873021E+03  0.21223873021E+03  0.00000000000E+00 0.  1.
          2    1    1    2  501    0 -0.25442218171E+02  0.48859918676E+01 -0.10911814255E+03  0.11215145302E+03  0.00000000000E+00 0. -1.
          1    1    1    2  502    0  0.25442218171E+02 -0.48859918676E+01 -0.99952472276E+02  0.10325539258E+03  0.00000000000E+00 0.  1.
</event>
<event>
 4    1  0.3593938E+003  0.2316184E+02  0.7546771E-02  0.1490476E+00
          2   -1    0    0  502    0  0.00000000000E+00  0.00000000000E+00  0.19474403634E+03  0.19474403634E+03  0.00000000000E+00 0.  1.
          1   -1    0    0  501    0 -0.00000000000E+00 -0.00000000000E+00 -0.28315647274E+02  0.28315647274E+02  0.00000000000E+00 0.  1.
          2    1    1    2  501    0 -0.17207275066E+02 -0.15504204930E+02  0.18918003971E+03  0.19059264968E+03  0.00000000000E+00 0.  1.
          1    1    1    2  502    0  0.17207275066E+02  0.15504204930E+02 -0.22751650644E+02  0.32467033938E+02  0.00000000000E+00 0.  1.
</event>
<event>
 4    1  0.3593938E+003  0.2089318E+02  0.7546771E-02  0.1520795E+00
          2   -1    0    0  502    0  0.00000000000E+00  0.00000000000E+00  0.10540914212E+04  0.10540914212E+04  0.00000000000E+00 0.  1.
          1   -1    0    0  501    0 -0.00000000000E+00 -0.00000000000E+00 -0.41593717873E+01  0.41593717873E+01  0.00000000000E+00 0. -1.
          2    1    1    2  501    0 -0.20420468834E+02 -0.44192283472E+01  0.10270599682E+04  0.10272724582E+04  0.00000000000E+00 0.  1.
          1    1    1    2  502    0  0.20420468834E+02  0.44192283472E+01  0.22872081231E+02  0.30978334791E+02  0.00000000000E+00 0. -1.
</event>
<event>
 4    1  0.3593938E+003  0.2976651E+02  0.7546771E-02  0.1421637E+00
          2   -1    0    0  502    0  0.00000000000E+00  0.00000000000E+00  0.89182946639E+03  0.89182946639E+03  0.00000000000E+00 0. -1.
          1   -1    0    0  501    0 -0.00000000000E+00 -0.00000000000E+00 -0.14600132952E+01  0.14600132952E+01  0.00000000000E+00 0. -1.
          2    1    1    2  501    0  0.59781866884E+01 -0.29160009781E+02  0.69765450861E+03  0.69828923683E+03  0.00000000000E+00 0. -1.
          1    1    1    2  502    0 -0.59781866884E+01  0.29160009781E+02  0.19271494448E+03  0.19500024286E+03  0.00000000000E+00 0. -1.
</event>
<event>
 4    1  0.3593938E+003  0.3397737E+02  0.7546771E-02  0.1387899E+00
          2   -1    0    0  502    0  0.00000000000E+00  0.00000000000E+00  0.32835580433E+03  0.32835580433E+03  0.00000000000E+00 0. -1.
          1   -1    0    0  501    0 -0.00000000000E+00 -0.00000000000E+00 -0.16112303632E+02  0.16112303632E+02  0.00000000000E+00 0.  1.
          2    1    1    2  501    0 -0.19656623007E+02 -0.27714233533E+02  0.30840906590E+03  0.31027506103E+03  0.00000000000E+00 0. -1.
          1    1    1    2  502    0  0.19656623007E+02  0.27714233533E+02  0.38344347996E+01  0.34193046933E+02  0.00000000000E+00 0.  1.
</event>
<event>
 4    1  0.3593938E+003  0.3315145E+02  0.7546771E-02  0.1394046E+00
          2   -1    0    0  502    0  0.00000000000E+00  0.00000000000E+00  0.12847128673E+02  0.12847128673E+02  0.00000000000E+00 0. -1.
          1   -1    0    0  501    0 -0.00000000000E+00 -0.00000000000E+00 -0.56873900718E+03  0.56873900718E+03  0.00000000000E+00 0.  1.
          2    1    1    2  501    0 -0.30211132921E+02  0.13649395677E+02 -0.99131481340E+01  0.34601864988E+02  0.00000000000E+00 0. -1.
          1    1    1    2  502    0  0.30211132921E+02 -0.13649395677E+02 -0.54597873037E+03  0.54698427086E+03  0.00000000000E+00 0.  1.
</event>
<event>
 4    1  0.3593938E+003  0.2736356E+02  0.7546771E-02  0.1443990E+00
          2   -1    0    0  502    0  0.00000000000E+00  0.00000000000E+00  0.64898317318E+02  0.64898317318E+02  0.00000000000E+00 0.  1.
          1   -1    0    0  501    0 -0.00000000000E+00 -0.00000000000E+00 -0.12404897625E+03  0.12404897625E+03  0.00000000000E+00 0.  1.
          2    1    1    2  501    0  0.50415302321E+01 -0.26895120936E+02  0.60397730835E+02  0.66307242797E+02  0.00000000000E+00 0.  1.
          1    1    1    2  502    0 -0.50415302321E+01  0.26895120936E+02 -0.11954838977E+03  0.12264005077E+03  0.00000000000E+00 0.  1.
</event>
<event>
 4    1  0.3593938E+003  0.3257600E+02  0.7546771E-02  0.1398455E+00
          2   -1    0    0  502    0  0.00000000000E+00  0.00000000000E+00  0.10063932121E+03  0.10063932121E+03  0.00000000000E+00 0. -1.
          1   -1    0    0  501    0 -0.00000000000E+00 -0.00000000000E+00 -0.60560500476E+02  0.60560500476E+02  0.00000000000E+00 0.  1.
          2    1    1    2  501    0 -0.30799284117E+02 -0.10611294361E+02  0.93287134433E+02  0.98811360282E+02  0.00000000000E+00 0. -1.
          1    1    1    2  502    0  0.30799284117E+02  0.10611294361E+02 -0.53208313696E+02  0.62388461405E+02  0.00000000000E+00 0.  1.
</event>
<event>
 4    1  0.3593938E+003  0.2852694E+02  0.7546771E-02  0.1432845E+00
          2   -1    0    0  502    0  0.00000000000E+00  0.00000000000E+00  0.58264483037E+03  0.58264483037E+03  0.00000000000E+00 0.  1.
          1   -1    0    0  501    0 -0.00000000000E+00 -0.00000000000E+00 -0.54343027696E+02  0.54343027696E+02  0.00000000000E+00 0. -1.
          2    1    1    2  501    0 -0.19426160512E+02 -0.20890447945E+02  0.57852526168E+03  0.57922816310E+03  0.00000000000E+00 0.  1.
          1    1    1    2  502    0  0.19426160512E+02  0.20890447945E+02 -0.50223459007E+02  0.57759694963E+02  0.00000000000E+00 0. -1.
</event>
<event>
 4    1  0.3593938E+003  0.2396999E+02  0.7546771E-02  0.1480664E+00
          2   -1    0    0  502    0  0.00000000000E+00  0.00000000000E+00  0.25950765330E+00  0.25950765330E+00  0.00000000000E+00 0.  1.
          1   -1    0    0  501    0 -0.00000000000E+00 -0.00000000000E+00 -0.24308098762E+04  0.24308098762E+04  0.00000000000E+00 0.  1.
          2    1    1    2  501    0 -0.99749660195E+01 -0.21795883412E+02 -0.85228847433E+03  0.85262547695E+03  0.00000000000E+00 0.  1.
          1    1    1    2  502    0  0.99749660195E+01  0.21795883412E+02 -0.15782618942E+04  0.15784439069E+04  0.00000000000E+00 0.  1.
</event>
<event>
 4    1  0.3593938E+003  0.2229942E+02  0.7546771E-02  0.1501488E+00
          2   -1    0    0  502    0  0.00000000000E+00  0.00000000000E+00  0.11699168170E+02  0.11699168170E+02  0.00000000000E+00 0.  1.
          1   -1    0    0  501    0 -0.00000000000E+00 -0.00000000000E+00 -0.65421532912E+03  0.65421532912E+03  0.00000000000E+00 0.  1.
          2    1    1    2  501    0 -0.17468340181E+01 -0.22230894106E+02  0.70145938459E+00  0.22310448833E+02  0.00000000000E+00 0.  1.
          1    1    1    2  502    0  0.17468340181E+01  0.22230894106E+02 -0.64321762034E+03  0.64360404846E+03  0.00000000000E+00 0.  1.
</event>
<event>
 4    1  0.3593938E+003  0.4907676E+02  0.7546771E-02  0.1302226E+00
          2   -1    0    0  502    0  0.00000000000E+00  0.00000000000E+00  0.51138831651E+03  0.51138831651E+03  0.00000000000E+00 0. -1.
          1   -1    0    0  501    0 -0.00000000000E+00 -0.00000000000E+00 -0.62286993343E+01  0.62286993343E+01  0.00000000000E+00 0. -1.
          2    1    1    2  501    0  0.41270776838E+02  0.26556572359E+02  0.38038445285E+03  0.38353730005E+03  0.00000000000E+00 0. -1.
          1    1    1    2  502    0 -0.41270776838E+02 -0.26556572359E+02  0.12477516433E+03  0.13407971580E+03  0.00000000000E+00 0. -1.
</event>
<event>
 4    1  0.3593938E+003  0.3123464E+02  0.7546771E-02  0.1409162E+00
          2   -1    0    0  502    0  0.00000000000E+00  0.00000000000E+00  0.63643620339E+03  0.63643620339E+03  0.00000000000E+00 0. -1.
          1   -1    0    0  501    0 -0.00000000000E+00 -0.00000000000E+00 -0.58100557351E+01  0.58100557351E+01  0.00000000000E+00 0.  1.
          2    1    1    2  501    0  0.30645551487E+02  0.60376284847E+01  0.59083628677E+03  0.59166132251E+03  0.00000000000E+00 0. -1.
          1    1    1    2  502    0 -0.30645551487E+02 -0.60376284847E+01  0.39789860883E+02  0.50584936619E+02  0.00000000000E+00 0.  1.
</event>
<event>
 4    1  0.3593938E+003  0.2816971E+02  0.7546771E-02  0.1436199E+00
          2   -1    0    0  502    0  0.00000000000E+00  0.00000000000E+00  0.20515147509E+01  0.20515147509E+01  0.00000000000E+00 0.  1.
          1   -1    0    0  501    0 -0.00000000000E+00 -0.00000000000E+00 -0.62854529063E+03  0.62854529063E+03  0.00000000000E+00 0. -1.
          2    1    1    2  501    0 -0.23487236731E+01 -0.28071624477E+02 -0.11770961197E+03  0.12103340594E+03  0.00000000000E+00 0.  1.
          1    1    1    2  502    0  0.23487236731E+01  0.28071624477E+02 -0.50878416391E+03  0.50956339944E+03  0.00000000000E+00 0. -1.
</event>
<event>
 4    1  0.3593938E+003  0.2471658E+02  0.7546771E-02  0.1471999E+00
          2   -1    0    0  502    0  0.00000000000E+00  0.00000000000E+00  0.10286942896E+02  0.10286942896E+02  0.00000000000E+00 0. -1.
          1   -1    0    0  501    0 -0.00000000000E+00 -0.00000000000E+00 -0.99728920915E+02  0.99728920915E+02  0.00000000000E+00 0.  1.
          2    1    1    2  501    0  0.20641781293E+02 -0.13595080048E+02 -0.97350329709E+01  0.26564641978E+02  0.00000000000E+00 0. -1.
          1    1    1    2  502    0 -0.20641781293E+02  0.13595080048E+02 -0.79706945048E+02  0.83451221833E+02  0.00000000000E+00 0.  1.
</event>
<event>
 4    1  0.3593938E+003  0.5910789E+02  0.7546771E-02  0.1262894E+00
          2   -1    0    0  502    0  0.00000000000E+00  0.00000000000E+00  0.15773006584E+04  0.15773006584E+04  0.00000000000E+00 0.  1.
          1   -1    0    0  501    0 -0.00000000000E+00 -0.00000000000E+00 -0.65209966424E+02  0.65209966424E+02  0.00000000000E+00 0. -1.
          2    1    1    2  501    0 -0.30785979881E+02  0.50457563369E+02  0.15632322021E+04  0.15643492769E+04  0.00000000000E+00 0.  1.
          1    1    1    2  502    0  0.30785979881E+02 -0.50457563369E+02 -0.51141510135E+02  0.78161347975E+02  0.00000000000E+00 0. -1.
</event>
<event>
 4    1  0.3593938E+003  0.3250091E+02  0.7546771E-02  0.1399039E+00
          2   -1    0    0  502    0  0.00000000000E+00  0.00000000000E+00  0.12142781943E+02  0.12142781943E+02  0.00000000000E+00 0. -1.
          1   -1    0    0  501    0 -0.00000000000E+00 -0.00000000000E+00 -0.10299231050E+03  0.10299231050E+03  0.00000000000E+00 0.  1.
          2    1    1    2  501    0  0.32492608197E+02 -0.73456274031E+00 -0.22733583883E+02  0.39662639928E+02  0.00000000000E+00 0. -1.
          1    1    1    2  502    0 -0.32492608197E+02  0.73456274031E+00 -0.68115944673E+02  0.75472452515E+02  0.00000000000E+00 0.  1.
</event>
<event>
 4    1  0.3593938E+003  0.2067476E+02  0.7546771E-02  0.1523959E+00
          2   -1    0    0  502    0  0.00000000000E+00  0.00000000000E+00  0.37149806301E+02  0.37149806301E+02  0.00000000000E+00 0. -1.
          1   -1    0    0  501    0 -0.00000000000E+00 -0.00000000000E+00 -0.52872866235E+02  0.52872866235E+02  0.00000000000E+00 0.  1.
          2    1    1    2  501    0  0.19899152683E+02  0.56097743989E+01  0.31952099051E+02  0.38057620525E+02  0.00000000000E+00 0. -1.
          1    1    1    2  502    0 -0.19899152683E+02 -0.56097743989E+01 -0.47675158984E+02  0.51965052011E+02  0.00000000000E+00 0.  1.
</event>
<event>
 4    1  0.3593938E+003  0.2547918E+02  0.7546771E-02  0.1463514E+00
          2   -1    0    0  502    0  0.00000000000E+00  0.00000000000E+00  0.11448869253E+03  0.11448869253E+03  0.00000000000E+00 0.  1.
          1   -1    0    0  501    0 -0.00000000000E+00 -0.00000000000E+00 -0.66866701446E+02  0.66866701446E+02  0.00000000000E+00 0.  1.
          2    1    1    2  501    0 -0.23075526761E+02 -0.10803176701E+02  0.11055877583E+03  0.11345673834E+03  0.00000000000E+00 0.  1.
          1    1    1    2  502    0  0.23075526761E+02  0.10803176701E+02 -0.62936784749E+02  0.67898655632E+02  0.00000000000E+00 0.  1.
</event>
<event>
 4    1  0.3593938E+003  0.2393730E+02  0.7546771E-02  0.1481052E+00
          2   -1    0    0  502    0  0.00000000000E+00  0.00000000000E+00  0.23270470207E+03  0.23270470207E+03  0.00000000000E+00 0.  1.
          1   -1    0    0  501    0 -0.00000000000E+00 -0.00000000000E+00 -0.55279624807E+02  0.55279624807E+02  0.00000000000E+00 0.  1.
          2    1    1    2  501    0 -0.23935693064E+02 -0.27753995612E+00  0.22946124570E+03  0.23070643187E+03  0.00000000000E+00 0.  1.
          1    1    1    2  502    0  0.23935693064E+02  0.27753995612E+00 -0.52036168433E+02  0.57277895004E+02  0.00000000000E+00 0.  1.
</event>
<event>
 4    1  0.3593938E+003  0.2111955E+02  0.7546771E-02  0.1517565E+00
          2   -1    0    0  502    0  0.00000000000E+00  0.00000000000E+00  0.19327273088E+03  0.19327273088E+03  0.00000000000E+00 0.  1.
          1   -1    0    0  501    0 -0.00000000000E+00 -0.00000000000E+00 -0.13739021429E+04  0.13739021429E+04  0.00000000000E+00 0.  1.
          2    1    1    2  501    0 -0.19763677899E+02  0.74453029043E+01  0.19261434122E+03  0.19376872798E+03  0.00000000000E+00 0.  1.
          1    1    1    2  502    0  0.19763677899E+02 -0.74453029043E+01 -0.13732437532E+04  0.13734061458E+04  0.00000000000E+00 0.  1.
</event>
<event>
 4    1  0.3593938E+003  0.2087151E+02  0.7546771E-02  0.1521107E+00
          2   -1    0    0  502    0  0.00000000000E+00  0.00000000000E+00  0.28226186154E+01  0.28226186154E+01  0.00000000000E+00 0. -1.
          1   -1    0    0  501    0 -0.00000000000E+00 -0.00000000000E+00 -0.58109191129E+03  0.58109191129E+03  0.00000000000E+00 0. -1.
          2    1    1    2  501    0 -0.17782543236E+02  0.10927082600E+02 -0.38933813317E+02  0.44175352828E+02  0.00000000000E+00 0. -1.
          1    1    1    2  502    0  0.17782543236E+02 -0.10927082600E+02 -0.53933547936E+03  0.53973917708E+03  0.00000000000E+00 0. -1.
</event>
<event>
 4    1  0.3593938E+003  0.2627022E+02  0.7546771E-02  0.1455080E+00
          2   -1    0    0  502    0  0.00000000000E+00  0.00000000000E+00  0.84095989979E+01  0.84095989979E+01  0.00000000000E+00 0.  1.
          1   -1    0    0  501    0 -0.00000000000E+00 -0.00000000000E+00 -0.19314172500E+03  0.19314172500E+03  0.00000000000E+00 0.  1.
          2    1    1    2  501    0  0.21174365116E+02  0.15548973844E+02 -0.15941787747E+02  0.30728893931E+02  0.00000000000E+00 0.  1.
          1    1    1    2  502    0 -0.21174365116E+02 -0.15548973844E+02 -0.16879033825E+03  0.17082243007E+03  0.00000000000E+00 0.  1.
</event>
<event>
 4    1  0.3593938E+003  0.2161804E+02  0.7546771E-02  0.1510621E+00
          2   -1    0    0  502    0  0.00000000000E+00  0.00000000000E+00  0.88611051958E+02  0.88611051958E+02  0.00000000000E+00 0.  1.
          1   -1    0    0  501    0 -0.00000000000E+00 -0.00000000000E+00 -0.26766557873E+03  0.26766557873E+03  0.00000000000E+00 0.  1.
          2    1    1    2  501    0 -0.86429764698E+01  0.19815115984E+02  0.86847309935E+02  0.89497458660E+02  0.00000000000E+00 0.  1.
          1    1    1    2  502    0  0.86429764698E+01 -0.19815115984E+02 -0.26590183671E+03  0.26677917203E+03  0.00000000000E+00 0.  1.
</event>
<event>
 4    1  0.3593938E+003  0.2745354E+02  0.7546771E-02  0.1443105E+00
          2   -1    0    0  502    0  0.00000000000E+00  0.00000000000E+00  0.40806335320E+03  0.40806335320E+03  0.00000000000E+00 0.  1.
          1   -1    0    0  501    0 -0.00000000000E+00 -0.00000000000E+00 -0.29643026701E+02  0.29643026701E+02  0.00000000000E+00 0.  1.
          2    1    1    2  501    0 -0.25231560824E+02  0.10819678174E+02  0.40113550417E+03  0.40207386113E+03  0.00000000000E+00 0.  1.
          1    1    1    2  502    0  0.25231560824E+02 -0.10819678174E+02 -0.22715177671E+02  0.35632518772E+02  0.00000000000E+00 0.  1.
</event>
<event>
 4    1  0.3593938E+003  0.2044428E+02  0.7546771E-02  0.1527349E+00
          2   -1    0    0  502    0  0.00000000000E+00  0.00000000000E+00  0.37171208791E+02  0.37171208791E+02  0.00000000000E+00 0.  1.
          1   -1    0    0  501    0 -0.00000000000E+00 -0.00000000000E+00 -0.22930175616E+02  0.22930175616E+02  0.00000000000E+00 0. -1.
          2    1    1    2  501    0 -0.32199835405E+01 -0.20189116750E+02  0.28573078638E+02  0.35133880400E+02  0.00000000000E+00 0.  1.
          1    1    1    2  502    0  0.32199835405E+01  0.20189116750E+02 -0.14332045463E+02  0.24967504006E+02  0.00000000000E+00 0. -1.
</event>
<event>
 4    1  0.3593938E+003  0.3156479E+02  0.7546771E-02  0.1406469E+00
          2   -1    0    0  502    0  0.00000000000E+00  0.00000000000E+00  0.84290112268E+03  0.84290112268E+03  0.00000000000E+00 0.  1.
          1   -1    0    0  501    0 -0.00000000000E+00 -0.00000000000E+00 -0.21329135729E+02  0.21329135729E+02  0.00000000000E+00 0. -1.
          2    1    1    2  501    0 -0.29394869018E+02 -0.11501207024E+02  0.83075685050E+03  0.83135628989E+03  0.00000000000E+00 0.  1.
          1    1    1    2  502    0  0.29394869018E+02  0.11501207024E+02 -0.91848635509E+01  0.32873968517E+02  0.00000000000E+00 0. -1.
</event>
<event>
 4    1  0.3593938E+003  0.4362924E+02  0.7546771E-02  0.1328438E+00
          2   -1    0    0  502    0  0.00000000000E+00  0.00000000000E+00  0.22611852249E+04  0.22611852249E+04  0.00000000000E+00 0.  1.
          1   -1    0    0  501    0 -0.00000000000E+00 -0.00000000000E+00 -0.11220806861E+01  0.11220806861E+01  0.00000000000E+00 0.  1.
          2    1    1    2  501    0 -0.43714834449E+01  0.43409683342E+02  0.16953469643E+04  0.16959082640E+04  0.00000000000E+00 0.  1.
          1    1    1    2  502    0  0.43714834449E+01 -0.43409683342E+02  0.56471617987E+03  0.56639904156E+03  0.00000000000E+00 0.  1.
</event>
<event>
 4    1  0.3593938E+003  0.2623959E+02  0.7546771E-02  0.1455400E+00
          2   -1    0    0  502    0  0.00000000000E+00  0.00000000000E+00  0.13292145591E+04  0.13292145591E+04  0.00000000000E+00 0. -1.
          1   -1    0    0  501    0 -0.00000000000E+00 -0.00000000000E+00 -0.92711982572E+01  0.92711982572E+01  0.00000000000E+00 0. -1.
          2    1    1    2  501    0  0.25141686470E+02 -0.75107670630E+01  0.13102503772E+04  0.13105130930E+04  0.00000000000E+00 0. -1.
          1    1    1    2  502    0 -0.25141686470E+02  0.75107670630E+01  0.96929837010E+01  0.27972664397E+02  0.00000000000E+00 0. -1.
</event>
<event>
 4    1  0.3593938E+003  0.2146004E+02  0.7546771E-02  0.1512797E+00
          2   -1    0    0  502    0  0.00000000000E+00  0.00000000000E+00  0.53020857544E+03  0.53020857544E+03  0.00000000000E+00 0. -1.
          1   -1    0    0  501    0 -0.00000000000E+00 -0.00000000000E+00 -0.14155824255E+01  0.14155824255E+01  0.00000000000E+00 0. -1.
          2    1    1    2  501    0  0.17909806280E+02 -0.11822530328E+02  0.42963001401E+03  0.43016564521E+03  0.00000000000E+00 0. -1.
          1    1    1    2  502    0 -0.17909806280E+02  0.11822530328E+02  0.99162979005E+02  0.10145851265E+03  0.00000000000E+00 0. -1.
</event>
<event>
 4    1  0.3593938E+003  0.3235543E+02  0.7546771E-02  0.1400174E+00
          2   -1    0    0  502    0  0.00000000000E+00  0.00000000000E+00  0.23621321217E+03  0.23621321217E+03  0.00000000000E+00 0.  1.
          1   -1    0    0  501    0 -0.00000000000E+00 -0.00000000000E+00 -0.73010846213E+01  0.73010846213E+01  0.00000000000E+00 0. -1.
          2    1    1    2  501    0 -0.31589478640E+02  0.69984667072E+01  0.19078336526E+03  0.19350753514E+03  0.00000000000E+00 0.  1.
          1    1    1    2  502    0  0.31589478640E+02 -0.69984667072E+01  0.38128762291E+02  0.50006761651E+02  0.00000000000E+00 0. -1.
</event>
<event>
 4    1  0.3593938E+003  0.2822813E+02  0.7546771E-02  0.1435647E+00
          2   -1    0    0  502    0  0.00000000000E+00  0.00000000000E+00  0.80417272226E+01  0.80417272226E+01  0.00000000000E+00 0.  1.
          1   -1    0    0  501    0 -0.00000000000E+00 -0.00000000000E+00 -0.65424272093E+03  0.65424272093E+03  0.00000000000E+00 0. -1.
          2    1    1    2  501    0  0.16766677062E+02 -0.22709162033E+02 -0.18063389803E+02  0.33512886345E+02  0.00000000000E+00 0.  1.
          1    1    1    2  502    0 -0.16766677062E+02  0.22709162033E+02 -0.62813760390E+03  0.62877156181E+03  0.00000000000E+00 0. -1.
</event>
<event>
 4    1  0.3593938E+003  0.2445437E+02  0.7546771E-02  0.1475001E+00
          2   -1    0    0  502    0  0.00000000000E+00  0.00000000000E+00  0.14300265329E+02  0.14300265329E+02  0.00000000000E+00 0.  1.
          1   -1    0    0  501    0 -0.00000000000E+00 -0.00000000000E+00 -0.25807089851E+03  0.25807089851E+03  0.00000000000E+00 0.  1.
          2    1    1    2  501    0 -0.22892578998E+02  0.85991794329E+01  0.27789686533E+01  0.24611759930E+02  0.00000000000E+00 0.  1.
          1    1    1    2  502    0  0.22892578998E+02 -0.85991794329E+01 -0.24654960183E+03  0.24775940391E+03  0.00000000000E+00 0.  1.
</event>
<event>
 4    1  0.3593938E+003  0.2017197E+02  0.7546771E-02  0.1531423E+00
          2   -1    0    0  502    0  0.00000000000E+00  0.00000000000E+00  0.74281438905E+01  0.74281438905E+01  0.00000000000E+00 0.  1.
          1   -1    0    0  501    0 -0.00000000000E+00 -0.00000000000E+00 -0.11436757826E+03  0.11436757826E+03  0.00000000000E+00 0.  1.
          2    1    1    2  501    0 -0.19260551993E+02  0.59949694758E+01 -0.95124185367E+01  0.22302345807E+02  0.00000000000E+00 0.  1.
          1    1    1    2  502    0  0.19260551993E+02 -0.59949694758E+01 -0.97427015835E+02  0.99493376346E+02  0.00000000000E+00 0.  1.
</event>
<event>
 4    1  0.3593938E+003  0.2168119E+02  0.7546771E-02  0.1509757E+00
          2   -1    0    0  502    0  0.00000000000E+00  0.00000000000E+00  0.14474365524E+03  0.14474365524E+03  0.00000000000E+00 0.  1.
          1   -1    0    0  501    0 -0.00000000000E+00 -0.00000000000E+00 -0.12430940441E+03  0.12430940441E+03  0.00000000000E+00 0. -1.
          2    1    1    2  501    0 -0.15929111865E+02  0.14708416299E+02  0.14297474626E+03  0.14460930877E+03  0.00000000000E+00 0.  1.
          1    1    1    2  502    0  0.15929111865E+02 -0.14708416299E+02 -0.12254049543E+03  0.12444375089E+03  0.00000000000E+00 0. -1.
</event>
<event>
 4    1  0.3593938E+003  0.2183539E+02  0.7546771E-02  0.1507664E+00
          2   -1    0    0  502    0  0.00000000000E+00  0.00000000000E+00  0.54843135162E+01  0.54843135162E+01  0.00000000000E+00 0. -1.
          1   -1    0    0  501    0 -0.00000000000E+00 -0.00000000000E+00 -0.25873934905E+03  0.25873934905E+03  0.00000000000E+00 0.  1.
          2    1    1    2  501    0  0.21834668329E+02 -0.17717868625E+00 -0.18974472753E+02  0.28927750510E+02  0.00000000000E+00 0. -1.
          1    1    1    2  502    0 -0.21834668329E+02  0.17717868625E+00 -0.23428056278E+03  0.23529591206E+03  0.00000000000E+00 0.  1.
</event>
<event>
 4    1  0.3593938E+003  0.2108125E+02  0.7546771E-02  0.1518108E+00
          2   -1    0    0  502    0  0.00000000000E+00  0.00000000000E+00  0.15976957228E+02  0.15976957228E+02  0.00000000000E+00 0.  1.
          1   -1    0    0  501    0 -0.00000000000E+00 -0.00000000000E+00 -0.49810343287E+03  0.49810343287E+03  0.00000000000E+00 0.  1.
          2    1    1    2  501    0 -0.78566945637E+01  0.19562498005E+02  0.86967403331E+01  0.22804654571E+02  0.00000000000E+00 0.  1.
          1    1    1    2  502    0  0.78566945637E+01 -0.19562498005E+02 -0.49082321597E+03  0.49127573553E+03  0.00000000000E+00 0.  1.
</event>
<event>
 4    1  0.3593938E+003  0.3804098E+02  0.7546771E-02  0.1360364E+00
          2   -1    0    0  502    0  0.00000000000E+00  0.00000000000E+00  0.23926039601E+04  0.23926039601E+04  0.00000000000E+00 0.  1.
          1   -1    0    0  501    0 -0.00000000000E+00 -0.00000000000E+00 -0.13132165539E+03  0.13132165539E+03  0.00000000000E+00 0. -1.
          2    1    1    2  501    0 -0.10488755075E+01  0.38026512852E+02  0.23896944920E+04  0.23899972554E+04  0.00000000000E+00 0.  1.
          1    1    1    2  502    0  0.10488755075E+01 -0.38026512852E+02 -0.12841218723E+03  0.13392836013E+03  0.00000000000E+00 0. -1.
</event>
<event>
 4    1  0.3593938E+003  0.2245098E+02  0.7546771E-02  0.1499510E+00
          2   -1    0    0  502    0  0.00000000000E+00  0.00000000000E+00  0.16052410974E+03  0.16052410974E+03  0.00000000000E+00 0.  1.
          1   -1    0    0  501    0 -0.00000000000E+00 -0.00000000000E+00 -0.36068257325E+01  0.36068257325E+01  0.00000000000E+00 0.  1.
          2    1    1    2  501    0  0.97312437267E+01 -0.20232387341E+02  0.10798246975E+03  0.11029170583E+03  0.00000000000E+00 0.  1.
          1    1    1    2  502    0 -0.97312437267E+01  0.20232387341E+02  0.48934814265E+02  0.53839229649E+02  0.00000000000E+00 0.  1.
</event>
<event>
 4    1  0.3593938E+003  0.2234930E+02  0.7546771E-02  0.1500835E+00
          2   -1    0    0  502    0  0.00000000000E+00  0.00000000000E+00  0.13075907295E+01  0.13075907295E+01  0.00000000000E+00 0.  1.
          1   -1    0    0  501    0 -0.00000000000E+00 -0.00000000000E+00 -0.73395791232E+03  0.73395791232E+03  0.00000000000E+00 0.  1.
          2    1    1    2  501    0  0.18055147275E+02  0.13172045850E+02 -0.11174297872E+03  0.11395606359E+03  0.00000000000E+00 0.  1.
          1    1    1    2  502    0 -0.18055147275E+02 -0.13172045850E+02 -0.62090734287E+03  0.62130943946E+03  0.00000000000E+00 0.  1.
</event>
<event>
 4    1  0.3593938E+003  0.5958458E+02  0.7546771E-02  0.1261251E+00
          2   -1    0    0  502    0  0.00000000000E+00  0.00000000000E+00  0.28094054274E+03  0.28094054274E+03  0.00000000000E+00 0.  1.
          1   -1    0    0  501    0 -0.00000000000E+00 -0.00000000000E+00 -0.18950770987E+02  0.18950770987E+02  0.00000000000E+00 0.  1.
          2    1    1    2  501    0 -0.59428232667E+02 -0.43135931344E+01  0.21754258427E+03  0.22555508838E+03  0.00000000000E+00 0.  1.
          1    1    1    2  502    0  0.59428232667E+02  0.43135931344E+01  0.44447187487E+02  0.74336225349E+02  0.00000000000E+00 0.  1.
</event>
<event>
 4    1  0.3593938E+003  0.2029598E+02  0.7546771E-02  0.1529558E+00
          2   -1    0    0  502    0  0.00000000000E+00  0.00000000000E+00  0.39227318824E+03  0.39227318824E+03  0.00000000000E+00 0. -1.
          1   -1    0    0  501    0 -0.00000000000E+00 -0.00000000000E+00 -0.38215471300E+01  0.38215471300E+01  0.00000000000E+00 0. -1.
          2    1    1    2  501    0 -0.17420550497E+01  0.20221081964E+02  0.36288213139E+03  0.36344926495E+03  0.00000000000E+00 0. -1.
          1    1    1    2  502    0  0.17420550497E+01 -0.20221081964E+02  0.25569509725E+02  0.32645470424E+02  0.00000000000E+00 0. -1.
</event>
<event>
 4    1  0.3593938E+003  0.2134579E+02  0.7546771E-02  0.1514385E+00
          2   -1    0    0  502    0  0.00000000000E+00  0.00000000000E+00  0.30141115704E+03  0.30141115704E+03  0.00000000000E+00 0. -1.
          1   -1    0    0  501    0 -0.00000000000E+00 -0.00000000000E+00 -0.45886391128E+03  0.45886391128E+03  0.00000000000E+00 0. -1.
          2    1    1    2  501    0 -0.11634008631E+02 -0.17896714403E+02  0.30078447113E+03  0.30154094351E+03  0.00000000000E+00 0. -1.
          1    1    1    2  502    0  0.11634008631E+02  0.17896714403E+02 -0.45823722537E+03  0.45873412480E+03  0.00000000000E+00 0. -1.
</event>
<event>
 4    1  0.3593938E+003  0.6431323E+02  0.7546771E-02  0.1245842E+00
          2   -1    0    0  502    0  0.00000000000E+00  0.00000000000E+00  0.48853985385E+03  0.48853985385E+03  0.00000000000E+00 0.  1.
          1   -1    0    0  501    0 -0.00000000000E+00 -0.00000000000E+00 -0.22435420162E+04  0.22435420162E+04  0.00000000000E+00 0.  1.
          2    1    1    2  501    0  0.33544785660E+02  0.54872026455E+02  0.48595990853E+03  0.49019712834E+03  0.00000000000E+00 0.  1.
          1    1    1    2  502    0 -0.33544785660E+02 -0.54872026455E+02 -0.22409620709E+04  0.22418847417E+04  0.00000000000E+00 0.  1.
</event>
<event>
 4    1  0.3593938E+003  0.2595814E+02  0.7546771E-02  0.1458364E+00
          2   -1    0    0  502    0  0.00000000000E+00  0.00000000000E+00  0.69138095086E+02  0.69138095086E+02  0.00000000000E+00 0.  1.
          1   -1    0    0  501    0 -0.00000000000E+00 -0.00000000000E+00 -0.34588062128E+02  0.34588062128E+02  0.00000000000E+00 0.  1.
          2    1    1    2  501    0 -0.14580247689E+02  0.21476536322E+02  0.61227996121E+02  0.66503328820E+02  0.00000000000E+00 0.  1.
          1    1    1    2  502    0  0.14580247689E+02 -0.21476536322E+02 -0.26677963164E+02  0.37222828394E+02  0.00000000000E+00 0.  1.
</event>
<event>
 4    1  0.3593938E+003  0.5933247E+02  0.7546771E-02  0.1262118E+00
          2   -1    0    0  502    0  0.00000000000E+00  0.00000000000E+00  0.11052692184E+02  0.11052692184E+02  0.00000000000E+00 0.  1.
          1   -1    0    0  501    0 -0.00000000000E+00 -0.00000000000E+00 -0.31851303373E+03  0.31851303373E+03  0.00000000000E+00 0. -1.
          2    1    1    2  501    0  0.58786404277E+02 -0.80310340320E+01 -0.15455255021E+03  0.16555008189E+03  0.00000000000E+00 0.  1.
          1    1    1    2  502    0 -0.58786404277E+02  0.80310340320E+01 -0.15290779133E+03  0.16401564403E+03  0.00000000000E+00 0. -1.
</event>
<event>
 4    1  0.3593938E+003  0.2623072E+02  0.7546771E-02  0.1455493E+00
          2   -1    0    0  502    0  0.00000000000E+00  0.00000000000E+00  0.65555301753E+01  0.65555301753E+01  0.00000000000E+00 0.  1.
          1   -1    0    0  501    0 -0.00000000000E+00 -0.00000000000E+00 -0.22506115136E+03  0.22506115136E+03  0.00000000000E+00 0. -1.
          2    1    1    2  501    0 -0.18827840195E+02 -0.18263711170E+02 -0.24653261567E+02  0.35997694620E+02  0.00000000000E+00 0.  1.
          1    1    1    2  502    0  0.18827840195E+02  0.18263711170E+02 -0.19385235962E+03  0.19561898692E+03  0.00000000000E+00 0. -1.
</event>
<event>
 4    1  0.3593938E+003  0.2165167E+02  0.7546771E-02  0.1510161E+00
          2   -1    0    0  502    0  0.00000000000E+00  0.00000000000E+00  0.68356959221E+01  0.68356959221E+01  0.00000000000E+00 0.  1.
          1   -1    0    0  501    0 -0.00000000000E+00 -0.00000000000E+00 -0.56579849045E+03  0.56579849045E+03  0.00000000000E+00 0. -1.
          2    1    1    2  501    0 -0.18856896482E+02  0.10640132992E+02 -0.11076873661E+02  0.24320610707E+02  0.00000000000E+00 0.  1.
          1    1    1    2  502    0  0.18856896482E+02 -0.10640132992E+02 -0.54788592087E+03  0.54831357567E+03  0.00000000000E+00 0. -1.
</event>
<event>
 4    1  0.3593938E+003  0.2074647E+02  0.7546771E-02  0.1522916E+00
          2   -1    0    0  502    0  0.00000000000E+00  0.00000000000E+00  0.10856224919E+04  0.10856224919E+04  0.00000000000E+00 0. -1.
          1   -1    0    0  501    0 -0.00000000000E+00 -0.00000000000E+00 -0.66193837737E+00  0.66193837737E+00  0.00000000000E+00 0. -1.
          2    1    1    2  501    0 -0.19189843061E+01 -0.20657526244E+02  0.88644335171E+03  0.88668609534E+03  0.00000000000E+00 0. -1.
          1    1    1    2  502    0  0.19189843061E+01  0.20657526244E+02  0.19851720178E+03  0.19959833490E+03  0.00000000000E+00 0. -1.
</event>
<event>
 4    1  0.3593938E+003  0.3335968E+02  0.7546771E-02  0.1392477E+00
          2   -1    0    0  502    0  0.00000000000E+00  0.00000000000E+00  0.77693394361E+03  0.77693394361E+03  0.00000000000E+00 0.  1.
          1   -1    0    0  501    0 -0.00000000000E+00 -0.00000000000E+00 -0.18378878630E+02  0.18378878630E+02  0.00000000000E+00 0. -1.
          2    1    1    2  501    0  0.29956061692E+02 -0.14680016898E+02  0.76112367716E+03  0.76185439584E+03  0.00000000000E+00 0.  1.
          1    1    1    2  502    0 -0.29956061692E+02  0.14680016898E+02 -0.25686121842E+01  0.33458426394E+02  0.00000000000E+00 0. -1.
</event>
<event>
 4    1  0.3593938E+003  0.2485957E+02  0.7546771E-02  0.1470381E+00
          2   -1    0    0  502    0  0.00000000000E+00  0.00000000000E+00  0.71233678832E+00  0.71233678832E+00  0.00000000000E+00 0. -1.
          1   -1    0    0  501    0 -0.00000000000E+00 -0.00000000000E+00 -0.88622472427E+03  0.88622472427E+03  0.00000000000E+00 0. -1.
          2    1    1    2  501    0  0.23547850586E+02  0.79685056459E+01 -0.37840666263E+03  0.37922236310E+03  0.00000000000E+00 0. -1.
          1    1    1    2  502    0 -0.23547850586E+02 -0.79685056459E+01 -0.50710572485E+03  0.50771469796E+03  0.00000000000E+00 0. -1.
</event>
<event>
 4    1  0.3593938E+003  0.2628173E+02  0.7546771E-02  0.1454960E+00
          2   -1    0    0  502    0  0.00000000000E+00  0.00000000000E+00  0.26524324239E+03  0.26524324239E+03  0.00000000000E+00 0.  1.
          1   -1    0    0  501    0 -0.00000000000E+00 -0.00000000000E+00 -0.26254595984E+01  0.26254595984E+01  0.00000000000E+00 0.  1.
          2    1    1    2  501    0 -0.54893793659E+01 -0.25702058663E+02  0.14337962863E+03  0.14576847056E+03  0.00000000000E+00 0.  1.
          1    1    1    2  502    0  0.54893793659E+01  0.25702058663E+02  0.11923815417E+03  0.12210023143E+03  0.00000000000E+00 0.  1.
</event>
<event>
 4    1  0.3593938E+003  0.2395820E+02  0.7546771E-02  0.1480804E+00
          2   -1    0    0  502    0  0.00000000000E+00  0.00000000000E+00  0.10173073043E+03  0.10173073043E+03  0.00000000000E+00 0.  1.
          1   -1    0    0  501    0 -0.00000000000E+00 -0.00000000000E+00 -0.16143675285E+03  0.16143675285E+03  0.00000000000E+00 0.  1.
          2    1    1    2  501    0 -0.56758691531E+01 -0.23276167134E+02  0.99410818288E+02  0.10225705961E+03  0.00000000000E+00 0.  1.
          1    1    1    2  502    0  0.56758691531E+01  0.23276167134E+02 -0.15911684071E+03  0.16091042367E+03  0.00000000000E+00 0.  1.
</event>
<event>
 4    1  0.3593938E+003  0.2306406E+02  0.7546771E-02  0.1491695E+00
          2   -1    0    0  502    0  0.00000000000E+00  0.00000000000E+00  0.14586305327E+01  0.14586305327E+01  0.00000000000E+00 0.  1.
          1   -1    0    0  501    0 -0.00000000000E+00 -0.00000000000E+00 -0.88556089090E+03  0.88556089090E+03  0.00000000000E+00 0.  1.
          2    1    1    2  501    0  0.10881153904E+02  0.20335964681E+02 -0.10191078043E+03  0.10448807654E+03  0.00000000000E+00 0.  1.
          1    1    1    2  502    0 -0.10881153904E+02 -0.20335964681E+02 -0.78219147993E+03  0.78253144489E+03  0.00000000000E+00 0.  1.
</event>
<event>
 4    1  0.3593938E+003  0.2621734E+02  0.7546771E-02  0.1455633E+00
          2   -1    0    0  502    0  0.00000000000E+00  0.00000000000E+00  0.92104221849E+03  0.92104221849E+03  0.00000000000E+00 0. -1.
          1   -1    0    0  501    0 -0.00000000000E+00 -0.00000000000E+00 -0.86430538622E+02  0.86430538622E+02  0.00000000000E+00 0. -1.
          2    1    1    2  501    0  0.34494462624E+00 -0.26215069102E+02  0.91886278170E+03  0.91923672709E+03  0.00000000000E+00 0. -1.
          1    1    1    2  502    0 -0.34494462624E+00  0.26215069102E+02 -0.84251101831E+02  0.88236030025E+02  0.00000000000E+00 0. -1.
</event>
<event>
 4    1  0.3593938E+003  0.2046260E+02  0.7546771E-02  0.1527078E+00
          2   -1    0    0  502    0  0.00000000000E+00  0.00000000000E+00  0.45098626755E+03  0.45098626755E+03  0.00000000000E+00 0.  1.
          1   -1    0    0  501    0 -0.00000000000E+00 -0.00000000000E+00 -0.47558965532E+01  0.47558965532E+01  0.00000000000E+00 0.  1.
          2    1    1    2  501    0  0.16851808655E+02 -0.11607513739E+02  0.42753718353E+03  0.42802658928E+03  0.00000000000E+00 0.  1.
          1    1    1    2  502    0 -0.16851808655E+02  0.11607513739E+02  0.18693187468E+02  0.27715574824E+02  0.00000000000E+00 0.  1.
</event>
<event>
 4    1  0.3593938E+003  0.3164668E+02  0.7546771E-02  0.1405807E+00
          2   -1    0    0  502    0  0.00000000000E+00  0.00000000000E+00  0.21789232688E+02  0.21789232688E+02  0.00000000000E+00 0. -1.
          1   -1    0    0  501    0 -0.00000000000E+00 -0.00000000000E+00 -0.68391768325E+02  0.68391768325E+02  0.00000000000E+00 0. -1.
          2    1    1    2  501    0  0.18480325722E+02  0.25690270277E+02  0.25201250368E+01  0.31746865293E+02  0.00000000000E+00 0. -1.
          1    1    1    2  502    0 -0.18480325722E+02 -0.25690270277E+02 -0.49122660673E+02  0.58434135720E+02  0.00000000000E+00 0. -1.
</event>
<event>
 4    1  0.3593938E+003  0.3302476E+02  0.7546771E-02  0.1395008E+00
          2   -1    0    0  502    0  0.00000000000E+00  0.00000000000E+00  0.22123476778E+04  0.22123476778E+04  0.00000000000E+00 0.  1.
          1   -1    0    0  501    0 -0.00000000000E+00 -0.00000000000E+00 -0.32984584568E+01  0.32984584568E+01  0.00000000000E+00 0.  1.
          2    1    1    2  501    0  0.14660644521E+02  0.29592228372E+02  0.21262134922E+04  0.21264699502E+04  0.00000000000E+00 0.  1.
          1    1    1    2  502    0 -0.14660644521E+02 -0.29592228372E+02  0.82835727189E+02  0.89176186152E+02  0.00000000000E+00 0.  1.
</event>
<event>
 4    1  0.3593938E+003  0.2237347E+02  0.7546771E-02  0.1500519E+00
          2   -1    0    0  502    0  0.00000000000E+00  0.00000000000E+00  0.17114728679E+04  0.17114728679E+04  0.00000000000E+00 0.  1.
          1   -1    0    0  501    0 -0.00000000000E+00 -0.00000000000E+00 -0.91882928719E+00  0.91882928719E+00  0.00000000000E+00 0. -1.
          2    1    1    2  501    0  0.22223988506E+02 -0.25819474502E+01  0.15621866341E+04  0.15623468411E+04  0.00000000000E+00 0.  1.
          1    1    1    2  502    0 -0.22223988506E+02  0.25819474502E+01  0.14836740444E+03  0.15004485602E+03  0.00000000000E+00 0. -1.
</event>
<event>
 4    1  0.3593938E+003  0.2297842E+02  0.7546771E-02  0.1492769E+00
          2   -1    0    0  502    0  0.00000000000E+00  0.00000000000E+00  0.10969944934E+04  0.10969944934E+04  0.00000000000E+00 0.  1.
          1   -1    0    0  501    0 -0.00000000000E+00 -0.00000000000E+00 -0.19129173715E+01  0.19129173715E+01  0.00000000000E+00 0. -1.
          2    1    1    2  501    0  0.71750944607E+00  0.22967213761E+02  0.10228684881E+04  0.10231265570E+04  0.00000000000E+00 0.  1.
          1    1    1    2  502    0 -0.71750944607E+00 -0.22967213761E+02  0.72213087976E+02  0.75780853800E+02  0.00000000000E+00 0. -1.
</event>
<event>
 4    1  0.3593938E+003  0.2800679E+02  0.7546771E-02  0.1437749E+00
          2   -1    0    0  502    0  0.00000000000E+00  0.00000000000E+00  0.95163507215E+03  0.95163507215E+03  0.00000000000E+00 0. -1.
          1   -1    0    0  501    0 -0.00000000000E+00 -0.00000000000E+00 -0.15144934084E+01  0.15144934084E+01  0.00000000000E+00 0. -1.
          2    1    1    2  501    0 -0.27253014747E+02 -0.64539607208E+01  0.79679660275E+03  0.79728865951E+03  0.00000000000E+00 0. -1.
          1    1    1    2  502    0  0.27253014747E+02  0.64539607208E+01  0.15332397599E+03  0.15586090605E+03  0.00000000000E+00 0. -1.
</event>
<event>
 4    1  0.3593938E+003  0.2812938E+02  0.7546771E-02  0.1436582E+00
          2   -1    0    0  502    0  0.00000000000E+00  0.00000000000E+00  0.35504859034E+03  0.35504859034E+03  0.00000000000E+00 0. -1.
          1   -1    0    0  501    0 -0.00000000000E+00 -0.00000000000E+00 -0.47807859723E+02  0.47807859723E+02  0.00000000000E+00 0. -1.
          2    1    1    2  501    0  0.23434269035E+02  0.15559477183E+02  0.35029769136E+03  0.35142529059E+03  0.00000000000E+00 0. -1.
          1    1    1    2  502    0 -0.23434269035E+02 -0.15559477183E+02 -0.43056960747E+02  0.51431159468E+02  0.00000000000E+00 0. -1.
</event>
<event>
 4    1  0.3593938E+003  0.2361809E+02  0.7546771E-02  0.1484879E+00
          2   -1    0    0  502    0  0.00000000000E+00  0.00000000000E+00  0.60317615085E+03  0.60317615085E+03  0.00000000000E+00 0. -1.
          1   -1    0    0  501    0 -0.00000000000E+00 -0.00000000000E+00 -0.93500358773E+00  0.93500358773E+00  0.00000000000E+00 0.  1.
          2    1    1    2  501    0  0.22773277812E+02  0.62603680615E+01  0.33268220561E+03  0.33351951115E+03  0.00000000000E+00 0. -1.
          1    1    1    2  502    0 -0.22773277812E+02 -0.62603680615E+01  0.26955894165E+03  0.27059164329E+03  0.00000000000E+00 0.  1.
</event>
<event>
 4    1  0.3593938E+003  0.2081685E+02  0.7546771E-02  0.1521896E+00
          2   -1    0    0  502    0  0.00000000000E+00  0.00000000000E+00  0.14735575514E+03  0.14735575514E+03  0.00000000000E+00 0. -1.
          1   -1    0    0  501    0 -0.00000000000E+00 -0.00000000000E+00 -0.44884712813E+03  0.44884712813E+03  0.00000000000E+00 0. -1.
          2    1    1    2  501    0  0.20440409987E+02 -0.39409403164E+01  0.14637759087E+03  0.14785039898E+03  0.00000000000E+00 0. -1.
          1    1    1    2  502    0 -0.20440409987E+02  0.39409403164E+01 -0.44786896386E+03  0.44835248428E+03  0.00000000000E+00 0. -1.
</event>
<event>
 4    1  0.3593938E+003  0.2606491E+02  0.7546771E-02  0.1457234E+00
          2   -1    0    0  502    0  0.00000000000E+00  0.00000000000E+00  0.23115560233E+03  0.23115560233E+03  0.00000000000E+00 0. -1.
          1   -1    0    0  501    0 -0.00000000000E+00 -0.00000000000E+00 -0.16966996801E+02  0.16966996801E+02  0.00000000000E+00 0. -1.
          2    1    1    2  501    0  0.16676760127E+02 -0.20031610787E+02  0.21989993034E+03  0.22143928993E+03  0.00000000000E+00 0. -1.
          1    1    1    2  502    0 -0.16676760127E+02  0.20031610787E+02 -0.57113248111E+01  0.26683309206E+02  0.00000000000E+00 0. -1.
</event>
<event>
 4    1  0.3593938E+003  0.2192761E+02  0.7546771E-02  0.1506422E+00
          2   -1    0    0  502    0  0.00000000000E+00  0.00000000000E+00  0.29623333182E+03  0.29623333182E+03  0.00000000000E+00 0. -1.
          1   -1    0    0  501    0 -0.00000000000E+00 -0.00000000000E+00 -0.32989522923E+02  0.32989522923E+02  0.00000000000E+00 0. -1.
          2    1    1    2  501    0 -0.11261853403E+02 -0.18814642270E+02  0.29213274600E+03  0.29295453809E+03  0.00000000000E+00 0. -1.
          1    1    1    2  502    0  0.11261853403E+02  0.18814642270E+02 -0.28888937100E+02  0.36268316650E+02  0.00000000000E+00 0. -1.
</event>
<event>
 4    1  0.3593938E+003  0.2765343E+02  0.7546771E-02  0.1441152E+00
          2   -1    0    0  502    0  0.00000000000E+00  0.00000000000E+00  0.51545842631E+03  0.51545842631E+03  0.00000000000E+00 0.  1.
          1   -1    0    0  501    0 -0.00000000000E+00 -0.00000000000E+00 -0.19234813121E+01  0.19234813121E+01  0.00000000000E+00 0.  1.
          2    1    1    2  501    0 -0.20537499447E+02 -0.18518187876E+02  0.38048352038E+03  0.38148711832E+03  0.00000000000E+00 0.  1.
          1    1    1    2  502    0  0.20537499447E+02  0.18518187876E+02  0.13305142462E+03  0.13589478930E+03  0.00000000000E+00 0.  1.
</event>
<event>
 4    1  0.3593938E+003  0.2426569E+02  0.7546771E-02  0.1477188E+00
          2   -1    0    0  502    0  0.00000000000E+00  0.00000000000E+00  0.47596501723E+03  0.47596501723E+03  0.00000000000E+00 0. -1.
          1   -1    0    0  501    0 -0.00000000000E+00 -0.00000000000E+00 -0.16703791839E+03  0.16703791839E+03  0.00000000000E+00 0.  1.
          2    1    1    2  501    0  0.78666328233E+01  0.22955173152E+02  0.47477225291E+03  0.47539196041E+03  0.00000000000E+00 0. -1.
          1    1    1    2  502    0 -0.78666328233E+01 -0.22955173152E+02 -0.16584515406E+03  0.16761097521E+03  0.00000000000E+00 0.  1.
</event>
<event>
 4    1  0.3593938E+003  0.2981156E+02  0.7546771E-02  0.1421241E+00
          2   -1    0    0  502    0  0.00000000000E+00  0.00000000000E+00  0.34436494879E+02  0.34436494879E+02  0.00000000000E+00 0.  1.
          1   -1    0    0  501    0 -0.00000000000E+00 -0.00000000000E+00 -0.13785091998E+03  0.13785091998E+03  0.00000000000E+00 0. -1.
          2    1    1    2  501    0  0.27981022317E+02  0.10285495976E+02  0.25955290781E+02  0.39527283702E+02  0.00000000000E+00 0.  1.
          1    1    1    2  502    0 -0.27981022317E+02 -0.10285495976E+02 -0.12936971588E+03  0.13276013116E+03  0.00000000000E+00 0. -1.
</event>
<event>
 4    1  0.3593938E+003  0.2335181E+02  0.7546771E-02  0.1488127E+00
          2   -1    0    0  502    0  0.00000000000E+00  0.00000000000E+00  0.93562556419E+02  0.93562556419E+02  0.00000000000E+00 0. -1.
          1   -1    0    0  501    0 -0.00000000000E+00 -0.00000000000E+00 -0.10135833692E+02  0.10135833692E+02  0.00000000000E+00 0. -1.
          2    1    1    2  501    0  0.14734402748E+02 -0.18116399299E+02  0.79124172624E+01  0.24655889658E+02  0.00000000000E+00 0. -1.
          1    1    1    2  502    0 -0.14734402748E+02  0.18116399299E+02  0.75514305465E+02  0.79042500452E+02  0.00000000000E+00 0. -1.
</event>
<event>
 4    1  0.3593938E+003  0.4720295E+02  0.7546771E-02  0.1310777E+00
          2   -1    0    0  502    0  0.00000000000E+00  0.00000000000E+00  0.46390371606E+01  0.46390371606E+01  0.00000000000E+00 0. -1.
          1   -1    0    0  501    0 -0.00000000000E+00 -0.00000000000E+00 -0.18216485251E+04  0.18216485251E+04  0.00000000000E+00 0.  1.
          2    1    1    2  501    0  0.34464933063E+02  0.32253482292E+02 -0.12493426061E+03  0.13355406473E+03  0.00000000000E+00 0. -1.
          1    1    1    2  502    0 -0.34464933063E+02 -0.32253482292E+02 -0.16920752273E+04  0.16927334976E+04  0.00000000000E+00 0.  1.
</event>
<event>
 4    1  0.3593938E+003  0.2991765E+02  0.7546771E-02  0.1420314E+00
          2   -1    0    0  502    0  0.00000000000E+00  0.00000000000E+00  0.37224758312E+01  0.37224758312E+01  0.00000000000E+00 0.  1.
          1   -1    0    0  501    0 -0.00000000000E+00 -0.00000000000E+00 -0.27508054633E+03  0.27508054633E+03  0.00000000000E+00 0.  1.
          2    1    1    2  501    0  0.15857931979E+02 -0.25369106971E+02 -0.86216829757E+02  0.91260108089E+02  0.00000000000E+00 0.  1.
          1    1    1    2  502    0 -0.15857931979E+02  0.25369106971E+02 -0.18514124074E+03  0.18754291407E+03  0.00000000000E+00 0.  1.
</event>
<event>
 4    1  0.3593938E+003  0.3624431E+02  0.7546771E-02  0.1372020E+00
          2   -1    0    0  502    0  0.00000000000E+00  0.00000000000E+00  0.20527154458E+04  0.20527154458E+04  0.00000000000E+00 0.  1.
          1   -1    0    0  501    0 -0.00000000000E+00 -0.00000000000E+00 -0.15644036752E+01  0.15644036752E+01  0.00000000000E+00 0. -1.
          2    1    1    2  501    0  0.53766920191E+01 -0.35843289843E+02  0.18151553728E+04  0.18155171929E+04  0.00000000000E+00 0.  1.
          1    1    1    2  502    0 -0.53766920191E+01  0.35843289843E+02  0.23599566938E+03  0.23876265664E+03  0.00000000000E+00 0. -1.
</event>
<event>
 4    1  0.3593938E+003  0.3014029E+02  0.7546771E-02  0.1418381E+00
          2   -1    0    0  502    0  0.00000000000E+00  0.00000000000E+00  0.33756604203E+02  0.33756604203E+02  0.00000000000E+00 0.  1.
          1   -1    0    0  501    0 -0.00000000000E+00 -0.00000000000E+00 -0.77200812046E+03  0.77200812046E+03  0.00000000000E+00 0. -1.
          2    1    1    2  501    0  0.15487315578E+02  0.25856918659E+02  0.26672290888E+02  0.40247338888E+02  0.00000000000E+00 0.  1.
          1    1    1    2  502    0 -0.15487315578E+02 -0.25856918659E+02 -0.76492380715E+03  0.76551738578E+03  0.00000000000E+00 0. -1.
</event>
<event>
 4    1  0.3593938E+003  0.2075329E+02  0.7546771E-02  0.1522817E+00
          2   -1    0    0  502    0  0.00000000000E+00  0.00000000000E+00  0.34836800257E+01  0.34836800257E+01  0.00000000000E+00 0. -1.
          1   -1    0    0  501    0 -0.00000000000E+00 -0.00000000000E+00 -0.48701694069E+03  0.48701694069E+03  0.00000000000E+00 0.  1.
          2    1    1    2  501    0  0.17675720864E+02 -0.10875100166E+02 -0.29920659642E+02  0.36413524755E+02  0.00000000000E+00 0. -1.
          1    1    1    2  502    0 -0.17675720864E+02  0.10875100166E+02 -0.45361260102E+03  0.45408709596E+03  0.00000000000E+00 0.  1.
</event>
<event>
 4    1  0.3593938E+003  0.2665243E+02  0.7546771E-02  0.1451131E+00
          2   -1    0    0  502    0  0.00000000000E+00  0.00000000000E+00  0.41367114894E+03  0.41367114894E+03  0.00000000000E+00 0.  1.
          1   -1    0    0  501    0 -0.00000000000E+00 -0.00000000000E+00 -0.17557290133E+01  0.17557290133E+01  0.00000000000E+00 0.  1.
          2    1    1    2  501    0 -0.19149049504E+02  0.18538212583E+02  0.17518303527E+03  0.17719889184E+03  0.00000000000E+00 0.  1.
          1    1    1    2  502    0  0.19149049504E+02 -0.18538212583E+02  0.23673238465E+03  0.23822798611E+03  0.00000000000E+00 0.  1.
</event>
<event>
 4    1  0.3593938E+003  0.2038298E+02  0.7546771E-02  0.1528259E+00
          2   -1    0    0  502    0  0.00000000000E+00  0.00000000000E+00  0.90571910339E+03  0.90571910339E+03  0.00000000000E+00 0. -1.
          1   -1    0    0  501    0 -0.00000000000E+00 -0.00000000000E+00 -0.42546175884E+01  0.42546175884E+01  0.00000000000E+00 0.  1.
          2    1    1    2  501    0  0.12886067344E+02  0.15792883975E+02  0.88049243329E+03  0.88072832985E+03  0.00000000000E+00 0. -1.
          1    1    1    2  502    0 -0.12886067344E+02 -0.15792883975E+02  0.20972052512E+02  0.29245391131E+02  0.00000000000E+00 0.  1.
</event>
<event>
 4    1  0.3593938E+003  0.2062172E+02  0.7546771E-02  0.1524735E+00
          2   -1    0    0  502    0  0.00000000000E+00  0.00000000000E+00  0.54924898378E+01  0.54924898378E+01  0.00000000000E+00 0. -1.
          1   -1    0    0  501    0 -0.00000000000E+00 -0.00000000000E+00 -0.48424404179E+03  0.48424404179E+03  0.00000000000E+00 0. -1.
          2    1    1    2  501    0 -0.16419231915E+02  0.12476551224E+02 -0.14935368092E+02  0.25462143020E+02  0.00000000000E+00 0. -1.
          1    1    1    2  502    0  0.16419231915E+02 -0.12476551224E+02 -0.46381618386E+03  0.46427438861E+03  0.00000000000E+00 0. -1.
</event>
<event>
 4    1  0.3593938E+003  0.3959392E+02  0.7546771E-02  0.1350882E+00
          2   -1    0    0  502    0  0.00000000000E+00  0.00000000000E+00  0.57555888043E+03  0.57555888043E+03  0.00000000000E+00 0. -1.
          1   -1    0    0  501    0 -0.00000000000E+00 -0.00000000000E+00 -0.32527311068E+01  0.32527311068E+01  0.00000000000E+00 0. -1.
          2    1    1    2  501    0 -0.84241558773E+01  0.38687368070E+02  0.40286170940E+03  0.40480271213E+03  0.00000000000E+00 0. -1.
          1    1    1    2  502    0  0.84241558773E+01 -0.38687368070E+02  0.16944443992E+03  0.17400889940E+03  0.00000000000E+00 0. -1.
</event>
<event>
 4    1  0.3593938E+003  0.2267595E+02  0.7546771E-02  0.1496608E+00
          2   -1    0    0  502    0  0.00000000000E+00  0.00000000000E+00  0.17633089975E+04  0.17633089975E+04  0.00000000000E+00 0.  1.
          1   -1    0    0  501    0 -0.00000000000E+00 -0.00000000000E+00 -0.37354820256E+00  0.37354820256E+00  0.00000000000E+00 0.  1.
          2    1    1    2  501    0 -0.60062147525E+01 -0.21866048930E+02  0.12944772325E+04  0.12946758298E+04  0.00000000000E+00 0.  1.
          1    1    1    2  502    0  0.60062147525E+01  0.21866048930E+02  0.46845821683E+03  0.46900671597E+03  0.00000000000E+00 0.  1.
</event>
<event>
 4    1  0.3593938E+003  0.2006536E+02  0.7546771E-02  0.1533039E+00
          2   -1    0    0  502    0  0.00000000000E+00  0.00000000000E+00  0.16816817938E+02  0.16816817938E+02  0.00000000000E+00 0. -1.
          1   -1    0    0  501    0 -0.00000000000E+00 -0.00000000000E+00 -0.92485468491E+02  0.92485468491E+02  0.00000000000E+00 0.  1.
          2    1    1    2  501    0 -0.15159222644E+02  0.13145970020E+02  0.92143463313E+01  0.22079917057E+02  0.00000000000E+00 0. -1.
          1    1    1    2  502    0  0.15159222644E+02 -0.13145970020E+02 -0.84882996884E+02  0.87222369372E+02  0.00000000000E+00 0.  1.
</event>
<event>
 4    1  0.3593938E+003  0.3072376E+02  0.7546771E-02  0.1413409E+00
          2   -1    0    0  502    0  0.00000000000E+00  0.00000000000E+00  0.55477408475E+03  0.55477408475E+03  0.00000000000E+00 0.  1.
          1   -1    0    0  501    0 -0.00000000000E+00 -0.00000000000E+00 -0.24410358268E+01  0.24410358268E+01  0.00000000000E+00 0. -1.
          2    1    1    2  501    0  0.21667340763E+02  0.21782461878E+02  0.42951688330E+03  0.43061433132E+03  0.00000000000E+00 0.  1.
          1    1    1    2  502    0 -0.21667340763E+02 -0.21782461878E+02  0.12281616562E+03  0.12660078925E+03  0.00000000000E+00 0. -1.
</event>
<event>
 4    1  0.3593938E+003  0.2794944E+02  0.7546771E-02  0.1438297E+00
          2   -1    0    0  502    0  0.00000000000E+00  0.00000000000E+00  0.30475432643E+01  0.30475432643E+01  0.00000000000E+00 0.  1.
          1   -1    0    0  501    0 -0.00000000000E+00 -0.00000000000E+00 -0.38987162173E+03  0.38987162173E+03  0.00000000000E+00 0. -1.
          2    1    1    2  501    0 -0.74236042825E+00 -0.27939575990E+02 -0.78431643116E+02  0.83262798700E+02  0.00000000000E+00 0.  1.
          1    1    1    2  502    0  0.74236042825E+00  0.27939575990E+02 -0.30839243535E+03  0.30965636629E+03  0.00000000000E+00 0. -1.
</event>
<event>
 4    1  0.3593938E+003  0.2862355E+02  0.7546771E-02  0.1431947E+00
          2   -1    0    0  502    0  0.00000000000E+00  0.00000000000E+00  0.25807947830E+01  0.25807947830E+01  0.00000000000E+00 0. -1.
          1   -1    0    0  501    0 -0.00000000000E+00 -0.00000000000E+00 -0.60299986933E+03  0.60299986933E+03  0.00000000000E+00 0. -1.
          2    1    1    2  501    0  0.28225805807E+02  0.47551783946E+01 -0.91849607214E+02  0.96206331291E+02  0.00000000000E+00 0. -1.
          1    1    1    2  502    0 -0.28225805807E+02 -0.47551783946E+01 -0.50856946733E+03  0.50937433282E+03  0.00000000000E+00 0. -1.
</event>
<event>
 4    1  0.3593938E+003  0.2443343E+02  0.7546771E-02  0.1475242E+00
          2   -1    0    0  502    0  0.00000000000E+00  0.00000000000E+00  0.10565206142E+03  0.10565206142E+03  0.00000000000E+00 0.  1.
          1   -1    0    0  501    0 -0.00000000000E+00 -0.00000000000E+00 -0.13700700808E+02  0.13700700808E+02  0.00000000000E+00 0. -1.
          2    1    1    2  501    0  0.22662931259E+02  0.91314987487E+01  0.91719557976E+02  0.94918228165E+02  0.00000000000E+00 0.  1.
          1    1    1    2  502    0 -0.22662931259E+02 -0.91314987487E+01  0.23180264004E+00  0.24434534068E+02  0.00000000000E+00 0. -1.
</event>
<event>
 4    1  0.3593938E+003  0.2649142E+02  0.7546771E-02  0.1452785E+00
          2   -1    0    0  502    0  0.00000000000E+00  0.00000000000E+00  0.65821324007E+03  0.65821324007E+03  0.00000000000E+00 0.  1.
          1   -1    0    0  501    0 -0.00000000000E+00 -0.00000000000E+00 -0.71109031837E+01  0.71109031837E+01  0.00000000000E+00 0. -1.
          2    1    1    2  501    0 -0.23958315765E+02  0.11304619091E+02  0.63226117078E+03  0.63281591588E+03  0.00000000000E+00 0.  1.
          1    1    1    2  502    0  0.23958315765E+02 -0.11304619091E+02  0.18841166105E+02  0.32508227379E+02  0.00000000000E+00 0. -1.
</event>
<event>
 4    1  0.3593938E+003  0.2513266E+02  0.7546771E-02  0.1467325E+00
          2   -1    0    0  502    0  0.00000000000E+00  0.00000000000E+00  0.46356924210E+03  0.46356924210E+03  0.00000000000E+00 0. -1.
          1   -1    0    0  501    0 -0.00000000000E+00 -0.00000000000E+00 -0.23772604744E+01  0.23772604744E+01  0.00000000000E+00 0.  1.
          2    1    1    2  501    0  0.25126767866E+02 -0.54424789892E+00  0.38280210571E+03  0.38362625407E+03  0.00000000000E+00 0. -1.
          1    1    1    2  502    0 -0.25126767866E+02  0.54424789892E+00  0.78389875914E+02  0.82320248511E+02  0.00000000000E+00 0.  1.
</event>
<event>
 4    1  0.3593938E+003  0.2021705E+02  0.7546771E-02  0.1530743E+00
          2   -1    0    0  502    0  0.00000000000E+00  0.00000000000E+00  0.14811503771E+03  0.14811503771E+03  0.00000000000E+00 0.  1.
          1   -1    0    0  501    0 -0.00000000000E+00 -0.00000000000E+00 -0.72605152079E+01  0.72605152079E+01  0.00000000000E+00 0.  1.
          2    1    1    2  501    0  0.10462908714E+02  0.17299037191E+02  0.13159499007E+03  0.13313891452E+03  0.00000000000E+00 0.  1.
          1    1    1    2  502    0 -0.10462908714E+02 -0.17299037191E+02  0.92595324270E+01  0.22236638399E+02  0.00000000000E+00 0.  1.
</event>
<event>
 4    1  0.3593938E+003  0.2382611E+02  0.7546771E-02  0.1482377E+00
          2   -1    0    0  502    0  0.00000000000E+00  0.00000000000E+00  0.32710664945E+01  0.32710664945E+01  0.00000000000E+00 0. -1.
          1   -1    0    0  501    0 -0.00000000000E+00 -0.00000000000E+00 -0.60252610304E+03  0.60252610304E+03  0.00000000000E+00 0.  1.
          2    1    1    2  501    0 -0.64363052626E+01  0.22940304161E+02 -0.44047198149E+02  0.50078331094E+02  0.00000000000E+00 0. -1.
          1    1    1    2  502    0  0.64363052626E+01 -0.22940304161E+02 -0.55520783840E+03  0.55571883844E+03  0.00000000000E+00 0.  1.
</event>
<event>
 4    1  0.3593938E+003  0.2519069E+02  0.7546771E-02  0.1466681E+00
          2   -1    0    0  502    0  0.00000000000E+00  0.00000000000E+00  0.37153671290E+01  0.37153671290E+01  0.00000000000E+00 0.  1.
          1   -1    0    0  501    0 -0.00000000000E+00 -0.00000000000E+00 -0.21811528728E+03  0.21811528728E+03  0.00000000000E+00 0.  1.
          2    1    1    2  501    0 -0.16464244143E+02  0.19065665732E+02 -0.55538550743E+02  0.60984437061E+02  0.00000000000E+00 0.  1.
          1    1    1    2  502    0  0.16464244143E+02 -0.19065665732E+02 -0.15886136941E+03  0.16084621735E+03  0.00000000000E+00 0.  1.
</event>
<event>
 4    1  0.3593938E+003  0.2708220E+02  0.7546771E-02  0.1446784E+00
          2   -1    0    0  502    0  0.00000000000E+00  0.00000000000E+00  0.30918845334E+00  0.30918845334E+00  0.00000000000E+00 0.  1.
          1   -1    0    0  501    0 -0.00000000000E+00 -0.00000000000E+00 -0.26532587535E+04  0.26532587535E+04  0.00000000000E+00 0.  1.
          2    1    1    2  501    0  0.26730115933E+02 -0.43526981046E+01 -0.17583302092E+04  0.17585387597E+04  0.00000000000E+00 0.  1.
          1    1    1    2  502    0 -0.26730115933E+02  0.43526981046E+01 -0.89461935587E+03  0.89502918219E+03  0.00000000000E+00 0.  1.
</event>
<event>
 4    1  0.3593938E+003  0.2884744E+02  0.7546771E-02  0.1429884E+00
          2   -1    0    0  502    0  0.00000000000E+00  0.00000000000E+00  0.88909313805E+03  0.88909313805E+03  0.00000000000E+00 0.  1.
          1   -1    0    0  501    0 -0.00000000000E+00 -0.00000000000E+00 -0.10212590754E+01  0.10212590754E+01  0.00000000000E+00 0.  1.
          2    1    1    2  501    0  0.26133693629E+02 -0.12214910808E+02  0.31542811034E+03  0.31674448185E+03  0.00000000000E+00 0.  1.
          1    1    1    2  502    0 -0.26133693629E+02  0.12214910808E+02  0.57264376864E+03  0.57336991528E+03  0.00000000000E+00 0.  1.
</event>
<event>
 4    1  0.3593938E+003  0.3417343E+02  0.7546771E-02  0.1386469E+00
          2   -1    0    0  502    0  0.00000000000E+00  0.00000000000E+00  0.13286101979E+04  0.13286101979E+04  0.00000000000E+00 0. -1.
          1   -1    0    0  501    0 -0.00000000000E+00 -0.00000000000E+00 -0.12968362895E+01  0.12968362895E+01  0.00000000000E+00 0.  1.
          2    1    1    2  501    0 -0.33143905737E+02 -0.83249376453E+01  0.10411086366E+04  0.10416693412E+04  0.00000000000E+00 0. -1.
          1    1    1    2  502    0  0.33143905737E+02  0.83249376453E+01  0.28620472498E+03  0.28823769302E+03  0.00000000000E+00 0.  1.
</event>
<event>
 4    1  0.3593938E+003  0.2097056E+02  0.7546771E-02  0.1519685E+00
          2   -1    0    0  502    0  0.00000000000E+00  0.00000000000E+00  0.11419096357E+01  0.11419096357E+01  0.00000000000E+00 0.  1.
          1   -1    0    0  501    0 -0.00000000000E+00 -0.00000000000E+00 -0.44235482900E+03  0.44235482900E+03  0.00000000000E+00 0. -1.
          2    1    1    2  501    0  0.19670435317E+02  0.72690052166E+01 -0.14083802332E+03  0.14239070642E+03  0.00000000000E+00 0.  1.
          1    1    1    2  502    0 -0.19670435317E+02 -0.72690052166E+01 -0.30037489605E+03  0.30110603222E+03  0.00000000000E+00 0. -1.
</event>
<event>
 4    1  0.3593938E+003  0.2125794E+02  0.7546771E-02  0.1515614E+00
          2   -1    0    0  502    0  0.00000000000E+00  0.00000000000E+00  0.66474444055E+03  0.66474444055E+03  0.00000000000E+00 0.  1.
          1   -1    0    0  501    0 -0.00000000000E+00 -0.00000000000E+00 -0.87436724588E+02  0.87436724588E+02  0.00000000000E+00 0.  1.
          2    1    1    2  501    0 -0.87367498803E+01  0.19379610455E+02  0.66327955759E+03  0.66362012599E+03  0.00000000000E+00 0.  1.
          1    1    1    2  502    0  0.87367498803E+01 -0.19379610455E+02 -0.85971841635E+02  0.88561039142E+02  0.00000000000E+00 0.  1.
</event>
<event>
 4    1  0.3593938E+003  0.2068984E+02  0.7546771E-02  0.1523740E+00
          2   -1    0    0  502    0  0.00000000000E+00  0.00000000000E+00  0.53353924291E+03  0.53353924291E+03  0.00000000000E+00 0. -1.
          1   -1    0    0  501    0 -0.00000000000E+00 -0.00000000000E+00 -0.82996078334E+02  0.82996078334E+02  0.00000000000E+00 0. -1.
          2    1    1    2  501    0  0.67855628080E+01 -0.19545472481E+02  0.53204561791E+03  0.53244775227E+03  0.00000000000E+00 0. -1.
          1    1    1    2  502    0 -0.67855628080E+01  0.19545472481E+02 -0.81502453334E+02  0.84087568978E+02  0.00000000000E+00 0. -1.
</event>
<event>
 4    1  0.3593938E+003  0.2211165E+02  0.7546771E-02  0.1503965E+00
          2   -1    0    0  502    0  0.00000000000E+00  0.00000000000E+00  0.19909507605E+03  0.19909507605E+03  0.00000000000E+00 0. -1.
          1   -1    0    0  501    0 -0.00000000000E+00 -0.00000000000E+00 -0.70279937419E+01  0.70279937419E+01  0.00000000000E+00 0. -1.
          2    1    1    2  501    0 -0.14992763043E+02 -0.16252447354E+02  0.17916133692E+03  0.18052066262E+03  0.00000000000E+00 0. -1.
          1    1    1    2  502    0  0.14992763043E+02  0.16252447354E+02  0.12905745392E+02  0.25602407167E+02  0.00000000000E+00 0. -1.
</event>
<event>
 4    1  0.3593938E+003  0.2288130E+02  0.7546771E-02  0.1493994E+00
          2   -1    0    0  502    0  0.00000000000E+00  0.00000000000E+00  0.14093897314E+04  0.14093897314E+04  0.00000000000E+00 0.  1.
          1   -1    0    0  501    0 -0.00000000000E+00 -0.00000000000E+00 -0.24529465307E+01  0.24529465307E+01  0.00000000000E+00 0. -1.
          2    1    1    2  501    0 -0.14760649260E+02  0.17483618889E+02  0.13537439936E+04  0.13539373522E+04  0.00000000000E+00 0.  1.
          1    1    1    2  502    0  0.14760649260E+02 -0.17483618889E+02  0.53192791327E+02  0.57905325706E+02  0.00000000000E+00 0. -1.
</event>
<event>
 4    1  0.3593938E+003  0.2136327E+02  0.7546771E-02  0.1514141E+00
          2   -1    0    0  502    0  0.00000000000E+00  0.00000000000E+00  0.13537001582E+02  0.13537001582E+02  0.00000000000E+00 0. -1.
          1   -1    0    0  501    0 -0.00000000000E+00 -0.00000000000E+00 -0.58900860049E+02  0.58900860049E+02  0.00000000000E+00 0. -1.
          2    1    1    2  501    0  0.20840657681E+02 -0.46964108788E+01  0.10023421340E+01  0.21386771086E+02  0.00000000000E+00 0. -1.
          1    1    1    2  502    0 -0.20840657681E+02  0.46964108788E+01 -0.46366200601E+02  0.51051090545E+02  0.00000000000E+00 0. -1.
</event>
<event>
 4    1  0.3593938E+003  0.3220789E+02  0.7546771E-02  0.1401332E+00
          2   -1    0    0  502    0  0.00000000000E+00  0.00000000000E+00  0.11375828814E+04  0.11375828814E+04  0.00000000000E+00 0. -1.
          1   -1    0    0  501    0 -0.00000000000E+00 -0.00000000000E+00 -0.11483650387E+01  0.11483650387E+01  0.00000000000E+00 0. -1.
          2    1    1    2  501    0  0.24865224693E+02  0.20471164446E+02  0.82658953726E+03  0.82721678603E+03  0.00000000000E+00 0. -1.
          1    1    1    2  502    0 -0.24865224693E+02 -0.20471164446E+02  0.30984497905E+03  0.31151446037E+03  0.00000000000E+00 0. -1.
</event>
<event>
 4    1  0.3593938E+003  0.6493820E+02  0.7546771E-02  0.1243918E+00
          2   -1    0    0  502    0  0.00000000000E+00  0.00000000000E+00  0.47973722689E+02  0.47973722689E+02  0.00000000000E+00 0. -1.
          1   -1    0    0  501    0 -0.00000000000E+00 -0.00000000000E+00 -0.15103770123E+04  0.15103770123E+04  0.00000000000E+00 0.  1.
          2    1    1    2  501    0 -0.11498418320E+02  0.63912094685E+02  0.24960457100E+02  0.69570064608E+02  0.00000000000E+00 0. -1.
          1    1    1    2  502    0  0.11498418320E+02 -0.63912094685E+02 -0.14873637467E+04  0.14887806704E+04  0.00000000000E+00 0.  1.
</event>
<event>
 4    1  0.3593938E+003  0.2362110E+02  0.7546771E-02  0.1484843E+00
          2   -1    0    0  502    0  0.00000000000E+00  0.00000000000E+00  0.94235688496E+02  0.94235688496E+02  0.00000000000E+00 0. -1.
          1   -1    0    0  501    0 -0.00000000000E+00 -0.00000000000E+00 -0.19166206263E+03  0.19166206263E+03  0.00000000000E+00 0. -1.
          2    1    1    2  501    0  0.18870745358E+02 -0.14207443896E+02  0.92010365112E+02  0.94994019709E+02  0.00000000000E+00 0. -1.
          1    1    1    2  502    0 -0.18870745358E+02  0.14207443896E+02 -0.18943673924E+03  0.19090373141E+03  0.00000000000E+00 0. -1.
</event>
<event>
 4    1  0.3593938E+003  0.2543334E+02  0.7546771E-02  0.1464014E+00
          2   -1    0    0  502    0  0.00000000000E+00  0.00000000000E+00  0.22933063341E+02  0.22933063341E+02  0.00000000000E+00 0. -1.
          1   -1    0    0  501    0 -0.00000000000E+00 -0.00000000000E+00 -0.82928704023E+02  0.82928704023E+02  0.00000000000E+00 0.  1.
          2    1    1    2  501    0 -0.22279740507E+02 -0.12266546360E+02  0.12999323986E+02  0.28562867866E+02  0.00000000000E+00 0. -1.
          1    1    1    2  502    0  0.22279740507E+02  0.12266546360E+02 -0.72994964668E+02  0.77298899498E+02  0.00000000000E+00 0.  1.
</event>
<event>
 4    1  0.3593938E+003  0.2240015E+02  0.7546771E-02  0.1500171E+00
          2   -1    0    0  502    0  0.00000000000E+00  0.00000000000E+00  0.74127425355E+02  0.74127425355E+02  0.00000000000E+00 0.  1.
          1   -1    0    0  501    0 -0.00000000000E+00 -0.00000000000E+00 -0.23466369969E+02  0.23466369969E+02  0.00000000000E+00 0. -1.
          2    1    1    2  501    0 -0.19974152975E+02  0.10139023784E+02  0.66492258935E+02  0.70164001373E+02  0.00000000000E+00 0.  1.
          1    1    1    2  502    0  0.19974152975E+02 -0.10139023784E+02 -0.15831203549E+02  0.27429793951E+02  0.00000000000E+00 0. -1.
</event>
<event>
 4    1  0.3593938E+003  0.3123810E+02  0.7546771E-02  0.1409134E+00
          2   -1    0    0  502    0  0.00000000000E+00  0.00000000000E+00  0.52797658379E+03  0.52797658379E+03  0.00000000000E+00 0. -1.
          1   -1    0    0  501    0 -0.00000000000E+00 -0.00000000000E+00 -0.20878187230E+01  0.20878187230E+01  0.00000000000E+00 0. -1.
          2    1    1    2  501    0 -0.31129325212E+02  0.26046362609E+01  0.35272670425E+03  0.35410725339E+03  0.00000000000E+00 0. -1.
          1    1    1    2  502    0  0.31129325212E+02 -0.26046362609E+01  0.17316206083E+03  0.17595714912E+03  0.00000000000E+00 0. -1.
</event>
<event>
 4    1  0.3593938E+003  0.2232313E+02  0.7546771E-02  0.1501177E+00
          2   -1    0    0  502    0  0.00000000000E+00  0.00000000000E+00  0.13356531613E+04  0.13356531613E+04  0.00000000000E+00 0.  1.
          1   -1    0    0  501    0 -0.00000000000E+00 -0.00000000000E+00 -0.12558933158E+03  0.12558933158E+03  0.00000000000E+00 0.  1.
          2    1    1    2  501    0  0.20958099307E+02 -0.76863666854E+01  0.13345671134E+04  0.13347537984E+04  0.00000000000E+00 0.  1.
          1    1    1    2  502    0 -0.20958099307E+02  0.76863666854E+01 -0.12450328373E+03  0.12648869443E+03  0.00000000000E+00 0.  1.
</event>
<event>
 4    1  0.3593938E+003  0.2080215E+02  0.7546771E-02  0.1522109E+00
          2   -1    0    0  502    0  0.00000000000E+00  0.00000000000E+00  0.35850278519E+03  0.35850278519E+03  0.00000000000E+00 0. -1.
          1   -1    0    0  501    0 -0.00000000000E+00 -0.00000000000E+00 -0.68828143261E+03  0.68828143261E+03  0.00000000000E+00 0. -1.
          2    1    1    2  501    0 -0.10762904062E+02 -0.17801381398E+02  0.35804364490E+03  0.35864743264E+03  0.00000000000E+00 0. -1.
          1    1    1    2  502    0  0.10762904062E+02  0.17801381398E+02 -0.68782229232E+03  0.68813678516E+03  0.00000000000E+00 0. -1.
</event>
<event>
 4    1  0.3593938E+003  0.2309421E+02  0.7546771E-02  0.1491319E+00
          2   -1    0    0  502    0  0.00000000000E+00  0.00000000000E+00  0.33843099458E+01  0.33843099458E+01  0.00000000000E+00 0.  1.
          1   -1    0    0  501    0 -0.00000000000E+00 -0.00000000000E+00 -0.17564949618E+03  0.17564949618E+03  0.00000000000E+00 0. -1.
          2    1    1    2  501    0 -0.71521018511E+01  0.21958821376E+02 -0.57431234351E+02  0.61900638738E+02  0.00000000000E+00 0.  1.
          1    1    1    2  502    0  0.71521018511E+01 -0.21958821376E+02 -0.11483395189E+03  0.11713316739E+03  0.00000000000E+00 0. -1.
</event>
<event>
 4    1  0.3593938E+003  0.2826720E+02  0.7546771E-02  0.1435278E+00
          2   -1    0    0  502    0  0.00000000000E+00  0.00000000000E+00  0.23980292172E+02  0.23980292172E+02  0.00000000000E+00 0.  1.
          1   -1    0    0  501    0 -0.00000000000E+00 -0.00000000000E+00 -0.74207067638E+03  0.74207067638E+03  0.00000000000E+00 0.  1.
          2    1    1    2  501    0  0.29006832428E+01  0.28117982036E+02  0.15282219213E+02  0.32133799980E+02  0.00000000000E+00 0.  1.
          1    1    1    2  502    0 -0.29006832428E+01 -0.28117982036E+02 -0.73337260342E+03  0.73391716857E+03  0.00000000000E+00 0.  1.
</event>
<event>
 4    1  0.3593938E+003  0.2813202E+02  0.7546771E-02  0.1436557E+00
          2   -1    0    0  502    0  0.00000000000E+00  0.00000000000E+00  0.79359322206E+03  0.79359322206E+03  0.00000000000E+00 0. -1.
          1   -1    0    0  501    0 -0.00000000000E+00 -0.00000000000E+00 -0.18968417288E+03  0.18968417288E+03  0.00000000000E+00 0.  1.
          2    1    1    2  501    0  0.21105597343E+02  0.18600115848E+02  0.79229914303E+03  0.79279842495E+03  0.00000000000E+00 0. -1.
          1    1    1    2  502    0 -0.21105597343E+02 -0.18600115848E+02 -0.18839009385E+03  0.19047897000E+03  0.00000000000E+00 0.  1.
</event>
<event>
 4    1  0.3593938E+003  0.2013814E+02  0.7546771E-02  0.1531934E+00
          2   -1    0    0  502    0  0.00000000000E+00  0.00000000000E+00  0.19858342414E+02  0.19858342414E+02  0.00000000000E+00 0.  1.
          1   -1    0    0  501    0 -0.00000000000E+00 -0.00000000000E+00 -0.11074870017E+04  0.11074870017E+04  0.00000000000E+00 0. -1.
          2    1    1    2  501    0 -0.18597161558E+02 -0.77259516539E+01  0.14637143969E+02  0.24895596610E+02  0.00000000000E+00 0.  1.
          1    1    1    2  502    0  0.18597161558E+02  0.77259516539E+01 -0.11022658032E+04  0.11024497475E+04  0.00000000000E+00 0. -1.
</event>
<event>
 4    1  0.3593938E+003  0.2511252E+02  0.7546771E-02  0.1467548E+00
          2   -1    0    0  502    0  0.00000000000E+00  0.00000000000E+00  0.14311979483E+04  0.14311979483E+04  0.00000000000E+00 0.  1.
          1   -1    0    0  501    0 -0.00000000000E+00 -0.00000000000E+00 -0.63458705609E+00  0.63458705609E+00  0.00000000000E+00 0. -1.
          2    1    1    2  501    0 -0.23369565895E+01  0.25003548166E+02  0.11110687195E+04  0.11113524816E+04  0.00000000000E+00 0.  1.
          1    1    1    2  502    0  0.23369565895E+01 -0.25003548166E+02  0.31949464169E+03  0.32048005376E+03  0.00000000000E+00 0. -1.
</event>
<event>
 4    1  0.3593938E+003  0.2412544E+02  0.7546771E-02  0.1478830E+00
          2   -1    0    0  502    0  0.00000000000E+00  0.00000000000E+00  0.12286830400E+04  0.12286830400E+04  0.00000000000E+00 0. -1.
          1   -1    0    0  501    0 -0.00000000000E+00 -0.00000000000E+00 -0.10213042916E+02  0.10213042916E+02  0.00000000000E+00 0.  1.
          2    1    1    2  501    0  0.22633593357E+01 -0.24019037802E+02  0.12141466591E+04  0.12143863252E+04  0.00000000000E+00 0. -1.
          1    1    1    2  502    0 -0.22633593357E+01  0.24019037802E+02  0.43233379661E+01  0.24509757722E+02  0.00000000000E+00 0.  1.
</event>
<event>
 4    1  0.3593938E+003  0.3244538E+02  0.7546771E-02  0.1399471E+00
          2   -1    0    0  502    0  0.00000000000E+00  0.00000000000E+00  0.20003804712E+02  0.20003804712E+02  0.00000000000E+00 0. -1.
          1   -1    0    0  501    0 -0.00000000000E+00 -0.00000000000E+00 -0.66016985309E+02  0.66016985309E+02  0.00000000000E+00 0. -1.
          2    1    1    2  501    0 -0.28774811502E+02 -0.14990433153E+02 -0.36349708388E+01  0.32648367128E+02  0.00000000000E+00 0. -1.
          1    1    1    2  502    0  0.28774811502E+02  0.14990433153E+02 -0.42378209758E+02  0.53372422892E+02  0.00000000000E+00 0. -1.
</event>
<event>
 4    1  0.3593938E+003  0.2021747E+02  0.7546771E-02  0.1530737E+00
          2   -1    0    0  502    0  0.00000000000E+00  0.00000000000E+00  0.12029476397E+03  0.12029476397E+03  0.00000000000E+00 0.  1.
          1   -1    0    0  501    0 -0.00000000000E+00 -0.00000000000E+00 -0.89221772588E+01  0.89221772588E+01  0.00000000000E+00 0. -1.
          2    1    1    2  501    0 -0.93525011322E+01 -0.17924192890E+02  0.10652481939E+03  0.10842639491E+03  0.00000000000E+00 0.  1.
          1    1    1    2  502    0  0.93525011322E+01  0.17924192890E+02  0.48477673262E+01  0.20790546319E+02  0.00000000000E+00 0. -1.
</event>
<event>
 4    1  0.3593938E+003  0.2831975E+02  0.7546771E-02  0.1434783E+00
          2   -1    0    0  502    0  0.00000000000E+00  0.00000000000E+00  0.38151653235E+02  0.38151653235E+02  0.00000000000E+00 0. -1.
          1   -1    0    0  501    0 -0.00000000000E+00 -0.00000000000E+00 -0.26939584493E+03  0.26939584493E+03  0.00000000000E+00 0. -1.
          2    1    1    2  501    0 -0.28319086071E+02 -0.19404998070E+00  0.32030146804E+02  0.42754398552E+02  0.00000000000E+00 0. -1.
          1    1    1    2  502    0  0.28319086071E+02  0.19404998070E+00 -0.26327433850E+03  0.26479309962E+03  0.00000000000E+00 0. -1.
</event>
<event>
 4    1  0.3593938E+003  0.2073597E+02  0.7546771E-02  0.1523068E+00
          2   -1    0    0  502    0  0.00000000000E+00  0.00000000000E+00  0.20732158216E+02  0.20732158216E+02  0.00000000000E+00 0. -1.
          1   -1    0    0  501    0 -0.00000000000E+00 -0.00000000000E+00 -0.11715784587E+03  0.11715784587E+03  0.00000000000E+00 0.  1.
          2    1    1    2  501    0  0.17943796391E+02  0.10392333067E+02  0.14332690332E+02  0.25207269341E+02  0.00000000000E+00 0. -1.
          1    1    1    2  502    0 -0.17943796391E+02 -0.10392333067E+02 -0.11075837799E+03  0.11268273475E+03  0.00000000000E+00 0.  1.
</event>
<event>
 4    1  0.3593938E+003  0.3231045E+02  0.7546771E-02  0.1400526E+00
          2   -1    0    0  502    0  0.00000000000E+00  0.00000000000E+00  0.22704273888E+04  0.22704273888E+04  0.00000000000E+00 0.  1.
          1   -1    0    0  501    0 -0.00000000000E+00 -0.00000000000E+00 -0.11267187467E+02  0.11267187467E+02  0.00000000000E+00 0.  1.
          2    1    1    2  501    0 -0.17301899751E+02 -0.27287535154E+02  0.22469061230E+04  0.22471384227E+04  0.00000000000E+00 0.  1.
          1    1    1    2  502    0  0.17301899751E+02  0.27287535154E+02  0.12254078286E+02  0.34556153496E+02  0.00000000000E+00 0.  1.
</event>
<event>
 4    1  0.3593938E+003  0.2802131E+02  0.7546771E-02  0.1437610E+00
          2   -1    0    0  502    0  0.00000000000E+00  0.00000000000E+00  0.10497067782E+04  0.10497067782E+04  0.00000000000E+00 0.  1.
          1   -1    0    0  501    0 -0.00000000000E+00 -0.00000000000E+00 -0.42432816749E+01  0.42432816749E+01  0.00000000000E+00 0.  1.
          2    1    1    2  501    0 -0.23574820195E+02 -0.15146673007E+02  0.10010086600E+04  0.10014007845E+04  0.00000000000E+00 0.  1.
          1    1    1    2  502    0  0.23574820195E+02  0.15146673007E+02  0.44454836586E+02  0.52549275412E+02  0.00000000000E+00 0.  1.
</event>
<event>
 4    1  0.3593938E+003  0.2011075E+02  0.7546771E-02  0.1532349E+00
          2   -1    0    0  502    0  0.00000000000E+00  0.00000000000E+00  0.74153707283E+02  0.74153707283E+02  0.00000000000E+00 0. -1.
          1   -1    0    0  501    0 -0.00000000000E+00 -0.00000000000E+00 -0.22426108031E+02  0.22426108031E+02  0.00000000000E+00 0.  1.
          2    1    1    2  501    0 -0.16683070471E+01  0.20041430132E+02  0.67873149365E+02  0.70789876218E+02  0.00000000000E+00 0. -1.
          1    1    1    2  502    0  0.16683070471E+01 -0.20041430132E+02 -0.16145550113E+02  0.25789939096E+02  0.00000000000E+00 0.  1.
</event>
<event>
 4    1  0.3593938E+003  0.2690141E+02  0.7546771E-02  0.1448601E+00
          2   -1    0    0  502    0  0.00000000000E+00  0.00000000000E+00  0.15154050098E+03  0.15154050098E+03  0.00000000000E+00 0. -1.
          1   -1    0    0  501    0 -0.00000000000E+00 -0.00000000000E+00 -0.17744560884E+02  0.17744560884E+02  0.00000000000E+00 0. -1.
          2    1    1    2  501    0 -0.26862661455E+02  0.14434232429E+01  0.13925984184E+03  0.14183437383E+03  0.00000000000E+00 0. -1.
          1    1    1    2  502    0  0.26862661455E+02 -0.14434232429E+01 -0.54639017443E+01  0.27450688031E+02  0.00000000000E+00 0. -1.
</event>
<event>
 4    1  0.3593938E+003  0.3428065E+02  0.7546771E-02  0.1385692E+00
          2   -1    0    0  502    0  0.00000000000E+00  0.00000000000E+00  0.20671465494E+01  0.20671465494E+01  0.00000000000E+00 0. -1.
          1   -1    0    0  501    0 -0.00000000000E+00 -0.00000000000E+00 -0.18433584272E+04  0.18433584272E+04  0.00000000000E+00 0.  1.
          2    1    1    2  501    0  0.33190716330E+02  0.85754951654E+01 -0.15329572063E+03  0.15708195546E+03  0.00000000000E+00 0. -1.
          1    1    1    2  502    0 -0.33190716330E+02 -0.85754951654E+01 -0.16879955600E+04  0.16883436183E+04  0.00000000000E+00 0.  1.
</event>
<event>
 4    1  0.3593938E+003  0.2135379E+02  0.7546771E-02  0.1514273E+00
          2   -1    0    0  502    0  0.00000000000E+00  0.00000000000E+00  0.13337491201E+04  0.13337491201E+04  0.00000000000E+00 0.  1.
          1   -1    0    0  501    0 -0.00000000000E+00 -0.00000000000E+00 -0.11545807595E+01  0.11545807595E+01  0.00000000000E+00 0. -1.
          2    1    1    2  501    0 -0.19678555848E+02  0.82908885336E+01  0.12262774638E+04  0.12264633719E+04  0.00000000000E+00 0.  1.
          1    1    1    2  502    0  0.19678555848E+02 -0.82908885336E+01  0.10631707554E+03  0.10844032896E+03  0.00000000000E+00 0. -1.
</event>
<event>
 4    1  0.3593938E+003  0.4579337E+02  0.7546771E-02  0.1317519E+00
          2   -1    0    0  502    0  0.00000000000E+00  0.00000000000E+00  0.27019776628E+03  0.27019776628E+03  0.00000000000E+00 0. -1.
          1   -1    0    0  501    0 -0.00000000000E+00 -0.00000000000E+00 -0.54924755302E+03  0.54924755302E+03  0.00000000000E+00 0. -1.
          2    1    1    2  501    0 -0.39507555032E+02  0.23155692860E+02  0.26729268855E+03  0.27118704683E+03  0.00000000000E+00 0. -1.
          1    1    1    2  502    0  0.39507555032E+02 -0.23155692860E+02 -0.54634247530E+03  0.54825827247E+03  0.00000000000E+00 0. -1.
</event>
<event>
 4    1  0.3593938E+003  0.3002091E+02  0.7546771E-02  0.1419415E+00
          2   -1    0    0  502    0  0.00000000000E+00  0.00000000000E+00  0.24156524032E+04  0.24156524032E+04  0.00000000000E+00 0.  1.
          1   -1    0    0  501    0 -0.00000000000E+00 -0.00000000000E+00 -0.11711295147E+01  0.11711295147E+01  0.00000000000E+00 0. -1.
          2    1    1    2  501    0  0.69273673721E+01  0.29210729117E+02  0.22047678502E+04  0.22049722284E+04  0.00000000000E+00 0.  1.
          1    1    1    2  502    0 -0.69273673721E+01 -0.29210729117E+02  0.20971342355E+03  0.21185130430E+03  0.00000000000E+00 0. -1.
</event>
<event>
 4    1  0.3593938E+003  0.2442047E+02  0.7546771E-02  0.1475392E+00
          2   -1    0    0  502    0  0.00000000000E+00  0.00000000000E+00  0.20833561261E+02  0.20833561261E+02  0.00000000000E+00 0. -1.
          1   -1    0    0  501    0 -0.00000000000E+00 -0.00000000000E+00 -0.69254722749E+03  0.69254722749E+03  0.00000000000E+00 0. -1.
          2    1    1    2  501    0  0.24191118299E+02  0.33390424635E+01  0.13384261683E+02  0.27847762386E+02  0.00000000000E+00 0. -1.
          1    1    1    2  502    0 -0.24191118299E+02 -0.33390424635E+01 -0.68509792791E+03  0.68553302637E+03  0.00000000000E+00 0. -1.
</event>
<event>
 4    1  0.3593938E+003  0.4693557E+02  0.7546771E-02  0.1312035E+00
          2   -1    0    0  502    0  0.00000000000E+00  0.00000000000E+00  0.17724074743E+02  0.17724074743E+02  0.00000000000E+00 0. -1.
          1   -1    0    0  501    0 -0.00000000000E+00 -0.00000000000E+00 -0.59518974260E+03  0.59518974260E+03  0.00000000000E+00 0.  1.
          2    1    1    2  501    0 -0.28236461245E+02 -0.37492001466E+02 -0.16145712050E+02  0.49634987006E+02  0.00000000000E+00 0. -1.
          1    1    1    2  502    0  0.28236461245E+02  0.37492001466E+02 -0.56131995581E+03  0.56327883034E+03  0.00000000000E+00 0.  1.
</event>
<event>
 4    1  0.3593938E+003  0.2490099E+02  0.7546771E-02  0.1469914E+00
          2   -1    0    0  502    0  0.00000000000E+00  0.00000000000E+00  0.21116018447E+02  0.21116018447E+02  0.00000000000E+00 0.  1.
          1   -1    0    0  501    0 -0.00000000000E+00 -0.00000000000E+00 -0.55535061941E+02  0.55535061941E+02  0.00000000000E+00 0. -1.
          2    1    1    2  501    0  0.15273058707E+02 -0.19667055496E+02  0.90999384042E+01  0.26511662964E+02  0.00000000000E+00 0.  1.
          1    1    1    2  502    0 -0.15273058707E+02  0.19667055496E+02 -0.43518981898E+02  0.50139417424E+02  0.00000000000E+00 0. -1.
</event>
<event>
 4    1  0.3593938E+003  0.2346481E+02  0.7546771E-02  0.1486743E+00
          2   -1    0    0  502    0  0.00000000000E+00  0.00000000000E+00  0.11536866088E+04  0.11536866088E+04  0.00000000000E+00 0. -1.
          1   -1    0    0  501    0 -0.00000000000E+00 -0.00000000000E+00 -0.66165728064E+02  0.66165728064E+02  0.00000000000E+00 0.  1.
          2    1    1    2  501    0 -0.19079409982E+02  0.13659184575E+02  0.11514829437E+04  0.11517220007E+04  0.00000000000E+00 0. -1.
          1    1    1    2  502    0  0.19079409982E+02 -0.13659184575E+02 -0.63962062972E+02  0.68130336181E+02  0.00000000000E+00 0.  1.
</event>
<event>
 4    1  0.3593938E+003  0.2677553E+02  0.7546771E-02  0.1449876E+00
          2   -1    0    0  502    0  0.00000000000E+00  0.00000000000E+00  0.17872805780E+03  0.17872805780E+03  0.00000000000E+00 0. -1.
          1   -1    0    0  501    0 -0.00000000000E+00 -0.00000000000E+00 -0.22903836429E+02  0.22903836429E+02  0.00000000000E+00 0.  1.
          2    1    1    2  501    0 -0.26613798769E+02 -0.29384848436E+01  0.16947519997E+03  0.17157730731E+03  0.00000000000E+00 0. -1.
          1    1    1    2  502    0  0.26613798769E+02  0.29384848436E+01 -0.13650978602E+02  0.30054586919E+02  0.00000000000E+00 0.  1.
</event>
<event>
 4    1  0.3593938E+003  0.2181862E+02  0.7546771E-02  0.1507891E+00
          2   -1    0    0  502    0  0.00000000000E+00  0.00000000000E+00  0.68012497879E+03  0.68012497879E+03  0.00000000000E+00 0.  1.
          1   -1    0    0  501    0 -0.00000000000E+00 -0.00000000000E+00 -0.51999715565E+01  0.51999715565E+01  0.00000000000E+00 0.  1.
          2    1    1    2  501    0  0.19030650259E+02 -0.10671758581E+02  0.65622958046E+03  0.65659219791E+03  0.00000000000E+00 0.  1.
          1    1    1    2  502    0 -0.19030650259E+02  0.10671758581E+02  0.18695426771E+02  0.28732752438E+02  0.00000000000E+00 0.  1.
</event>
<event>
 4    1  0.3593938E+003  0.2968603E+02  0.7546771E-02  0.1422345E+00
          2   -1    0    0  502    0  0.00000000000E+00  0.00000000000E+00  0.41386002803E+01  0.41386002803E+01  0.00000000000E+00 0. -1.
          1   -1    0    0  501    0 -0.00000000000E+00 -0.00000000000E+00 -0.14222936199E+04  0.14222936199E+04  0.00000000000E+00 0.  1.
          2    1    1    2  501    0  0.25780029291E+02  0.14719041433E+02 -0.51413991339E+02  0.59368835228E+02  0.00000000000E+00 0. -1.
          1    1    1    2  502    0 -0.25780029291E+02 -0.14719041433E+02 -0.13667410283E+04  0.13670633850E+04  0.00000000000E+00 0.  1.
</event>
<event>
 4    1  0.3593938E+003  0.2220053E+02  0.7546771E-02  0.1502789E+00
          2   -1    0    0  502    0  0.00000000000E+00  0.00000000000E+00  0.46260203290E+02  0.46260203290E+02  0.00000000000E+00 0.  1.
          1   -1    0    0  501    0 -0.00000000000E+00 -0.00000000000E+00 -0.75304947233E+02  0.75304947233E+02  0.00000000000E+00 0. -1.
          2    1    1    2  501    0 -0.22150496722E+02 -0.14896278238E+01  0.41796540392E+02  0.47326676249E+02  0.00000000000E+00 0.  1.
          1    1    1    2  502    0  0.22150496722E+02  0.14896278238E+01 -0.70841284335E+02  0.74238474273E+02  0.00000000000E+00 0. -1.
</event>
<event>
 4    1  0.3593938E+003  0.3128336E+02  0.7546771E-02  0.1408762E+00
          2   -1    0    0  502    0  0.00000000000E+00  0.00000000000E+00  0.31287622432E+04  0.31287622432E+04  0.00000000000E+00 0.  1.
          1   -1    0    0  501    0 -0.00000000000E+00 -0.00000000000E+00 -0.31356022140E+00  0.31356022140E+00  0.00000000000E+00 0.  1.
          2    1    1    2  501    0 -0.25310135721E+02  0.18386023338E+02  0.16417128727E+04  0.16420109029E+04  0.00000000000E+00 0.  1.
          1    1    1    2  502    0  0.25310135721E+02 -0.18386023338E+02  0.14867358102E+04  0.14870649005E+04  0.00000000000E+00 0.  1.
</event>
<event>
 4    1  0.3593938E+003  0.2396405E+02  0.7546771E-02  0.1480735E+00
          2   -1    0    0  502    0  0.00000000000E+00  0.00000000000E+00  0.10586907803E+03  0.10586907803E+03  0.00000000000E+00 0.  1.
          1   -1    0    0  501    0 -0.00000000000E+00 -0.00000000000E+00 -0.16544837931E+02  0.16544837931E+02  0.00000000000E+00 0. -1.
          2    1    1    2  501    0  0.20935436508E+02 -0.11661174963E+02  0.94842115240E+02  0.97822810870E+02  0.00000000000E+00 0.  1.
          1    1    1    2  502    0 -0.20935436508E+02  0.11661174963E+02 -0.55178751438E+01  0.24591105087E+02  0.00000000000E+00 0. -1.
</event>
<event>
 4    1  0.3593938E+003  0.4668542E+02  0.7546771E-02  0.1313220E+00
          2   -1    0    0  502    0  0.00000000000E+00  0.00000000000E+00  0.18463301445E+04  0.18463301445E+04  0.00000000000E+00 0.  1.
          1   -1    0    0  501    0 -0.00000000000E+00 -0.00000000000E+00 -0.12455853839E+02  0.12455853839E+02  0.00000000000E+00 0.  1.
          2    1    1    2  501    0  0.43791931672E+02 -0.16180075557E+02  0.18011939464E+04  0.18017988680E+04  0.00000000000E+00 0.  1.
          1    1    1    2  502    0 -0.43791931672E+02  0.16180075557E+02  0.32680344252E+02  0.56987130346E+02  0.00000000000E+00 0.  1.
</event>
<event>
 4    1  0.3593938E+003  0.3498130E+02  0.7546771E-02  0.1380695E+00
          2   -1    0    0  502    0  0.00000000000E+00  0.00000000000E+00  0.83498633910E+03  0.83498633910E+03  0.00000000000E+00 0.  1.
          1   -1    0    0  501    0 -0.00000000000E+00 -0.00000000000E+00 -0.58419733843E+01  0.58419733843E+01  0.00000000000E+00 0. -1.
          2    1    1    2  501    0 -0.32633850486E+02 -0.12598551389E+02  0.77845248633E+03  0.77923806707E+03  0.00000000000E+00 0.  1.
          1    1    1    2  502    0  0.32633850486E+02  0.12598551389E+02  0.50691879379E+02  0.61590245410E+02  0.00000000000E+00 0. -1.
</event>
<event>
 4    1  0.3593938E+003  0.3850208E+02  0.7546771E-02  0.1357494E+00
          2   -1    0    0  502    0  0.00000000000E+00  0.00000000000E+00  0.11678690186E+04  0.11678690186E+04  0.00000000000E+00 0.  1.
          1   -1    0    0  501    0 -0.00000000000E+00 -0.00000000000E+00 -0.85768288308E+01  0.85768288308E+01  0.00000000000E+00 0. -1.
          2    1    1    2  501    0  0.14334276318E+02  0.35734280221E+02  0.11226000171E+04  0.11232600806E+04  0.00000000000E+00 0.  1.
          1    1    1    2  502    0 -0.14334276318E+02 -0.35734280221E+02  0.36692172715E+02  0.53185766884E+02  0.00000000000E+00 0. -1.
</event>
<event>
 4    1  0.3593938E+003  0.3702751E+02  0.7546771E-02  0.1366844E+00
          2   -1    0    0  502    0  0.00000000000E+00  0.00000000000E+00  0.50168300519E+02  0.50168300519E+02  0.00000000000E+00 0.  1.
          1   -1    0    0  501    0 -0.00000000000E+00 -0.00000000000E+00 -0.21755998007E+03  0.21755998007E+03  0.00000000000E+00 0. -1.
          2    1    1    2  501    0  0.21683041965E+02 -0.30014698630E+02  0.41478603201E+02  0.55601357594E+02  0.00000000000E+00 0.  1.
          1    1    1    2  502    0 -0.21683041965E+02  0.30014698630E+02 -0.20887028275E+03  0.21212692300E+03  0.00000000000E+00 0. -1.
</event>
<event>
 4    1  0.3593938E+003  0.2100921E+02  0.7546771E-02  0.1519133E+00
          2   -1    0    0  502    0  0.00000000000E+00  0.00000000000E+00  0.31437438561E+02  0.31437438561E+02  0.00000000000E+00 0.  1.
          1   -1    0    0  501    0 -0.00000000000E+00 -0.00000000000E+00 -0.25229321517E+02  0.25229321517E+02  0.00000000000E+00 0.  1.
          2    1    1    2  501    0  0.11248167578E+02 -0.17744457887E+02  0.21972851979E+02  0.30400547424E+02  0.00000000000E+00 0.  1.
          1    1    1    2  502    0 -0.11248167578E+02  0.17744457887E+02 -0.15764734936E+02  0.26266212654E+02  0.00000000000E+00 0.  1.
</event>
<event>
 4    1  0.3593938E+003  0.3191662E+02  0.7546771E-02  0.1403641E+00
          2   -1    0    0  502    0  0.00000000000E+00  0.00000000000E+00  0.39947120704E+03  0.39947120704E+03  0.00000000000E+00 0.  1.
          1   -1    0    0  501    0 -0.00000000000E+00 -0.00000000000E+00 -0.39022484878E+01  0.39022484878E+01  0.00000000000E+00 0.  1.
          2    1    1    2  501    0 -0.30075126883E+02 -0.10684436140E+02  0.31650902928E+03  0.31811418712E+03  0.00000000000E+00 0.  1.
          1    1    1    2  502    0  0.30075126883E+02  0.10684436140E+02  0.79059929279E+02  0.85259268413E+02  0.00000000000E+00 0.  1.
</event>
<event>
 4    1  0.3593938E+003  0.2264169E+02  0.7546771E-02  0.1497047E+00
          2   -1    0    0  502    0  0.00000000000E+00  0.00000000000E+00  0.73646000484E+01  0.73646000484E+01  0.00000000000E+00 0.  1.
          1   -1    0    0  501    0 -0.00000000000E+00 -0.00000000000E+00 -0.39825460834E+03  0.39825460834E+03  0.00000000000E+00 0.  1.
          2    1    1    2  501    0 -0.22302008310E+02 -0.39072422084E+01 -0.11210190354E+02  0.25264886386E+02  0.00000000000E+00 0.  1.
          1    1    1    2  502    0  0.22302008310E+02  0.39072422084E+01 -0.37967981793E+03  0.38035432200E+03  0.00000000000E+00 0.  1.
</event>
<event>
 4    1  0.3593938E+003  0.4889605E+02  0.7546771E-02  0.1303031E+00
          2   -1    0    0  502    0  0.00000000000E+00  0.00000000000E+00  0.38813334095E+02  0.38813334095E+02  0.00000000000E+00 0.  1.
          1   -1    0    0  501    0 -0.00000000000E+00 -0.00000000000E+00 -0.67789584726E+02  0.67789584726E+02  0.00000000000E+00 0.  1.
          2    1    1    2  501    0 -0.40732576561E+02 -0.27049555749E+02 -0.30596835840E+02  0.57680045275E+02  0.00000000000E+00 0.  1.
          1    1    1    2  502    0  0.40732576561E+02  0.27049555749E+02  0.16205852097E+01  0.48922873545E+02  0.00000000000E+00 0.  1.
</event>
<event>
 4    1  0.3593938E+003  0.2105330E+02  0.7546771E-02  0.1518505E+00
          2   -1    0    0  502    0  0.00000000000E+00  0.00000000000E+00  0.13907828580E+04  0.13907828580E+04  0.00000000000E+00 0.  1.
          1   -1    0    0  501    0 -0.00000000000E+00 -0.00000000000E+00 -0.31912149944E+02  0.31912149944E+02  0.00000000000E+00 0. -1.
          2    1    1    2  501    0  0.19133432235E+01 -0.20966172163E+02  0.13872219153E+04  0.13873816647E+04  0.00000000000E+00 0.  1.
          1    1    1    2  502    0 -0.19133432235E+01  0.20966172163E+02 -0.28351207255E+02  0.35313343233E+02  0.00000000000E+00 0. -1.
</event>
<event>
 4    1  0.3593938E+003  0.2276658E+02  0.7546771E-02  0.1495450E+00
          2   -1    0    0  502    0  0.00000000000E+00  0.00000000000E+00  0.16812994540E+03  0.16812994540E+03  0.00000000000E+00 0.  1.
          1   -1    0    0  501    0 -0.00000000000E+00 -0.00000000000E+00 -0.38416797265E+01  0.38416797265E+01  0.00000000000E+00 0.  1.
          2    1    1    2  501    0  0.32786095552E+01 -0.22529268379E+02  0.12035985873E+03  0.12249413377E+03  0.00000000000E+00 0.  1.
          1    1    1    2  502    0 -0.32786095552E+01  0.22529268379E+02  0.43928406934E+02  0.49477491348E+02  0.00000000000E+00 0.  1.
</event>
<event>
 4    1  0.3593938E+003  0.2183994E+02  0.7546771E-02  0.1507602E+00
          2   -1    0    0  502    0  0.00000000000E+00  0.00000000000E+00  0.37043751143E+02  0.37043751143E+02  0.00000000000E+00 0. -1.
          1   -1    0    0  501    0 -0.00000000000E+00 -0.00000000000E+00 -0.57948437686E+02  0.57948437686E+02  0.00000000000E+00 0.  1.
          2    1    1    2  501    0  0.32456146285E+01  0.21597428905E+02  0.31435844064E+02  0.38277868823E+02  0.00000000000E+00 0. -1.
          1    1    1    2  502    0 -0.32456146285E+01 -0.21597428905E+02 -0.52340530607E+02  0.56714320007E+02  0.00000000000E+00 0.  1.
</event>
<event>
 4    1  0.3593938E+003  0.2148517E+02  0.7546771E-02  0.1512449E+00
          2   -1    0    0  502    0  0.00000000000E+00  0.00000000000E+00  0.53861878491E+03  0.53861878491E+03  0.00000000000E+00 0.  1.
          1   -1    0    0  501    0 -0.00000000000E+00 -0.00000000000E+00 -0.32294454870E+01  0.32294454870E+01  0.00000000000E+00 0.  1.
          2    1    1    2  501    0 -0.19847920724E+02 -0.82263358248E+01  0.49990366679E+03  0.50036515529E+03  0.00000000000E+00 0.  1.
          1    1    1    2  502    0  0.19847920724E+02  0.82263358248E+01  0.35485672637E+02  0.41483075111E+02  0.00000000000E+00 0.  1.
</event>
<event>
 4    1  0.3593938E+003  0.2044548E+02  0.7546771E-02  0.1527331E+00
          2   -1    0    0  502    0  0.00000000000E+00  0.00000000000E+00  0.66120332740E+01  0.66120332740E+01  0.00000000000E+00 0. -1.
          1   -1    0    0  501    0 -0.00000000000E+00 -0.00000000000E+00 -0.15242265469E+04  0.15242265469E+04  0.00000000000E+00 0.  1.
          2    1    1    2  501    0  0.13550192208E+02 -0.15310452321E+02 -0.94298194615E+01  0.22515309329E+02  0.00000000000E+00 0. -1.
          1    1    1    2  502    0 -0.13550192208E+02  0.15310452321E+02 -0.15081846942E+04  0.15083232709E+04  0.00000000000E+00 0.  1.
</event>
<event>
 4    1  0.3593938E+003  0.2126873E+02  0.7546771E-02  0.1515463E+00
          2   -1    0    0  502    0  0.00000000000E+00  0.00000000000E+00  0.86855356124E+02  0.86855356124E+02  0.00000000000E+00 0. -1.
          1   -1    0    0  501    0 -0.00000000000E+00 -0.00000000000E+00 -0.52200157535E+01  0.52200157535E+01  0.00000000000E+00 0. -1.
          2    1    1    2  501    0  0.19918928447E+02 -0.74562030648E+01  0.43009477867E+02  0.47980973948E+02  0.00000000000E+00 0. -1.
          1    1    1    2  502    0 -0.19918928447E+02  0.74562030648E+01  0.38625862504E+02  0.44094397930E+02  0.00000000000E+00 0. -1.
</event>
<event>
 4    1  0.3593938E+003  0.3902282E+02  0.7546771E-02  0.1354309E+00
          2   -1    0    0  502    0  0.00000000000E+00  0.00000000000E+00  0.80348779240E+03  0.80348779240E+03  0.00000000000E+00 0. -1.
          1   -1    0    0  501    0 -0.00000000000E+00 -0.00000000000E+00 -0.21465964889E+02  0.21465964889E+02  0.00000000000E+00 0. -1.
          2    1    1    2  501    0 -0.29685695499E+02  0.25328640508E+02  0.78485847168E+03  0.78582797171E+03  0.00000000000E+00 0. -1.
          1    1    1    2  502    0  0.29685695499E+02 -0.25328640508E+02 -0.28366441701E+01  0.39125785582E+02  0.00000000000E+00 0. -1.
</event>
<event>
 4    1  0.3593938E+003  0.2509569E+02  0.7546771E-02  0.1467736E+00
          2   -1    0    0  502    0  0.00000000000E+00  0.00000000000E+00  0.17962118934E+01  0.17962118934E+01  0.00000000000E+00 0.  1.
          1   -1    0    0  501    0 -0.00000000000E+00 -0.00000000000E+00 -0.65451077780E+03  0.65451077780E+03  0.00000000000E+00 0. -1.
          2    1    1    2  501    0  0.48878737131E+00  0.25090925853E+02 -0.10275556204E+03  0.10577570139E+03  0.00000000000E+00 0.  1.
          1    1    1    2  502    0 -0.48878737131E+00 -0.25090925853E+02 -0.54995900387E+03  0.55053128831E+03  0.00000000000E+00 0. -1.
</event>
<event>
 4    1  0.3593938E+003  0.2020708E+02  0.7546771E-02  0.1530893E+00
          2   -1    0    0  502    0  0.00000000000E+00  0.00000000000E+00  0.13847379423E+04  0.13847379423E+04  0.00000000000E+00 0.  1.
          1   -1    0    0  501    0 -0.00000000000E+00 -0.00000000000E+00 -0.36308293642E+00  0.36308293642E+00  0.00000000000E+00 0.  1.
          2    1    1    2  501    0  0.10845561745E+02 -0.17049922170E+02  0.99235422316E+03  0.99255993787E+03  0.00000000000E+00 0.  1.
          1    1    1    2  502    0 -0.10845561745E+02  0.17049922170E+02  0.39202063617E+03  0.39254108732E+03  0.00000000000E+00 0.  1.
</event>
<event>
 4    1  0.3593938E+003  0.2398616E+02  0.7546771E-02  0.1480473E+00
          2   -1    0    0  502    0  0.00000000000E+00  0.00000000000E+00  0.28948587119E+01  0.28948587119E+01  0.00000000000E+00 0. -1.
          1   -1    0    0  501    0 -0.00000000000E+00 -0.00000000000E+00 -0.42039768964E+03  0.42039768964E+03  0.00000000000E+00 0.  1.
          2    1    1    2  501    0  0.36351113934E+01 -0.23709112721E+02 -0.55071235163E+02  0.60068103044E+02  0.00000000000E+00 0. -1.
          1    1    1    2  502    0 -0.36351113934E+01  0.23709112721E+02 -0.36243159577E+03  0.36322444531E+03  0.00000000000E+00 0.  1.
</event>
<event>
 4    1  0.3593938E+003  0.3157064E+02  0.7546771E-02  0.1406421E+00
          2   -1    0    0  502    0  0.00000000000E+00  0.00000000000E+00  0.31709540318E+03  0.31709540318E+03  0.00000000000E+00 0. -1.
          1   -1    0    0  501    0 -0.00000000000E+00 -0.00000000000E+00 -0.82706259014E+01  0.82706259014E+01  0.00000000000E+00 0.  1.
          2    1    1    2  501    0 -0.63500834846E+01  0.30925424695E+02  0.28250415834E+03  0.28426273926E+03  0.00000000000E+00 0. -1.
          1    1    1    2  502    0  0.63500834846E+01 -0.30925424695E+02  0.26320618940E+02  0.41103289822E+02  0.00000000000E+00 0.  1.
</event>
<event>
 4    1  0.3593938E+003  0.2674654E+02  0.7546771E-02  0.1450171E+00
          2   -1    0    0  502    0  0.00000000000E+00  0.00000000000E+00  0.64554849753E+03  0.64554849753E+03  0.00000000000E+00 0.  1.
          1   -1    0    0  501    0 -0.00000000000E+00 -0.00000000000E+00 -0.17879963798E+01  0.17879963798E+01  0.00000000000E+00 0.  1.
          2    1    1    2  501    0  0.24282364415E+02  0.11213576487E+02  0.52145967430E+03  0.52214516127E+03  0.00000000000E+00 0.  1.
          1    1    1    2  502    0 -0.24282364415E+02 -0.11213576487E+02  0.12230082684E+03  0.12519133263E+03  0.00000000000E+00 0.  1.
</event>
<event>
 4    1  0.3593938E+003  0.2781289E+02  0.7546771E-02  0.1439609E+00
          2   -1    0    0  502    0  0.00000000000E+00  0.00000000000E+00  0.17017514348E+04  0.17017514348E+04  0.00000000000E+00 0.  1.
          1   -1    0    0  501    0 -0.00000000000E+00 -0.00000000000E+00 -0.48944469575E+00  0.48944469575E+00  0.00000000000E+00 0.  1.
          2    1    1    2  501    0  0.13199253912E+02 -0.24481348423E+02  0.10778398461E+04  0.10781986322E+04  0.00000000000E+00 0.  1.
          1    1    1    2  502    0 -0.13199253912E+02  0.24481348423E+02  0.62342214396E+03  0.62404224721E+03  0.00000000000E+00 0.  1.
</event>
<event>
 4    1  0.3593938E+003  0.2120535E+02  0.7546771E-02  0.1516353E+00
          2   -1    0    0  502    0  0.00000000000E+00  0.00000000000E+00  0.34901793285E+02  0.34901793285E+02  0.00000000000E+00 0. -1.
          1   -1    0    0  501    0 -0.00000000000E+00 -0.00000000000E+00 -0.29938817871E+02  0.29938817871E+02  0.00000000000E+00 0. -1.
          2    1    1    2  501    0 -0.16463404272E+02 -0.13365001726E+02  0.26951047204E+02  0.34293233979E+02  0.00000000000E+00 0. -1.
          1    1    1    2  502    0  0.16463404272E+02  0.13365001726E+02 -0.21988071790E+02  0.30547377177E+02  0.00000000000E+00 0. -1.
</event>
<event>
 4    1  0.3593938E+003  0.2743763E+02  0.7546771E-02  0.1443261E+00
          2   -1    0    0  502    0  0.00000000000E+00  0.00000000000E+00  0.42088796712E+03  0.42088796712E+03  0.00000000000E+00 0. -1.
          1   -1    0    0  501    0 -0.00000000000E+00 -0.00000000000E+00 -0.25944029179E+01  0.25944029179E+01  0.00000000000E+00 0.  1.
          2    1    1    2  501    0 -0.72180131776E+00  0.27428134869E+02  0.32714789059E+03  0.32829646038E+03  0.00000000000E+00 0. -1.
          1    1    1    2  502    0  0.72180131776E+00 -0.27428134869E+02  0.91145673615E+02  0.95185909662E+02  0.00000000000E+00 0.  1.
</event>
<event>
 4    1  0.3593938E+003  0.2800867E+02  0.7546771E-02  0.1437731E+00
          2   -1    0    0  502    0  0.00000000000E+00  0.00000000000E+00  0.91552753164E+02  0.91552753164E+02  0.00000000000E+00 0. -1.
          1   -1    0    0  501    0 -0.00000000000E+00 -0.00000000000E+00 -0.87303065237E+03  0.87303065237E+03  0.00000000000E+00 0. -1.
          2    1    1    2  501    0  0.85316875578E+01  0.26677633140E+02  0.89180103806E+02  0.93475005843E+02  0.00000000000E+00 0. -1.
          1    1    1    2  502    0 -0.85316875578E+01 -0.26677633140E+02 -0.87065800301E+03  0.87110839969E+03  0.00000000000E+00 0. -1.
</event>
<event>
 4    1  0.3593938E+003  0.2142646E+02  0.7546771E-02  0.1513262E+00
          2   -1    0    0  502    0  0.00000000000E+00  0.00000000000E+00  0.26481503741E+03  0.26481503741E+03  0.00000000000E+00 0.  1.
          1   -1    0    0  501    0 -0.00000000000E+00 -0.00000000000E+00 -0.25990501220E+02  0.25990501220E+02  0.00000000000E+00 0.  1.
          2    1    1    2  501    0  0.18822597436E+02  0.10237344378E+02  0.25988197328E+03  0.26076375022E+03  0.00000000000E+00 0.  1.
          1    1    1    2  502    0 -0.18822597436E+02 -0.10237344378E+02 -0.21057437088E+02  0.30041788410E+02  0.00000000000E+00 0.  1.
</event>
<event>
 4    1  0.3593938E+003  0.3462709E+02  0.7546771E-02  0.1383204E+00
          2   -1    0    0  502    0  0.00000000000E+00  0.00000000000E+00  0.48017658767E+03  0.48017658767E+03  0.00000000000E+00 0.  1.
          1   -1    0    0  501    0 -0.00000000000E+00 -0.00000000000E+00 -0.11596962413E+02  0.11596962413E+02  0.00000000000E+00 0.  1.
          2    1    1    2  501    0 -0.16745381993E+02 -0.30308873954E+02  0.45210147019E+03  0.45342560030E+03  0.00000000000E+00 0.  1.
          1    1    1    2  502    0  0.16745381993E+02  0.30308873954E+02  0.16478155072E+02  0.38347949789E+02  0.00000000000E+00 0.  1.
</event>
<event>
 4    1  0.3593938E+003  0.2112809E+02  0.7546771E-02  0.1517444E+00
          2   -1    0    0  502    0  0.00000000000E+00  0.00000000000E+00  0.13702656735E+02  0.13702656735E+02  0.00000000000E+00 0. -1.
          1   -1    0    0  501    0 -0.00000000000E+00 -0.00000000000E+00 -0.15796229319E+03  0.15796229319E+03  0.00000000000E+00 0.  1.
          2    1    1    2  501    0 -0.14866925572E+02  0.15012355458E+02  0.43413294715E+01  0.21569502403E+02  0.00000000000E+00 0. -1.
          1    1    1    2  502    0  0.14866925572E+02 -0.15012355458E+02 -0.14860096593E+03  0.15009544752E+03  0.00000000000E+00 0.  1.
</event>
<event>
 4    1  0.3593938E+003  0.2094684E+02  0.7546771E-02  0.1520025E+00
          2   -1    0    0  502    0  0.00000000000E+00  0.00000000000E+00  0.10060952064E+03  0.10060952064E+03  0.00000000000E+00 0.  1.
          1   -1    0    0  501    0 -0.00000000000E+00 -0.00000000000E+00 -0.22643500424E+02  0.22643500424E+02  0.00000000000E+00 0.  1.
          2    1    1    2  501    0 -0.20915236332E+02 -0.11502698403E+01  0.94357808917E+02  0.96654882624E+02  0.00000000000E+00 0.  1.
          1    1    1    2  502    0  0.20915236332E+02  0.11502698403E+01 -0.16391788703E+02  0.26598138438E+02  0.00000000000E+00 0.  1.
</event>
<event>
 4    1  0.3593938E+003  0.3048457E+02  0.7546771E-02  0.1415431E+00
          2   -1    0    0  502    0  0.00000000000E+00  0.00000000000E+00  0.55485008144E+02  0.55485008144E+02  0.00000000000E+00 0. -1.
          1   -1    0    0  501    0 -0.00000000000E+00 -0.00000000000E+00 -0.62929134898E+03  0.62929134898E+03  0.00000000000E+00 0. -1.
          2    1    1    2  501    0  0.14954261522E+02  0.26564625569E+02  0.50897882620E+02  0.59328776529E+02  0.00000000000E+00 0. -1.
          1    1    1    2  502    0 -0.14954261522E+02 -0.26564625569E+02 -0.62470422345E+03  0.62544758059E+03  0.00000000000E+00 0. -1.
</event>
<event>
 4    1  0.3593938E+003  0.4374874E+02  0.7546771E-02  0.1327816E+00
          2   -1    0    0  502    0  0.00000000000E+00  0.00000000000E+00  0.76960544323E+02  0.76960544323E+02  0.00000000000E+00 0. -1.
          1   -1    0    0  501    0 -0.00000000000E+00 -0.00000000000E+00 -0.15911640666E+03  0.15911640666E+03  0.00000000000E+00 0. -1.
          2    1    1    2  501    0  0.43601485951E+02 -0.35864071980E+01  0.67344374900E+02  0.80307015412E+02  0.00000000000E+00 0. -1.
          1    1    1    2  502    0 -0.43601485951E+02  0.35864071980E+01 -0.14950023724E+03  0.15576993557E+03  0.00000000000E+00 0. -1.
</event>
<event>
 4    1  0.3593938E+003  0.2090151E+02  0.7546771E-02  0.1520676E+00
          2   -1    0    0  502    0  0.00000000000E+00  0.00000000000E+00  0.14958197278E+02  0.14958197278E+02  0.00000000000E+00 0.  1.
          1   -1    0    0  501    0 -0.00000000000E+00 -0.00000000000E+00 -0.64043982752E+03  0.64043982752E+03  0.00000000000E+00 0.  1.
          2    1    1    2  501    0 -0.13048097621E+02 -0.16328517117E+02  0.73989022707E+01  0.22172439595E+02  0.00000000000E+00 0.  1.
          1    1    1    2  502    0  0.13048097621E+02  0.16328517117E+02 -0.63288053251E+03  0.63322558520E+03  0.00000000000E+00 0.  1.
</event>
<event>
 4    1  0.3593938E+003  0.3389335E+02  0.7546771E-02  0.1388515E+00
          2   -1    0    0  502    0  0.00000000000E+00  0.00000000000E+00  0.30295893789E+03  0.30295893789E+03  0.00000000000E+00 0. -1.
          1   -1    0    0  501    0 -0.00000000000E+00 -0.00000000000E+00 -0.45503388979E+01  0.45503388979E+01  0.00000000000E+00 0. -1.
          2    1    1    2  501    0 -0.27427857600E+02 -0.19911566570E+02  0.86427809980E+02  0.92836006990E+02  0.00000000000E+00 0. -1.
          1    1    1    2  502    0  0.27427857600E+02  0.19911566570E+02  0.21198078901E+03  0.21467326979E+03  0.00000000000E+00 0. -1.
</event>
<event>
 4    1  0.3593938E+003  0.2212767E+02  0.7546771E-02  0.1503752E+00
          2   -1    0    0  502    0  0.00000000000E+00  0.00000000000E+00  0.10056105997E+03  0.10056105997E+03  0.00000000000E+00 0.  1.
          1   -1    0    0  501    0 -0.00000000000E+00 -0.00000000000E+00 -0.48693433147E+01  0.48693433147E+01  0.00000000000E+00 0.  1.
          2    1    1    2  501    0 -0.77766418406E+01 -0.20716110012E+02  0.47413412771E+02  0.52322701411E+02  0.00000000000E+00 0.  1.
          1    1    1    2  502    0  0.77766418406E+01  0.20716110012E+02  0.48278303885E+02  0.53107701874E+02  0.00000000000E+00 0.  1.
</event>
<event>
 4    1  0.3593938E+003  0.2557517E+02  0.7546771E-02  0.1462471E+00
          2   -1    0    0  502    0  0.00000000000E+00  0.00000000000E+00  0.70011307844E+03  0.70011307844E+03  0.00000000000E+00 0.  1.
          1   -1    0    0  501    0 -0.00000000000E+00 -0.00000000000E+00 -0.79822734014E+02  0.79822734014E+02  0.00000000000E+00 0.  1.
          2    1    1    2  501    0 -0.20881587670E+02  0.14766461173E+02  0.69782422829E+03  0.69829273422E+03  0.00000000000E+00 0.  1.
          1    1    1    2  502    0  0.20881587670E+02 -0.14766461173E+02 -0.77533883854E+02  0.81643078241E+02  0.00000000000E+00 0.  1.
</event>
<event>
 4    1  0.3593938E+003  0.2228437E+02  0.7546771E-02  0.1501685E+00
          2   -1    0    0  502    0  0.00000000000E+00  0.00000000000E+00  0.12782841715E+02  0.12782841715E+02  0.00000000000E+00 0.  1.
          1   -1    0    0  501    0 -0.00000000000E+00 -0.00000000000E+00 -0.71471985076E+02  0.71471985076E+02  0.00000000000E+00 0. -1.
          2    1    1    2  501    0 -0.16646733353E+02 -0.14814836372E+02 -0.88275406416E+00  0.22301846623E+02  0.00000000000E+00 0.  1.
          1    1    1    2  502    0  0.16646733353E+02  0.14814836372E+02 -0.57806389297E+02  0.61952980168E+02  0.00000000000E+00 0. -1.
</event>
<event>
 4    1  0.3593938E+003  0.2057947E+02  0.7546771E-02  0.1525354E+00
          2   -1    0    0  502    0  0.00000000000E+00  0.00000000000E+00  0.22376623406E+03  0.22376623406E+03  0.00000000000E+00 0.  1.
          1   -1    0    0  501    0 -0.00000000000E+00 -0.00000000000E+00 -0.27996864157E+01  0.27996864157E+01  0.00000000000E+00 0.  1.
          2    1    1    2  501    0  0.20569912846E+02 -0.62697181907E+00  0.17496234664E+03  0.17616849080E+03  0.00000000000E+00 0.  1.
          1    1    1    2  502    0 -0.20569912846E+02  0.62697181907E+00  0.46004201007E+02  0.50397429681E+02  0.00000000000E+00 0.  1.
</event>
<event>
 4    1  0.3593938E+003  0.2167466E+02  0.7546771E-02  0.1509847E+00
          2   -1    0    0  502    0  0.00000000000E+00  0.00000000000E+00  0.42333771653E+03  0.42333771653E+03  0.00000000000E+00 0. -1.
          1   -1    0    0  501    0 -0.00000000000E+00 -0.00000000000E+00 -0.18621310073E+01  0.18621310073E+01  0.00000000000E+00 0.  1.
          2    1    1    2  501    0 -0.18350208456E+02  0.11535191162E+02  0.34587735937E+03  0.34655582308E+03  0.00000000000E+00 0. -1.
          1    1    1    2  502    0  0.18350208456E+02 -0.11535191162E+02  0.75598226153E+02  0.78644024459E+02  0.00000000000E+00 0.  1.
</event>
<event>
 4    1  0.3593938E+003  0.3489570E+02  0.7546771E-02  0.1381298E+00
          2   -1    0    0  502    0  0.00000000000E+00  0.00000000000E+00  0.14569592676E+02  0.14569592676E+02  0.00000000000E+00 0.  1.
          1   -1    0    0  501    0 -0.00000000000E+00 -0.00000000000E+00 -0.20702946975E+03  0.20702946975E+03  0.00000000000E+00 0.  1.
          2    1    1    2  501    0 -0.34865458590E+02  0.14525036905E+01 -0.10670395793E+02  0.36490646967E+02  0.00000000000E+00 0.  1.
          1    1    1    2  502    0  0.34865458590E+02 -0.14525036905E+01 -0.18178948128E+03  0.18510841546E+03  0.00000000000E+00 0.  1.
</event>
<event>
 4    1  0.3593938E+003  0.2708695E+02  0.7546771E-02  0.1446737E+00
          2   -1    0    0  502    0  0.00000000000E+00  0.00000000000E+00  0.91416745553E+01  0.91416745553E+01  0.00000000000E+00 0. -1.
          1   -1    0    0  501    0 -0.00000000000E+00 -0.00000000000E+00 -0.25674829849E+03  0.25674829849E+03  0.00000000000E+00 0.  1.
          2    1    1    2  501    0  0.23805109630E+02  0.12923600873E+02 -0.13579043566E+02  0.30300051620E+02  0.00000000000E+00 0. -1.
          1    1    1    2  502    0 -0.23805109630E+02 -0.12923600873E+02 -0.23402758037E+03  0.23558992143E+03  0.00000000000E+00 0.  1.
</event>
<event>
 4    1  0.3593938E+003  0.4244645E+02  0.7546771E-02  0.1334717E+00
          2   -1    0    0  502    0  0.00000000000E+00  0.00000000000E+00  0.20056999394E+01  0.20056999394E+01  0.00000000000E+00 0.  1.
          1   -1    0    0  501    0 -0.00000000000E+00 -0.00000000000E+00 -0.15708892166E+04  0.15708892166E+04  0.00000000000E+00 0.  1.
          2    1    1    2  501    0  0.42269824835E+02 -0.38682293249E+01 -0.26983565011E+03  0.27315376504E+03  0.00000000000E+00 0.  1.
          1    1    1    2  502    0 -0.42269824835E+02  0.38682293249E+01 -0.12990478666E+04  0.12997411515E+04  0.00000000000E+00 0.  1.
</event>
<event>
 4    1  0.3593938E+003  0.2024041E+02  0.7546771E-02  0.1530392E+00
          2   -1    0    0  502    0  0.00000000000E+00  0.00000000000E+00  0.46033513100E+03  0.46033513100E+03  0.00000000000E+00 0.  1.
          1   -1    0    0  501    0 -0.00000000000E+00 -0.00000000000E+00 -0.37699197243E+01  0.37699197243E+01  0.00000000000E+00 0.  1.
          2    1    1    2  501    0 -0.33542571887E+01 -0.19960539997E+02  0.43110428820E+03  0.43157917176E+03  0.00000000000E+00 0.  1.
          1    1    1    2  502    0  0.33542571887E+01  0.19960539997E+02  0.25460923085E+02  0.32525878967E+02  0.00000000000E+00 0.  1.
</event>
<event>
 4    1  0.3593938E+003  0.3434702E+02  0.7546771E-02  0.1385213E+00
          2   -1    0    0  502    0  0.00000000000E+00  0.00000000000E+00  0.20209066421E+04  0.20209066421E+04  0.00000000000E+00 0.  1.
          1   -1    0    0  501    0 -0.00000000000E+00 -0.00000000000E+00 -0.66956889316E+02  0.66956889316E+02  0.00000000000E+00 0. -1.
          2    1    1    2  501    0  0.27799487565E+02  0.20171925458E+02  0.20163459734E+04  0.20166384908E+04  0.00000000000E+00 0.  1.
          1    1    1    2  502    0 -0.27799487565E+02 -0.20171925458E+02 -0.62396220540E+02  0.71225040703E+02  0.00000000000E+00 0. -1.
</event>
<event>
 4    1  0.3593938E+003  0.3129782E+02  0.7546771E-02  0.1408644E+00
          2   -1    0    0  502    0  0.00000000000E+00  0.00000000000E+00  0.35091046318E+03  0.35091046318E+03  0.00000000000E+00 0. -1.
          1   -1    0    0  501    0 -0.00000000000E+00 -0.00000000000E+00 -0.34842697254E+01  0.34842697254E+01  0.00000000000E+00 0.  1.
          2    1    1    2  501    0 -0.30566920423E+02 -0.67243739746E+01  0.25272766998E+03  0.25465825925E+03  0.00000000000E+00 0. -1.
          1    1    1    2  502    0  0.30566920423E+02  0.67243739746E+01  0.94698523479E+02  0.99736473663E+02  0.00000000000E+00 0.  1.
</event>
<event>
 4    1  0.3593938E+003  0.3006363E+02  0.7546771E-02  0.1419044E+00
          2   -1    0    0  502    0  0.00000000000E+00  0.00000000000E+00  0.15068118921E+04  0.15068118921E+04  0.00000000000E+00 0.  1.
          1   -1    0    0  501    0 -0.00000000000E+00 -0.00000000000E+00 -0.52317395869E+02  0.52317395869E+02  0.00000000000E+00 0. -1.
          2    1    1    2  501    0 -0.27525434987E+02 -0.12090171088E+02  0.15023301178E+04  0.15026308943E+04  0.00000000000E+00 0.  1.
          1    1    1    2  502    0  0.27525434987E+02  0.12090171088E+02 -0.47835621484E+02  0.56498393702E+02  0.00000000000E+00 0. -1.
</event>
<event>
 4    1  0.3593938E+003  0.2579133E+02  0.7546771E-02  0.1460142E+00
          2   -1    0    0  502    0  0.00000000000E+00  0.00000000000E+00  0.15671880016E+03  0.15671880016E+03  0.00000000000E+00 0. -1.
          1   -1    0    0  501    0 -0.00000000000E+00 -0.00000000000E+00 -0.83344438113E+01  0.83344438113E+01  0.00000000000E+00 0.  1.
          2    1    1    2  501    0 -0.53077143053E+01 -0.25239276166E+02  0.13200370595E+03  0.13449970735E+03  0.00000000000E+00 0. -1.
          1    1    1    2  502    0  0.53077143053E+01  0.25239276166E+02  0.16380650394E+02  0.30553536618E+02  0.00000000000E+00 0.  1.
</event>
<event>
 4    1  0.3593938E+003  0.2502033E+02  0.7546771E-02  0.1468576E+00
          2   -1    0    0  502    0  0.00000000000E+00  0.00000000000E+00  0.49603815790E+03  0.49603815790E+03  0.00000000000E+00 0.  1.
          1   -1    0    0  501    0 -0.00000000000E+00 -0.00000000000E+00 -0.53980739824E+01  0.53980739824E+01  0.00000000000E+00 0.  1.
          2    1    1    2  501    0  0.21801662318E+02 -0.12276180786E+02  0.46478169986E+03  0.46545466549E+03  0.00000000000E+00 0.  1.
          1    1    1    2  502    0 -0.21801662318E+02  0.12276180786E+02  0.25858384056E+02  0.35981566398E+02  0.00000000000E+00 0.  1.
</event>
<event>
 4    1  0.3593938E+003  0.3654551E+02  0.7546771E-02  0.1370012E+00
          2   -1    0    0  502    0  0.00000000000E+00  0.00000000000E+00  0.52040982135E+03  0.52040982135E+03  0.00000000000E+00 0. -1.
          1   -1    0    0  501    0 -0.00000000000E+00 -0.00000000000E+00 -0.41647946580E+01  0.41647946580E+01  0.00000000000E+00 0. -1.
          2    1    1    2  501    0 -0.28784308405E+01  0.36431979986E+02  0.42061147198E+03  0.42219614505E+03  0.00000000000E+00 0. -1.
          1    1    1    2  502    0  0.28784308405E+01 -0.36431979986E+02  0.95633554708E+02  0.10237847096E+03  0.00000000000E+00 0. -1.
</event>
<event>
 4    1  0.3593938E+003  0.2264277E+02  0.7546771E-02  0.1497033E+00
          2   -1    0    0  502    0  0.00000000000E+00  0.00000000000E+00  0.35082469659E+03  0.35082469659E+03  0.00000000000E+00 0.  1.
          1   -1    0    0  501    0 -0.00000000000E+00 -0.00000000000E+00 -0.18342231974E+01  0.18342231974E+01  0.00000000000E+00 0.  1.
          2    1    1    2  501    0 -0.22216045598E+02  0.43751781584E+01  0.25399225203E+03  0.25499952737E+03  0.00000000000E+00 0.  1.
          1    1    1    2  502    0  0.22216045598E+02 -0.43751781584E+01  0.94998221363E+02  0.97659392421E+02  0.00000000000E+00 0.  1.
</event>
<event>
 4    1  0.3593938E+003  0.3068061E+02  0.7546771E-02  0.1413772E+00
          2   -1    0    0  502    0  0.00000000000E+00  0.00000000000E+00  0.37665199860E+02  0.37665199860E+02  0.00000000000E+00 0. -1.
          1   -1    0    0  501    0 -0.00000000000E+00 -0.00000000000E+00 -0.26247183262E+02  0.26247183262E+02  0.00000000000E+00 0. -1.
          2    1    1    2  501    0  0.40114755692E+01 -0.30417213964E+02 -0.12814269670E+01  0.30707342715E+02  0.00000000000E+00 0. -1.
          1    1    1    2  502    0 -0.40114755692E+01  0.30417213964E+02  0.12699443565E+02  0.33205040407E+02  0.00000000000E+00 0. -1.
</event>
<event>
 4    1  0.3593938E+003  0.2149852E+02  0.7546771E-02  0.1512265E+00
          2   -1    0    0  502    0  0.00000000000E+00  0.00000000000E+00  0.10760666029E+03  0.10760666029E+03  0.00000000000E+00 0.  1.
          1   -1    0    0  501    0 -0.00000000000E+00 -0.00000000000E+00 -0.43688616284E+02  0.43688616284E+02  0.00000000000E+00 0.  1.
          2    1    1    2  501    0  0.10454905464E+01  0.21473085307E+02  0.10379191257E+03  0.10599503554E+03  0.00000000000E+00 0.  1.
          1    1    1    2  502    0 -0.10454905464E+01 -0.21473085307E+02 -0.39873868569E+02  0.45300241034E+02  0.00000000000E+00 0.  1.
</event>
<event>
 4    1  0.3593938E+003  0.2012413E+02  0.7546771E-02  0.1532147E+00
          2   -1    0    0  502    0  0.00000000000E+00  0.00000000000E+00  0.30957241231E+01  0.30957241231E+01  0.00000000000E+00 0.  1.
          1   -1    0    0  501    0 -0.00000000000E+00 -0.00000000000E+00 -0.30152850611E+03  0.30152850611E+03  0.00000000000E+00 0.  1.
          2    1    1    2  501    0 -0.16627280148E+02 -0.11336410799E+02 -0.34612687216E+02  0.40037716858E+02  0.00000000000E+00 0.  1.
          1    1    1    2  502    0  0.16627280148E+02  0.11336410799E+02 -0.26382009478E+03  0.26458651338E+03  0.00000000000E+00 0.  1.
</event>
<event>
 4    1  0.3593938E+003  0.2083853E+02  0.7546771E-02  0.1521583E+00
          2   -1    0    0  502    0  0.00000000000E+00  0.00000000000E+00  0.19460896395E+01  0.19460896395E+01  0.00000000000E+00 0.  1.
          1   -1    0    0  501    0 -0.00000000000E+00 -0.00000000000E+00 -0.14740575627E+04  0.14740575627E+04  0.00000000000E+00 0.  1.
          2    1    1    2  501    0 -0.80416151188E+01  0.19224382620E+02 -0.56202619034E+02  0.59941461836E+02  0.00000000000E+00 0.  1.
          1    1    1    2  502    0  0.80416151188E+01 -0.19224382620E+02 -0.14159088540E+04  0.14160621905E+04  0.00000000000E+00 0.  1.
</event>
<event>
 4    1  0.3593938E+003  0.2240680E+02  0.7546771E-02  0.1500084E+00
          2   -1    0    0  502    0  0.00000000000E+00  0.00000000000E+00  0.15791094236E+03  0.15791094236E+03  0.00000000000E+00 0. -1.
          1   -1    0    0  501    0 -0.00000000000E+00 -0.00000000000E+00 -0.34741527773E+02  0.34741527773E+02  0.00000000000E+00 0.  1.
          2    1    1    2  501    0  0.14927980539E+02 -0.16709874717E+02  0.15339749184E+03  0.15502533670E+03  0.00000000000E+00 0. -1.
          1    1    1    2  502    0 -0.14927980539E+02  0.16709874717E+02 -0.30228077252E+02  0.37627133433E+02  0.00000000000E+00 0.  1.
</event>
<event>
 4    1  0.3593938E+003  0.2975613E+02  0.7546771E-02  0.1421728E+00
          2   -1    0    0  502    0  0.00000000000E+00  0.00000000000E+00  0.14057912957E+04  0.14057912957E+04  0.00000000000E+00 0. -1.
          1   -1    0    0  501    0 -0.00000000000E+00 -0.00000000000E+00 -0.13037236421E+01  0.13037236421E+01  0.00000000000E+00 0.  1.
          2    1    1    2  501    0 -0.22087454465E+02 -0.19939191053E+02  0.12080595248E+04  0.12084259358E+04  0.00000000000E+00 0. -1.
          1    1    1    2  502    0  0.22087454465E+02  0.19939191053E+02  0.19642804729E+03  0.19866908352E+03  0.00000000000E+00 0.  1.
</event>
<event>
 4    1  0.3593938E+003  0.4727237E+02  0.7546771E-02  0.1310452E+00
          2   -1    0    0  502    0  0.00000000000E+00  0.00000000000E+00  0.10629416842E+04  0.10629416842E+04  0.00000000000E+00 0.  1.
          1   -1    0    0  501    0 -0.00000000000E+00 -0.00000000000E+00 -0.74912876403E+01  0.74912876403E+01  0.00000000000E+00 0.  1.
          2    1    1    2  501    0  0.57327297357E+01 -0.46923474513E+02  0.98166971998E+03  0.98280726278E+03  0.00000000000E+00 0.  1.
          1    1    1    2  502    0 -0.57327297357E+01  0.46923474513E+02  0.73780676548E+02  0.87625709027E+02  0.00000000000E+00 0.  1.
</event>
<event>
 4    1  0.3593938E+003  0.2988471E+02  0.7546771E-02  0.1420601E+00
          2   -1    0    0  502    0  0.00000000000E+00  0.00000000000E+00  0.51234020139E+03  0.51234020139E+03  0.00000000000E+00 0.  1.
          1   -1    0    0  501    0 -0.00000000000E+00 -0.00000000000E+00 -0.32785236004E+02  0.32785236004E+02  0.00000000000E+00 0. -1.
          2    1    1    2  501    0  0.23671877320E+01  0.29790813994E+02  0.50499524278E+03  0.50587873192E+03  0.00000000000E+00 0.  1.
          1    1    1    2  502    0 -0.23671877320E+01 -0.29790813994E+02 -0.25440277400E+02  0.39246705471E+02  0.00000000000E+00 0. -1.
</event>
<event>
 4    1  0.3593938E+003  0.2308013E+02  0.7546771E-02  0.1491494E+00
          2   -1    0    0  502    0  0.00000000000E+00  0.00000000000E+00  0.93761906440E+02  0.93761906440E+02  0.00000000000E+00 0. -1.
          1   -1    0    0  501    0 -0.00000000000E+00 -0.00000000000E+00 -0.12682419313E+02  0.12682419313E+02  0.00000000000E+00 0.  1.
          2    1    1    2  501    0 -0.19616181293E+02  0.12161319419E+02  0.80083170073E+02  0.83342704464E+02  0.00000000000E+00 0. -1.
          1    1    1    2  502    0  0.19616181293E+02 -0.12161319419E+02  0.99631705406E+00  0.23101621289E+02  0.00000000000E+00 0.  1.
</event>
<event>
 4    1  0.3593938E+003  0.2639319E+02  0.7546771E-02  0.1453801E+00
          2   -1    0    0  502    0  0.00000000000E+00  0.00000000000E+00  0.20538735801E+04  0.20538735801E+04  0.00000000000E+00 0. -1.
          1   -1    0    0  501    0 -0.00000000000E+00 -0.00000000000E+00 -0.51213685485E+00  0.51213685485E+00  0.00000000000E+00 0.  1.
          2    1    1    2  501    0 -0.17637463782E+02  0.19634675073E+02  0.16236439454E+04  0.16238584489E+04  0.00000000000E+00 0. -1.
          1    1    1    2  502    0  0.17637463782E+02 -0.19634675073E+02  0.42971749775E+03  0.43052726797E+03  0.00000000000E+00 0.  1.
</event>
<event>
 4    1  0.3593938E+003  0.2121944E+02  0.7546771E-02  0.1516155E+00
          2   -1    0    0  502    0  0.00000000000E+00  0.00000000000E+00  0.76228963992E+01  0.76228963992E+01  0.00000000000E+00 0.  1.
          1   -1    0    0  501    0 -0.00000000000E+00 -0.00000000000E+00 -0.10943165152E+04  0.10943165152E+04  0.00000000000E+00 0.  1.
          2    1    1    2  501    0  0.20096985312E+02 -0.68099850896E+01 -0.74530785293E+01  0.22490288907E+02  0.00000000000E+00 0.  1.
          1    1    1    2  502    0 -0.20096985312E+02  0.68099850896E+01 -0.10792405403E+04  0.10794491227E+04  0.00000000000E+00 0.  1.
</event>
<event>
 4    1  0.3593938E+003  0.2234093E+02  0.7546771E-02  0.1500944E+00
          2   -1    0    0  502    0  0.00000000000E+00  0.00000000000E+00  0.41854852741E+02  0.41854852741E+02  0.00000000000E+00 0.  1.
          1   -1    0    0  501    0 -0.00000000000E+00 -0.00000000000E+00 -0.32892034841E+02  0.32892034841E+02  0.00000000000E+00 0. -1.
          2    1    1    2  501    0  0.10083494916E+02 -0.19935901075E+02  0.34320581412E+02  0.40951426470E+02  0.00000000000E+00 0.  1.
          1    1    1    2  502    0 -0.10083494916E+02  0.19935901075E+02 -0.25357763512E+02  0.33795461112E+02  0.00000000000E+00 0. -1.
</event>
<event>
 4    1  0.3593938E+003  0.2697738E+02  0.7546771E-02  0.1447835E+00
          2   -1    0    0  502    0  0.00000000000E+00  0.00000000000E+00  0.22181901642E+03  0.22181901642E+03  0.00000000000E+00 0.  1.
          1   -1    0    0  501    0 -0.00000000000E+00 -0.00000000000E+00 -0.14583982894E+02  0.14583982894E+02  0.00000000000E+00 0.  1.
          2    1    1    2  501    0 -0.98896227520E+01  0.25099290829E+02  0.20767713817E+03  0.20942199683E+03  0.00000000000E+00 0.  1.
          1    1    1    2  502    0  0.98896227520E+01 -0.25099290829E+02 -0.44210464610E+00  0.26981002480E+02  0.00000000000E+00 0.  1.
</event>
<event>
 4    1  0.3593938E+003  0.3588951E+02  0.7546771E-02  0.1374415E+00
          2   -1    0    0  502    0  0.00000000000E+00  0.00000000000E+00  0.46499174675E+01  0.46499174675E+01  0.00000000000E+00 0. -1.
          1   -1    0    0  501    0 -0.00000000000E+00 -0.00000000000E+00 -0.97297138735E+03  0.97297138735E+03  0.00000000000E+00 0. -1.
          2    1    1    2  501    0 -0.17437966326E+02  0.31368363672E+02 -0.70747551053E+02  0.79330151197E+02  0.00000000000E+00 0. -1.
          1    1    1    2  502    0  0.17437966326E+02 -0.31368363672E+02 -0.89757391883E+03  0.89829115362E+03  0.00000000000E+00 0. -1.
</event>
<event>
 4    1  0.3593938E+003  0.3335583E+02  0.7546771E-02  0.1392506E+00
          2   -1    0    0  502    0  0.00000000000E+00  0.00000000000E+00  0.11068678877E+02  0.11068678877E+02  0.00000000000E+00 0. -1.
          1   -1    0    0  501    0 -0.00000000000E+00 -0.00000000000E+00 -0.17076459738E+03  0.17076459738E+03  0.00000000000E+00 0.  1.
          2    1    1    2  501    0  0.27911675322E+01  0.33238848211E+02 -0.21536454147E+02  0.39704288229E+02  0.00000000000E+00 0. -1.
          1    1    1    2  502    0 -0.27911675322E+01 -0.33238848211E+02 -0.13815946436E+03  0.14212898803E+03  0.00000000000E+00 0.  1.
</event>
<event>
 4    1  0.3593938E+003  0.2127452E+02  0.7546771E-02  0.1515381E+00
          2   -1    0    0  502    0  0.00000000000E+00  0.00000000000E+00  0.11206346336E+04  0.11206346336E+04  0.00000000000E+00 0. -1.
          1   -1    0    0  501    0 -0.00000000000E+00 -0.00000000000E+00 -0.64301431146E+00  0.64301431146E+00  0.00000000000E+00 0. -1.
          2    1    1    2  501    0  0.27500368454E+01 -0.21096033604E+02  0.90188945190E+03  0.90214033764E+03  0.00000000000E+00 0. -1.
          1    1    1    2  502    0 -0.27500368454E+01  0.21096033604E+02  0.21810216741E+03  0.21913731030E+03  0.00000000000E+00 0. -1.
</event>
<event>
 4    1  0.3593938E+003  0.3450141E+02  0.7546771E-02  0.1384103E+00
          2   -1    0    0  502    0  0.00000000000E+00  0.00000000000E+00  0.28331827408E+02  0.28331827408E+02  0.00000000000E+00 0. -1.
          1   -1    0    0  501    0 -0.00000000000E+00 -0.00000000000E+00 -0.69808673041E+03  0.69808673041E+03  0.00000000000E+00 0. -1.
          2    1    1    2  501    0  0.16984650430E+02  0.30031138099E+02  0.17232314664E+02  0.38565532207E+02  0.00000000000E+00 0. -1.
          1    1    1    2  502    0 -0.16984650430E+02 -0.30031138099E+02 -0.68698721766E+03  0.68785302561E+03  0.00000000000E+00 0. -1.
</event>
<event>
 4    1  0.3593938E+003  0.2266171E+02  0.7546771E-02  0.1496790E+00
          2   -1    0    0  502    0  0.00000000000E+00  0.00000000000E+00  0.12904580607E+03  0.12904580607E+03  0.00000000000E+00 0.  1.
          1   -1    0    0  501    0 -0.00000000000E+00 -0.00000000000E+00 -0.17089323855E+02  0.17089323855E+02  0.00000000000E+00 0. -1.
          2    1    1    2  501    0 -0.48885562007E+01  0.22128154272E+02  0.11997509801E+03  0.12209659019E+03  0.00000000000E+00 0.  1.
          1    1    1    2  502    0  0.48885562007E+01 -0.22128154272E+02 -0.80186157980E+01  0.24038539734E+02  0.00000000000E+00 0. -1.
</event>
<event>
 4    1  0.3593938E+003  0.4512873E+02  0.7546771E-02  0.1320797E+00
          2   -1    0    0  502    0  0.00000000000E+00  0.00000000000E+00  0.17941892932E+03  0.17941892932E+03  0.00000000000E+00 0. -1.
          1   -1    0    0  501    0 -0.00000000000E+00 -0.00000000000E+00 -0.70171632947E+03  0.70171632947E+03  0.00000000000E+00 0. -1.
          2    1    1    2  501    0  0.11101812212E+02 -0.43741874564E+02  0.17584104799E+03  0.18153973665E+03  0.00000000000E+00 0. -1.
          1    1    1    2  502    0 -0.11101812212E+02  0.43741874564E+02 -0.69813844814E+03  0.69959552214E+03  0.00000000000E+00 0. -1.
</event>
<event>
 4    1  0.3593938E+003  0.2872587E+02  0.7546771E-02  0.1431001E+00
          2   -1    0    0  502    0  0.00000000000E+00  0.00000000000E+00  0.25496482435E+01  0.25496482435E+01  0.00000000000E+00 0.  1.
          1   -1    0    0  501    0 -0.00000000000E+00 -0.00000000000E+00 -0.21836898807E+04  0.21836898807E+04  0.00000000000E+00 0.  1.
          2    1    1    2  501    0 -0.19664938796E+02  0.20939577067E+02 -0.81702421066E+02  0.86605203733E+02  0.00000000000E+00 0.  1.
          1    1    1    2  502    0  0.19664938796E+02 -0.20939577067E+02 -0.20994378114E+04  0.20996343252E+04  0.00000000000E+00 0.  1.
</event>
<event>
 4    1  0.3593938E+003  0.2194715E+02  0.7546771E-02  0.1506160E+00
          2   -1    0    0  502    0  0.00000000000E+00  0.00000000000E+00  0.64642125033E+03  0.64642125033E+03  0.00000000000E+00 0. -1.
          1   -1    0    0  501    0 -0.00000000000E+00 -0.00000000000E+00 -0.87017067026E+02  0.87017067026E+02  0.00000000000E+00 0. -1.
          2    1    1    2  501    0 -0.21501507980E+02 -0.44002945771E+01  0.64484772920E+03  0.64522110264E+03  0.00000000000E+00 0. -1.
          1    1    1    2  502    0  0.21501507980E+02  0.44002945771E+01 -0.85443545894E+02  0.88217214719E+02  0.00000000000E+00 0. -1.
</event>
<event>
 4    1  0.3593938E+003  0.3345490E+02  0.7546771E-02  0.1391764E+00
          2   -1    0    0  502    0  0.00000000000E+00  0.00000000000E+00  0.12187954657E+02  0.12187954657E+02  0.00000000000E+00 0.  1.
          1   -1    0    0  501    0 -0.00000000000E+00 -0.00000000000E+00 -0.46811495780E+03  0.46811495780E+03  0.00000000000E+00 0. -1.
          2    1    1    2  501    0  0.10379090683E+02  0.31804158429E+02 -0.12652156607E+02  0.35767402528E+02  0.00000000000E+00 0.  1.
          1    1    1    2  502    0 -0.10379090683E+02 -0.31804158429E+02 -0.44327484653E+03  0.44453550993E+03  0.00000000000E+00 0. -1.
</event>
<event>
 4    1  0.3593938E+003  0.2392438E+02  0.7546771E-02  0.1481206E+00
          2   -1    0    0  502    0  0.00000000000E+00  0.00000000000E+00  0.26869869551E+03  0.26869869551E+03  0.00000000000E+00 0. -1.
          1   -1    0    0  501    0 -0.00000000000E+00 -0.00000000000E+00 -0.48347927121E+01  0.48347927121E+01  0.00000000000E+00 0.  1.
          2    1    1    2  501    0  0.17613462381E+02 -0.16190799107E+02  0.23422456779E+03  0.23544325047E+03  0.00000000000E+00 0. -1.
          1    1    1    2  502    0 -0.17613462381E+02  0.16190799107E+02  0.29639335009E+02  0.38090237759E+02  0.00000000000E+00 0.  1.
</event>
<event>
 4    1  0.3593938E+003  0.3162306E+02  0.7546771E-02  0.1405998E+00
          2   -1    0    0  502    0  0.00000000000E+00  0.00000000000E+00  0.22787962348E+04  0.22787962348E+04  0.00000000000E+00 0.  1.
          1   -1    0    0  501    0 -0.00000000000E+00 -0.00000000000E+00 -0.58663685757E+01  0.58663685757E+01  0.00000000000E+00 0. -1.
          2    1    1    2  501    0  0.31602719843E+02 -0.11340243371E+01  0.22352395607E+04  0.22354632432E+04  0.00000000000E+00 0.  1.
          1    1    1    2  502    0 -0.31602719843E+02  0.11340243371E+01  0.37690305524E+02  0.49199360191E+02  0.00000000000E+00 0. -1.
</event>
<event>
 4    1  0.3593938E+003  0.2210137E+02  0.7546771E-02  0.1504101E+00
          2   -1    0    0  502    0  0.00000000000E+00  0.00000000000E+00  0.94217614855E+00  0.94217614855E+00  0.00000000000E+00 0. -1.
          1   -1    0    0  501    0 -0.00000000000E+00 -0.00000000000E+00 -0.11605130720E+04  0.11605130720E+04  0.00000000000E+00 0. -1.
          2    1    1    2  501    0  0.21536894994E+02  0.49631544218E+01 -0.14783245857E+03  0.14947543797E+03  0.00000000000E+00 0. -1.
          1    1    1    2  502    0 -0.21536894994E+02 -0.49631544218E+01 -0.10117384373E+04  0.10119798102E+04  0.00000000000E+00 0. -1.
</event>
<event>
 4    1  0.3593938E+003  0.3664613E+02  0.7546771E-02  0.1369346E+00
          2   -1    0    0  502    0  0.00000000000E+00  0.00000000000E+00  0.61111473023E+03  0.61111473023E+03  0.00000000000E+00 0. -1.
          1   -1    0    0  501    0 -0.00000000000E+00 -0.00000000000E+00 -0.99248959303E+01  0.99248959303E+01  0.00000000000E+00 0.  1.
          2    1    1    2  501    0 -0.24308371181E+02 -0.27423378608E+02  0.57458968814E+03  0.57575710879E+03  0.00000000000E+00 0. -1.
          1    1    1    2  502    0  0.24308371181E+02  0.27423378608E+02  0.26600146158E+02  0.45282517370E+02  0.00000000000E+00 0.  1.
</event>
<event>
 4    1  0.3593938E+003  0.2165880E+02  0.7546771E-02  0.1510063E+00
          2   -1    0    0  502    0  0.00000000000E+00  0.00000000000E+00  0.38578325260E+03  0.38578325260E+03  0.00000000000E+00 0. -1.
          1   -1    0    0  501    0 -0.00000000000E+00 -0.00000000000E+00 -0.56754937133E+01  0.56754937133E+01  0.00000000000E+00 0. -1.
          2    1    1    2  501    0  0.64707097095E+01 -0.20669629176E+02  0.36355331573E+03  0.36419790915E+03  0.00000000000E+00 0. -1.
          1    1    1    2  502    0 -0.64707097095E+01  0.20669629176E+02  0.16554443160E+02  0.27260837162E+02  0.00000000000E+00 0. -1.
</event>
<event>
 4    1  0.3593938E+003  0.3444363E+02  0.7546771E-02  0.1384517E+00
          2   -1    0    0  502    0  0.00000000000E+00  0.00000000000E+00  0.14094342690E+03  0.14094342690E+03  0.00000000000E+00 0. -1.
          1   -1    0    0  501    0 -0.00000000000E+00 -0.00000000000E+00 -0.55616854481E+02  0.55616854481E+02  0.00000000000E+00 0.  1.
          2    1    1    2  501    0  0.28919844148E+02 -0.18708447956E+02  0.13320141155E+03  0.13758262771E+03  0.00000000000E+00 0. -1.
          1    1    1    2  502    0 -0.28919844148E+02  0.18708447956E+02 -0.47874839129E+02  0.58977653667E+02  0.00000000000E+00 0.  1.
</event>
<event>
 4    1  0.3593938E+003  0.4101687E+02  0.7546771E-02  0.1342628E+00
          2   -1    0    0  502    0  0.00000000000E+00  0.00000000000E+00  0.53439149728E+01  0.53439149728E+01  0.00000000000E+00 0. -1.
          1   -1    0    0  501    0 -0.00000000000E+00 -0.00000000000E+00 -0.11488080860E+04  0.11488080860E+04  0.00000000000E+00 0. -1.
          2    1    1    2  501    0  0.29856592391E+01 -0.40908065856E+02 -0.80045255499E+02  0.89942353433E+02  0.00000000000E+00 0. -1.
          1    1    1    2  502    0 -0.29856592391E+01  0.40908065856E+02 -0.10634189155E+04  0.10642096475E+04  0.00000000000E+00 0. -1.
</event>
<event>
 4    1  0.3593938E+003  0.2827940E+02  0.7546771E-02  0.1435163E+00
          2   -1    0    0  502    0  0.00000000000E+00  0.00000000000E+00  0.53743023613E+03  0.53743023613E+03  0.00000000000E+00 0.  1.
          1   -1    0    0  501    0 -0.00000000000E+00 -0.00000000000E+00 -0.86265970394E+01  0.86265970394E+01  0.00000000000E+00 0. -1.
          2    1    1    2  501    0  0.26026018322E+02  0.11062122640E+02  0.51276827744E+03  0.51354749589E+03  0.00000000000E+00 0.  1.
          1    1    1    2  502    0 -0.26026018322E+02 -0.11062122640E+02  0.16035361650E+02  0.32509337278E+02  0.00000000000E+00 0. -1.
</event>
<event>
 4    1  0.3593938E+003  0.2292893E+02  0.7546771E-02  0.1493392E+00
          2   -1    0    0  502    0  0.00000000000E+00  0.00000000000E+00  0.10589803528E+03  0.10589803528E+03  0.00000000000E+00 0. -1.
          1   -1    0    0  501    0 -0.00000000000E+00 -0.00000000000E+00 -0.96043693912E+02  0.96043693912E+02  0.00000000000E+00 0.  1.
          2    1    1    2  501    0  0.83482156473E+01 -0.21355169936E+02  0.10325379281E+03  0.10576900168E+03  0.00000000000E+00 0. -1.
          1    1    1    2  502    0 -0.83482156473E+01  0.21355169936E+02 -0.93399451440E+02  0.96172727510E+02  0.00000000000E+00 0.  1.
</event>
<event>
 4    1  0.3593938E+003  0.2787757E+02  0.7546771E-02  0.1438987E+00
          2   -1    0    0  502    0  0.00000000000E+00  0.00000000000E+00  0.61677911475E+02  0.61677911475E+02  0.00000000000E+00 0. -1.
          1   -1    0    0  501    0 -0.00000000000E+00 -0.00000000000E+00 -0.19334941997E+03  0.19334941997E+03  0.00000000000E+00 0.  1.
          2    1    1    2  501    0  0.27654649741E+02 -0.35183838379E+01  0.57452987206E+02  0.63859254740E+02  0.00000000000E+00 0. -1.
          1    1    1    2  502    0 -0.27654649741E+02  0.35183838379E+01 -0.18912449570E+03  0.19116807670E+03  0.00000000000E+00 0.  1.
</event>
<event>
 4    1  0.3593938E+003  0.3423880E+02  0.7546771E-02  0.1385995E+00
          2   -1    0    0  502    0  0.00000000000E+00  0.00000000000E+00  0.42544197870E+02  0.42544197870E+02  0.00000000000E+00 0.  1.
          1   -1    0    0  501    0 -0.00000000000E+00 -0.00000000000E+00 -0.16918317265E+03  0.16918317265E+03  0.00000000000E+00 0. -1.
          2    1    1    2  501    0 -0.24309347397E+02 -0.24111220179E+02  0.33540322958E+02  0.47929621045E+02  0.00000000000E+00 0.  1.
          1    1    1    2  502    0  0.24309347397E+02  0.24111220179E+02 -0.16017929774E+03  0.16379774948E+03  0.00000000000E+00 0. -1.
</event>
<event>
 4    1  0.3593938E+003  0.2223341E+02  0.7546771E-02  0.1502355E+00
          2   -1    0    0  502    0  0.00000000000E+00  0.00000000000E+00  0.10376914214E+02  0.10376914214E+02  0.00000000000E+00 0. -1.
          1   -1    0    0  501    0 -0.00000000000E+00 -0.00000000000E+00 -0.40220348283E+03  0.40220348283E+03  0.00000000000E+00 0. -1.
          2    1    1    2  501    0 -0.93611981859E+01  0.20166623355E+02 -0.22244704081E+01  0.22344417594E+02  0.00000000000E+00 0. -1.
          1    1    1    2  502    0  0.93611981859E+01 -0.20166623355E+02 -0.38960209821E+03  0.39023597945E+03  0.00000000000E+00 0. -1.
</event>
<event>
 4    1  0.3593938E+003  0.2955534E+02  0.7546771E-02  0.1423500E+00
          2   -1    0    0  502    0  0.00000000000E+00  0.00000000000E+00  0.13167157796E+04  0.13167157796E+04  0.00000000000E+00 0. -1.
          1   -1    0    0  501    0 -0.00000000000E+00 -0.00000000000E+00 -0.42012507304E+01  0.42012507304E+01  0.00000000000E+00 0. -1.
          2    1    1    2  501    0 -0.29554954760E+02 -0.15017630703E+00  0.12623311791E+04  0.12626771256E+04  0.00000000000E+00 0. -1.
          1    1    1    2  502    0  0.29554954760E+02  0.15017630703E+00  0.50183349792E+02  0.58239904706E+02  0.00000000000E+00 0. -1.
</event>
<event>
 4    1  0.3593938E+003  0.3744542E+02  0.7546771E-02  0.1364143E+00
          2   -1    0    0  502    0  0.00000000000E+00  0.00000000000E+00  0.10613994206E+04  0.10613994206E+04  0.00000000000E+00 0. -1.
          1   -1    0    0  501    0 -0.00000000000E+00 -0.00000000000E+00 -0.32996372920E+01  0.32996372920E+01  0.00000000000E+00 0. -1.
          2    1    1    2  501    0  0.63205755258E+01  0.36908123392E+02  0.94128182795E+03  0.94202634723E+03  0.00000000000E+00 0. -1.
          1    1    1    2  502    0 -0.63205755258E+01 -0.36908123392E+02  0.11681795538E+03  0.12267271068E+03  0.00000000000E+00 0. -1.
</event>
<event>
 4    1  0.3593938E+003  0.2448543E+02  0.7546771E-02  0.1474643E+00
          2   -1    0    0  502    0  0.00000000000E+00  0.00000000000E+00  0.72078275284E+03  0.72078275284E+03  0.00000000000E+00 0.  1.
          1   -1    0    0  501    0 -0.00000000000E+00 -0.00000000000E+00 -0.43563462719E+01  0.43563462719E+01  0.00000000000E+00 0. -1.
          2    1    1    2  501    0  0.17847429277E+02  0.16763224964E+02  0.68433711971E+03  0.68477502134E+03  0.00000000000E+00 0.  1.
          1    1    1    2  502    0 -0.17847429277E+02 -0.16763224964E+02  0.32089286855E+02  0.40364077765E+02  0.00000000000E+00 0. -1.
</event>
<event>
 4    1  0.3593938E+003  0.2086591E+02  0.7546771E-02  0.1521188E+00
          2   -1    0    0  502    0  0.00000000000E+00  0.00000000000E+00  0.49593648537E+01  0.49593648537E+01  0.00000000000E+00 0. -1.
          1   -1    0    0  501    0 -0.00000000000E+00 -0.00000000000E+00 -0.87801095672E+02  0.87801095672E+02  0.00000000000E+00 0. -1.
          2    1    1    2  501    0  0.20850466960E+02  0.80246414599E+00 -0.41926470849E+02  0.46831772111E+02  0.00000000000E+00 0. -1.
          1    1    1    2  502    0 -0.20850466960E+02 -0.80246414599E+00 -0.40915259969E+02  0.45928688415E+02  0.00000000000E+00 0. -1.
</event>
<event>
 4    1  0.3593938E+003  0.2432431E+02  0.7546771E-02  0.1476506E+00
          2   -1    0    0  502    0  0.00000000000E+00  0.00000000000E+00  0.18352217786E+04  0.18352217786E+04  0.00000000000E+00 0.  1.
          1   -1    0    0  501    0 -0.00000000000E+00 -0.00000000000E+00 -0.65608116393E+00  0.65608116393E+00  0.00000000000E+00 0. -1.
          2    1    1    2  501    0 -0.13049839322E+02  0.20527388265E+02  0.15719221886E+04  0.15721103774E+04  0.00000000000E+00 0.  1.
          1    1    1    2  502    0  0.13049839322E+02 -0.20527388265E+02  0.26264350884E+03  0.26376748228E+03  0.00000000000E+00 0. -1.
</event>
<event>
 4    1  0.3593938E+003  0.2057594E+02  0.7546771E-02  0.1525406E+00
          2   -1    0    0  502    0  0.00000000000E+00  0.00000000000E+00  0.15104924261E+04  0.15104924261E+04  0.00000000000E+00 0.  1.
          1   -1    0    0  501    0 -0.00000000000E+00 -0.00000000000E+00 -0.44652378651E+02  0.44652378651E+02  0.00000000000E+00 0. -1.
          2    1    1    2  501    0  0.95387413550E+01 -0.18231344186E+02  0.15080481493E+04  0.15081885128E+04  0.00000000000E+00 0.  1.
          1    1    1    2  502    0 -0.95387413550E+01  0.18231344186E+02 -0.42208101827E+02  0.46956291988E+02  0.00000000000E+00 0. -1.
</event>
<event>
 4    1  0.3593938E+003  0.2249539E+02  0.7546771E-02  0.1498934E+00
          2   -1    0    0  502    0  0.00000000000E+00  0.00000000000E+00  0.46216732765E+02  0.46216732765E+02  0.00000000000E+00 0.  1.
          1   -1    0    0  501    0 -0.00000000000E+00 -0.00000000000E+00 -0.28472139713E+03  0.28472139713E+03  0.00000000000E+00 0. -1.
          2    1    1    2  501    0  0.18026339998E+02  0.13457103667E+02  0.43003875733E+02  0.48532215083E+02  0.00000000000E+00 0.  1.
          1    1    1    2  502    0 -0.18026339998E+02 -0.13457103667E+02 -0.28150854010E+03  0.28240591481E+03  0.00000000000E+00 0. -1.
</event>
<event>
 4    1  0.3593938E+003  0.3512816E+02  0.7546771E-02  0.1379664E+00
          2   -1    0    0  502    0  0.00000000000E+00  0.00000000000E+00  0.20733699140E+04  0.20733699140E+04  0.00000000000E+00 0. -1.
          1   -1    0    0  501    0 -0.00000000000E+00 -0.00000000000E+00 -0.85504644017E+00  0.85504644017E+00  0.00000000000E+00 0.  1.
          2    1    1    2  501    0  0.45324718877E+01 -0.34834527122E+02  0.16080289540E+04  0.16084126040E+04  0.00000000000E+00 0. -1.
          1    1    1    2  502    0 -0.45324718877E+01  0.34834527122E+02  0.46448591355E+03  0.46581235650E+03  0.00000000000E+00 0.  1.
</event>
<event>
 4    1  0.3593938E+003  0.2397866E+02  0.7546771E-02  0.1480562E+00
          2   -1    0    0  502    0  0.00000000000E+00  0.00000000000E+00  0.43665270143E+03  0.43665270143E+03  0.00000000000E+00 0.  1.
          1   -1    0    0  501    0 -0.00000000000E+00 -0.00000000000E+00 -0.12300999602E+03  0.12300999602E+03  0.00000000000E+00 0.  1.
          2    1    1    2  501    0  0.21672328080E+02 -0.10260915474E+02  0.43515092040E+03  0.43581108260E+03  0.00000000000E+00 0.  1.
          1    1    1    2  502    0 -0.21672328080E+02  0.10260915474E+02 -0.12150821499E+03  0.12385161485E+03  0.00000000000E+00 0.  1.
</event>
<event>
 4    1  0.3593938E+003  0.4474260E+02  0.7546771E-02  0.1322732E+00
          2   -1    0    0  502    0  0.00000000000E+00  0.00000000000E+00  0.35064985173E+03  0.35064985173E+03  0.00000000000E+00 0.  1.
          1   -1    0    0  501    0 -0.00000000000E+00 -0.00000000000E+00 -0.20999856135E+03  0.20999856135E+03  0.00000000000E+00 0.  1.
          2    1    1    2  501    0 -0.17384029329E+02  0.41227368241E+02  0.34681308520E+03  0.34968731238E+03  0.00000000000E+00 0.  1.
          1    1    1    2  502    0  0.17384029329E+02 -0.41227368241E+02 -0.20616179483E+03  0.21096110071E+03  0.00000000000E+00 0.  1.
</event>
<event>
 4    1  0.3593938E+003  0.2170058E+02  0.7546771E-02  0.1509493E+00
          2   -1    0    0  502    0  0.00000000000E+00  0.00000000000E+00  0.41042833208E+03  0.41042833208E+03  0.00000000000E+00 0.  1.
          1   -1    0    0  501    0 -0.00000000000E+00 -0.00000000000E+00 -0.12580049391E+01  0.12580049391E+01  0.00000000000E+00 0. -1.
          2    1    1    2  501    0 -0.16273947500E+02 -0.14355277062E+02  0.26562747297E+03  0.26651241949E+03  0.00000000000E+00 0.  1.
          1    1    1    2  502    0  0.16273947500E+02  0.14355277062E+02  0.14354285417E+03  0.14517391753E+03  0.00000000000E+00 0. -1.
</event>
<event>
 4    1  0.3593938E+003  0.2678551E+02  0.7546771E-02  0.1449775E+00
          2   -1    0    0  502    0  0.00000000000E+00  0.00000000000E+00  0.34873006276E+02  0.34873006276E+02  0.00000000000E+00 0. -1.
          1   -1    0    0  501    0 -0.00000000000E+00 -0.00000000000E+00 -0.26163838628E+02  0.26163838628E+02  0.00000000000E+00 0. -1.
          2    1    1    2  501    0  0.26568650683E+02 -0.34014861735E+01  0.18461318389E+02  0.32531270863E+02  0.00000000000E+00 0. -1.
          1    1    1    2  502    0 -0.26568650683E+02  0.34014861735E+01 -0.97521507411E+01  0.28505574041E+02  0.00000000000E+00 0. -1.
</event>
<event>
 4    1  0.3593938E+003  0.4870562E+02  0.7546771E-02  0.1303884E+00
          2   -1    0    0  502    0  0.00000000000E+00  0.00000000000E+00  0.62374809070E+01  0.62374809070E+01  0.00000000000E+00 0.  1.
          1   -1    0    0  501    0 -0.00000000000E+00 -0.00000000000E+00 -0.43383519999E+03  0.43383519999E+03  0.00000000000E+00 0. -1.
          2    1    1    2  501    0  0.45253996071E+02  0.18008637880E+02 -0.29107988912E+03  0.29512664577E+03  0.00000000000E+00 0.  1.
          1    1    1    2  502    0 -0.45253996071E+02 -0.18008637880E+02 -0.13651782997E+03  0.14494603513E+03  0.00000000000E+00 0. -1.
</event>
<event>
 4    1  0.3593938E+003  0.2994715E+02  0.7546771E-02  0.1420056E+00
          2   -1    0    0  502    0  0.00000000000E+00  0.00000000000E+00  0.95715567629E+01  0.95715567629E+01  0.00000000000E+00 0.  1.
          1   -1    0    0  501    0 -0.00000000000E+00 -0.00000000000E+00 -0.28670874958E+03  0.28670874958E+03  0.00000000000E+00 0. -1.
          2    1    1    2  501    0  0.18198088487E+02 -0.23783634559E+02 -0.17021793983E+02  0.34446671360E+02  0.00000000000E+00 0.  1.
          1    1    1    2  502    0 -0.18198088487E+02  0.23783634559E+02 -0.26011539883E+03  0.26183363498E+03  0.00000000000E+00 0. -1.
</event>
<event>
 4    1  0.3593938E+003  0.3668715E+02  0.7546771E-02  0.1369075E+00
          2   -1    0    0  502    0  0.00000000000E+00  0.00000000000E+00  0.18010448071E+04  0.18010448071E+04  0.00000000000E+00 0. -1.
          1   -1    0    0  501    0 -0.00000000000E+00 -0.00000000000E+00 -0.14383961330E+01  0.14383961330E+01  0.00000000000E+00 0. -1.
          2    1    1    2  501    0 -0.34931976098E+02 -0.11211795515E+02  0.15244961208E+04  0.15249374970E+04  0.00000000000E+00 0. -1.
          1    1    1    2  502    0  0.34931976098E+02  0.11211795515E+02  0.27511029021E+03  0.27754570631E+03  0.00000000000E+00 0. -1.
</event>
<event>
 4    1  0.3593938E+003  0.2446366E+02  0.7546771E-02  0.1474894E+00
          2   -1    0    0  502    0  0.00000000000E+00  0.00000000000E+00  0.50831501554E+03  0.50831501554E+03  0.00000000000E+00 0.  1.
          1   -1    0    0  501    0 -0.00000000000E+00 -0.00000000000E+00 -0.62208513414E+01  0.62208513414E+01  0.00000000000E+00 0. -1.
          2    1    1    2  501    0  0.19074639269E+02  0.15317598467E+02  0.48269388375E+03  0.48331341394E+03  0.00000000000E+00 0.  1.
          1    1    1    2  502    0 -0.19074639269E+02 -0.15317598467E+02  0.19400280445E+02  0.31222452937E+02  0.00000000000E+00 0. -1.
</event>
<event>
 4    1  0.3593938E+003  0.2157216E+02  0.7546771E-02  0.1511250E+00
          2   -1    0    0  502    0  0.00000000000E+00  0.00000000000E+00  0.73700511480E+03  0.73700511480E+03  0.00000000000E+00 0.  1.
          1   -1    0    0  501    0 -0.00000000000E+00 -0.00000000000E+00 -0.10826367274E+02  0.10826367274E+02  0.00000000000E+00 0.  1.
          2    1    1    2  501    0 -0.16066880209E+02  0.14394908275E+02  0.72593752351E+03  0.72625797488E+03  0.00000000000E+00 0.  1.
          1    1    1    2  502    0  0.16066880209E+02 -0.14394908275E+02  0.24122401179E+00  0.21573507200E+02  0.00000000000E+00 0.  1.
</event>
<event>
 4    1  0.3593938E+003  0.4530257E+02  0.7546771E-02  0.1319933E+00
          2   -1    0    0  502    0  0.00000000000E+00  0.00000000000E+00  0.55541002448E+03  0.55541002448E+03  0.00000000000E+00 0. -1.
          1   -1    0    0  501    0 -0.00000000000E+00 -0.00000000000E+00 -0.24479801249E+03  0.24479801249E+03  0.00000000000E+00 0. -1.
          2    1    1    2  501    0  0.23569341721E+02  0.38688615335E+02  0.55237882002E+03  0.55423341981E+03  0.00000000000E+00 0. -1.
          1    1    1    2  502    0 -0.23569341721E+02 -0.38688615335E+02 -0.24176680802E+03  0.24597461716E+03  0.00000000000E+00 0. -1.
</event>
<event>
 4    1  0.3593938E+003  0.2291957E+02  0.7546771E-02  0.1493511E+00
          2   -1    0    0  502    0  0.00000000000E+00  0.00000000000E+00  0.12737584946E+03  0.12737584946E+03  0.00000000000E+00 0. -1.
          1   -1    0    0  501    0 -0.00000000000E+00 -0.00000000000E+00 -0.17087363679E+02  0.17087363679E+02  0.00000000000E+00 0. -1.
          2    1    1    2  501    0  0.11259259100E+01  0.22891896772E+02  0.11805826619E+03  0.12026246656E+03  0.00000000000E+00 0. -1.
          1    1    1    2  502    0 -0.11259259100E+01 -0.22891896772E+02 -0.77697804160E+01  0.24200746573E+02  0.00000000000E+00 0. -1.
</event>
<event>
 4    1  0.3593938E+003  0.3913107E+02  0.7546771E-02  0.1353654E+00
          2   -1    0    0  502    0  0.00000000000E+00  0.00000000000E+00  0.19645769643E+04  0.19645769643E+04  0.00000000000E+00 0.  1.
          1   -1    0    0  501    0 -0.00000000000E+00 -0.00000000000E+00 -0.80086450456E+00  0.80086450456E+00  0.00000000000E+00 0. -1.
          2    1    1    2  501    0  0.68957158414E+01  0.38518694003E+02  0.11426719063E+04  0.11433417364E+04  0.00000000000E+00 0.  1.
          1    1    1    2  502    0 -0.68957158414E+01 -0.38518694003E+02  0.82110419347E+03  0.82203609241E+03  0.00000000000E+00 0. -1.
</event>
<event>
 4    1  0.3593938E+003  0.2417859E+02  0.7546771E-02  0.1478206E+00
          2   -1    0    0  502    0  0.00000000000E+00  0.00000000000E+00  0.15150377468E+03  0.15150377468E+03  0.00000000000E+00 0.  1.
          1   -1    0    0  501    0 -0.00000000000E+00 -0.00000000000E+00 -0.96335299400E+03  0.96335299400E+03  0.00000000000E+00 0.  1.
          2    1    1    2  501    0 -0.21791227339E+02 -0.10476004175E+02  0.15038627427E+03  0.15231754902E+03  0.00000000000E+00 0.  1.
          1    1    1    2  502    0  0.21791227339E+02  0.10476004175E+02 -0.96223549359E+03  0.96253921966E+03  0.00000000000E+00 0.  1.
</event>
<event>
 4    1  0.3593938E+003  0.2508358E+02  0.7546771E-02  0.1467870E+00
          2   -1    0    0  502    0  0.00000000000E+00  0.00000000000E+00  0.17898038334E+04  0.17898038334E+04  0.00000000000E+00 0. -1.
          1   -1    0    0  501    0 -0.00000000000E+00 -0.00000000000E+00 -0.22999044851E+01  0.22999044851E+01  0.00000000000E+00 0.  1.
          2    1    1    2  501    0 -0.25069954087E+02  0.82677424034E+00  0.17184851021E+04  0.17186681565E+04  0.00000000000E+00 0. -1.
          1    1    1    2  502    0  0.25069954087E+02 -0.82677424034E+00  0.69018826869E+02  0.73435581402E+02  0.00000000000E+00 0.  1.
</event>
<event>
 4    1  0.3593938E+003  0.2483117E+02  0.7546771E-02  0.1470701E+00
          2   -1    0    0  502    0  0.00000000000E+00  0.00000000000E+00  0.26980935269E+00  0.26980935269E+00  0.00000000000E+00 0. -1.
          1   -1    0    0  501    0 -0.00000000000E+00 -0.00000000000E+00 -0.26403623972E+04  0.26403623972E+04  0.00000000000E+00 0.  1.
          2    1    1    2  501    0 -0.20187444378E+02  0.14458705033E+02 -0.83585475621E+03  0.83622351112E+03  0.00000000000E+00 0. -1.
          1    1    1    2  502    0  0.20187444378E+02 -0.14458705033E+02 -0.18042378316E+04  0.18044086954E+04  0.00000000000E+00 0.  1.
</event>
<event>
 4    1  0.3593938E+003  0.2323629E+02  0.7546771E-02  0.1489552E+00
          2   -1    0    0  502    0  0.00000000000E+00  0.00000000000E+00  0.13194796657E+04  0.13194796657E+04  0.00000000000E+00 0.  1.
          1   -1    0    0  501    0 -0.00000000000E+00 -0.00000000000E+00 -0.37400865178E+01  0.37400865178E+01  0.00000000000E+00 0. -1.
          2    1    1    2  501    0 -0.23097926412E+02  0.25320315732E+01  0.12822388219E+04  0.12824493447E+04  0.00000000000E+00 0.  1.
          1    1    1    2  502    0  0.23097926412E+02 -0.25320315732E+01  0.33500757247E+02  0.40770407461E+02  0.00000000000E+00 0. -1.
</event>
<event>
 4    1  0.3593938E+003  0.5414033E+02  0.7546771E-02  0.1281155E+00
          2   -1    0    0  502    0  0.00000000000E+00  0.00000000000E+00  0.13597373765E+03  0.13597373765E+03  0.00000000000E+00 0.  1.
          1   -1    0    0  501    0 -0.00000000000E+00 -0.00000000000E+00 -0.27477236686E+03  0.27477236686E+03  0.00000000000E+00 0. -1.
          2    1    1    2  501    0  0.31316022674E+02  0.44164260954E+02  0.12775306643E+03  0.13875165298E+03  0.00000000000E+00 0.  1.
          1    1    1    2  502    0 -0.31316022674E+02 -0.44164260954E+02 -0.26655169564E+03  0.27199445154E+03  0.00000000000E+00 0. -1.
</event>
<event>
 4    1  0.3593938E+003  0.2025021E+02  0.7546771E-02  0.1530245E+00
          2   -1    0    0  502    0  0.00000000000E+00  0.00000000000E+00  0.19487781356E+02  0.19487781356E+02  0.00000000000E+00 0. -1.
          1   -1    0    0  501    0 -0.00000000000E+00 -0.00000000000E+00 -0.69571255875E+03  0.69571255875E+03  0.00000000000E+00 0. -1.
          2    1    1    2  501    0  0.17996923974E+02  0.92834069713E+01  0.14038286547E+02  0.24640300459E+02  0.00000000000E+00 0. -1.
          1    1    1    2  502    0 -0.17996923974E+02 -0.92834069713E+01 -0.69026306394E+03  0.69056003965E+03  0.00000000000E+00 0. -1.
</event>
<event>
 4    1  0.3593938E+003  0.2692301E+02  0.7546771E-02  0.1448383E+00
          2   -1    0    0  502    0  0.00000000000E+00  0.00000000000E+00  0.44498488445E+02  0.44498488445E+02  0.00000000000E+00 0. -1.
          1   -1    0    0  501    0 -0.00000000000E+00 -0.00000000000E+00 -0.30156282621E+02  0.30156282621E+02  0.00000000000E+00 0.  1.
          2    1    1    2  501    0  0.25051657153E+02 -0.98622053920E+01  0.32483301494E+02  0.42190206177E+02  0.00000000000E+00 0. -1.
          1    1    1    2  502    0 -0.25051657153E+02  0.98622053920E+01 -0.18141095670E+02  0.32464564889E+02  0.00000000000E+00 0.  1.
</event>
<event>
 4    1  0.3593938E+003  0.3797277E+02  0.7546771E-02  0.1360793E+00
          2   -1    0    0  502    0  0.00000000000E+00  0.00000000000E+00  0.14167301220E+04  0.14167301220E+04  0.00000000000E+00 0.  1.
          1   -1    0    0  501    0 -0.00000000000E+00 -0.00000000000E+00 -0.62472818513E+01  0.62472818513E+01  0.00000000000E+00 0.  1.
          2    1    1    2  501    0 -0.11674191003E+02  0.36133699302E+02  0.13561983956E+04  0.13567298992E+04  0.00000000000E+00 0.  1.
          1    1    1    2  502    0  0.11674191003E+02 -0.36133699302E+02  0.54284444498E+02  0.66247504672E+02  0.00000000000E+00 0.  1.
</event>
<event>
 4    1  0.3593938E+003  0.3761017E+02  0.7546771E-02  0.1363089E+00
          2   -1    0    0  502    0  0.00000000000E+00  0.00000000000E+00  0.10625154856E+03  0.10625154856E+03  0.00000000000E+00 0. -1.
          1   -1    0    0  501    0 -0.00000000000E+00 -0.00000000000E+00 -0.33568697849E+02  0.33568697849E+02  0.00000000000E+00 0.  1.
          2    1    1    2  501    0  0.24236209138E+02  0.28759881670E+02  0.90647279761E+02  0.98139971241E+02  0.00000000000E+00 0. -1.
          1    1    1    2  502    0 -0.24236209138E+02 -0.28759881670E+02 -0.17964429050E+02  0.41680275169E+02  0.00000000000E+00 0.  1.
</event>
<event>
 4    1  0.3593938E+003  0.3171776E+02  0.7546771E-02  0.1405234E+00
          2   -1    0    0  502    0  0.00000000000E+00  0.00000000000E+00  0.17985354475E+03  0.17985354475E+03  0.00000000000E+00 0. -1.
          1   -1    0    0  501    0 -0.00000000000E+00 -0.00000000000E+00 -0.20644946959E+02  0.20644946959E+02  0.00000000000E+00 0.  1.
          2    1    1    2  501    0  0.24279423271E+02 -0.20408968178E+02  0.16520215899E+03  0.16821940944E+03  0.00000000000E+00 0. -1.
          1    1    1    2  502    0 -0.24279423271E+02  0.20408968178E+02 -0.59935611993E+01  0.32279082271E+02  0.00000000000E+00 0.  1.
</event>
<event>
 4    1  0.3593938E+003  0.2237810E+02  0.7546771E-02  0.1500459E+00
          2   -1    0    0  502    0  0.00000000000E+00  0.00000000000E+00  0.65178570870E+03  0.65178570870E+03  0.00000000000E+00 0.  1.
          1   -1    0    0  501    0 -0.00000000000E+00 -0.00000000000E+00 -0.16599635483E+01  0.16599635483E+01  0.00000000000E+00 0.  1.
          2    1    1    2  501    0 -0.22376312795E+02 -0.28270069785E+00  0.56451908709E+03  0.56496245803E+03  0.00000000000E+00 0.  1.
          1    1    1    2  502    0  0.22376312795E+02  0.28270069785E+00  0.85606658061E+02  0.88483214218E+02  0.00000000000E+00 0.  1.
</event>
<event>
 4    1  0.3593938E+003  0.2145875E+02  0.7546771E-02  0.1512815E+00
          2   -1    0    0  502    0  0.00000000000E+00  0.00000000000E+00  0.25984570506E+03  0.25984570506E+03  0.00000000000E+00 0. -1.
          1   -1    0    0  501    0 -0.00000000000E+00 -0.00000000000E+00 -0.17097269798E+02  0.17097269798E+02  0.00000000000E+00 0. -1.
          2    1    1    2  501    0 -0.92249452337E+01 -0.19374679248E+02  0.25247320490E+03  0.25338349789E+03  0.00000000000E+00 0. -1.
          1    1    1    2  502    0  0.92249452337E+01  0.19374679248E+02 -0.97247696375E+01  0.23559476968E+02  0.00000000000E+00 0. -1.
</event>
<event>
 4    1  0.3593938E+003  0.2869925E+02  0.7546771E-02  0.1431247E+00
          2   -1    0    0  502    0  0.00000000000E+00  0.00000000000E+00  0.77201833529E+03  0.77201833529E+03  0.00000000000E+00 0. -1.
          1   -1    0    0  501    0 -0.00000000000E+00 -0.00000000000E+00 -0.32265099002E+01  0.32265099002E+01  0.00000000000E+00 0. -1.
          2    1    1    2  501    0  0.24848344142E+02  0.14359892639E+02  0.70152246286E+03  0.70210925974E+03  0.00000000000E+00 0. -1.
          1    1    1    2  502    0 -0.24848344142E+02 -0.14359892639E+02  0.67269362533E+02  0.73135585448E+02  0.00000000000E+00 0. -1.
</event>
<event>
 4    1  0.3593938E+003  0.2371716E+02  0.7546771E-02  0.1483684E+00
          2   -1    0    0  502    0  0.00000000000E+00  0.00000000000E+00  0.19982111959E+03  0.19982111959E+03  0.00000000000E+00 0. -1.
          1   -1    0    0  501    0 -0.00000000000E+00 -0.00000000000E+00 -0.11022745103E+02  0.11022745103E+02  0.00000000000E+00 0. -1.
          2    1    1    2  501    0  0.65904941851E+01 -0.22783084711E+02  0.18536895353E+03  0.18688004841E+03  0.00000000000E+00 0. -1.
          1    1    1    2  502    0 -0.65904941851E+01  0.22783084711E+02  0.34294209586E+01  0.23963816280E+02  0.00000000000E+00 0. -1.
</event>
<event>
 4    1  0.3593938E+003  0.2346308E+02  0.7546771E-02  0.1486764E+00
          2   -1    0    0  502    0  0.00000000000E+00  0.00000000000E+00  0.21678912562E+02  0.21678912562E+02  0.00000000000E+00 0. -1.
          1   -1    0    0  501    0 -0.00000000000E+00 -0.00000000000E+00 -0.12363549456E+03  0.12363549456E+03  0.00000000000E+00 0.  1.
          2    1    1    2  501    0 -0.21489367585E+02  0.94193063356E+01  0.13788797655E+02  0.27214834040E+02  0.00000000000E+00 0. -1.
          1    1    1    2  502    0  0.21489367585E+02 -0.94193063356E+01 -0.11574537965E+03  0.11809957308E+03  0.00000000000E+00 0.  1.
</event>
<event>
 4    1  0.3593938E+003  0.2383306E+02  0.7546771E-02  0.1482294E+00
          2   -1    0    0  502    0  0.00000000000E+00  0.00000000000E+00  0.15295180593E+04  0.15295180593E+04  0.00000000000E+00 0.  1.
          1   -1    0    0  501    0 -0.00000000000E+00 -0.00000000000E+00 -0.46173248066E+00  0.46173248066E+00  0.00000000000E+00 0.  1.
          2    1    1    2  501    0  0.22784803606E+02  0.69905178498E+01  0.11029500922E+04  0.11032075600E+04  0.00000000000E+00 0.  1.
          1    1    1    2  502    0 -0.22784803606E+02 -0.69905178498E+01  0.42610623465E+03  0.42677223179E+03  0.00000000000E+00 0.  1.
</event>
<event>
 4    1  0.3593938E+003  0.2190613E+02  0.7546771E-02  0.1506710E+00
          2   -1    0    0  502    0  0.00000000000E+00  0.00000000000E+00  0.95017306655E+03  0.95017306655E+03  0.00000000000E+00 0.  1.
          1   -1    0    0  501    0 -0.00000000000E+00 -0.00000000000E+00 -0.14642549536E+01  0.14642549536E+01  0.00000000000E+00 0. -1.
          2    1    1    2  501    0 -0.69731608600E+01  0.20766641997E+02  0.85946935573E+03  0.85974848173E+03  0.00000000000E+00 0.  1.
          1    1    1    2  502    0  0.69731608600E+01 -0.20766641997E+02  0.89239455859E+02  0.91888839770E+02  0.00000000000E+00 0. -1.
</event>
<event>
 4    1  0.3593938E+003  0.2334817E+02  0.7546771E-02  0.1488172E+00
          2   -1    0    0  502    0  0.00000000000E+00  0.00000000000E+00  0.11919291815E+04  0.11919291815E+04  0.00000000000E+00 0. -1.
          1   -1    0    0  501    0 -0.00000000000E+00 -0.00000000000E+00 -0.49802565242E+00  0.49802565242E+00  0.00000000000E+00 0. -1.
          2    1    1    2  501    0 -0.23285121658E+02  0.17146210112E+01  0.76609119161E+03  0.76644690011E+03  0.00000000000E+00 0. -1.
          1    1    1    2  502    0  0.23285121658E+02 -0.17146210112E+01  0.42533996419E+03  0.42598030701E+03  0.00000000000E+00 0. -1.
</event>
<event>
 4    1  0.3593938E+003  0.2280101E+02  0.7546771E-02  0.1495012E+00
          2   -1    0    0  502    0  0.00000000000E+00  0.00000000000E+00  0.13470809755E+02  0.13470809755E+02  0.00000000000E+00 0. -1.
          1   -1    0    0  501    0 -0.00000000000E+00 -0.00000000000E+00 -0.39897642525E+02  0.39897642525E+02  0.00000000000E+00 0. -1.
          2    1    1    2  501    0  0.19538791604E+02  0.11752525300E+02 -0.83890870493E+01  0.24295328971E+02  0.00000000000E+00 0. -1.
          1    1    1    2  502    0 -0.19538791604E+02 -0.11752525300E+02 -0.18037745721E+02  0.29073123310E+02  0.00000000000E+00 0. -1.
</event>
<event>
 4    1  0.3593938E+003  0.5264848E+02  0.7546771E-02  0.1287081E+00
          2   -1    0    0  502    0  0.00000000000E+00  0.00000000000E+00  0.27634761839E+03  0.27634761839E+03  0.00000000000E+00 0. -1.
          1   -1    0    0  501    0 -0.00000000000E+00 -0.00000000000E+00 -0.11877237451E+02  0.11877237451E+02  0.00000000000E+00 0. -1.
          2    1    1    2  501    0  0.22269391389E+02  0.47706744736E+02  0.75406761124E+02  0.91967597062E+02  0.00000000000E+00 0. -1.
          1    1    1    2  502    0 -0.22269391389E+02 -0.47706744736E+02  0.18906361982E+03  0.19625725878E+03  0.00000000000E+00 0. -1.
</event>
<event>
 4    1  0.4024880E+003  0.2134787E+02  0.7546771E-02  0.1514356E+00
          2   -1    0    0  502    0  0.00000000000E+00  0.00000000000E+00  0.63158239176E+03  0.63158239176E+03  0.00000000000E+00 0. -1.
          1   -1    0    0  501    0 -0.00000000000E+00 -0.00000000000E+00 -0.11161707811E+04  0.11161707811E+04  0.00000000000E+00 0.  1.
          2    1    1    2  501    0 -0.58192635178E+01 -0.20539422304E+02  0.63129987847E+03  0.63166072242E+03  0.00000000000E+00 0. -1.
          1    1    1    2  502    0  0.58192635178E+01  0.20539422304E+02 -0.11158882678E+04  0.11160924504E+04  0.00000000000E+00 0.  1.
</event>
<event>
 4    1  0.3593938E+003  0.2382501E+02  0.7546771E-02  0.1482390E+00
          2   -1    0    0  502    0  0.00000000000E+00  0.00000000000E+00  0.67026496936E+02  0.67026496936E+02  0.00000000000E+00 0.  1.
          1   -1    0    0  501    0 -0.00000000000E+00 -0.00000000000E+00 -0.13628328112E+02  0.13628328112E+02  0.00000000000E+00 0. -1.
          2    1    1    2  501    0 -0.23792295424E+02 -0.12482033237E+01  0.51512453283E+02  0.56755300865E+02  0.00000000000E+00 0.  1.
          1    1    1    2  502    0  0.23792295424E+02  0.12482033237E+01  0.18857155413E+01  0.23899524183E+02  0.00000000000E+00 0. -1.
</event>
<event>
 4    1  0.3593938E+003  0.2095283E+02  0.7546771E-02  0.1519939E+00
          2   -1    0    0  502    0  0.00000000000E+00  0.00000000000E+00  0.19180972492E+02  0.19180972492E+02  0.00000000000E+00 0. -1.
          1   -1    0    0  501    0 -0.00000000000E+00 -0.00000000000E+00 -0.90700089315E+02  0.90700089315E+02  0.00000000000E+00 0. -1.
          2    1    1    2  501    0 -0.10051025927E+02  0.18384726329E+02  0.11745664187E+02  0.24020447780E+02  0.00000000000E+00 0. -1.
          1    1    1    2  502    0  0.10051025927E+02 -0.18384726329E+02 -0.83264781010E+02  0.85860614027E+02  0.00000000000E+00 0. -1.
</event>
<event>
 4    1  0.3593938E+003  0.2167285E+02  0.7546771E-02  0.1509871E+00
          2   -1    0    0  502    0  0.00000000000E+00  0.00000000000E+00  0.23477365591E+03  0.23477365591E+03  0.00000000000E+00 0.  1.
          1   -1    0    0  501    0 -0.00000000000E+00 -0.00000000000E+00 -0.30899269166E+01  0.30899269166E+01  0.00000000000E+00 0.  1.
          2    1    1    2  501    0 -0.20256930946E+02 -0.77051145604E+01  0.45229182122E+02  0.50153673416E+02  0.00000000000E+00 0.  1.
          1    1    1    2  502    0  0.20256930946E+02  0.77051145604E+01  0.18645454687E+03  0.18770990941E+03  0.00000000000E+00 0.  1.
</event>
<event>
 4    1  0.3593938E+003  0.2589932E+02  0.7546771E-02  0.1458989E+00
          2   -1    0    0  502    0  0.00000000000E+00  0.00000000000E+00  0.10670657633E+04  0.10670657633E+04  0.00000000000E+00 0.  1.
          1   -1    0    0  501    0 -0.00000000000E+00 -0.00000000000E+00 -0.74957112601E+00  0.74957112601E+00  0.00000000000E+00 0.  1.
          2    1    1    2  501    0 -0.12228720176E+02  0.22830532366E+02  0.74763056288E+03  0.74807902882E+03  0.00000000000E+00 0.  1.
          1    1    1    2  502    0  0.12228720176E+02 -0.22830532366E+02  0.31868562930E+03  0.31973630561E+03  0.00000000000E+00 0.  1.
</event>
<event>
 4    1  0.3593938E+003  0.2701868E+02  0.7546771E-02  0.1447421E+00
          2   -1    0    0  502    0  0.00000000000E+00  0.00000000000E+00  0.95146187516E+02  0.95146187516E+02  0.00000000000E+00 0.  1.
          1   -1    0    0  501    0 -0.00000000000E+00 -0.00000000000E+00 -0.28538076482E+02  0.28538076482E+02  0.00000000000E+00 0.  1.
          2    1    1    2  501    0  0.36298621248E-01 -0.27018659590E+02  0.86183548350E+02  0.90319506697E+02  0.00000000000E+00 0.  1.
          1    1    1    2  502    0 -0.36298621248E-01  0.27018659590E+02 -0.19575437317E+02  0.33364757302E+02  0.00000000000E+00 0.  1.
</event>
<event>
 4    1  0.3593938E+003  0.2058357E+02  0.7546771E-02  0.1525294E+00
          2   -1    0    0  502    0  0.00000000000E+00  0.00000000000E+00  0.14699264509E+03  0.14699264509E+03  0.00000000000E+00 0. -1.
          1   -1    0    0  501    0 -0.00000000000E+00 -0.00000000000E+00 -0.11904189772E+02  0.11904189772E+02  0.00000000000E+00 0.  1.
          2    1    1    2  501    0 -0.20355398500E+02  0.30563518667E+01  0.13670868948E+03  0.13824959065E+03  0.00000000000E+00 0. -1.
          1    1    1    2  502    0  0.20355398500E+02 -0.30563518667E+01 -0.16202341647E+01  0.20647244212E+02  0.00000000000E+00 0.  1.
</event>
<event>
 4    1  0.3593938E+003  0.2118543E+02  0.7546771E-02  0.1516634E+00
          2   -1    0    0  502    0  0.00000000000E+00  0.00000000000E+00  0.59909666577E+03  0.59909666577E+03  0.00000000000E+00 0. -1.
          1   -1    0    0  501    0 -0.00000000000E+00 -0.00000000000E+00 -0.42179343193E+02  0.42179343193E+02  0.00000000000E+00 0.  1.
          2    1    1    2  501    0  0.33126684211E+01 -0.20924836309E+02  0.59623641344E+03  0.59661267441E+03  0.00000000000E+00 0. -1.
          1    1    1    2  502    0 -0.33126684211E+01  0.20924836309E+02 -0.39319090869E+02  0.44663334553E+02  0.00000000000E+00 0.  1.
</event>
<event>
 4    1  0.3593938E+003  0.2725354E+02  0.7546771E-02  0.1445078E+00
          2   -1    0    0  502    0  0.00000000000E+00  0.00000000000E+00  0.94101974082E+02  0.94101974082E+02  0.00000000000E+00 0. -1.
          1   -1    0    0  501    0 -0.00000000000E+00 -0.00000000000E+00 -0.37900139238E+02  0.37900139238E+02  0.00000000000E+00 0. -1.
          2    1    1    2  501    0  0.10647525117E+02 -0.25087562780E+02  0.86828498386E+02  0.91005185178E+02  0.00000000000E+00 0. -1.
          1    1    1    2  502    0 -0.10647525117E+02  0.25087562780E+02 -0.30626663543E+02  0.40996928142E+02  0.00000000000E+00 0. -1.
</event>
<event>
 4    1  0.3593938E+003  0.2758465E+02  0.7546771E-02  0.1441822E+00
          2   -1    0    0  502    0  0.00000000000E+00  0.00000000000E+00  0.66466447601E+03  0.66466447601E+03  0.00000000000E+00 0. -1.
          1   -1    0    0  501    0 -0.00000000000E+00 -0.00000000000E+00 -0.17161292641E+03  0.17161292641E+03  0.00000000000E+00 0.  1.
          2    1    1    2  501    0 -0.27185127097E+02 -0.46777911866E+01  0.66326746788E+03  0.66384082943E+03  0.00000000000E+00 0. -1.
          1    1    1    2  502    0  0.27185127097E+02  0.46777911866E+01 -0.17021591828E+03  0.17243657298E+03  0.00000000000E+00 0.  1.
</event>
<event>
 4    1  0.3593938E+003  0.2358248E+02  0.7546771E-02  0.1485311E+00
          2   -1    0    0  502    0  0.00000000000E+00  0.00000000000E+00  0.36042751968E+03  0.36042751968E+03  0.00000000000E+00 0. -1.
          1   -1    0    0  501    0 -0.00000000000E+00 -0.00000000000E+00 -0.79694661566E+03  0.79694661566E+03  0.00000000000E+00 0. -1.
          2    1    1    2  501    0  0.21898420499E+02 -0.87517250026E+01  0.35986704495E+03  0.36063891020E+03  0.00000000000E+00 0. -1.
          1    1    1    2  502    0 -0.21898420499E+02  0.87517250026E+01 -0.79638614093E+03  0.79673522514E+03  0.00000000000E+00 0. -1.
</event>
<event>
 4    1  0.3593938E+003  0.2986651E+02  0.7546771E-02  0.1420760E+00
          2   -1    0    0  502    0  0.00000000000E+00  0.00000000000E+00  0.11742808201E+02  0.11742808201E+02  0.00000000000E+00 0.  1.
          1   -1    0    0  501    0 -0.00000000000E+00 -0.00000000000E+00 -0.57280204684E+03  0.57280204684E+03  0.00000000000E+00 0.  1.
          2    1    1    2  501    0 -0.68519147225E+01  0.29069905526E+02 -0.83260423317E+01  0.31005340243E+02  0.00000000000E+00 0.  1.
          1    1    1    2  502    0  0.68519147225E+01 -0.29069905526E+02 -0.55273319630E+03  0.55353951479E+03  0.00000000000E+00 0.  1.
</event>
<event>
 4    1  0.3593938E+003  0.2307310E+02  0.7546771E-02  0.1491582E+00
          2   -1    0    0  502    0  0.00000000000E+00  0.00000000000E+00  0.16858429506E+02  0.16858429506E+02  0.00000000000E+00 0.  1.
          1   -1    0    0  501    0 -0.00000000000E+00 -0.00000000000E+00 -0.41810522660E+03  0.41810522660E+03  0.00000000000E+00 0. -1.
          2    1    1    2  501    0  0.18700364642E+02  0.13515328868E+02  0.84841993444E+01  0.24583518679E+02  0.00000000000E+00 0.  1.
          1    1    1    2  502    0 -0.18700364642E+02 -0.13515328868E+02 -0.40973099644E+03  0.41038013743E+03  0.00000000000E+00 0. -1.
</event>
<event>
 4    1  0.3593938E+003  0.2642106E+02  0.7546771E-02  0.1453512E+00
          2   -1    0    0  502    0  0.00000000000E+00  0.00000000000E+00  0.20168586742E+01  0.20168586742E+01  0.00000000000E+00 0.  1.
          1   -1    0    0  501    0 -0.00000000000E+00 -0.00000000000E+00 -0.34893090619E+03  0.34893090619E+03  0.00000000000E+00 0.  1.
          2    1    1    2  501    0 -0.12205331075E+02  0.23432933597E+02 -0.15770388617E+03  0.15990180798E+03  0.00000000000E+00 0.  1.
          1    1    1    2  502    0  0.12205331075E+02 -0.23432933597E+02 -0.18921016135E+03  0.19104595689E+03  0.00000000000E+00 0.  1.
</event>
<event>
 4    1  0.3593938E+003  0.2774794E+02  0.7546771E-02  0.1440236E+00
          2   -1    0    0  502    0  0.00000000000E+00  0.00000000000E+00  0.23156191451E+01  0.23156191451E+01  0.00000000000E+00 0. -1.
          1   -1    0    0  501    0 -0.00000000000E+00 -0.00000000000E+00 -0.14315602640E+04  0.14315602640E+04  0.00000000000E+00 0.  1.
          2    1    1    2  501    0  0.26780723325E+02  0.72622964929E+01 -0.86437994994E+02  0.90782570302E+02  0.00000000000E+00 0. -1.
          1    1    1    2  502    0 -0.26780723325E+02 -0.72622964929E+01 -0.13428066499E+04  0.13430933129E+04  0.00000000000E+00 0.  1.
</event>
<event>
 4    1  0.3593938E+003  0.2158973E+02  0.7546771E-02  0.1511009E+00
          2   -1    0    0  502    0  0.00000000000E+00  0.00000000000E+00  0.76906063053E+02  0.76906063053E+02  0.00000000000E+00 0.  1.
          1   -1    0    0  501    0 -0.00000000000E+00 -0.00000000000E+00 -0.11614438232E+04  0.11614438232E+04  0.00000000000E+00 0. -1.
          2    1    1    2  501    0  0.12685147322E+02 -0.17470075521E+02  0.75288404876E+02  0.78322796235E+02  0.00000000000E+00 0.  1.
          1    1    1    2  502    0 -0.12685147322E+02  0.17470075521E+02 -0.11598261650E+04  0.11600270900E+04  0.00000000000E+00 0. -1.
</event>
<event>
 4    1  0.3593938E+003  0.2090890E+02  0.7546771E-02  0.1520570E+00
          2   -1    0    0  502    0  0.00000000000E+00  0.00000000000E+00  0.22699418809E+02  0.22699418809E+02  0.00000000000E+00 0.  1.
          1   -1    0    0  501    0 -0.00000000000E+00 -0.00000000000E+00 -0.24038369539E+03  0.24038369539E+03  0.00000000000E+00 0.  1.
          2    1    1    2  501    0  0.32608403554E+00  0.20906354709E+02  0.17319842129E+02  0.27150670883E+02  0.00000000000E+00 0.  1.
          1    1    1    2  502    0 -0.32608403554E+00 -0.20906354709E+02 -0.23500411871E+03  0.23593244332E+03  0.00000000000E+00 0.  1.
</event>
<event>
 4    1  0.3593938E+003  0.2907539E+02  0.7546771E-02  0.1427805E+00
          2   -1    0    0  502    0  0.00000000000E+00  0.00000000000E+00  0.81573964851E+03  0.81573964851E+03  0.00000000000E+00 0.  1.
          1   -1    0    0  501    0 -0.00000000000E+00 -0.00000000000E+00 -0.46922940442E+02  0.46922940442E+02  0.00000000000E+00 0.  1.
          2    1    1    2  501    0  0.19854097625E+02 -0.21241301637E+02  0.81094989441E+03  0.81147095409E+03  0.00000000000E+00 0.  1.
          1    1    1    2  502    0 -0.19854097625E+02  0.21241301637E+02 -0.42133186347E+02  0.51191634858E+02  0.00000000000E+00 0.  1.
</event>
<event>
 4    1  0.3593938E+003  0.3062503E+02  0.7546771E-02  0.1414241E+00
          2   -1    0    0  502    0  0.00000000000E+00  0.00000000000E+00  0.15862403224E+04  0.15862403224E+04  0.00000000000E+00 0.  1.
          1   -1    0    0  501    0 -0.00000000000E+00 -0.00000000000E+00 -0.62808773268E+00  0.62808773268E+00  0.00000000000E+00 0.  1.
          2    1    1    2  501    0 -0.76794734245E+00 -0.30615399439E+02  0.98491336274E+03  0.98538937711E+03  0.00000000000E+00 0.  1.
          1    1    1    2  502    0  0.76794734245E+00  0.30615399439E+02  0.60069887191E+03  0.60147903300E+03  0.00000000000E+00 0.  1.
</event>
<event>
 4    1  0.3593938E+003  0.2029852E+02  0.7546771E-02  0.1529520E+00
          2   -1    0    0  502    0  0.00000000000E+00  0.00000000000E+00  0.96417879839E+01  0.96417879839E+01  0.00000000000E+00 0. -1.
          1   -1    0    0  501    0 -0.00000000000E+00 -0.00000000000E+00 -0.43428246800E+02  0.43428246800E+02  0.00000000000E+00 0.  1.
          2    1    1    2  501    0 -0.19432404263E+02 -0.58661315728E+01 -0.13537663072E+02  0.24398732683E+02  0.00000000000E+00 0. -1.
          1    1    1    2  502    0  0.19432404263E+02  0.58661315728E+01 -0.20248795745E+02  0.28671302101E+02  0.00000000000E+00 0.  1.
</event>
<event>
 4    1  0.3593938E+003  0.2000373E+02  0.7546771E-02  0.1533978E+00
          2   -1    0    0  502    0  0.00000000000E+00  0.00000000000E+00  0.47660409558E+02  0.47660409558E+02  0.00000000000E+00 0.  1.
          1   -1    0    0  501    0 -0.00000000000E+00 -0.00000000000E+00 -0.97235101789E+02  0.97235101789E+02  0.00000000000E+00 0. -1.
          2    1    1    2  501    0  0.18726132166E+02 -0.70343003598E+01  0.44462028893E+02  0.48754706652E+02  0.00000000000E+00 0.  1.
          1    1    1    2  502    0 -0.18726132166E+02  0.70343003598E+01 -0.94036721125E+02  0.96140804695E+02  0.00000000000E+00 0. -1.
</event>
<event>
 4    1  0.3593938E+003  0.3237760E+02  0.7546771E-02  0.1400000E+00
          2   -1    0    0  502    0  0.00000000000E+00  0.00000000000E+00  0.25821525478E+01  0.25821525478E+01  0.00000000000E+00 0.  1.
          1   -1    0    0  501    0 -0.00000000000E+00 -0.00000000000E+00 -0.86949226534E+03  0.86949226534E+03  0.00000000000E+00 0.  1.
          2    1    1    2  501    0  0.26934898450E+02  0.17967207037E+02 -0.11509392721E+03  0.11956137070E+03  0.00000000000E+00 0.  1.
          1    1    1    2  502    0 -0.26934898450E+02 -0.17967207037E+02 -0.75181618559E+03  0.75251304719E+03  0.00000000000E+00 0.  1.
</event>
<event>
 4    1  0.3593938E+003  0.2753814E+02  0.7546771E-02  0.1442276E+00
          2   -1    0    0  502    0  0.00000000000E+00  0.00000000000E+00  0.18244183063E+04  0.18244183063E+04  0.00000000000E+00 0.  1.
          1   -1    0    0  501    0 -0.00000000000E+00 -0.00000000000E+00 -0.21728528577E+03  0.21728528577E+03  0.00000000000E+00 0. -1.
          2    1    1    2  501    0 -0.88404967229E+00 -0.27523949207E+02  0.18234413951E+04  0.18236493277E+04  0.00000000000E+00 0.  1.
          1    1    1    2  502    0  0.88404967229E+00  0.27523949207E+02 -0.21630837450E+03  0.21805426436E+03  0.00000000000E+00 0. -1.
</event>
<event>
 4    1  0.3593938E+003  0.2184370E+02  0.7546771E-02  0.1507552E+00
          2   -1    0    0  502    0  0.00000000000E+00  0.00000000000E+00  0.47322260610E+02  0.47322260610E+02  0.00000000000E+00 0.  1.
          1   -1    0    0  501    0 -0.00000000000E+00 -0.00000000000E+00 -0.70662141835E+02  0.70662141835E+02  0.00000000000E+00 0.  1.
          2    1    1    2  501    0 -0.53743577338E+01  0.21172235526E+02  0.42951480403E+02  0.48186896009E+02  0.00000000000E+00 0.  1.
          1    1    1    2  502    0  0.53743577338E+01 -0.21172235526E+02 -0.66291361628E+02  0.69797506436E+02  0.00000000000E+00 0.  1.
</event>
<event>
 4    1  0.3593938E+003  0.2386078E+02  0.7546771E-02  0.1481963E+00
          2   -1    0    0  502    0  0.00000000000E+00  0.00000000000E+00  0.49867751062E+03  0.49867751062E+03  0.00000000000E+00 0.  1.
          1   -1    0    0  501    0 -0.00000000000E+00 -0.00000000000E+00 -0.17052120829E+03  0.17052120829E+03  0.00000000000E+00 0. -1.
          2    1    1    2  501    0  0.23783168065E+02 -0.19229384099E+01  0.49755550527E+03  0.49812731063E+03  0.00000000000E+00 0.  1.
          1    1    1    2  502    0 -0.23783168065E+02  0.19229384099E+01 -0.16939920293E+03  0.17107140828E+03  0.00000000000E+00 0. -1.
</event>
<event>
 4    1  0.3593938E+003  0.2599663E+02  0.7546771E-02  0.1457956E+00
          2   -1    0    0  502    0  0.00000000000E+00  0.00000000000E+00  0.66602070865E+03  0.66602070865E+03  0.00000000000E+00 0.  1.
          1   -1    0    0  501    0 -0.00000000000E+00 -0.00000000000E+00 -0.18907095463E+01  0.18907095463E+01  0.00000000000E+00 0.  1.
          2    1    1    2  501    0 -0.78479592757E+01  0.24783749679E+02  0.55937882920E+03  0.55998258836E+03  0.00000000000E+00 0.  1.
          1    1    1    2  502    0  0.78479592757E+01 -0.24783749679E+02  0.10475116991E+03  0.10792882984E+03  0.00000000000E+00 0.  1.
</event>
<event>
 4    1  0.3593938E+003  0.2583722E+02  0.7546771E-02  0.1459651E+00
          2   -1    0    0  502    0  0.00000000000E+00  0.00000000000E+00  0.30009876803E+02  0.30009876803E+02  0.00000000000E+00 0.  1.
          1   -1    0    0  501    0 -0.00000000000E+00 -0.00000000000E+00 -0.36957907765E+03  0.36957907765E+03  0.00000000000E+00 0.  1.
          2    1    1    2  501    0 -0.20196742195E+02  0.16113771128E+02  0.23903815937E+02  0.35198784519E+02  0.00000000000E+00 0.  1.
          1    1    1    2  502    0  0.20196742195E+02 -0.16113771128E+02 -0.36347301678E+03  0.36439016993E+03  0.00000000000E+00 0.  1.
</event>
<event>
 4    1  0.3593938E+003  0.2580515E+02  0.7546771E-02  0.1459994E+00
          2   -1    0    0  502    0  0.00000000000E+00  0.00000000000E+00  0.65337409870E+03  0.65337409870E+03  0.00000000000E+00 0. -1.
          1   -1    0    0  501    0 -0.00000000000E+00 -0.00000000000E+00 -0.21525469296E+02  0.21525469296E+02  0.00000000000E+00 0. -1.
          2    1    1    2  501    0 -0.22396083112E+02 -0.12818793110E+02  0.64528850341E+03  0.64580427269E+03  0.00000000000E+00 0. -1.
          1    1    1    2  502    0  0.22396083112E+02  0.12818793110E+02 -0.13439874005E+02  0.29095295304E+02  0.00000000000E+00 0. -1.
</event>
<event>
 4    1  0.3593938E+003  0.2061554E+02  0.7546771E-02  0.1524825E+00
          2   -1    0    0  502    0  0.00000000000E+00  0.00000000000E+00  0.16136346727E+04  0.16136346727E+04  0.00000000000E+00 0. -1.
          1   -1    0    0  501    0 -0.00000000000E+00 -0.00000000000E+00 -0.10402349253E+01  0.10402349253E+01  0.00000000000E+00 0. -1.
          2    1    1    2  501    0 -0.18061794590E+01 -0.20536264384E+02  0.15039817838E+04  0.15041230689E+04  0.00000000000E+00 0. -1.
          1    1    1    2  502    0  0.18061794590E+01  0.20536264384E+02  0.10861265403E+03  0.11055183877E+03  0.00000000000E+00 0. -1.
</event>
<event>
 4    1  0.3593938E+003  0.2501340E+02  0.7546771E-02  0.1468654E+00
          2   -1    0    0  502    0  0.00000000000E+00  0.00000000000E+00  0.14994905171E+03  0.14994905171E+03  0.00000000000E+00 0.  1.
          1   -1    0    0  501    0 -0.00000000000E+00 -0.00000000000E+00 -0.19827856799E+02  0.19827856799E+02  0.00000000000E+00 0. -1.
          2    1    1    2  501    0  0.24653780905E+02  0.42262610061E+01  0.14049014529E+03  0.14269951338E+03  0.00000000000E+00 0.  1.
          1    1    1    2  502    0 -0.24653780905E+02 -0.42262610061E+01 -0.10368950379E+02  0.27077395129E+02  0.00000000000E+00 0. -1.
</event>
<event>
 4    1  0.3593938E+003  0.2372105E+02  0.7546771E-02  0.1483637E+00
          2   -1    0    0  502    0  0.00000000000E+00  0.00000000000E+00  0.37059174472E+02  0.37059174472E+02  0.00000000000E+00 0.  1.
          1   -1    0    0  501    0 -0.00000000000E+00 -0.00000000000E+00 -0.11087186481E+04  0.11087186481E+04  0.00000000000E+00 0.  1.
          2    1    1    2  501    0  0.15522012396E+02 -0.17937541360E+02  0.33122896567E+02  0.40740821492E+02  0.00000000000E+00 0.  1.
          1    1    1    2  502    0 -0.15522012396E+02  0.17937541360E+02 -0.11047823702E+04  0.11050370011E+04  0.00000000000E+00 0.  1.
</event>
<event>
 4    1  0.3593938E+003  0.3340225E+02  0.7546771E-02  0.1392158E+00
          2   -1    0    0  502    0  0.00000000000E+00  0.00000000000E+00  0.23172861053E+02  0.23172861053E+02  0.00000000000E+00 0.  1.
          1   -1    0    0  501    0 -0.00000000000E+00 -0.00000000000E+00 -0.36702000108E+03  0.36702000108E+03  0.00000000000E+00 0.  1.
          2    1    1    2  501    0  0.18588460362E+02 -0.27752101346E+02  0.99263648246E+01  0.34845985513E+02  0.00000000000E+00 0.  1.
          1    1    1    2  502    0 -0.18588460362E+02  0.27752101346E+02 -0.35377350485E+03  0.35534687662E+03  0.00000000000E+00 0.  1.
</event>
<event>
 4    1  0.3593938E+003  0.2816217E+02  0.7546771E-02  0.1436271E+00
          2   -1    0    0  502    0  0.00000000000E+00  0.00000000000E+00  0.17743966602E+03  0.17743966602E+03  0.00000000000E+00 0.  1.
          1   -1    0    0  501    0 -0.00000000000E+00 -0.00000000000E+00 -0.44733322064E+03  0.44733322064E+03  0.00000000000E+00 0. -1.
          2    1    1    2  501    0  0.19933713532E+02  0.19893588058E+02  0.17587507267E+03  0.17811554948E+03  0.00000000000E+00 0.  1.
          1    1    1    2  502    0 -0.19933713532E+02 -0.19893588058E+02 -0.44576862729E+03  0.44665733718E+03  0.00000000000E+00 0. -1.
</event>
<event>
 4    1  0.3593938E+003  0.3446287E+02  0.7546771E-02  0.1384379E+00
          2   -1    0    0  502    0  0.00000000000E+00  0.00000000000E+00  0.13532468756E+01  0.13532468756E+01  0.00000000000E+00 0.  1.
          1   -1    0    0  501    0 -0.00000000000E+00 -0.00000000000E+00 -0.11426114277E+04  0.11426114277E+04  0.00000000000E+00 0. -1.
          2    1    1    2  501    0  0.33892020282E+01  0.34295807950E+02 -0.29519519222E+03  0.29720008520E+03  0.00000000000E+00 0.  1.
          1    1    1    2  502    0 -0.33892020282E+01 -0.34295807950E+02 -0.84606298859E+03  0.84676458936E+03  0.00000000000E+00 0. -1.
</event>
<event>
 4    1  0.3593938E+003  0.3361543E+02  0.7546771E-02  0.1390567E+00
          2   -1    0    0  502    0  0.00000000000E+00  0.00000000000E+00  0.91502507976E+03  0.91502507976E+03  0.00000000000E+00 0. -1.
          1   -1    0    0  501    0 -0.00000000000E+00 -0.00000000000E+00 -0.58084248201E+01  0.58084248201E+01  0.00000000000E+00 0.  1.
          2    1    1    2  501    0  0.28783869762E+01  0.33491969013E+02  0.86315883832E+03  0.86381316109E+03  0.00000000000E+00 0. -1.
          1    1    1    2  502    0 -0.28783869762E+01 -0.33491969013E+02  0.46057816612E+02  0.57020343484E+02  0.00000000000E+00 0.  1.
</event>
<event>
 4    1  0.3593938E+003  0.2928091E+02  0.7546771E-02  0.1425950E+00
          2   -1    0    0  502    0  0.00000000000E+00  0.00000000000E+00  0.67755538519E+03  0.67755538519E+03  0.00000000000E+00 0.  1.
          1   -1    0    0  501    0 -0.00000000000E+00 -0.00000000000E+00 -0.29255400488E+01  0.29255400488E+01  0.00000000000E+00 0.  1.
          2    1    1    2  501    0 -0.13155847589E+02 -0.26159038254E+02  0.59361966754E+03  0.59434138448E+03  0.00000000000E+00 0.  1.
          1    1    1    2  502    0  0.13155847589E+02  0.26159038254E+02  0.81010177600E+02  0.86139540763E+02  0.00000000000E+00 0.  1.
</event>
<event>
 4    1  0.3593938E+003  0.2550630E+02  0.7546771E-02  0.1463218E+00
          2   -1    0    0  502    0  0.00000000000E+00  0.00000000000E+00  0.79978235670E+03  0.79978235670E+03  0.00000000000E+00 0. -1.
          1   -1    0    0  501    0 -0.00000000000E+00 -0.00000000000E+00 -0.31989778753E+01  0.31989778753E+01  0.00000000000E+00 0.  1.
          2    1    1    2  501    0  0.70380083920E+01  0.24516071631E+02  0.74499932600E+03  0.74543582358E+03  0.00000000000E+00 0. -1.
          1    1    1    2  502    0 -0.70380083920E+01 -0.24516071631E+02  0.51584052824E+02  0.57545510998E+02  0.00000000000E+00 0.  1.
</event>
<event>
 4    1  0.3593938E+003  0.2047751E+02  0.7546771E-02  0.1526857E+00
          2   -1    0    0  502    0  0.00000000000E+00  0.00000000000E+00  0.67565665017E+03  0.67565665017E+03  0.00000000000E+00 0. -1.
          1   -1    0    0  501    0 -0.00000000000E+00 -0.00000000000E+00 -0.17201116614E+01  0.17201116614E+01  0.00000000000E+00 0.  1.
          2    1    1    2  501    0  0.43557275738E+01  0.20008902237E+02  0.60774866383E+03  0.60809355113E+03  0.00000000000E+00 0. -1.
          1    1    1    2  502    0 -0.43557275738E+01 -0.20008902237E+02  0.66187874674E+02  0.69283210703E+02  0.00000000000E+00 0.  1.
</event>
<event>
 4    1  0.3593938E+003  0.2954841E+02  0.7546771E-02  0.1423562E+00
          2   -1    0    0  502    0  0.00000000000E+00  0.00000000000E+00  0.10065439081E+02  0.10065439081E+02  0.00000000000E+00 0. -1.
          1   -1    0    0  501    0 -0.00000000000E+00 -0.00000000000E+00 -0.23699157337E+03  0.23699157337E+03  0.00000000000E+00 0.  1.
          2    1    1    2  501    0  0.28259444053E+02 -0.86320480724E+01 -0.15105988333E+02  0.33185830043E+02  0.00000000000E+00 0. -1.
          1    1    1    2  502    0 -0.28259444053E+02  0.86320480724E+01 -0.21182014596E+03  0.21387118241E+03  0.00000000000E+00 0.  1.
</event>
<event>
 4    1  0.3593938E+003  0.2284374E+02  0.7546771E-02  0.1494470E+00
          2   -1    0    0  502    0  0.00000000000E+00  0.00000000000E+00  0.57654164866E+03  0.57654164866E+03  0.00000000000E+00 0. -1.
          1   -1    0    0  501    0 -0.00000000000E+00 -0.00000000000E+00 -0.31220135797E+01  0.31220135797E+01  0.00000000000E+00 0. -1.
          2    1    1    2  501    0 -0.14095937669E+02  0.17976120014E+02  0.53094128783E+03  0.53143248628E+03  0.00000000000E+00 0. -1.
          1    1    1    2  502    0  0.14095937669E+02 -0.17976120014E+02  0.42478347251E+02  0.48231175962E+02  0.00000000000E+00 0. -1.
</event>
<event>
 4    1  0.3593938E+003  0.2534566E+02  0.7546771E-02  0.1464973E+00
          2   -1    0    0  502    0  0.00000000000E+00  0.00000000000E+00  0.54235532476E+03  0.54235532476E+03  0.00000000000E+00 0.  1.
          1   -1    0    0  501    0 -0.00000000000E+00 -0.00000000000E+00 -0.52468155330E+02  0.52468155330E+02  0.00000000000E+00 0.  1.
          2    1    1    2  501    0  0.77346728672E+01  0.24136643354E+02  0.53897912729E+03  0.53957474215E+03  0.00000000000E+00 0.  1.
          1    1    1    2  502    0 -0.77346728672E+01 -0.24136643354E+02 -0.49091957861E+02  0.55248737935E+02  0.00000000000E+00 0.  1.
</event>
<event>
 4    1  0.3593938E+003  0.2182698E+02  0.7546771E-02  0.1507778E+00
          2   -1    0    0  502    0  0.00000000000E+00  0.00000000000E+00  0.56188205496E+03  0.56188205496E+03  0.00000000000E+00 0. -1.
          1   -1    0    0  501    0 -0.00000000000E+00 -0.00000000000E+00 -0.61961834573E+01  0.61961834573E+01  0.00000000000E+00 0.  1.
          2    1    1    2  501    0  0.18566738368E+02  0.11475773039E+02  0.54173323366E+03  0.54217277098E+03  0.00000000000E+00 0. -1.
          1    1    1    2  502    0 -0.18566738368E+02 -0.11475773039E+02  0.13952637847E+02  0.25905467442E+02  0.00000000000E+00 0.  1.
</event>
<event>
 4    1  0.3593938E+003  0.1214176E+03  0.7546771E-02  0.1131136E+00
          2   -1    0    0  502    0  0.00000000000E+00  0.00000000000E+00  0.92868653091E+03  0.92868653091E+03  0.00000000000E+00 0.  1.
          1   -1    0    0  501    0 -0.00000000000E+00 -0.00000000000E+00 -0.59884481141E+02  0.59884481141E+02  0.00000000000E+00 0.  1.
          2    1    1    2  501    0  0.10095961118E+03 -0.67449125953E+02  0.85813903172E+03  0.86668611702E+03  0.00000000000E+00 0.  1.
          1    1    1    2  502    0 -0.10095961118E+03  0.67449125953E+02  0.10663018046E+02  0.12188489502E+03  0.00000000000E+00 0.  1.
</event>
<event>
 4    1  0.3593938E+003  0.3442165E+02  0.7546771E-02  0.1384675E+00
          2   -1    0    0  502    0  0.00000000000E+00  0.00000000000E+00  0.93501185587E+03  0.93501185587E+03  0.00000000000E+00 0. -1.
          1   -1    0    0  501    0 -0.00000000000E+00 -0.00000000000E+00 -0.25301116998E+01  0.25301116998E+01  0.00000000000E+00 0. -1.
          2    1    1    2  501    0 -0.20484092429E+02 -0.27663189701E+02  0.79743055589E+03  0.79817312757E+03  0.00000000000E+00 0. -1.
          1    1    1    2  502    0  0.20484092429E+02  0.27663189701E+02  0.13505118828E+03  0.13936884000E+03  0.00000000000E+00 0. -1.
</event>
<event>
 4    1  0.3593938E+003  0.3788435E+02  0.7546771E-02  0.1361350E+00
          2   -1    0    0  502    0  0.00000000000E+00  0.00000000000E+00  0.83284511320E+03  0.83284511320E+03  0.00000000000E+00 0. -1.
          1   -1    0    0  501    0 -0.00000000000E+00 -0.00000000000E+00 -0.10150844977E+02  0.10150844977E+02  0.00000000000E+00 0.  1.
          2    1    1    2  501    0  0.32023310237E+02  0.20241828687E+02  0.79540396511E+03  0.79630565221E+03  0.00000000000E+00 0. -1.
          1    1    1    2  502    0 -0.32023310237E+02 -0.20241828687E+02  0.27290303108E+02  0.46690305963E+02  0.00000000000E+00 0.  1.
</event>
<event>
 4    1  0.3593938E+003  0.3395697E+02  0.7546771E-02  0.1388048E+00
          2   -1    0    0  502    0  0.00000000000E+00  0.00000000000E+00  0.14517850462E+04  0.14517850462E+04  0.00000000000E+00 0. -1.
          1   -1    0    0  501    0 -0.00000000000E+00 -0.00000000000E+00 -0.67234044062E+01  0.67234044062E+01  0.00000000000E+00 0.  1.
          2    1    1    2  501    0  0.23700840760E+02 -0.24317604299E+02  0.14073577532E+04  0.14077673534E+04  0.00000000000E+00 0. -1.
          1    1    1    2  502    0 -0.23700840760E+02  0.24317604299E+02  0.37703888528E+02  0.50741097168E+02  0.00000000000E+00 0.  1.
</event>
<event>
 4    1  0.3593938E+003  0.2403797E+02  0.7546771E-02  0.1479860E+00
          2   -1    0    0  502    0  0.00000000000E+00  0.00000000000E+00  0.29901972574E+02  0.29901972574E+02  0.00000000000E+00 0.  1.
          1   -1    0    0  501    0 -0.00000000000E+00 -0.00000000000E+00 -0.13500605732E+03  0.13500605732E+03  0.00000000000E+00 0. -1.
          2    1    1    2  501    0  0.24029867695E+02  0.62404577644E+00  0.23773217508E+02  0.33808132827E+02  0.00000000000E+00 0.  1.
          1    1    1    2  502    0 -0.24029867695E+02 -0.62404577644E+00 -0.12887730225E+03  0.13109989706E+03  0.00000000000E+00 0. -1.
</event>
<event>
 4    1  0.3593938E+003  0.2529007E+02  0.7546771E-02  0.1465584E+00
          2   -1    0    0  502    0  0.00000000000E+00  0.00000000000E+00  0.10282864918E+01  0.10282864918E+01  0.00000000000E+00 0.  1.
          1   -1    0    0  501    0 -0.00000000000E+00 -0.00000000000E+00 -0.63087989656E+03  0.63087989656E+03  0.00000000000E+00 0.  1.
          2    1    1    2  501    0  0.82363725355E+01 -0.23911290275E+02 -0.27742758915E+03  0.27857791523E+03  0.00000000000E+00 0.  1.
          1    1    1    2  502    0 -0.82363725355E+01  0.23911290275E+02 -0.35242402093E+03  0.35333026783E+03  0.00000000000E+00 0.  1.
</event>
<event>
 4    1  0.3593938E+003  0.9889346E+02  0.7546771E-02  0.1165739E+00
          2   -1    0    0  502    0  0.00000000000E+00  0.00000000000E+00  0.63148622639E+03  0.63148622639E+03  0.00000000000E+00 0. -1.
          1   -1    0    0  501    0 -0.00000000000E+00 -0.00000000000E+00 -0.63794322837E+02  0.63794322837E+02  0.00000000000E+00 0. -1.
          2    1    1    2  501    0  0.98200188191E+02 -0.11689327350E+02  0.58635955717E+03  0.59464060375E+03  0.00000000000E+00 0. -1.
          1    1    1    2  502    0 -0.98200188191E+02  0.11689327350E+02 -0.18667653620E+02  0.10063994548E+03  0.00000000000E+00 0. -1.
</event>
<event>
 4    1  0.3593938E+003  0.2428735E+02  0.7546771E-02  0.1476936E+00
          2   -1    0    0  502    0  0.00000000000E+00  0.00000000000E+00  0.86293984751E+03  0.86293984751E+03  0.00000000000E+00 0. -1.
          1   -1    0    0  501    0 -0.00000000000E+00 -0.00000000000E+00 -0.43533032345E+01  0.43533032345E+01  0.00000000000E+00 0.  1.
          2    1    1    2  501    0  0.75701755915E+01  0.23077431211E+02  0.82744078818E+03  0.82779715712E+03  0.00000000000E+00 0. -1.
          1    1    1    2  502    0 -0.75701755915E+01 -0.23077431211E+02  0.31145756097E+02  0.39495993628E+02  0.00000000000E+00 0.  1.
</event>
<event>
 4    1  0.3593938E+003  0.2331408E+02  0.7546771E-02  0.1488591E+00
          2   -1    0    0  502    0  0.00000000000E+00  0.00000000000E+00  0.19468520208E+03  0.19468520208E+03  0.00000000000E+00 0.  1.
          1   -1    0    0  501    0 -0.00000000000E+00 -0.00000000000E+00 -0.17662317440E+02  0.17662317440E+02  0.00000000000E+00 0. -1.
          2    1    1    2  501    0  0.14238741237E+02  0.18460892363E+02  0.18593289080E+03  0.18738886354E+03  0.00000000000E+00 0.  1.
          1    1    1    2  502    0 -0.14238741237E+02 -0.18460892363E+02 -0.89100061528E+01  0.24958655984E+02  0.00000000000E+00 0. -1.
</event>
<event>
 4    1  0.3593938E+003  0.2688987E+02  0.7546771E-02  0.1448718E+00
          2   -1    0    0  502    0  0.00000000000E+00  0.00000000000E+00  0.36822462720E+03  0.36822462720E+03  0.00000000000E+00 0. -1.
          1   -1    0    0  501    0 -0.00000000000E+00 -0.00000000000E+00 -0.14386769952E+02  0.14386769952E+02  0.00000000000E+00 0.  1.
          2    1    1    2  501    0  0.46782126081E+01 -0.26479791012E+02  0.35469019354E+03  0.35570802408E+03  0.00000000000E+00 0. -1.
          1    1    1    2  502    0 -0.46782126081E+01  0.26479791012E+02 -0.85233629231E+00  0.26903373067E+02  0.00000000000E+00 0.  1.
</event>
<event>
 4    1  0.3593938E+003  0.2573104E+02  0.7546771E-02  0.1460789E+00
          2   -1    0    0  502    0  0.00000000000E+00  0.00000000000E+00  0.12081971240E+03  0.12081971240E+03  0.00000000000E+00 0. -1.
          1   -1    0    0  501    0 -0.00000000000E+00 -0.00000000000E+00 -0.15114847520E+02  0.15114847520E+02  0.00000000000E+00 0. -1.
          2    1    1    2  501    0 -0.50972507082E+01  0.25221111521E+02  0.10711764031E+03  0.11016476431E+03  0.00000000000E+00 0. -1.
          1    1    1    2  502    0  0.50972507082E+01 -0.25221111521E+02 -0.14127754293E+01  0.25769795606E+02  0.00000000000E+00 0. -1.
</event>
<event>
 4    1  0.3593938E+003  0.3232568E+02  0.7546771E-02  0.1400407E+00
          2   -1    0    0  502    0  0.00000000000E+00  0.00000000000E+00  0.24277460924E+04  0.24277460924E+04  0.00000000000E+00 0. -1.
          1   -1    0    0  501    0 -0.00000000000E+00 -0.00000000000E+00 -0.37892222792E+01  0.37892222792E+01  0.00000000000E+00 0.  1.
          2    1    1    2  501    0 -0.31517199421E+02 -0.71844181602E+01  0.23566154458E+04  0.23568371410E+04  0.00000000000E+00 0. -1.
          1    1    1    2  502    0  0.31517199421E+02  0.71844181602E+01  0.67341424275E+02  0.74698173652E+02  0.00000000000E+00 0.  1.
</event>
<event>
 4    1  0.3593938E+003  0.2468093E+02  0.7546771E-02  0.1472405E+00
          2   -1    0    0  502    0  0.00000000000E+00  0.00000000000E+00  0.96172993649E+03  0.96172993649E+03  0.00000000000E+00 0. -1.
          1   -1    0    0  501    0 -0.00000000000E+00 -0.00000000000E+00 -0.66588961543E+00  0.66588961543E+00  0.00000000000E+00 0. -1.
          2    1    1    2  501    0  0.17945359626E+02  0.16944372077E+02  0.37422089533E+03  0.37503390004E+03  0.00000000000E+00 0. -1.
          1    1    1    2  502    0 -0.17945359626E+02 -0.16944372077E+02  0.58684315154E+03  0.58736192606E+03  0.00000000000E+00 0. -1.
</event>
<event>
 4    1  0.3593938E+003  0.2953885E+02  0.7546771E-02  0.1423647E+00
          2   -1    0    0  502    0  0.00000000000E+00  0.00000000000E+00  0.15404876523E+03  0.15404876523E+03  0.00000000000E+00 0. -1.
          1   -1    0    0  501    0 -0.00000000000E+00 -0.00000000000E+00 -0.10707736695E+02  0.10707736695E+02  0.00000000000E+00 0. -1.
          2    1    1    2  501    0 -0.10984778222E+02 -0.27420398809E+02  0.12820803208E+03  0.13156687696E+03  0.00000000000E+00 0. -1.
          1    1    1    2  502    0  0.10984778222E+02  0.27420398809E+02  0.15132996453E+02  0.33189624961E+02  0.00000000000E+00 0. -1.
</event>
<event>
 4    1  0.3593938E+003  0.2124060E+02  0.7546771E-02  0.1515857E+00
          2   -1    0    0  502    0  0.00000000000E+00  0.00000000000E+00  0.46194967245E+03  0.46194967245E+03  0.00000000000E+00 0. -1.
          1   -1    0    0  501    0 -0.00000000000E+00 -0.00000000000E+00 -0.17640472703E+02  0.17640472703E+02  0.00000000000E+00 0. -1.
          2    1    1    2  501    0  0.19857362824E+02  0.75397656495E+01  0.45521713701E+03  0.45571241453E+03  0.00000000000E+00 0. -1.
          1    1    1    2  502    0 -0.19857362824E+02 -0.75397656495E+01 -0.10907937266E+02  0.23877730624E+02  0.00000000000E+00 0. -1.
</event>
<event>
 4    1  0.3593938E+003  0.2219477E+02  0.7546771E-02  0.1502865E+00
          2   -1    0    0  502    0  0.00000000000E+00  0.00000000000E+00  0.94873733356E+02  0.94873733356E+02  0.00000000000E+00 0. -1.
          1   -1    0    0  501    0 -0.00000000000E+00 -0.00000000000E+00 -0.22669431118E+02  0.22669431118E+02  0.00000000000E+00 0.  1.
          2    1    1    2  501    0  0.21103952074E+02  0.68724694463E+01  0.87706087666E+02  0.90470798842E+02  0.00000000000E+00 0. -1.
          1    1    1    2  502    0 -0.21103952074E+02 -0.68724694463E+01 -0.15501785428E+02  0.27072365632E+02  0.00000000000E+00 0.  1.
</event>
<event>
 4    1  0.3593938E+003  0.3503903E+02  0.7546771E-02  0.1380289E+00
          2   -1    0    0  502    0  0.00000000000E+00  0.00000000000E+00  0.10220370253E+03  0.10220370253E+03  0.00000000000E+00 0. -1.
          1   -1    0    0  501    0 -0.00000000000E+00 -0.00000000000E+00 -0.67781109313E+02  0.67781109313E+02  0.00000000000E+00 0. -1.
          2    1    1    2  501    0  0.19196688826E+02 -0.29312462414E+02  0.94305240329E+02  0.10060423285E+03  0.00000000000E+00 0. -1.
          1    1    1    2  502    0 -0.19196688826E+02  0.29312462414E+02 -0.59882647116E+02  0.69380578985E+02  0.00000000000E+00 0. -1.
</event>
<event>
 4    1  0.3593938E+003  0.2279111E+02  0.7546771E-02  0.1495138E+00
          2   -1    0    0  502    0  0.00000000000E+00  0.00000000000E+00  0.12668580982E+04  0.12668580982E+04  0.00000000000E+00 0. -1.
          1   -1    0    0  501    0 -0.00000000000E+00 -0.00000000000E+00 -0.44683427701E+02  0.44683427701E+02  0.00000000000E+00 0.  1.
          2    1    1    2  501    0 -0.17372322637E+02  0.14752521729E+02  0.12638424678E+04  0.12640479492E+04  0.00000000000E+00 0. -1.
          1    1    1    2  502    0  0.17372322637E+02 -0.14752521729E+02 -0.41667797321E+02  0.47493576669E+02  0.00000000000E+00 0.  1.
</event>
<event>
 4    1  0.3593938E+003  0.2995679E+02  0.7546771E-02  0.1419972E+00
          2   -1    0    0  502    0  0.00000000000E+00  0.00000000000E+00  0.74444511305E+02  0.74444511305E+02  0.00000000000E+00 0. -1.
          1   -1    0    0  501    0 -0.00000000000E+00 -0.00000000000E+00 -0.18566788192E+02  0.18566788192E+02  0.00000000000E+00 0. -1.
          2    1    1    2  501    0 -0.29757732853E+02  0.34476829600E+01  0.55480904329E+02  0.63051882823E+02  0.00000000000E+00 0. -1.
          1    1    1    2  502    0  0.29757732853E+02 -0.34476829600E+01  0.39681878394E+00  0.29959416675E+02  0.00000000000E+00 0. -1.
</event>
<event>
 4    1  0.3593938E+003  0.2124357E+02  0.7546771E-02  0.1515816E+00
          2   -1    0    0  502    0  0.00000000000E+00  0.00000000000E+00  0.10823227494E+02  0.10823227494E+02  0.00000000000E+00 0.  1.
          1   -1    0    0  501    0 -0.00000000000E+00 -0.00000000000E+00 -0.37449036412E+03  0.37449036412E+03  0.00000000000E+00 0. -1.
          2    1    1    2  501    0 -0.15621047810E+02 -0.14396951002E+02 -0.21855487558E+00  0.21244695787E+02  0.00000000000E+00 0.  1.
          1    1    1    2  502    0  0.15621047810E+02  0.14396951002E+02 -0.36344858175E+03  0.36406889583E+03  0.00000000000E+00 0. -1.
</event>
<event>
 4    1  0.3593938E+003  0.2105047E+02  0.7546771E-02  0.1518545E+00
          2   -1    0    0  502    0  0.00000000000E+00  0.00000000000E+00  0.30708995575E+01  0.30708995575E+01  0.00000000000E+00 0. -1.
          1   -1    0    0  501    0 -0.00000000000E+00 -0.00000000000E+00 -0.32204294700E+03  0.32204294700E+03  0.00000000000E+00 0. -1.
          2    1    1    2  501    0  0.19738659873E+02  0.73148989698E+01 -0.38719075725E+02  0.44071410977E+02  0.00000000000E+00 0. -1.
          1    1    1    2  502    0 -0.19738659873E+02 -0.73148989698E+01 -0.28025297172E+03  0.28104243558E+03  0.00000000000E+00 0. -1.
</event>
<event>
 4    1  0.3593938E+003  0.3827846E+02  0.7546771E-02  0.1358880E+00
          2   -1    0    0  502    0  0.00000000000E+00  0.00000000000E+00  0.11207978051E+04  0.11207978051E+04  0.00000000000E+00 0. -1.
          1   -1    0    0  501    0 -0.00000000000E+00 -0.00000000000E+00 -0.18804760907E+01  0.18804760907E+01  0.00000000000E+00 0.  1.
          2    1    1    2  501    0 -0.23547445718E+02  0.30178774929E+02  0.86936333416E+03  0.87020563514E+03  0.00000000000E+00 0. -1.
          1    1    1    2  502    0  0.23547445718E+02 -0.30178774929E+02  0.24955399483E+03  0.25247264603E+03  0.00000000000E+00 0.  1.
</event>
<event>
 4    1  0.3593938E+003  0.3208350E+02  0.7546771E-02  0.1402315E+00
          2   -1    0    0  502    0  0.00000000000E+00  0.00000000000E+00  0.75533861921E+03  0.75533861921E+03  0.00000000000E+00 0. -1.
          1   -1    0    0  501    0 -0.00000000000E+00 -0.00000000000E+00 -0.57176489926E+01  0.57176489926E+01  0.00000000000E+00 0. -1.
          2    1    1    2  501    0 -0.51759801367E+01  0.31663213647E+02  0.42712480257E+02  0.53420088343E+02  0.00000000000E+00 0. -1.
          1    1    1    2  502    0  0.51759801367E+01 -0.31663213647E+02  0.70690848996E+03  0.70763617986E+03  0.00000000000E+00 0. -1.
</event>
<event>
 4    1  0.3593938E+003  0.2186784E+02  0.7546771E-02  0.1507226E+00
          2   -1    0    0  502    0  0.00000000000E+00  0.00000000000E+00  0.15040409562E+04  0.15040409562E+04  0.00000000000E+00 0.  1.
          1   -1    0    0  501    0 -0.00000000000E+00 -0.00000000000E+00 -0.62054766961E+00  0.62054766961E+00  0.00000000000E+00 0.  1.
          2    1    1    2  501    0  0.76007895301E+01  0.20504396396E+02  0.12770709636E+04  0.12772581761E+04  0.00000000000E+00 0.  1.
          1    1    1    2  502    0 -0.76007895301E+01 -0.20504396396E+02  0.22634944492E+03  0.22740332779E+03  0.00000000000E+00 0.  1.
</event>
<event>
 4    1  0.3593938E+003  0.2041421E+02  0.7546771E-02  0.1527795E+00
          2   -1    0    0  502    0  0.00000000000E+00  0.00000000000E+00  0.47814743033E+03  0.47814743033E+03  0.00000000000E+00 0.  1.
          1   -1    0    0  501    0 -0.00000000000E+00 -0.00000000000E+00 -0.53728069445E+02  0.53728069445E+02  0.00000000000E+00 0. -1.
          2    1    1    2  501    0 -0.15793041281E+02 -0.12935223021E+02  0.47598160037E+03  0.47641916842E+03  0.00000000000E+00 0.  1.
          1    1    1    2  502    0  0.15793041281E+02  0.12935223021E+02 -0.51562239481E+02  0.55456331359E+02  0.00000000000E+00 0. -1.
</event>
<event>
 4    1  0.3593938E+003  0.4545301E+02  0.7546771E-02  0.1319190E+00
          2   -1    0    0  502    0  0.00000000000E+00  0.00000000000E+00  0.44898041376E+01  0.44898041376E+01  0.00000000000E+00 0.  1.
          1   -1    0    0  501    0 -0.00000000000E+00 -0.00000000000E+00 -0.46854831988E+03  0.46854831988E+03  0.00000000000E+00 0.  1.
          2    1    1    2  501    0  0.10326083903E+01 -0.45441283760E+02 -0.20036097930E+03  0.20545193739E+03  0.00000000000E+00 0.  1.
          1    1    1    2  502    0 -0.10326083903E+01  0.45441283760E+02 -0.26369753644E+03  0.26758618663E+03  0.00000000000E+00 0.  1.
</event>
<event>
 4    1  0.3593938E+003  0.3089269E+02  0.7546771E-02  0.1411994E+00
          2   -1    0    0  502    0  0.00000000000E+00  0.00000000000E+00  0.25394320486E+03  0.25394320486E+03  0.00000000000E+00 0.  1.
          1   -1    0    0  501    0 -0.00000000000E+00 -0.00000000000E+00 -0.39537953166E+01  0.39537953166E+01  0.00000000000E+00 0.  1.
          2    1    1    2  501    0 -0.28785692837E+01  0.30758270405E+02  0.96310629454E+02  0.10114393064E+03  0.00000000000E+00 0.  1.
          1    1    1    2  502    0  0.28785692837E+01 -0.30758270405E+02  0.15367878009E+03  0.15675306954E+03  0.00000000000E+00 0.  1.
</event>
<event>
 4    1  0.3593938E+003  0.2360496E+02  0.7546771E-02  0.1485038E+00
          2   -1    0    0  502    0  0.00000000000E+00  0.00000000000E+00  0.88280100991E+03  0.88280100991E+03  0.00000000000E+00 0. -1.
          1   -1    0    0  501    0 -0.00000000000E+00 -0.00000000000E+00 -0.26699967182E+02  0.26699967182E+02  0.00000000000E+00 0.  1.
          2    1    1    2  501    0 -0.84164697971E+01 -0.22053508118E+02  0.87739389181E+03  0.87771136234E+03  0.00000000000E+00 0. -1.
          1    1    1    2  502    0  0.84164697971E+01  0.22053508118E+02 -0.21292849084E+02  0.31789614755E+02  0.00000000000E+00 0.  1.
</event>
<event>
 4    1  0.3593938E+003  0.2538263E+02  0.7546771E-02  0.1464568E+00
          2   -1    0    0  502    0  0.00000000000E+00  0.00000000000E+00  0.10963917706E+03  0.10963917706E+03  0.00000000000E+00 0. -1.
          1   -1    0    0  501    0 -0.00000000000E+00 -0.00000000000E+00 -0.25110309069E+03  0.25110309069E+03  0.00000000000E+00 0. -1.
          2    1    1    2  501    0 -0.25216567311E+02  0.28987403405E+01  0.10751614800E+03  0.11047171603E+03  0.00000000000E+00 0. -1.
          1    1    1    2  502    0  0.25216567311E+02 -0.28987403405E+01 -0.24898006164E+03  0.25027055171E+03  0.00000000000E+00 0. -1.
</event>
<event>
 4    1  0.3593938E+003  0.2415781E+02  0.7546771E-02  0.1478450E+00
          2   -1    0    0  502    0  0.00000000000E+00  0.00000000000E+00  0.38429193448E+03  0.38429193448E+03  0.00000000000E+00 0. -1.
          1   -1    0    0  501    0 -0.00000000000E+00 -0.00000000000E+00 -0.32051232537E+03  0.32051232537E+03  0.00000000000E+00 0.  1.
          2    1    1    2  501    0 -0.17721012013E+02 -0.16418454937E+02  0.38345607531E+03  0.38421629536E+03  0.00000000000E+00 0. -1.
          1    1    1    2  502    0  0.17721012013E+02  0.16418454937E+02 -0.31967646620E+03  0.32058796448E+03  0.00000000000E+00 0.  1.
</event>
<event>
 4    1  0.3593938E+003  0.2613314E+02  0.7546771E-02  0.1456516E+00
          2   -1    0    0  502    0  0.00000000000E+00  0.00000000000E+00  0.17227903409E+03  0.17227903409E+03  0.00000000000E+00 0.  1.
          1   -1    0    0  501    0 -0.00000000000E+00 -0.00000000000E+00 -0.20098894701E+03  0.20098894701E+03  0.00000000000E+00 0. -1.
          2    1    1    2  501    0  0.17669183424E+02  0.19254628072E+02  0.17042935407E+03  0.17242130226E+03  0.00000000000E+00 0.  1.
          1    1    1    2  502    0 -0.17669183424E+02 -0.19254628072E+02 -0.19913926699E+03  0.20084667884E+03  0.00000000000E+00 0. -1.
</event>
<event>
 4    1  0.3593938E+003  0.2263055E+02  0.7546771E-02  0.1497190E+00
          2   -1    0    0  502    0  0.00000000000E+00  0.00000000000E+00  0.45604365789E+01  0.45604365789E+01  0.00000000000E+00 0. -1.
          1   -1    0    0  501    0 -0.00000000000E+00 -0.00000000000E+00 -0.96366393548E+03  0.96366393548E+03  0.00000000000E+00 0.  1.
          2    1    1    2  501    0 -0.21031516444E+02  0.83556728451E+01 -0.24521193753E+02  0.33368111959E+02  0.00000000000E+00 0. -1.
          1    1    1    2  502    0  0.21031516444E+02 -0.83556728451E+01 -0.93458230515E+03  0.93485626010E+03  0.00000000000E+00 0.  1.
</event>
<event>
 4    1  0.3593938E+003  0.3557210E+02  0.7546771E-02  0.1376585E+00
          2   -1    0    0  502    0  0.00000000000E+00  0.00000000000E+00  0.57948572024E+03  0.57948572024E+03  0.00000000000E+00 0.  1.
          1   -1    0    0  501    0 -0.00000000000E+00 -0.00000000000E+00 -0.90499764544E+02  0.90499764544E+02  0.00000000000E+00 0.  1.
          2    1    1    2  501    0  0.34730945104E+02 -0.76899705671E+01  0.57541962146E+03  0.57651809595E+03  0.00000000000E+00 0.  1.
          1    1    1    2  502    0 -0.34730945104E+02  0.76899705671E+01 -0.86433665772E+02  0.93467388826E+02  0.00000000000E+00 0.  1.
</event>
<event>
 4    1  0.3593938E+003  0.4326063E+02  0.7546771E-02  0.1330370E+00
          2   -1    0    0  502    0  0.00000000000E+00  0.00000000000E+00  0.15677659160E+02  0.15677659160E+02  0.00000000000E+00 0. -1.
          1   -1    0    0  501    0 -0.00000000000E+00 -0.00000000000E+00 -0.81798632603E+03  0.81798632603E+03  0.00000000000E+00 0.  1.
          2    1    1    2  501    0  0.41379633167E+02  0.12617759923E+02 -0.15936308652E+02  0.46102579536E+02  0.00000000000E+00 0. -1.
          1    1    1    2  502    0 -0.41379633167E+02 -0.12617759923E+02 -0.78637235822E+03  0.78756140565E+03  0.00000000000E+00 0.  1.
</event>
<event>
 4    1  0.3593938E+003  0.3088878E+02  0.7546771E-02  0.1412027E+00
          2   -1    0    0  502    0  0.00000000000E+00  0.00000000000E+00  0.61281658956E+03  0.61281658956E+03  0.00000000000E+00 0.  1.
          1   -1    0    0  501    0 -0.00000000000E+00 -0.00000000000E+00 -0.52026307258E+01  0.52026307258E+01  0.00000000000E+00 0.  1.
          2    1    1    2  501    0 -0.46152427532E+01 -0.30542039749E+02  0.56247967679E+03  0.56332717266E+03  0.00000000000E+00 0.  1.
          1    1    1    2  502    0  0.46152427532E+01  0.30542039749E+02  0.45134282048E+02  0.54692047628E+02  0.00000000000E+00 0.  1.
</event>
<event>
 4    1  0.4904554E+003  0.2999182E+02  0.7546771E-02  0.1419668E+00
          2   -1    0    0  502    0  0.00000000000E+00  0.00000000000E+00  0.62174339974E+03  0.62174339974E+03  0.00000000000E+00 0.  1.
          1   -1    0    0  501    0 -0.00000000000E+00 -0.00000000000E+00 -0.12544687333E+04  0.12544687333E+04  0.00000000000E+00 0. -1.
          2    1    1    2  501    0 -0.65847256724E+01  0.29260047909E+02  0.62120229453E+03  0.62192587963E+03  0.00000000000E+00 0.  1.
          1    1    1    2  502    0  0.65847256724E+01 -0.29260047909E+02 -0.12539276281E+04  0.12542862534E+04  0.00000000000E+00 0. -1.
</event>
<event>
 4    1  0.3593938E+003  0.2580229E+02  0.7546771E-02  0.1460025E+00
          2   -1    0    0  502    0  0.00000000000E+00  0.00000000000E+00  0.12694253688E+04  0.12694253688E+04  0.00000000000E+00 0. -1.
          1   -1    0    0  501    0 -0.00000000000E+00 -0.00000000000E+00 -0.46469503153E+01  0.46469503153E+01  0.00000000000E+00 0. -1.
          2    1    1    2  501    0  0.67632174810E+01  0.24900143340E+02  0.12324014108E+04  0.12326714873E+04  0.00000000000E+00 0. -1.
          1    1    1    2  502    0 -0.67632174810E+01 -0.24900143340E+02  0.32377007701E+02  0.41400831836E+02  0.00000000000E+00 0. -1.
</event>
<event>
 4    1  0.3593938E+003  0.2107306E+02  0.7546771E-02  0.1518224E+00
          2   -1    0    0  502    0  0.00000000000E+00  0.00000000000E+00  0.11783526268E+01  0.11783526268E+01  0.00000000000E+00 0.  1.
          1   -1    0    0  501    0 -0.00000000000E+00 -0.00000000000E+00 -0.47661394811E+03  0.47661394811E+03  0.00000000000E+00 0.  1.
          2    1    1    2  501    0  0.11649153165E+02  0.17560502273E+02 -0.12842519892E+03  0.13014263609E+03  0.00000000000E+00 0.  1.
          1    1    1    2  502    0 -0.11649153165E+02 -0.17560502273E+02 -0.34701039656E+03  0.34764966465E+03  0.00000000000E+00 0.  1.
</event>
<event>
 4    1  0.3593938E+003  0.2800169E+02  0.7546771E-02  0.1437797E+00
          2   -1    0    0  502    0  0.00000000000E+00  0.00000000000E+00  0.31483698578E+03  0.31483698578E+03  0.00000000000E+00 0. -1.
          1   -1    0    0  501    0 -0.00000000000E+00 -0.00000000000E+00 -0.28735199052E+01  0.28735199052E+01  0.00000000000E+00 0. -1.
          2    1    1    2  501    0 -0.19914349228E+02  0.19685355749E+02  0.21398035967E+03  0.21580474708E+03  0.00000000000E+00 0. -1.
          1    1    1    2  502    0  0.19914349228E+02 -0.19685355749E+02  0.97983106203E+02  0.10190575861E+03  0.00000000000E+00 0. -1.
</event>
<event>
 4    1  0.3593938E+003  0.2965549E+02  0.7546771E-02  0.1422614E+00
          2   -1    0    0  502    0  0.00000000000E+00  0.00000000000E+00  0.15146867246E+04  0.15146867246E+04  0.00000000000E+00 0.  1.
          1   -1    0    0  501    0 -0.00000000000E+00 -0.00000000000E+00 -0.26037900008E+02  0.26037900008E+02  0.00000000000E+00 0.  1.
          2    1    1    2  501    0 -0.12763156612E+02 -0.26768452310E+02  0.15060492240E+04  0.15063411677E+04  0.00000000000E+00 0.  1.
          1    1    1    2  502    0  0.12763156612E+02  0.26768452310E+02 -0.17400399485E+02  0.34383456894E+02  0.00000000000E+00 0.  1.
</event>
<event>
 4    1  0.3593938E+003  0.3073586E+02  0.7546771E-02  0.1413307E+00
          2   -1    0    0  502    0  0.00000000000E+00  0.00000000000E+00  0.16816747134E+03  0.16816747134E+03  0.00000000000E+00 0. -1.
          1   -1    0    0  501    0 -0.00000000000E+00 -0.00000000000E+00 -0.64593451039E+01  0.64593451039E+01  0.00000000000E+00 0. -1.
          2    1    1    2  501    0  0.14449488474E+02 -0.27127572852E+02  0.11237391342E+03  0.11650145640E+03  0.00000000000E+00 0. -1.
          1    1    1    2  502    0 -0.14449488474E+02  0.27127572852E+02  0.49334212813E+02  0.58125360040E+02  0.00000000000E+00 0. -1.
</event>
<event>
 4    1  0.3593938E+003  0.3340306E+02  0.7546771E-02  0.1392152E+00
          2   -1    0    0  502    0  0.00000000000E+00  0.00000000000E+00  0.18502925650E+03  0.18502925650E+03  0.00000000000E+00 0. -1.
          1   -1    0    0  501    0 -0.00000000000E+00 -0.00000000000E+00 -0.60311899233E+01  0.60311899233E+01  0.00000000000E+00 0. -1.
          2    1    1    2  501    0 -0.27371569893E+02  0.19145763212E+02  0.88274030497E+02  0.94382559552E+02  0.00000000000E+00 0. -1.
          1    1    1    2  502    0  0.27371569893E+02 -0.19145763212E+02  0.90724036082E+02  0.96677886873E+02  0.00000000000E+00 0. -1.
</event>
<event>
 4    1  0.3593938E+003  0.2699805E+02  0.7546771E-02  0.1447628E+00
          2   -1    0    0  502    0  0.00000000000E+00  0.00000000000E+00  0.20146938843E+02  0.20146938843E+02  0.00000000000E+00 0.  1.
          1   -1    0    0  501    0 -0.00000000000E+00 -0.00000000000E+00 -0.13653034181E+03  0.13653034181E+03  0.00000000000E+00 0.  1.
          2    1    1    2  501    0  0.91728333420E+01  0.25392004909E+02  0.89702294807E+01  0.28449249582E+02  0.00000000000E+00 0.  1.
          1    1    1    2  502    0 -0.91728333420E+01 -0.25392004909E+02 -0.12535363245E+03  0.12822803107E+03  0.00000000000E+00 0.  1.
</event>
<event>
 4    1  0.3593938E+003  0.2795408E+02  0.7546771E-02  0.1438253E+00
          2   -1    0    0  502    0  0.00000000000E+00  0.00000000000E+00  0.44106261343E+01  0.44106261343E+01  0.00000000000E+00 0.  1.
          1   -1    0    0  501    0 -0.00000000000E+00 -0.00000000000E+00 -0.18039396187E+03  0.18039396187E+03  0.00000000000E+00 0.  1.
          2    1    1    2  501    0 -0.14927559257E+02  0.23634686297E+02 -0.75638739653E+02  0.80639006430E+02  0.00000000000E+00 0.  1.
          1    1    1    2  502    0  0.14927559257E+02 -0.23634686297E+02 -0.10034459608E+03  0.10416558157E+03  0.00000000000E+00 0.  1.
</event>
<event>
 4    1  0.3593938E+003  0.2135496E+02  0.7546771E-02  0.1514257E+00
          2   -1    0    0  502    0  0.00000000000E+00  0.00000000000E+00  0.67824062287E+03  0.67824062287E+03  0.00000000000E+00 0.  1.
          1   -1    0    0  501    0 -0.00000000000E+00 -0.00000000000E+00 -0.74362325750E+00  0.74362325750E+00  0.00000000000E+00 0.  1.
          2    1    1    2  501    0 -0.16565458134E+02 -0.13476627588E+02  0.23366561047E+03  0.23463940720E+03  0.00000000000E+00 0.  1.
          1    1    1    2  502    0  0.16565458134E+02  0.13476627588E+02  0.44383138914E+03  0.44434483893E+03  0.00000000000E+00 0.  1.
</event>
<event>
 4    1  0.3593938E+003  0.2347322E+02  0.7546771E-02  0.1486640E+00
          2   -1    0    0  502    0  0.00000000000E+00  0.00000000000E+00  0.99677464838E+03  0.99677464838E+03  0.00000000000E+00 0.  1.
          1   -1    0    0  501    0 -0.00000000000E+00 -0.00000000000E+00 -0.56776224065E+00  0.56776224065E+00  0.00000000000E+00 0.  1.
          2    1    1    2  501    0 -0.23273142727E+02 -0.30582480168E+01  0.57912351941E+03  0.57959903622E+03  0.00000000000E+00 0.  1.
          1    1    1    2  502    0  0.23273142727E+02  0.30582480168E+01  0.41708336673E+03  0.41774337440E+03  0.00000000000E+00 0.  1.
</event>
<event>
 4    1  0.3593938E+003  0.2893102E+02  0.7546771E-02  0.1429119E+00
          2   -1    0    0  502    0  0.00000000000E+00  0.00000000000E+00  0.14653564561E+02  0.14653564561E+02  0.00000000000E+00 0. -1.
          1   -1    0    0  501    0 -0.00000000000E+00 -0.00000000000E+00 -0.26803444959E+03  0.26803444959E+03  0.00000000000E+00 0.  1.
          2    1    1    2  501    0  0.24975020651E+02  0.14603161820E+02 -0.13082692172E+01  0.28960586320E+02  0.00000000000E+00 0. -1.
          1    1    1    2  502    0 -0.24975020651E+02 -0.14603161820E+02 -0.25207261581E+03  0.25372742783E+03  0.00000000000E+00 0.  1.
</event>
<event>
 4    1  0.3593938E+003  0.2762467E+02  0.7546771E-02  0.1441432E+00
          2   -1    0    0  502    0  0.00000000000E+00  0.00000000000E+00  0.71844243636E+02  0.71844243636E+02  0.00000000000E+00 0. -1.
          1   -1    0    0  501    0 -0.00000000000E+00 -0.00000000000E+00 -0.10708644360E+02  0.10708644360E+02  0.00000000000E+00 0.  1.
          2    1    1    2  501    0  0.22781398470E+02 -0.15624664035E+02  0.34282811003E+02  0.44027643279E+02  0.00000000000E+00 0. -1.
          1    1    1    2  502    0 -0.22781398470E+02  0.15624664035E+02  0.26852788273E+02  0.38525244717E+02  0.00000000000E+00 0.  1.
</event>
<event>
 4    1  0.3593938E+003  0.2814909E+02  0.7546771E-02  0.1436395E+00
          2   -1    0    0  502    0  0.00000000000E+00  0.00000000000E+00  0.13874011072E+03  0.13874011072E+03  0.00000000000E+00 0.  1.
          1   -1    0    0  501    0 -0.00000000000E+00 -0.00000000000E+00 -0.11890737913E+02  0.11890737913E+02  0.00000000000E+00 0.  1.
          2    1    1    2  501    0 -0.17814302697E+02 -0.21795003098E+02  0.11771942824E+03  0.12103815649E+03  0.00000000000E+00 0.  1.
          1    1    1    2  502    0  0.17814302697E+02  0.21795003098E+02  0.91299445659E+01  0.29592692145E+02  0.00000000000E+00 0.  1.
</event>
<event>
 4    1  0.3593938E+003  0.2624498E+02  0.7546771E-02  0.1455343E+00
          2   -1    0    0  502    0  0.00000000000E+00  0.00000000000E+00  0.32049551540E+01  0.32049551540E+01  0.00000000000E+00 0. -1.
          1   -1    0    0  501    0 -0.00000000000E+00 -0.00000000000E+00 -0.79994640203E+03  0.79994640203E+03  0.00000000000E+00 0.  1.
          2    1    1    2  501    0  0.25016595690E+02 -0.79353042729E+01 -0.54950528215E+02  0.60896302555E+02  0.00000000000E+00 0. -1.
          1    1    1    2  502    0 -0.25016595690E+02  0.79353042729E+01 -0.74179091866E+03  0.74225505463E+03  0.00000000000E+00 0.  1.
</event>
<event>
 4    1  0.3593938E+003  0.2826513E+02  0.7546771E-02  0.1435297E+00
          2   -1    0    0  502    0  0.00000000000E+00  0.00000000000E+00  0.28977884088E+03  0.28977884088E+03  0.00000000000E+00 0. -1.
          1   -1    0    0  501    0 -0.00000000000E+00 -0.00000000000E+00 -0.74413842108E+03  0.74413842108E+03  0.00000000000E+00 0. -1.
          2    1    1    2  501    0  0.23992116286E+02  0.14943094995E+02  0.28882030081E+03  0.29020007562E+03  0.00000000000E+00 0. -1.
          1    1    1    2  502    0 -0.23992116286E+02 -0.14943094995E+02 -0.74317988100E+03  0.74371718634E+03  0.00000000000E+00 0. -1.
</event>
<event>
 4    1  0.3593938E+003  0.2292083E+02  0.7546771E-02  0.1493495E+00
          2   -1    0    0  502    0  0.00000000000E+00  0.00000000000E+00  0.10703782289E+02  0.10703782289E+02  0.00000000000E+00 0.  1.
          1   -1    0    0  501    0 -0.00000000000E+00 -0.00000000000E+00 -0.52065879443E+02  0.52065879443E+02  0.00000000000E+00 0.  1.
          2    1    1    2  501    0  0.17226337067E+02  0.15120110363E+02 -0.13167857816E+02  0.26434010396E+02  0.00000000000E+00 0.  1.
          1    1    1    2  502    0 -0.17226337067E+02 -0.15120110363E+02 -0.28194239338E+02  0.36335651336E+02  0.00000000000E+00 0.  1.
</event>
<event>
 4    1  0.3593938E+003  0.2553261E+02  0.7546771E-02  0.1462932E+00
          2   -1    0    0  502    0  0.00000000000E+00  0.00000000000E+00  0.53477341966E+01  0.53477341966E+01  0.00000000000E+00 0. -1.
          1   -1    0    0  501    0 -0.00000000000E+00 -0.00000000000E+00 -0.46896069973E+03  0.46896069973E+03  0.00000000000E+00 0.  1.
          2    1    1    2  501    0  0.15331871712E+02  0.20416859108E+02 -0.27791366316E+02  0.37739561043E+02  0.00000000000E+00 0. -1.
          1    1    1    2  502    0 -0.15331871712E+02 -0.20416859108E+02 -0.43582159921E+03  0.43656887288E+03  0.00000000000E+00 0.  1.
</event>
<event>
 4    1  0.3593938E+003  0.2541281E+02  0.7546771E-02  0.1464238E+00
          2   -1    0    0  502    0  0.00000000000E+00  0.00000000000E+00  0.27010080571E+01  0.27010080571E+01  0.00000000000E+00 0.  1.
          1   -1    0    0  501    0 -0.00000000000E+00 -0.00000000000E+00 -0.40911625205E+03  0.40911625205E+03  0.00000000000E+00 0.  1.
          2    1    1    2  501    0  0.18082840180E+02 -0.17855586352E+02 -0.70469282592E+02  0.74911486849E+02  0.00000000000E+00 0.  1.
          1    1    1    2  502    0 -0.18082840180E+02  0.17855586352E+02 -0.33594596140E+03  0.33690577326E+03  0.00000000000E+00 0.  1.
</event>
<event>
 4    1  0.3593938E+003  0.2354463E+02  0.7546771E-02  0.1485770E+00
          2   -1    0    0  502    0  0.00000000000E+00  0.00000000000E+00  0.12952095801E+03  0.12952095801E+03  0.00000000000E+00 0. -1.
          1   -1    0    0  501    0 -0.00000000000E+00 -0.00000000000E+00 -0.53285844463E+03  0.53285844463E+03  0.00000000000E+00 0. -1.
          2    1    1    2  501    0  0.13343467422E+02 -0.19398486411E+02  0.12818819410E+03  0.13033250747E+03  0.00000000000E+00 0. -1.
          1    1    1    2  502    0 -0.13343467422E+02  0.19398486411E+02 -0.53152568072E+03  0.53204689517E+03  0.00000000000E+00 0. -1.
</event>
<event>
 4    1  0.3593938E+003  0.2096936E+02  0.7546771E-02  0.1519703E+00
          2   -1    0    0  502    0  0.00000000000E+00  0.00000000000E+00  0.91467024211E+01  0.91467024211E+01  0.00000000000E+00 0. -1.
          1   -1    0    0  501    0 -0.00000000000E+00 -0.00000000000E+00 -0.13690160975E+04  0.13690160975E+04  0.00000000000E+00 0. -1.
          2    1    1    2  501    0  0.20882320230E+02  0.19085538681E+01 -0.30600857164E+01  0.21191460560E+02  0.00000000000E+00 0. -1.
          1    1    1    2  502    0 -0.20882320230E+02 -0.19085538681E+01 -0.13568093093E+04  0.13569713393E+04  0.00000000000E+00 0. -1.
</event>
<event>
 4    1  0.3593938E+003  0.3189211E+02  0.7546771E-02  0.1403837E+00
          2   -1    0    0  502    0  0.00000000000E+00  0.00000000000E+00  0.29712444065E+04  0.29712444065E+04  0.00000000000E+00 0.  1.
          1   -1    0    0  501    0 -0.00000000000E+00 -0.00000000000E+00 -0.35205048563E+00  0.35205048563E+00  0.00000000000E+00 0. -1.
          2    1    1    2  501    0  0.31750370347E+02 -0.30034568946E+01  0.17325029837E+04  0.17327964956E+04  0.00000000000E+00 0.  1.
          1    1    1    2  502    0 -0.31750370347E+02  0.30034568946E+01  0.12383893724E+04  0.12387999614E+04  0.00000000000E+00 0. -1.
</event>
<event>
 4    1  0.3593938E+003  0.3090608E+02  0.7546771E-02  0.1411882E+00
          2   -1    0    0  502    0  0.00000000000E+00  0.00000000000E+00  0.96234907760E+03  0.96234907760E+03  0.00000000000E+00 0.  1.
          1   -1    0    0  501    0 -0.00000000000E+00 -0.00000000000E+00 -0.20063417605E+01  0.20063417605E+01  0.00000000000E+00 0. -1.
          2    1    1    2  501    0  0.10424817817E+02  0.29094826624E+02  0.82292153500E+03  0.82350169309E+03  0.00000000000E+00 0.  1.
          1    1    1    2  502    0 -0.10424817817E+02 -0.29094826624E+02  0.13742120084E+03  0.14085372626E+03  0.00000000000E+00 0. -1.
</event>
<event>
 4    1  0.3593938E+003  0.2021941E+02  0.7546771E-02  0.1530708E+00
          2   -1    0    0  502    0  0.00000000000E+00  0.00000000000E+00  0.28194584035E+00  0.28194584035E+00  0.00000000000E+00 0. -1.
          1   -1    0    0  501    0 -0.00000000000E+00 -0.00000000000E+00 -0.14819383442E+04  0.14819383442E+04  0.00000000000E+00 0. -1.
          2    1    1    2  501    0 -0.15573637408E+02  0.12895211670E+02 -0.63204877231E+03  0.63237210189E+03  0.00000000000E+00 0. -1.
          1    1    1    2  502    0  0.15573637408E+02 -0.12895211670E+02 -0.84960762601E+03  0.84984818812E+03  0.00000000000E+00 0. -1.
</event>
<event>
 4    1  0.3593938E+003  0.2251821E+02  0.7546771E-02  0.1498638E+00
          2   -1    0    0  502    0  0.00000000000E+00  0.00000000000E+00  0.97563680792E+03  0.97563680792E+03  0.00000000000E+00 0.  1.
          1   -1    0    0  501    0 -0.00000000000E+00 -0.00000000000E+00 -0.12798517693E+03  0.12798517693E+03  0.00000000000E+00 0. -1.
          2    1    1    2  501    0  0.15922480631E+01  0.22461850564E+02  0.97451524928E+03  0.97477537980E+03  0.00000000000E+00 0.  1.
          1    1    1    2  502    0 -0.15922480631E+01 -0.22461850564E+02 -0.12686361830E+03  0.12884660505E+03  0.00000000000E+00 0. -1.
</event>
<event>
 4    1  0.3593938E+003  0.2777549E+02  0.7546771E-02  0.1439970E+00
          2   -1    0    0  502    0  0.00000000000E+00  0.00000000000E+00  0.33691989742E+02  0.33691989742E+02  0.00000000000E+00 0.  1.
          1   -1    0    0  501    0 -0.00000000000E+00 -0.00000000000E+00 -0.56329883586E+03  0.56329883586E+03  0.00000000000E+00 0.  1.
          2    1    1    2  501    0  0.10739885841E+02  0.25615089067E+02  0.27562165920E+02  0.39129923664E+02  0.00000000000E+00 0.  1.
          1    1    1    2  502    0 -0.10739885841E+02 -0.25615089067E+02 -0.55716901204E+03  0.55786090194E+03  0.00000000000E+00 0.  1.
</event>
<event>
 4    1  0.3593938E+003  0.2321950E+02  0.7546771E-02  0.1489760E+00
          2   -1    0    0  502    0  0.00000000000E+00  0.00000000000E+00  0.11905571234E+03  0.11905571234E+03  0.00000000000E+00 0.  1.
          1   -1    0    0  501    0 -0.00000000000E+00 -0.00000000000E+00 -0.31284898666E+02  0.31284898666E+02  0.00000000000E+00 0. -1.
          2    1    1    2  501    0 -0.11554349297E+02  0.20140564850E+02  0.11340266948E+03  0.11575539203E+03  0.00000000000E+00 0.  1.
          1    1    1    2  502    0  0.11554349297E+02 -0.20140564850E+02 -0.25631855797E+02  0.34585218978E+02  0.00000000000E+00 0. -1.
</event>
<event>
 4    1  0.3593938E+003  0.2036968E+02  0.7546771E-02  0.1528457E+00
          2   -1    0    0  502    0  0.00000000000E+00  0.00000000000E+00  0.41503619329E+03  0.41503619329E+03  0.00000000000E+00 0.  1.
          1   -1    0    0  501    0 -0.00000000000E+00 -0.00000000000E+00 -0.62481121295E+01  0.62481121295E+01  0.00000000000E+00 0. -1.
          2    1    1    2  501    0  0.56688953284E+01  0.19564960664E+02  0.39745017608E+03  0.39797181624E+03  0.00000000000E+00 0.  1.
          1    1    1    2  502    0 -0.56688953284E+01 -0.19564960664E+02  0.11337905087E+02  0.23312489180E+02  0.00000000000E+00 0. -1.
</event>
<event>
 4    1  0.3593938E+003  0.3196396E+02  0.7546771E-02  0.1403264E+00
          2   -1    0    0  502    0  0.00000000000E+00  0.00000000000E+00  0.17727122424E+04  0.17727122424E+04  0.00000000000E+00 0.  1.
          1   -1    0    0  501    0 -0.00000000000E+00 -0.00000000000E+00 -0.64678963492E+01  0.64678963492E+01  0.00000000000E+00 0.  1.
          2    1    1    2  501    0  0.15692645767E+02 -0.27846643336E+02  0.17321525260E+04  0.17324474214E+04  0.00000000000E+00 0.  1.
          1    1    1    2  502    0 -0.15692645767E+02  0.27846643336E+02  0.34091820136E+02  0.46732717409E+02  0.00000000000E+00 0.  1.
</event>
<event>
 4    1  0.3593938E+003  0.2999177E+02  0.7546771E-02  0.1419668E+00
          2   -1    0    0  502    0  0.00000000000E+00  0.00000000000E+00  0.14025499155E+04  0.14025499155E+04  0.00000000000E+00 0. -1.
          1   -1    0    0  501    0 -0.00000000000E+00 -0.00000000000E+00 -0.94968985377E+00  0.94968985377E+00  0.00000000000E+00 0. -1.
          2    1    1    2  501    0  0.29194737195E+02  0.68682853456E+01  0.11006674719E+04  0.11010760145E+04  0.00000000000E+00 0. -1.
          1    1    1    2  502    0 -0.29194737195E+02 -0.68682853456E+01  0.30093275373E+03  0.30242359083E+03  0.00000000000E+00 0. -1.
</event>
<event>
 4    1  0.3593938E+003  0.2679187E+02  0.7546771E-02  0.1449710E+00
          2   -1    0    0  502    0  0.00000000000E+00  0.00000000000E+00  0.24600392882E+03  0.24600392882E+03  0.00000000000E+00 0. -1.
          1   -1    0    0  501    0 -0.00000000000E+00 -0.00000000000E+00 -0.21879519229E+02  0.21879519229E+02  0.00000000000E+00 0.  1.
          2    1    1    2  501    0  0.24938521062E+02  0.97915555873E+01  0.23675322987E+03  0.23826434112E+03  0.00000000000E+00 0. -1.
          1    1    1    2  502    0 -0.24938521062E+02 -0.97915555873E+01 -0.12628820282E+02  0.29619106929E+02  0.00000000000E+00 0.  1.
</event>
<event>
 4    1  0.3593938E+003  0.3156576E+02  0.7546771E-02  0.1406461E+00
          2   -1    0    0  502    0  0.00000000000E+00  0.00000000000E+00  0.41108442743E+01  0.41108442743E+01  0.00000000000E+00 0. -1.
          1   -1    0    0  501    0 -0.00000000000E+00 -0.00000000000E+00 -0.64535870428E+03  0.64535870428E+03  0.00000000000E+00 0. -1.
          2    1    1    2  501    0 -0.29622514093E+02 -0.10904305844E+02 -0.64017316597E+02  0.71376565142E+02  0.00000000000E+00 0. -1.
          1    1    1    2  502    0  0.29622514093E+02  0.10904305844E+02 -0.57723054341E+03  0.57809298341E+03  0.00000000000E+00 0. -1.
</event>
<event>
 4    1  0.3593938E+003  0.4355268E+02  0.7546771E-02  0.1328837E+00
          2   -1    0    0  502    0  0.00000000000E+00  0.00000000000E+00  0.28140691220E+03  0.28140691220E+03  0.00000000000E+00 0. -1.
          1   -1    0    0  501    0 -0.00000000000E+00 -0.00000000000E+00 -0.18271383385E+03  0.18271383385E+03  0.00000000000E+00 0.  1.
          2    1    1    2  501    0  0.69439815160E+00 -0.43547143104E+02  0.27708618800E+03  0.28048813066E+03  0.00000000000E+00 0. -1.
          1    1    1    2  502    0 -0.69439815160E+00  0.43547143104E+02 -0.17839310965E+03  0.18363261538E+03  0.00000000000E+00 0.  1.
</event>
<event>
 4    1  0.3593938E+003  0.2080366E+02  0.7546771E-02  0.1522087E+00
          2   -1    0    0  502    0  0.00000000000E+00  0.00000000000E+00  0.92746257632E+03  0.92746257632E+03  0.00000000000E+00 0. -1.
          1   -1    0    0  501    0 -0.00000000000E+00 -0.00000000000E+00 -0.49892486655E+00  0.49892486655E+00  0.00000000000E+00 0.  1.
          2    1    1    2  501    0  0.21350110771E+01 -0.20693815037E+02  0.58150676599E+03  0.58187877702E+03  0.00000000000E+00 0. -1.
          1    1    1    2  502    0 -0.21350110771E+01  0.20693815037E+02  0.34545688546E+03  0.34608272417E+03  0.00000000000E+00 0.  1.
</event>
<event>
 4    1  0.3593938E+003  0.3055801E+02  0.7546771E-02  0.1414808E+00
          2   -1    0    0  502    0  0.00000000000E+00  0.00000000000E+00  0.29874367168E+03  0.29874367168E+03  0.00000000000E+00 0. -1.
          1   -1    0    0  501    0 -0.00000000000E+00 -0.00000000000E+00 -0.26215766741E+02  0.26215766741E+02  0.00000000000E+00 0.  1.
          2    1    1    2  501    0  0.25921660656E+02 -0.16182065148E+02  0.28875003255E+03  0.29036248556E+03  0.00000000000E+00 0. -1.
          1    1    1    2  502    0 -0.25921660656E+02  0.16182065148E+02 -0.16222127605E+02  0.34596952866E+02  0.00000000000E+00 0.  1.
</event>
<event>
 4    1  0.3593938E+003  0.2181656E+02  0.7546771E-02  0.1507918E+00
          2   -1    0    0  502    0  0.00000000000E+00  0.00000000000E+00  0.61736782203E+03  0.61736782203E+03  0.00000000000E+00 0.  1.
          1   -1    0    0  501    0 -0.00000000000E+00 -0.00000000000E+00 -0.11306262372E+03  0.11306262372E+03  0.00000000000E+00 0. -1.
          2    1    1    2  501    0  0.26370982461E+01  0.21656589859E+02  0.61612052322E+03  0.61650665958E+03  0.00000000000E+00 0.  1.
          1    1    1    2  502    0 -0.26370982461E+01 -0.21656589859E+02 -0.11181532491E+03  0.11392378618E+03  0.00000000000E+00 0. -1.
</event>
<event>
 4    1  0.3593938E+003  0.2182760E+02  0.7546771E-02  0.1507769E+00
          2   -1    0    0  502    0  0.00000000000E+00  0.00000000000E+00  0.52837656993E+02  0.52837656993E+02  0.00000000000E+00 0. -1.
          1   -1    0    0  501    0 -0.00000000000E+00 -0.00000000000E+00 -0.92532245938E+01  0.92532245938E+01  0.00000000000E+00 0.  1.
          2    1    1    2  501    0  0.21743197870E+02 -0.19176639314E+01  0.26751205155E+02  0.34526382171E+02  0.00000000000E+00 0. -1.
          1    1    1    2  502    0 -0.21743197870E+02  0.19176639314E+01  0.16833227245E+02  0.27564499416E+02  0.00000000000E+00 0.  1.
</event>
<event>
 4    1  0.3593938E+003  0.2004417E+02  0.7546771E-02  0.1533362E+00
          2   -1    0    0  502    0  0.00000000000E+00  0.00000000000E+00  0.13341093075E+01  0.13341093075E+01  0.00000000000E+00 0. -1.
          1   -1    0    0  501    0 -0.00000000000E+00 -0.00000000000E+00 -0.92054417771E+03  0.92054417771E+03  0.00000000000E+00 0.  1.
          2    1    1    2  501    0  0.16342011359E+02  0.11606346775E+02 -0.81507007389E+02  0.83935456597E+02  0.00000000000E+00 0. -1.
          1    1    1    2  502    0 -0.16342011359E+02 -0.11606346775E+02 -0.83770306101E+03  0.83794283042E+03  0.00000000000E+00 0.  1.
</event>
<event>
 4    1  0.3593938E+003  0.2366724E+02  0.7546771E-02  0.1484285E+00
          2   -1    0    0  502    0  0.00000000000E+00  0.00000000000E+00  0.13438654369E+04  0.13438654369E+04  0.00000000000E+00 0.  1.
          1   -1    0    0  501    0 -0.00000000000E+00 -0.00000000000E+00 -0.17099861895E+02  0.17099861895E+02  0.00000000000E+00 0. -1.
          2    1    1    2  501    0  0.21391698832E+02 -0.10125874721E+02  0.13355208504E+04  0.13357305417E+04  0.00000000000E+00 0.  1.
          1    1    1    2  502    0 -0.21391698832E+02  0.10125874721E+02 -0.87552754200E+01  0.25234757092E+02  0.00000000000E+00 0. -1.
</event>
<event>
 4    1  0.3593938E+003  0.2050826E+02  0.7546771E-02  0.1526403E+00
          2   -1    0    0  502    0  0.00000000000E+00  0.00000000000E+00  0.71501208993E+01  0.71501208993E+01  0.00000000000E+00 0. -1.
          1   -1    0    0  501    0 -0.00000000000E+00 -0.00000000000E+00 -0.81051204345E+02  0.81051204345E+02  0.00000000000E+00 0. -1.
          2    1    1    2  501    0  0.63892353214E+01  0.19487599105E+02 -0.13855365621E+02  0.24749949563E+02  0.00000000000E+00 0. -1.
          1    1    1    2  502    0 -0.63892353214E+01 -0.19487599105E+02 -0.60045717825E+02  0.63451375682E+02  0.00000000000E+00 0. -1.
</event>
<event>
 4    1  0.3593938E+003  0.3223527E+02  0.7546771E-02  0.1401117E+00
          2   -1    0    0  502    0  0.00000000000E+00  0.00000000000E+00  0.23601708692E+02  0.23601708692E+02  0.00000000000E+00 0.  1.
          1   -1    0    0  501    0 -0.00000000000E+00 -0.00000000000E+00 -0.57788042873E+03  0.57788042873E+03  0.00000000000E+00 0.  1.
          2    1    1    2  501    0 -0.24493522337E+02  0.20956625586E+02  0.11918482901E+02  0.34368052419E+02  0.00000000000E+00 0.  1.
          1    1    1    2  502    0  0.24493522337E+02 -0.20956625586E+02 -0.56619720294E+03  0.56711408500E+03  0.00000000000E+00 0.  1.
</event>
<event>
 4    1  0.3593938E+003  0.2996565E+02  0.7546771E-02  0.1419895E+00
          2   -1    0    0  502    0  0.00000000000E+00  0.00000000000E+00  0.45646371821E+03  0.45646371821E+03  0.00000000000E+00 0.  1.
          1   -1    0    0  501    0 -0.00000000000E+00 -0.00000000000E+00 -0.33382700696E+02  0.33382700696E+02  0.00000000000E+00 0. -1.
          2    1    1    2  501    0  0.26368494353E+02 -0.14235267448E+02  0.44913776925E+03  0.45013628614E+03  0.00000000000E+00 0.  1.
          1    1    1    2  502    0 -0.26368494353E+02  0.14235267448E+02 -0.26056751732E+02  0.39710132769E+02  0.00000000000E+00 0. -1.
</event>
<event>
 4    1  0.3593938E+003  0.5114797E+02  0.7546771E-02  0.1293271E+00
          2   -1    0    0  502    0  0.00000000000E+00  0.00000000000E+00  0.32207910761E+03  0.32207910761E+03  0.00000000000E+00 0. -1.
          1   -1    0    0  501    0 -0.00000000000E+00 -0.00000000000E+00 -0.22120478380E+02  0.22120478380E+02  0.00000000000E+00 0.  1.
          2    1    1    2  501    0  0.25719279671E+02 -0.44211241511E+02  0.28688277229E+03  0.29140665789E+03  0.00000000000E+00 0. -1.
          1    1    1    2  502    0 -0.25719279671E+02  0.44211241511E+02  0.13075856935E+02  0.52792928100E+02  0.00000000000E+00 0.  1.
</event>
<event>
 4    1  0.3593938E+003  0.3339962E+02  0.7546771E-02  0.1392177E+00
          2   -1    0    0  502    0  0.00000000000E+00  0.00000000000E+00  0.59335069318E+02  0.59335069318E+02  0.00000000000E+00 0.  1.
          1   -1    0    0  501    0 -0.00000000000E+00 -0.00000000000E+00 -0.86116048294E+02  0.86116048294E+02  0.00000000000E+00 0. -1.
          2    1    1    2  501    0 -0.19391902478E+02 -0.27193542236E+02  0.50908242317E+02  0.60886646786E+02  0.00000000000E+00 0.  1.
          1    1    1    2  502    0  0.19391902478E+02  0.27193542236E+02 -0.77689221293E+02  0.84564470827E+02  0.00000000000E+00 0. -1.
</event>
<event>
 4    1  0.3593938E+003  0.6638603E+02  0.7546771E-02  0.1239553E+00
          2   -1    0    0  502    0  0.00000000000E+00  0.00000000000E+00  0.16238290936E+04  0.16238290936E+04  0.00000000000E+00 0. -1.
          1   -1    0    0  501    0 -0.00000000000E+00 -0.00000000000E+00 -0.77794630857E+02  0.77794630857E+02  0.00000000000E+00 0. -1.
          2    1    1    2  501    0 -0.65805438684E+02 -0.87606319589E+01  0.16088562157E+04  0.16102252722E+04  0.00000000000E+00 0. -1.
          1    1    1    2  502    0  0.65805438684E+02  0.87606319589E+01 -0.62821752950E+02  0.91398452264E+02  0.00000000000E+00 0. -1.
</event>
<event>
 4    1  0.3593938E+003  0.2105736E+02  0.7546771E-02  0.1518447E+00
          2   -1    0    0  502    0  0.00000000000E+00  0.00000000000E+00  0.13071449599E+03  0.13071449599E+03  0.00000000000E+00 0.  1.
          1   -1    0    0  501    0 -0.00000000000E+00 -0.00000000000E+00 -0.11615264328E+02  0.11615264328E+02  0.00000000000E+00 0. -1.
          2    1    1    2  501    0 -0.20040982841E+02  0.64630929765E+01  0.11942763728E+03  0.12126983595E+03  0.00000000000E+00 0.  1.
          1    1    1    2  502    0  0.20040982841E+02 -0.64630929765E+01 -0.32840562315E+00  0.21059924366E+02  0.00000000000E+00 0. -1.
</event>
<event>
 4    1  0.3593938E+003  0.3145844E+02  0.7546771E-02  0.1407332E+00
          2   -1    0    0  502    0  0.00000000000E+00  0.00000000000E+00  0.75785294947E+02  0.75785294947E+02  0.00000000000E+00 0. -1.
          1   -1    0    0  501    0 -0.00000000000E+00 -0.00000000000E+00 -0.79119405143E+03  0.79119405143E+03  0.00000000000E+00 0. -1.
          2    1    1    2  501    0  0.28460943340E+02 -0.13401794340E+02  0.72193113181E+02  0.78749469700E+02  0.00000000000E+00 0. -1.
          1    1    1    2  502    0 -0.28460943340E+02  0.13401794340E+02 -0.78760186966E+03  0.78822987667E+03  0.00000000000E+00 0. -1.
</event>
<event>
 4    1  0.3593938E+003  0.2012350E+02  0.7546771E-02  0.1532156E+00
          2   -1    0    0  502    0  0.00000000000E+00  0.00000000000E+00  0.16037178907E+02  0.16037178907E+02  0.00000000000E+00 0. -1.
          1   -1    0    0  501    0 -0.00000000000E+00 -0.00000000000E+00 -0.10941591455E+04  0.10941591455E+04  0.00000000000E+00 0.  1.
          2    1    1    2  501    0 -0.17755165984E+01 -0.20045022186E+02  0.95945054012E+01  0.22293719015E+02  0.00000000000E+00 0. -1.
          1    1    1    2  502    0  0.17755165984E+01  0.20045022186E+02 -0.10877164720E+04  0.10879026054E+04  0.00000000000E+00 0.  1.
</event>
<event>
 4    1  0.3593938E+003  0.2553923E+02  0.7546771E-02  0.1462861E+00
          2   -1    0    0  502    0  0.00000000000E+00  0.00000000000E+00  0.10243969889E+04  0.10243969889E+04  0.00000000000E+00 0. -1.
          1   -1    0    0  501    0 -0.00000000000E+00 -0.00000000000E+00 -0.84564580884E+00  0.84564580884E+00  0.00000000000E+00 0.  1.
          2    1    1    2  501    0 -0.15230012362E+02 -0.20501194364E+02  0.76657617879E+03  0.76700149292E+03  0.00000000000E+00 0. -1.
          1    1    1    2  502    0  0.15230012362E+02  0.20501194364E+02  0.25697516429E+03  0.25824114178E+03  0.00000000000E+00 0.  1.
</event>
<event>
 4    1  0.3593938E+003  0.2332524E+02  0.7546771E-02  0.1488454E+00
          2   -1    0    0  502    0  0.00000000000E+00  0.00000000000E+00  0.12761037275E+04  0.12761037275E+04  0.00000000000E+00 0. -1.
          1   -1    0    0  501    0 -0.00000000000E+00 -0.00000000000E+00 -0.11285781783E+02  0.11285781783E+02  0.00000000000E+00 0.  1.
          2    1    1    2  501    0 -0.18739226967E+02 -0.13889145457E+02  0.12638280425E+04  0.12640432698E+04  0.00000000000E+00 0. -1.
          1    1    1    2  502    0  0.18739226967E+02  0.13889145457E+02  0.98990322971E+00  0.23346239467E+02  0.00000000000E+00 0.  1.
</event>
<event>
 4    1  0.3593938E+003  0.2860055E+02  0.7546771E-02  0.1432160E+00
          2   -1    0    0  502    0  0.00000000000E+00  0.00000000000E+00  0.12163970997E+04  0.12163970997E+04  0.00000000000E+00 0.  1.
          1   -1    0    0  501    0 -0.00000000000E+00 -0.00000000000E+00 -0.84149661402E+00  0.84149661402E+00  0.00000000000E+00 0.  1.
          2    1    1    2  501    0 -0.16939920785E+02 -0.23044098052E+02  0.88054755989E+03  0.88101191626E+03  0.00000000000E+00 0.  1.
          1    1    1    2  502    0  0.16939920785E+02  0.23044098052E+02  0.33500804316E+03  0.33622668002E+03  0.00000000000E+00 0.  1.
</event>
<event>
 4    1  0.3593938E+003  0.2065843E+02  0.7546771E-02  0.1524198E+00
          2   -1    0    0  502    0  0.00000000000E+00  0.00000000000E+00  0.18864506366E+02  0.18864506366E+02  0.00000000000E+00 0.  1.
          1   -1    0    0  501    0 -0.00000000000E+00 -0.00000000000E+00 -0.10028126776E+04  0.10028126776E+04  0.00000000000E+00 0.  1.
          2    1    1    2  501    0 -0.16965939475E+02  0.11786759873E+02  0.13069505550E+02  0.24445506456E+02  0.00000000000E+00 0.  1.
          1    1    1    2  502    0  0.16965939475E+02 -0.11786759873E+02 -0.99701767675E+03  0.99723167748E+03  0.00000000000E+00 0.  1.
</event>
<event>
 4    1  0.3593938E+003  0.2713247E+02  0.7546771E-02  0.1446282E+00
          2   -1    0    0  502    0  0.00000000000E+00  0.00000000000E+00  0.85469094399E+03  0.85469094399E+03  0.00000000000E+00 0.  1.
          1   -1    0    0  501    0 -0.00000000000E+00 -0.00000000000E+00 -0.15204732658E+01  0.15204732658E+01  0.00000000000E+00 0.  1.
          2    1    1    2  501    0  0.24738690652E+02 -0.11143064158E+02  0.70845703839E+03  0.70897640718E+03  0.00000000000E+00 0.  1.
          1    1    1    2  502    0 -0.24738690652E+02  0.11143064158E+02  0.14471343234E+03  0.14723501008E+03  0.00000000000E+00 0.  1.
</event>
<event>
 4    1  0.3593938E+003  0.2347360E+02  0.7546771E-02  0.1486635E+00
          2   -1    0    0  502    0  0.00000000000E+00  0.00000000000E+00  0.57766614230E+00  0.57766614230E+00  0.00000000000E+00 0.  1.
          1   -1    0    0  501    0 -0.00000000000E+00 -0.00000000000E+00 -0.15336885411E+04  0.15336885411E+04  0.00000000000E+00 0. -1.
          2    1    1    2  501    0  0.23067643761E+02 -0.43466913635E+01 -0.29486867283E+03  0.29580152828E+03  0.00000000000E+00 0.  1.
          1    1    1    2  502    0 -0.23067643761E+02  0.43466913635E+01 -0.12382422021E+04  0.12384646789E+04  0.00000000000E+00 0. -1.
</event>
<event>
 4    1  0.3593938E+003  0.2092429E+02  0.7546771E-02  0.1520348E+00
          2   -1    0    0  502    0  0.00000000000E+00  0.00000000000E+00  0.25618326205E+03  0.25618326205E+03  0.00000000000E+00 0. -1.
          1   -1    0    0  501    0 -0.00000000000E+00 -0.00000000000E+00 -0.15393073270E+03  0.15393073270E+03  0.00000000000E+00 0.  1.
          2    1    1    2  501    0  0.14108777042E+02 -0.15452132048E+02  0.25504174991E+03  0.25589865215E+03  0.00000000000E+00 0. -1.
          1    1    1    2  502    0 -0.14108777042E+02  0.15452132048E+02 -0.15278922056E+03  0.15421534260E+03  0.00000000000E+00 0.  1.
</event>
<event>
 4    1  0.3593938E+003  0.2423759E+02  0.7546771E-02  0.1477516E+00
          2   -1    0    0  502    0  0.00000000000E+00  0.00000000000E+00  0.27645323801E+02  0.27645323801E+02  0.00000000000E+00 0.  1.
          1   -1    0    0  501    0 -0.00000000000E+00 -0.00000000000E+00 -0.10465513866E+04  0.10465513866E+04  0.00000000000E+00 0. -1.
          2    1    1    2  501    0  0.19091938203E+02 -0.14931798370E+02  0.22164549167E+02  0.32843994073E+02  0.00000000000E+00 0.  1.
          1    1    1    2  502    0 -0.19091938203E+02  0.14931798370E+02 -0.10410706120E+04  0.10413527163E+04  0.00000000000E+00 0. -1.
</event>
<event>
 4    1  0.3593938E+003  0.2628847E+02  0.7546771E-02  0.1454889E+00
          2   -1    0    0  502    0  0.00000000000E+00  0.00000000000E+00  0.29589429625E+03  0.29589429625E+03  0.00000000000E+00 0.  1.
          1   -1    0    0  501    0 -0.00000000000E+00 -0.00000000000E+00 -0.24729256926E+02  0.24729256926E+02  0.00000000000E+00 0.  1.
          2    1    1    2  501    0 -0.19814529273E+02  0.17276231736E+02  0.28813617989E+03  0.28933292574E+03  0.00000000000E+00 0.  1.
          1    1    1    2  502    0  0.19814529273E+02 -0.17276231736E+02 -0.16971140568E+02  0.31290627438E+02  0.00000000000E+00 0.  1.
</event>
<event>
 4    1  0.3593938E+003  0.2461488E+02  0.7546771E-02  0.1473158E+00
          2   -1    0    0  502    0  0.00000000000E+00  0.00000000000E+00  0.44523994894E+02  0.44523994894E+02  0.00000000000E+00 0.  1.
          1   -1    0    0  501    0 -0.00000000000E+00 -0.00000000000E+00 -0.18083610385E+03  0.18083610385E+03  0.00000000000E+00 0.  1.
          2    1    1    2  501    0 -0.15345530595E+02 -0.19245965188E+02  0.40201401483E+02  0.47138574082E+02  0.00000000000E+00 0.  1.
          1    1    1    2  502    0  0.15345530595E+02  0.19245965188E+02 -0.17651351044E+03  0.17822152466E+03  0.00000000000E+00 0.  1.
</event>
<event>
 4    1  0.3593938E+003  0.2118047E+02  0.7546771E-02  0.1516704E+00
          2   -1    0    0  502    0  0.00000000000E+00  0.00000000000E+00  0.98047807291E+01  0.98047807291E+01  0.00000000000E+00 0. -1.
          1   -1    0    0  501    0 -0.00000000000E+00 -0.00000000000E+00 -0.59331544253E+03  0.59331544253E+03  0.00000000000E+00 0. -1.
          2    1    1    2  501    0 -0.20827365252E+02  0.38513800819E+01 -0.20561124792E+01  0.21280034549E+02  0.00000000000E+00 0. -1.
          1    1    1    2  502    0  0.20827365252E+02 -0.38513800819E+01 -0.58145454932E+03  0.58184018871E+03  0.00000000000E+00 0. -1.
</event>
<event>
 4    1  0.3593938E+003  0.3396785E+02  0.7546771E-02  0.1387968E+00
          2   -1    0    0  502    0  0.00000000000E+00  0.00000000000E+00  0.15281964571E+04  0.15281964571E+04  0.00000000000E+00 0.  1.
          1   -1    0    0  501    0 -0.00000000000E+00 -0.00000000000E+00 -0.45673298775E+01  0.45673298775E+01  0.00000000000E+00 0. -1.
          2    1    1    2  501    0  0.16036685993E+02  0.29943934813E+02  0.14619923128E+04  0.14623868631E+04  0.00000000000E+00 0.  1.
          1    1    1    2  502    0 -0.16036685993E+02 -0.29943934813E+02  0.61636814430E+02  0.70376923937E+02  0.00000000000E+00 0. -1.
</event>
<event>
 4    1  0.3593938E+003  0.2197216E+02  0.7546771E-02  0.1505824E+00
          2   -1    0    0  502    0  0.00000000000E+00  0.00000000000E+00  0.12071196917E+03  0.12071196917E+03  0.00000000000E+00 0.  1.
          1   -1    0    0  501    0 -0.00000000000E+00 -0.00000000000E+00 -0.91609655894E+02  0.91609655894E+02  0.00000000000E+00 0. -1.
          2    1    1    2  501    0 -0.10973611501E+02 -0.19035639247E+02  0.11836877866E+03  0.12039079480E+03  0.00000000000E+00 0.  1.
          1    1    1    2  502    0  0.10973611501E+02  0.19035639247E+02 -0.89266465385E+02  0.91930830265E+02  0.00000000000E+00 0. -1.
</event>
<event>
 4    1  0.3593938E+003  0.2217864E+02  0.7546771E-02  0.1503078E+00
          2   -1    0    0  502    0  0.00000000000E+00  0.00000000000E+00  0.50876786455E+02  0.50876786455E+02  0.00000000000E+00 0. -1.
          1   -1    0    0  501    0 -0.00000000000E+00 -0.00000000000E+00 -0.14240229979E+03  0.14240229979E+03  0.00000000000E+00 0. -1.
          2    1    1    2  501    0 -0.44012016196E+00  0.22174270981E+02  0.47538492512E+02  0.52457604497E+02  0.00000000000E+00 0. -1.
          1    1    1    2  502    0  0.44012016196E+00 -0.22174270981E+02 -0.13906400584E+03  0.14082148174E+03  0.00000000000E+00 0. -1.
</event>
<event>
 4    1  0.3593938E+003  0.3626011E+02  0.7546771E-02  0.1371914E+00
          2   -1    0    0  502    0  0.00000000000E+00  0.00000000000E+00  0.39060010686E+01  0.39060010686E+01  0.00000000000E+00 0.  1.
          1   -1    0    0  501    0 -0.00000000000E+00 -0.00000000000E+00 -0.47667333022E+03  0.47667333022E+03  0.00000000000E+00 0.  1.
          2    1    1    2  501    0 -0.21660685719E+02 -0.29079377504E+02 -0.10613049911E+03  0.11215381555E+03  0.00000000000E+00 0.  1.
          1    1    1    2  502    0  0.21660685719E+02  0.29079377504E+02 -0.36663683005E+03  0.36842551574E+03  0.00000000000E+00 0.  1.
</event>
<event>
 4    1  0.3593938E+003  0.2069831E+02  0.7546771E-02  0.1523616E+00
          2   -1    0    0  502    0  0.00000000000E+00  0.00000000000E+00  0.44501996161E+03  0.44501996161E+03  0.00000000000E+00 0. -1.
          1   -1    0    0  501    0 -0.00000000000E+00 -0.00000000000E+00 -0.98210401956E+01  0.98210401956E+01  0.00000000000E+00 0.  1.
          2    1    1    2  501    0 -0.12052210077E+02 -0.16827482534E+02  0.43358619995E+03  0.43407996121E+03  0.00000000000E+00 0. -1.
          1    1    1    2  502    0  0.12052210077E+02  0.16827482534E+02  0.16127214658E+01  0.20761040598E+02  0.00000000000E+00 0.  1.
</event>
<event>
 4    1  0.3593938E+003  0.3466580E+02  0.7546771E-02  0.1382928E+00
          2   -1    0    0  502    0  0.00000000000E+00  0.00000000000E+00  0.22456366742E+02  0.22456366742E+02  0.00000000000E+00 0. -1.
          1   -1    0    0  501    0 -0.00000000000E+00 -0.00000000000E+00 -0.30611359228E+03  0.30611359228E+03  0.00000000000E+00 0. -1.
          2    1    1    2  501    0  0.25183480414E+02 -0.23822471862E+02  0.74072975407E+01  0.35448355508E+02  0.00000000000E+00 0. -1.
          1    1    1    2  502    0 -0.25183480414E+02  0.23822471862E+02 -0.29106452308E+03  0.29312160352E+03  0.00000000000E+00 0. -1.
</event>
<event>
 4    1  0.3593938E+003  0.2503181E+02  0.7546771E-02  0.1468448E+00
          2   -1    0    0  502    0  0.00000000000E+00  0.00000000000E+00  0.47814011311E+03  0.47814011311E+03  0.00000000000E+00 0.  1.
          1   -1    0    0  501    0 -0.00000000000E+00 -0.00000000000E+00 -0.69260357719E+01  0.69260357719E+01  0.00000000000E+00 0.  1.
          2    1    1    2  501    0 -0.25019223122E+02  0.79373283346E+00  0.45399319375E+03  0.45468275920E+03  0.00000000000E+00 0.  1.
          1    1    1    2  502    0  0.25019223122E+02 -0.79373283346E+00  0.17220883592E+02  0.30383389691E+02  0.00000000000E+00 0.  1.
</event>
<event>
 4    1  0.3593938E+003  0.3198672E+02  0.7546771E-02  0.1403083E+00
          2   -1    0    0  502    0  0.00000000000E+00  0.00000000000E+00  0.99857796394E+03  0.99857796394E+03  0.00000000000E+00 0. -1.
          1   -1    0    0  501    0 -0.00000000000E+00 -0.00000000000E+00 -0.84963903890E+01  0.84963903890E+01  0.00000000000E+00 0.  1.
          2    1    1    2  501    0  0.31852636589E+02 -0.29257269426E+01  0.96724128102E+03  0.96777003779E+03  0.00000000000E+00 0. -1.
          1    1    1    2  502    0 -0.31852636589E+02  0.29257269426E+01  0.22840292537E+02  0.39304316544E+02  0.00000000000E+00 0.  1.
</event>
<event>
 4    1  0.3593938E+003  0.2034924E+02  0.7546771E-02  0.1528762E+00
          2   -1    0    0  502    0  0.00000000000E+00  0.00000000000E+00  0.10743105085E+02  0.10743105085E+02  0.00000000000E+00 0. -1.
          1   -1    0    0  501    0 -0.00000000000E+00 -0.00000000000E+00 -0.26527203102E+03  0.26527203102E+03  0.00000000000E+00 0.  1.
          2    1    1    2  501    0 -0.38931467880E+01 -0.19973357543E+02  0.32327721195E+00  0.20351808559E+02  0.00000000000E+00 0. -1.
          1    1    1    2  502    0  0.38931467880E+01  0.19973357543E+02 -0.25485220315E+03  0.25566332755E+03  0.00000000000E+00 0.  1.
</event>
<event>
 4    1  0.3593938E+003  0.2609510E+02  0.7546771E-02  0.1456916E+00
          2   -1    0    0  502    0  0.00000000000E+00  0.00000000000E+00  0.45479879236E+01  0.45479879236E+01  0.00000000000E+00 0. -1.
          1   -1    0    0  501    0 -0.00000000000E+00 -0.00000000000E+00 -0.23121514370E+03  0.23121514370E+03  0.00000000000E+00 0. -1.
          2    1    1    2  501    0  0.25895880773E+02 -0.32183493475E+01 -0.43351594865E+02  0.50599557221E+02  0.00000000000E+00 0. -1.
          1    1    1    2  502    0 -0.25895880773E+02  0.32183493475E+01 -0.18331556091E+03  0.18516357441E+03  0.00000000000E+00 0. -1.
</event>
<event>
 4    1  0.3593938E+003  0.5568059E+02  0.7546771E-02  0.1275259E+00
          2   -1    0    0  502    0  0.00000000000E+00  0.00000000000E+00  0.64914147070E+02  0.64914147070E+02  0.00000000000E+00 0.  1.
          1   -1    0    0  501    0 -0.00000000000E+00 -0.00000000000E+00 -0.60433873446E+02  0.60433873446E+02  0.00000000000E+00 0.  1.
          2    1    1    2  501    0 -0.29518830421E+02 -0.47211937107E+02  0.30940961721E+02  0.63699854529E+02  0.00000000000E+00 0.  1.
          1    1    1    2  502    0  0.29518830421E+02  0.47211937107E+02 -0.26460688097E+02  0.61648165986E+02  0.00000000000E+00 0.  1.
</event>
<event>
 4    1  0.3593938E+003  0.5202097E+02  0.7546771E-02  0.1289640E+00
          2   -1    0    0  502    0  0.00000000000E+00  0.00000000000E+00  0.55022440493E+02  0.55022440493E+02  0.00000000000E+00 0. -1.
          1   -1    0    0  501    0 -0.00000000000E+00 -0.00000000000E+00 -0.52853846814E+02  0.52853846814E+02  0.00000000000E+00 0. -1.
          2    1    1    2  501    0  0.31151192736E+02 -0.41662715884E+02 -0.13130153169E+02  0.53652396274E+02  0.00000000000E+00 0. -1.
          1    1    1    2  502    0 -0.31151192736E+02  0.41662715884E+02  0.15298746847E+02  0.54223891033E+02  0.00000000000E+00 0. -1.
</event>
<event>
 4    1  0.3593938E+003  0.3801545E+02  0.7546771E-02  0.1360525E+00
          2   -1    0    0  502    0  0.00000000000E+00  0.00000000000E+00  0.17863950966E+04  0.17863950966E+04  0.00000000000E+00 0.  1.
          1   -1    0    0  501    0 -0.00000000000E+00 -0.00000000000E+00 -0.10029169495E+02  0.10029169495E+02  0.00000000000E+00 0. -1.
          2    1    1    2  501    0  0.21550554279E+02 -0.31316899276E+02  0.17494069863E+04  0.17498199845E+04  0.00000000000E+00 0.  1.
          1    1    1    2  502    0 -0.21550554279E+02  0.31316899276E+02  0.26958940801E+02  0.46604281554E+02  0.00000000000E+00 0. -1.
</event>
<event>
 4    1  0.3593938E+003  0.4554799E+02  0.7546771E-02  0.1318722E+00
          2   -1    0    0  502    0  0.00000000000E+00  0.00000000000E+00  0.12311314526E+04  0.12311314526E+04  0.00000000000E+00 0.  1.
          1   -1    0    0  501    0 -0.00000000000E+00 -0.00000000000E+00 -0.16851957635E+01  0.16851957635E+01  0.00000000000E+00 0.  1.
          2    1    1    2  501    0  0.45213166132E+01 -0.45323033692E+02  0.61849832920E+03  0.62017320396E+03  0.00000000000E+00 0.  1.
          1    1    1    2  502    0 -0.45213166132E+01  0.45323033692E+02  0.61094792761E+03  0.61264344438E+03  0.00000000000E+00 0.  1.
</event>
<event>
 4    1  0.3593938E+003  0.2397197E+02  0.7546771E-02  0.1480641E+00
          2   -1    0    0  502    0  0.00000000000E+00  0.00000000000E+00  0.83476469121E+00  0.83476469121E+00  0.00000000000E+00 0. -1.
          1   -1    0    0  501    0 -0.00000000000E+00 -0.00000000000E+00 -0.12038204337E+04  0.12038204337E+04  0.00000000000E+00 0.  1.
          2    1    1    2  501    0 -0.22298553519E+02 -0.87994297905E+01 -0.20737055341E+03  0.20875153143E+03  0.00000000000E+00 0. -1.
          1    1    1    2  502    0  0.22298553519E+02  0.87994297905E+01 -0.99561511555E+03  0.99590366691E+03  0.00000000000E+00 0.  1.
</event>
<event>
 4    1  0.3593938E+003  0.3160170E+02  0.7546771E-02  0.1406170E+00
          2   -1    0    0  502    0  0.00000000000E+00  0.00000000000E+00  0.32797000001E+03  0.32797000001E+03  0.00000000000E+00 0. -1.
          1   -1    0    0  501    0 -0.00000000000E+00 -0.00000000000E+00 -0.12938312344E+04  0.12938312344E+04  0.00000000000E+00 0. -1.
          2    1    1    2  501    0 -0.28219937955E+02  0.14223303255E+02  0.32701522192E+03  0.32853861664E+03  0.00000000000E+00 0. -1.
          1    1    1    2  502    0  0.28219937955E+02 -0.14223303255E+02 -0.12928764563E+04  0.12932626178E+04  0.00000000000E+00 0. -1.
</event>
<event>
 4    1  0.3593938E+003  0.2644898E+02  0.7546771E-02  0.1453223E+00
          2   -1    0    0  502    0  0.00000000000E+00  0.00000000000E+00  0.39254543674E+01  0.39254543674E+01  0.00000000000E+00 0.  1.
          1   -1    0    0  501    0 -0.00000000000E+00 -0.00000000000E+00 -0.24441740470E+03  0.24441740470E+03  0.00000000000E+00 0. -1.
          2    1    1    2  501    0  0.72492275795E+01 -0.25436138476E+02 -0.55618890526E+02  0.61587412873E+02  0.00000000000E+00 0.  1.
          1    1    1    2  502    0 -0.72492275795E+01  0.25436138476E+02 -0.18487305981E+03  0.18675544620E+03  0.00000000000E+00 0. -1.
</event>
<event>
 4    1  0.3593938E+003  0.2935523E+02  0.7546771E-02  0.1425283E+00
          2   -1    0    0  502    0  0.00000000000E+00  0.00000000000E+00  0.42494429747E+02  0.42494429747E+02  0.00000000000E+00 0.  1.
          1   -1    0    0  501    0 -0.00000000000E+00 -0.00000000000E+00 -0.28297285291E+02  0.28297285291E+02  0.00000000000E+00 0.  1.
          2    1    1    2  501    0 -0.27633730888E+02 -0.99048671167E+01  0.25940719967E+02  0.39174614584E+02  0.00000000000E+00 0.  1.
          1    1    1    2  502    0  0.27633730888E+02  0.99048671167E+01 -0.11743575512E+02  0.31617100455E+02  0.00000000000E+00 0.  1.
</event>
<event>
 4    1  0.3593938E+003  0.2423103E+02  0.7546771E-02  0.1477593E+00
          2   -1    0    0  502    0  0.00000000000E+00  0.00000000000E+00  0.76506876644E+03  0.76506876644E+03  0.00000000000E+00 0.  1.
          1   -1    0    0  501    0 -0.00000000000E+00 -0.00000000000E+00 -0.88061740120E+00  0.88061740120E+00  0.00000000000E+00 0.  1.
          2    1    1    2  501    0  0.12032020697E+02 -0.21032668537E+02  0.51939092716E+03  0.51995584224E+03  0.00000000000E+00 0.  1.
          1    1    1    2  502    0 -0.12032020697E+02  0.21032668537E+02  0.24479722189E+03  0.24599354161E+03  0.00000000000E+00 0.  1.
</event>
<event>
 4    1  0.3593938E+003  0.2714885E+02  0.7546771E-02  0.1446119E+00
          2   -1    0    0  502    0  0.00000000000E+00  0.00000000000E+00  0.61849602338E+02  0.61849602338E+02  0.00000000000E+00 0.  1.
          1   -1    0    0  501    0 -0.00000000000E+00 -0.00000000000E+00 -0.43308344594E+02  0.43308344594E+02  0.00000000000E+00 0. -1.
          2    1    1    2  501    0 -0.22770541395E+02 -0.14783851595E+02  0.54034896266E+02  0.60471727592E+02  0.00000000000E+00 0.  1.
          1    1    1    2  502    0  0.22770541395E+02  0.14783851595E+02 -0.35493638522E+02  0.44686219340E+02  0.00000000000E+00 0. -1.
</event>
<event>
 4    1  0.4799841E+003  0.2063058E+02  0.7546771E-02  0.1524605E+00
          2   -1    0    0  502    0  0.00000000000E+00  0.00000000000E+00  0.11970338350E+04  0.11970338350E+04  0.00000000000E+00 0. -1.
          1   -1    0    0  501    0 -0.00000000000E+00 -0.00000000000E+00 -0.11534574237E+04  0.11534574237E+04  0.00000000000E+00 0. -1.
          2    1    1    2  501    0  0.19501182857E+01 -0.20538202663E+02  0.11968526814E+04  0.11970304766E+04  0.00000000000E+00 0. -1.
          1    1    1    2  502    0 -0.19501182857E+01  0.20538202663E+02 -0.11532762701E+04  0.11534607822E+04  0.00000000000E+00 0. -1.
</event>
<event>
 4    1  0.3593938E+003  0.2364341E+02  0.7546771E-02  0.1484573E+00
          2   -1    0    0  502    0  0.00000000000E+00  0.00000000000E+00  0.75124674755E+00  0.75124674755E+00  0.00000000000E+00 0. -1.
          1   -1    0    0  501    0 -0.00000000000E+00 -0.00000000000E+00 -0.81662745754E+03  0.81662745754E+03  0.00000000000E+00 0.  1.
          2    1    1    2  501    0  0.21564352177E+02  0.96948235554E+01 -0.28615138295E+03  0.28712649626E+03  0.00000000000E+00 0. -1.
          1    1    1    2  502    0 -0.21564352177E+02 -0.96948235554E+01 -0.52972482784E+03  0.53025220803E+03  0.00000000000E+00 0.  1.
</event>
<event>
 4    1  0.3593938E+003  0.3597554E+02  0.7546771E-02  0.1373832E+00
          2   -1    0    0  502    0  0.00000000000E+00  0.00000000000E+00  0.13814070101E+02  0.13814070101E+02  0.00000000000E+00 0.  1.
          1   -1    0    0  501    0 -0.00000000000E+00 -0.00000000000E+00 -0.16626638291E+03  0.16626638291E+03  0.00000000000E+00 0.  1.
          2    1    1    2  501    0  0.25922869318E+02 -0.24944826161E+02 -0.16737772518E+02  0.39678615585E+02  0.00000000000E+00 0.  1.
          1    1    1    2  502    0 -0.25922869318E+02  0.24944826161E+02 -0.13571454029E+03  0.14040183742E+03  0.00000000000E+00 0.  1.
</event>
<event>
 4    1  0.3593938E+003  0.2374815E+02  0.7546771E-02  0.1483311E+00
          2   -1    0    0  502    0  0.00000000000E+00  0.00000000000E+00  0.18835404154E+02  0.18835404154E+02  0.00000000000E+00 0.  1.
          1   -1    0    0  501    0 -0.00000000000E+00 -0.00000000000E+00 -0.62771200898E+03  0.62771200898E+03  0.00000000000E+00 0.  1.
          2    1    1    2  501    0 -0.22846810741E+02 -0.64805825208E+01  0.11031016304E+02  0.26185072685E+02  0.00000000000E+00 0.  1.
          1    1    1    2  502    0  0.22846810741E+02  0.64805825208E+01 -0.61990762113E+03  0.62036234045E+03  0.00000000000E+00 0.  1.
</event>
<event>
 4    1  0.3593938E+003  0.2193861E+02  0.7546771E-02  0.1506274E+00
          2   -1    0    0  502    0  0.00000000000E+00  0.00000000000E+00  0.10108461141E+03  0.10108461141E+03  0.00000000000E+00 0. -1.
          1   -1    0    0  501    0 -0.00000000000E+00 -0.00000000000E+00 -0.26741168396E+03  0.26741168396E+03  0.00000000000E+00 0. -1.
          2    1    1    2  501    0 -0.21810099590E+02 -0.23711530829E+01  0.99436933394E+02  0.10182831892E+03  0.00000000000E+00 0. -1.
          1    1    1    2  502    0  0.21810099590E+02  0.23711530829E+01 -0.26576400594E+03  0.26666797645E+03  0.00000000000E+00 0. -1.
</event>
<event>
 4    1  0.3593938E+003  0.2494972E+02  0.7546771E-02  0.1469367E+00
          2   -1    0    0  502    0  0.00000000000E+00  0.00000000000E+00  0.36315621121E+02  0.36315621121E+02  0.00000000000E+00 0.  1.
          1   -1    0    0  501    0 -0.00000000000E+00 -0.00000000000E+00 -0.89547278180E+03  0.89547278180E+03  0.00000000000E+00 0. -1.
          2    1    1    2  501    0 -0.20472793021E+02  0.14260198670E+02  0.31835021100E+02  0.40446966371E+02  0.00000000000E+00 0.  1.
          1    1    1    2  502    0  0.20472793021E+02 -0.14260198670E+02 -0.89099218177E+03  0.89134143655E+03  0.00000000000E+00 0. -1.
</event>
<event>
 4    1  0.3593938E+003  0.2162392E+02  0.7546771E-02  0.1510540E+00
          2   -1    0    0  502    0  0.00000000000E+00  0.00000000000E+00  0.11363786076E+04  0.11363786076E+04  0.00000000000E+00 0.  1.
          1   -1    0    0  501    0 -0.00000000000E+00 -0.00000000000E+00 -0.12150956185E+03  0.12150956185E+03  0.00000000000E+00 0.  1.
          2    1    1    2  501    0 -0.14410642747E+02  0.16122256566E+02  0.11353127838E+04  0.11355186968E+04  0.00000000000E+00 0.  1.
          1    1    1    2  502    0  0.14410642747E+02 -0.16122256566E+02 -0.12044373808E+03  0.12236947260E+03  0.00000000000E+00 0.  1.
</event>
<event>
 4    1  0.3593938E+003  0.3943682E+02  0.7546771E-02  0.1351818E+00
          2   -1    0    0  502    0  0.00000000000E+00  0.00000000000E+00  0.40807387838E+03  0.40807387838E+03  0.00000000000E+00 0. -1.
          1   -1    0    0  501    0 -0.00000000000E+00 -0.00000000000E+00 -0.15544759360E+02  0.15544759360E+02  0.00000000000E+00 0. -1.
          2    1    1    2  501    0  0.22651888501E+02  0.32282419666E+02  0.38028557693E+03  0.38232497001E+03  0.00000000000E+00 0. -1.
          1    1    1    2  502    0 -0.22651888501E+02 -0.32282419666E+02  0.12243542097E+02  0.41293667737E+02  0.00000000000E+00 0. -1.
</event>
<event>
 4    1  0.3593938E+003  0.2173353E+02  0.7546771E-02  0.1509044E+00
          2   -1    0    0  502    0  0.00000000000E+00  0.00000000000E+00  0.25259972503E+01  0.25259972503E+01  0.00000000000E+00 0.  1.
          1   -1    0    0  501    0 -0.00000000000E+00 -0.00000000000E+00 -0.20367697446E+03  0.20367697446E+03  0.00000000000E+00 0.  1.
          2    1    1    2  501    0  0.11188552532E+02  0.18632303066E+02 -0.71068138663E+02  0.74317069091E+02  0.00000000000E+00 0.  1.
          1    1    1    2  502    0 -0.11188552532E+02 -0.18632303066E+02 -0.13008283854E+03  0.13188590262E+03  0.00000000000E+00 0.  1.
</event>
<event>
 4    1  0.3593938E+003  0.2380599E+02  0.7546771E-02  0.1482618E+00
          2   -1    0    0  502    0  0.00000000000E+00  0.00000000000E+00  0.21308606392E+03  0.21308606392E+03  0.00000000000E+00 0.  1.
          1   -1    0    0  501    0 -0.00000000000E+00 -0.00000000000E+00 -0.13691922680E+02  0.13691922680E+02  0.00000000000E+00 0. -1.
          2    1    1    2  501    0  0.23036440564E+02  0.60039712489E+01  0.20147931275E+03  0.20288084860E+03  0.00000000000E+00 0.  1.
          1    1    1    2  502    0 -0.23036440564E+02 -0.60039712489E+01 -0.20851715007E+01  0.23897138005E+02  0.00000000000E+00 0. -1.
</event>
<event>
 4    1  0.3593938E+003  0.2581599E+02  0.7546771E-02  0.1459878E+00
          2   -1    0    0  502    0  0.00000000000E+00  0.00000000000E+00  0.27486245193E+02  0.27486245193E+02  0.00000000000E+00 0.  1.
          1   -1    0    0  501    0 -0.00000000000E+00 -0.00000000000E+00 -0.17594066790E+04  0.17594066790E+04  0.00000000000E+00 0. -1.
          2    1    1    2  501    0 -0.25715171051E+02  0.22793124065E+01  0.21308378720E+02  0.33474053996E+02  0.00000000000E+00 0.  1.
          1    1    1    2  502    0  0.25715171051E+02 -0.22793124065E+01 -0.17532288126E+04  0.17534188702E+04  0.00000000000E+00 0. -1.
</event>
<event>
 4    1  0.3593938E+003  0.2317062E+02  0.7546771E-02  0.1490367E+00
          2   -1    0    0  502    0  0.00000000000E+00  0.00000000000E+00  0.17132426137E+02  0.17132426137E+02  0.00000000000E+00 0. -1.
          1   -1    0    0  501    0 -0.00000000000E+00 -0.00000000000E+00 -0.43809600819E+03  0.43809600819E+03  0.00000000000E+00 0. -1.
          2    1    1    2  501    0  0.10324711665E+02 -0.20743139083E+02  0.88408006438E+01  0.24799944475E+02  0.00000000000E+00 0. -1.
          1    1    1    2  502    0 -0.10324711665E+02  0.20743139083E+02 -0.42980438270E+03  0.43042848985E+03  0.00000000000E+00 0. -1.
</event>
<event>
 4    1  0.3593938E+003  0.2312701E+02  0.7546771E-02  0.1490909E+00
          2   -1    0    0  502    0  0.00000000000E+00  0.00000000000E+00  0.14641514908E+01  0.14641514908E+01  0.00000000000E+00 0. -1.
          1   -1    0    0  501    0 -0.00000000000E+00 -0.00000000000E+00 -0.53553012378E+03  0.53553012378E+03  0.00000000000E+00 0.  1.
          2    1    1    2  501    0  0.22911100489E+02 -0.31527601319E+01 -0.11565506649E+03  0.11794470241E+03  0.00000000000E+00 0. -1.
          1    1    1    2  502    0 -0.22911100489E+02  0.31527601319E+01 -0.41841090580E+03  0.41904957286E+03  0.00000000000E+00 0.  1.
</event>
<event>
 4    1  0.3593938E+003  0.2257217E+02  0.7546771E-02  0.1497941E+00
          2   -1    0    0  502    0  0.00000000000E+00  0.00000000000E+00  0.38974687073E+03  0.38974687073E+03  0.00000000000E+00 0. -1.
          1   -1    0    0  501    0 -0.00000000000E+00 -0.00000000000E+00 -0.14039727975E+01  0.14039727975E+01  0.00000000000E+00 0.  1.
          2    1    1    2  501    0 -0.66334036603E+01 -0.21575466849E+02  0.24550053579E+03  0.24653603365E+03  0.00000000000E+00 0. -1.
          1    1    1    2  502    0  0.66334036603E+01  0.21575466849E+02  0.14284236214E+03  0.14461480988E+03  0.00000000000E+00 0.  1.
</event>
<event>
 4    1  0.3593938E+003  0.3107643E+02  0.7546771E-02  0.1410467E+00
          2   -1    0    0  502    0  0.00000000000E+00  0.00000000000E+00  0.15187384161E+02  0.15187384161E+02  0.00000000000E+00 0. -1.
          1   -1    0    0  501    0 -0.00000000000E+00 -0.00000000000E+00 -0.77032055230E+02  0.77032055230E+02  0.00000000000E+00 0. -1.
          2    1    1    2  501    0 -0.20257078625E+02  0.23566824778E+02 -0.11659854412E+02  0.33191816302E+02  0.00000000000E+00 0. -1.
          1    1    1    2  502    0  0.20257078625E+02 -0.23566824778E+02 -0.50184816657E+02  0.59027623088E+02  0.00000000000E+00 0. -1.
</event>
<event>
 4    1  0.3593938E+003  0.2142913E+02  0.7546771E-02  0.1513225E+00
          2   -1    0    0  502    0  0.00000000000E+00  0.00000000000E+00  0.77659742194E+01  0.77659742194E+01  0.00000000000E+00 0. -1.
          1   -1    0    0  501    0 -0.00000000000E+00 -0.00000000000E+00 -0.90820009897E+03  0.90820009897E+03  0.00000000000E+00 0. -1.
          2    1    1    2  501    0  0.16880723518E+02  0.13200330850E+02 -0.73940193447E+01  0.22668901233E+02  0.00000000000E+00 0. -1.
          1    1    1    2  502    0 -0.16880723518E+02 -0.13200330850E+02 -0.89304010541E+03  0.89329717196E+03  0.00000000000E+00 0. -1.
</event>
<event>
 4    1  0.3593938E+003  0.2057957E+02  0.7546771E-02  0.1525353E+00
          2   -1    0    0  502    0  0.00000000000E+00  0.00000000000E+00  0.15383348646E+03  0.15383348646E+03  0.00000000000E+00 0. -1.
          1   -1    0    0  501    0 -0.00000000000E+00 -0.00000000000E+00 -0.74767688842E+01  0.74767688842E+01  0.00000000000E+00 0.  1.
          2    1    1    2  501    0  0.16062687619E+02 -0.12865027737E+02  0.13728673223E+03  0.13882062426E+03  0.00000000000E+00 0. -1.
          1    1    1    2  502    0 -0.16062687619E+02  0.12865027737E+02  0.90699853412E+01  0.22489631084E+02  0.00000000000E+00 0.  1.
</event>
<event>
 4    1  0.3593938E+003  0.2072849E+02  0.7546771E-02  0.1523177E+00
          2   -1    0    0  502    0  0.00000000000E+00  0.00000000000E+00  0.50098034380E+03  0.50098034380E+03  0.00000000000E+00 0. -1.
          1   -1    0    0  501    0 -0.00000000000E+00 -0.00000000000E+00 -0.10593600905E+03  0.10593600905E+03  0.00000000000E+00 0.  1.
          2    1    1    2  501    0 -0.40695683466E+01 -0.20325081606E+02  0.49974944709E+03  0.50017914810E+03  0.00000000000E+00 0. -1.
          1    1    1    2  502    0  0.40695683466E+01  0.20325081606E+02 -0.10470511234E+03  0.10673720476E+03  0.00000000000E+00 0.  1.
</event>
<event>
 4    1  0.3593938E+003  0.2272372E+02  0.7546771E-02  0.1495997E+00
          2   -1    0    0  502    0  0.00000000000E+00  0.00000000000E+00  0.73734586361E+01  0.73734586361E+01  0.00000000000E+00 0. -1.
          1   -1    0    0  501    0 -0.00000000000E+00 -0.00000000000E+00 -0.99683737650E+03  0.99683737650E+03  0.00000000000E+00 0.  1.
          2    1    1    2  501    0 -0.17855422268E+02 -0.14055303137E+02 -0.10584838194E+02  0.25068036426E+02  0.00000000000E+00 0. -1.
          1    1    1    2  502    0  0.17855422268E+02  0.14055303137E+02 -0.97887907967E+03  0.97914279871E+03  0.00000000000E+00 0.  1.
</event>
<event>
 4    1  0.3593938E+003  0.2820294E+02  0.7546771E-02  0.1435885E+00
          2   -1    0    0  502    0  0.00000000000E+00  0.00000000000E+00  0.68907266092E+03  0.68907266092E+03  0.00000000000E+00 0. -1.
          1   -1    0    0  501    0 -0.00000000000E+00 -0.00000000000E+00 -0.27171078080E+03  0.27171078080E+03  0.00000000000E+00 0.  1.
          2    1    1    2  501    0 -0.28128008701E+02  0.20544814424E+01  0.68805114684E+03  0.68862891780E+03  0.00000000000E+00 0. -1.
          1    1    1    2  502    0  0.28128008701E+02 -0.20544814424E+01 -0.27068926672E+03  0.27215452391E+03  0.00000000000E+00 0.  1.
</event>
<event>
 4    1  0.3593938E+003  0.2012672E+02  0.7546771E-02  0.1532107E+00
          2   -1    0    0  502    0  0.00000000000E+00  0.00000000000E+00  0.17117727971E+03  0.17117727971E+03  0.00000000000E+00 0.  1.
          1   -1    0    0  501    0 -0.00000000000E+00 -0.00000000000E+00 -0.28782966890E+01  0.28782966890E+01  0.00000000000E+00 0.  1.
          2    1    1    2  501    0 -0.16763683711E+02  0.11138399699E+02  0.12084845150E+03  0.12251299224E+03  0.00000000000E+00 0.  1.
          1    1    1    2  502    0  0.16763683711E+02 -0.11138399699E+02  0.47450531521E+02  0.51542584152E+02  0.00000000000E+00 0.  1.
</event>
<event>
 4    1  0.3593938E+003  0.2282095E+02  0.7546771E-02  0.1494759E+00
          2   -1    0    0  502    0  0.00000000000E+00  0.00000000000E+00  0.41399712986E+02  0.41399712986E+02  0.00000000000E+00 0. -1.
          1   -1    0    0  501    0 -0.00000000000E+00 -0.00000000000E+00 -0.20379191233E+02  0.20379191233E+02  0.00000000000E+00 0.  1.
          2    1    1    2  501    0 -0.11025751775E+02  0.19980702732E+02  0.29619793357E+02  0.37391547740E+02  0.00000000000E+00 0. -1.
          1    1    1    2  502    0  0.11025751775E+02 -0.19980702732E+02 -0.85992716049E+01  0.24387356478E+02  0.00000000000E+00 0.  1.
</event>
<event>
 4    1  0.3593938E+003  0.5069780E+02  0.7546771E-02  0.1295175E+00
          2   -1    0    0  502    0  0.00000000000E+00  0.00000000000E+00  0.15326884473E+02  0.15326884473E+02  0.00000000000E+00 0.  1.
          1   -1    0    0  501    0 -0.00000000000E+00 -0.00000000000E+00 -0.26295462201E+03  0.26295462201E+03  0.00000000000E+00 0. -1.
          2    1    1    2  501    0 -0.15020371267E+02 -0.48421641067E+02 -0.40067756189E+02  0.64619594263E+02  0.00000000000E+00 0.  1.
          1    1    1    2  502    0  0.15020371267E+02  0.48421641067E+02 -0.20755998134E+03  0.21366191222E+03  0.00000000000E+00 0. -1.
</event>
<event>
 4    1  0.3593938E+003  0.2929930E+02  0.7546771E-02  0.1425785E+00
          2   -1    0    0  502    0  0.00000000000E+00  0.00000000000E+00  0.14924609512E+03  0.14924609512E+03  0.00000000000E+00 0.  1.
          1   -1    0    0  501    0 -0.00000000000E+00 -0.00000000000E+00 -0.71245424901E+02  0.71245424901E+02  0.00000000000E+00 0.  1.
          2    1    1    2  501    0  0.24335174356E+02  0.16317108402E+02  0.14470218430E+03  0.14763864968E+03  0.00000000000E+00 0.  1.
          1    1    1    2  502    0 -0.24335174356E+02 -0.16317108402E+02 -0.66701514077E+02  0.72852870347E+02  0.00000000000E+00 0.  1.
</event>
<event>
 4    1  0.3593938E+003  0.3156327E+02  0.7546771E-02  0.1406481E+00
          2   -1    0    0  502    0  0.00000000000E+00  0.00000000000E+00  0.40721223996E+03  0.40721223996E+03  0.00000000000E+00 0.  1.
          1   -1    0    0  501    0 -0.00000000000E+00 -0.00000000000E+00 -0.37459364428E+02  0.37459364428E+02  0.00000000000E+00 0.  1.
          2    1    1    2  501    0 -0.19040446817E+02 -0.25173422262E+02  0.39982923241E+03  0.40107312911E+03  0.00000000000E+00 0.  1.
          1    1    1    2  502    0  0.19040446817E+02  0.25173422262E+02 -0.30076356880E+02  0.43598475278E+02  0.00000000000E+00 0.  1.
</event>
<event>
 4    1  0.3593938E+003  0.3179076E+02  0.7546771E-02  0.1404648E+00
          2   -1    0    0  502    0  0.00000000000E+00  0.00000000000E+00  0.33076246631E+03  0.33076246631E+03  0.00000000000E+00 0.  1.
          1   -1    0    0  501    0 -0.00000000000E+00 -0.00000000000E+00 -0.34392522718E+02  0.34392522718E+02  0.00000000000E+00 0.  1.
          2    1    1    2  501    0  0.17610442204E+02  0.26467423941E+02  0.32246352099E+03  0.32402681151E+03  0.00000000000E+00 0.  1.
          1    1    1    2  502    0 -0.17610442204E+02 -0.26467423941E+02 -0.26093577400E+02  0.41128177521E+02  0.00000000000E+00 0.  1.
</event>
<event>
 4    1  0.3593938E+003  0.2666220E+02  0.7546771E-02  0.1451031E+00
          2   -1    0    0  502    0  0.00000000000E+00  0.00000000000E+00  0.92734407207E+01  0.92734407207E+01  0.00000000000E+00 0. -1.
          1   -1    0    0  501    0 -0.00000000000E+00 -0.00000000000E+00 -0.74913099342E+03  0.74913099342E+03  0.00000000000E+00 0. -1.
          2    1    1    2  501    0 -0.83558492419E+01  0.25319013620E+02 -0.10651472103E+02  0.28711087148E+02  0.00000000000E+00 0. -1.
          1    1    1    2  502    0  0.83558492419E+01 -0.25319013620E+02 -0.72920608059E+03  0.72969334699E+03  0.00000000000E+00 0. -1.
</event>
<event>
 4    1  0.3593938E+003  0.2443064E+02  0.7546771E-02  0.1475275E+00
          2   -1    0    0  502    0  0.00000000000E+00  0.00000000000E+00  0.74793576108E+03  0.74793576108E+03  0.00000000000E+00 0.  1.
          1   -1    0    0  501    0 -0.00000000000E+00 -0.00000000000E+00 -0.47239339683E+02  0.47239339683E+02  0.00000000000E+00 0.  1.
          2    1    1    2  501    0 -0.83037349030E+01  0.22976162678E+02  0.74456327538E+03  0.74496397706E+03  0.00000000000E+00 0.  1.
          1    1    1    2  502    0  0.83037349030E+01 -0.22976162678E+02 -0.43866853988E+02  0.50211123703E+02  0.00000000000E+00 0.  1.
</event>
<event>
 4    1  0.3593938E+003  0.3633554E+02  0.7546771E-02  0.1371409E+00
          2   -1    0    0  502    0  0.00000000000E+00  0.00000000000E+00  0.12086056029E+03  0.12086056029E+03  0.00000000000E+00 0. -1.
          1   -1    0    0  501    0 -0.00000000000E+00 -0.00000000000E+00 -0.93831643928E+02  0.93831643928E+02  0.00000000000E+00 0.  1.
          2    1    1    2  501    0  0.30151442965E+02 -0.20277132933E+02  0.11441862511E+03  0.12004954562E+03  0.00000000000E+00 0. -1.
          1    1    1    2  502    0 -0.30151442965E+02  0.20277132933E+02 -0.87389708741E+02  0.94642658599E+02  0.00000000000E+00 0.  1.
</event>
<event>
 4    1  0.3593938E+003  0.2077316E+02  0.7546771E-02  0.1522528E+00
          2   -1    0    0  502    0  0.00000000000E+00  0.00000000000E+00  0.15600650280E+02  0.15600650280E+02  0.00000000000E+00 0. -1.
          1   -1    0    0  501    0 -0.00000000000E+00 -0.00000000000E+00 -0.56644947618E+03  0.56644947618E+03  0.00000000000E+00 0.  1.
          2    1    1    2  501    0  0.20727910146E+02 -0.13703746171E+01  0.84061059602E+01  0.22409524828E+02  0.00000000000E+00 0. -1.
          1    1    1    2  502    0 -0.20727910146E+02  0.13703746171E+01 -0.55925493186E+03  0.55964060163E+03  0.00000000000E+00 0.  1.
</event>
<event>
 4    1  0.3593938E+003  0.2148405E+02  0.7546771E-02  0.1512465E+00
          2   -1    0    0  502    0  0.00000000000E+00  0.00000000000E+00  0.26293439204E+03  0.26293439204E+03  0.00000000000E+00 0. -1.
          1   -1    0    0  501    0 -0.00000000000E+00 -0.00000000000E+00 -0.35447711591E+01  0.35447711591E+01  0.00000000000E+00 0. -1.
          2    1    1    2  501    0  0.18239755038E+02  0.11352354172E+02  0.22435883293E+03  0.22538511602E+03  0.00000000000E+00 0. -1.
          1    1    1    2  502    0 -0.18239755038E+02 -0.11352354172E+02  0.35030787944E+02  0.41094047173E+02  0.00000000000E+00 0. -1.
</event>
<event>
 4    1  0.3593938E+003  0.2171626E+02  0.7546771E-02  0.1509279E+00
          2   -1    0    0  502    0  0.00000000000E+00  0.00000000000E+00  0.28076589584E+02  0.28076589584E+02  0.00000000000E+00 0. -1.
          1   -1    0    0  501    0 -0.00000000000E+00 -0.00000000000E+00 -0.17214281127E+02  0.17214281127E+02  0.00000000000E+00 0. -1.
          2    1    1    2  501    0 -0.19606850051E+02  0.93363536884E+01  0.89578605976E+01  0.23491260835E+02  0.00000000000E+00 0. -1.
          1    1    1    2  502    0  0.19606850051E+02 -0.93363536884E+01  0.19044478596E+01  0.21799609877E+02  0.00000000000E+00 0. -1.
</event>
<event>
 4    1  0.3593938E+003  0.2016443E+02  0.7546771E-02  0.1531537E+00
          2   -1    0    0  502    0  0.00000000000E+00  0.00000000000E+00  0.10695445251E+03  0.10695445251E+03  0.00000000000E+00 0.  1.
          1   -1    0    0  501    0 -0.00000000000E+00 -0.00000000000E+00 -0.53117982020E+02  0.53117982020E+02  0.00000000000E+00 0. -1.
          2    1    1    2  501    0  0.48469151085E+01 -0.19573239537E+02  0.10403718697E+03  0.10597330119E+03  0.00000000000E+00 0.  1.
          1    1    1    2  502    0 -0.48469151085E+01  0.19573239537E+02 -0.50200716486E+02  0.54099133336E+02  0.00000000000E+00 0. -1.
</event>
<event>
 4    1  0.3593938E+003  0.2202548E+02  0.7546771E-02  0.1505112E+00
          2   -1    0    0  502    0  0.00000000000E+00  0.00000000000E+00  0.29854206054E+03  0.29854206054E+03  0.00000000000E+00 0.  1.
          1   -1    0    0  501    0 -0.00000000000E+00 -0.00000000000E+00 -0.10728649267E+02  0.10728649267E+02  0.00000000000E+00 0.  1.
          2    1    1    2  501    0 -0.21936768448E+02 -0.19748266982E+01  0.28635090126E+03  0.28719672770E+03  0.00000000000E+00 0.  1.
          1    1    1    2  502    0  0.21936768448E+02  0.19748266982E+01  0.14625100130E+01  0.22073982105E+02  0.00000000000E+00 0.  1.
</event>
<event>
 4    1  0.3593938E+003  0.2184430E+02  0.7546771E-02  0.1507543E+00
          2   -1    0    0  502    0  0.00000000000E+00  0.00000000000E+00  0.42571373312E+00  0.42571373312E+00  0.00000000000E+00 0.  1.
          1   -1    0    0  501    0 -0.00000000000E+00 -0.00000000000E+00 -0.12113737075E+04  0.12113737075E+04  0.00000000000E+00 0.  1.
          2    1    1    2  501    0 -0.10936308181E+02  0.18909542768E+02 -0.43986919685E+03  0.44041126686E+03  0.00000000000E+00 0.  1.
          1    1    1    2  502    0  0.10936308181E+02 -0.18909542768E+02 -0.77107879689E+03  0.77138815434E+03  0.00000000000E+00 0.  1.
</event>
<event>
 4    1  0.3593938E+003  0.3219812E+02  0.7546771E-02  0.1401409E+00
          2   -1    0    0  502    0  0.00000000000E+00  0.00000000000E+00  0.25400001705E+02  0.25400001705E+02  0.00000000000E+00 0.  1.
          1   -1    0    0  501    0 -0.00000000000E+00 -0.00000000000E+00 -0.81544742864E+02  0.81544742864E+02  0.00000000000E+00 0.  1.
          2    1    1    2  501    0  0.43322299663E+01  0.31905338459E+02  0.97182107315E+01  0.33632758711E+02  0.00000000000E+00 0.  1.
          1    1    1    2  502    0 -0.43322299663E+01 -0.31905338459E+02 -0.65862951891E+02  0.73311985858E+02  0.00000000000E+00 0.  1.
</event>
<event>
 4    1  0.3593938E+003  0.2377842E+02  0.7546771E-02  0.1482948E+00
          2   -1    0    0  502    0  0.00000000000E+00  0.00000000000E+00  0.14073260300E+03  0.14073260300E+03  0.00000000000E+00 0. -1.
          1   -1    0    0  501    0 -0.00000000000E+00 -0.00000000000E+00 -0.24216820650E+03  0.24216820650E+03  0.00000000000E+00 0.  1.
          2    1    1    2  501    0  0.21037991159E+02  0.11082244296E+02  0.13913785165E+03  0.14115507420E+03  0.00000000000E+00 0. -1.
          1    1    1    2  502    0 -0.21037991159E+02 -0.11082244296E+02 -0.24057345515E+03  0.24174573530E+03  0.00000000000E+00 0.  1.
</event>
<event>
 4    1  0.3593938E+003  0.2082364E+02  0.7546771E-02  0.1521798E+00
          2   -1    0    0  502    0  0.00000000000E+00  0.00000000000E+00  0.79382470817E+00  0.79382470817E+00  0.00000000000E+00 0.  1.
          1   -1    0    0  501    0 -0.00000000000E+00 -0.00000000000E+00 -0.57718223200E+03  0.57718223200E+03  0.00000000000E+00 0.  1.
          2    1    1    2  501    0 -0.16797460314E+02  0.12307288679E+02 -0.22129005472E+03  0.22226765924E+03  0.00000000000E+00 0.  1.
          1    1    1    2  502    0  0.16797460314E+02 -0.12307288679E+02 -0.35509835257E+03  0.35570839746E+03  0.00000000000E+00 0.  1.
</event>
<event>
 4    1  0.3593938E+003  0.2954285E+02  0.7546771E-02  0.1423611E+00
          2   -1    0    0  502    0  0.00000000000E+00  0.00000000000E+00  0.12715982512E+03  0.12715982512E+03  0.00000000000E+00 0.  1.
          1   -1    0    0  501    0 -0.00000000000E+00 -0.00000000000E+00 -0.21720179860E+02  0.21720179860E+02  0.00000000000E+00 0.  1.
          2    1    1    2  501    0  0.32328993119E+01  0.29365428714E+02  0.11428475646E+03  0.11804145713E+03  0.00000000000E+00 0.  1.
          1    1    1    2  502    0 -0.32328993119E+01 -0.29365428714E+02 -0.88451112007E+01  0.30838547853E+02  0.00000000000E+00 0.  1.
</event>
<event>
 4    1  0.3593938E+003  0.2296613E+02  0.7546771E-02  0.1492924E+00
          2   -1    0    0  502    0  0.00000000000E+00  0.00000000000E+00  0.15554962252E+01  0.15554962252E+01  0.00000000000E+00 0. -1.
          1   -1    0    0  501    0 -0.00000000000E+00 -0.00000000000E+00 -0.72600402533E+03  0.72600402533E+03  0.00000000000E+00 0. -1.
          2    1    1    2  501    0 -0.22862240836E+02  0.21820154730E+01 -0.96653752236E+02  0.99344808968E+02  0.00000000000E+00 0. -1.
          1    1    1    2  502    0  0.22862240836E+02 -0.21820154730E+01 -0.62779477687E+03  0.62821471259E+03  0.00000000000E+00 0. -1.
</event>
<event>
 4    1  0.3593938E+003  0.4024849E+02  0.7546771E-02  0.1347036E+00
          2   -1    0    0  502    0  0.00000000000E+00  0.00000000000E+00  0.36568470963E+02  0.36568470963E+02  0.00000000000E+00 0.  1.
          1   -1    0    0  501    0 -0.00000000000E+00 -0.00000000000E+00 -0.59250989341E+03  0.59250989341E+03  0.00000000000E+00 0. -1.
          2    1    1    2  501    0  0.33761181167E+02 -0.21911724007E+02  0.24581855949E+02  0.47161516565E+02  0.00000000000E+00 0.  1.
          1    1    1    2  502    0 -0.33761181167E+02  0.21911724007E+02 -0.58052327839E+03  0.58191684781E+03  0.00000000000E+00 0. -1.
</event>
<event>
 4    1  0.3593938E+003  0.3367764E+02  0.7546771E-02  0.1390106E+00
          2   -1    0    0  502    0  0.00000000000E+00  0.00000000000E+00  0.10916686583E+03  0.10916686583E+03  0.00000000000E+00 0.  1.
          1   -1    0    0  501    0 -0.00000000000E+00 -0.00000000000E+00 -0.10475612018E+03  0.10475612018E+03  0.00000000000E+00 0. -1.
          2    1    1    2  501    0 -0.91426474945E+01 -0.32412886333E+02  0.10372431400E+03  0.10905464923E+03  0.00000000000E+00 0.  1.
          1    1    1    2  502    0  0.91426474945E+01  0.32412886333E+02 -0.99313568346E+02  0.10486833679E+03  0.00000000000E+00 0. -1.
</event>
<event>
 4    1  0.3593938E+003  0.2386643E+02  0.7546771E-02  0.1481896E+00
          2   -1    0    0  502    0  0.00000000000E+00  0.00000000000E+00  0.13815567306E+02  0.13815567306E+02  0.00000000000E+00 0. -1.
          1   -1    0    0  501    0 -0.00000000000E+00 -0.00000000000E+00 -0.37893945195E+03  0.37893945195E+03  0.00000000000E+00 0. -1.
          2    1    1    2  501    0 -0.21291932230E+02 -0.10782391659E+02  0.28248912207E+01  0.24033026410E+02  0.00000000000E+00 0. -1.
          1    1    1    2  502    0  0.21291932230E+02  0.10782391659E+02 -0.36794877587E+03  0.36872199285E+03  0.00000000000E+00 0. -1.
</event>
<event>
 4    1  0.3593938E+003  0.2035640E+02  0.7546771E-02  0.1528655E+00
          2   -1    0    0  502    0  0.00000000000E+00  0.00000000000E+00  0.94878469057E+03  0.94878469057E+03  0.00000000000E+00 0.  1.
          1   -1    0    0  501    0 -0.00000000000E+00 -0.00000000000E+00 -0.15928034537E+01  0.15928034537E+01  0.00000000000E+00 0.  1.
          2    1    1    2  501    0 -0.16570278221E+02  0.11824079734E+02  0.87842694222E+03  0.87866277706E+03  0.00000000000E+00 0.  1.
          1    1    1    2  502    0  0.16570278221E+02 -0.11824079734E+02  0.68764944900E+02  0.71714716963E+02  0.00000000000E+00 0.  1.
</event>
<event>
 4    1  0.3593938E+003  0.2241528E+02  0.7546771E-02  0.1499974E+00
          2   -1    0    0  502    0  0.00000000000E+00  0.00000000000E+00  0.50029972381E+03  0.50029972381E+03  0.00000000000E+00 0.  1.
          1   -1    0    0  501    0 -0.00000000000E+00 -0.00000000000E+00 -0.34373396045E+02  0.34373396045E+02  0.00000000000E+00 0.  1.
          2    1    1    2  501    0 -0.35600719970E+01  0.22130762675E+02  0.49636538723E+03  0.49687125335E+03  0.00000000000E+00 0.  1.
          1    1    1    2  502    0  0.35600719970E+01 -0.22130762675E+02 -0.30439059470E+02  0.37801866496E+02  0.00000000000E+00 0.  1.
</event>
<event>
 4    1  0.3593938E+003  0.2362458E+02  0.7546771E-02  0.1484801E+00
          2   -1    0    0  502    0  0.00000000000E+00  0.00000000000E+00  0.18483837911E+03  0.18483837911E+03  0.00000000000E+00 0. -1.
          1   -1    0    0  501    0 -0.00000000000E+00 -0.00000000000E+00 -0.18155342191E+02  0.18155342191E+02  0.00000000000E+00 0.  1.
          2    1    1    2  501    0 -0.22903280655E+02  0.57931335626E+01  0.17601459788E+03  0.17759295968E+03  0.00000000000E+00 0. -1.
          1    1    1    2  502    0  0.22903280655E+02 -0.57931335626E+01 -0.93315609570E+01  0.25400761625E+02  0.00000000000E+00 0.  1.
</event>
<event>
 4    1  0.3593938E+003  0.2565744E+02  0.7546771E-02  0.1461581E+00
          2   -1    0    0  502    0  0.00000000000E+00  0.00000000000E+00  0.13438307365E+04  0.13438307365E+04  0.00000000000E+00 0. -1.
          1   -1    0    0  501    0 -0.00000000000E+00 -0.00000000000E+00 -0.33011814160E+01  0.33011814160E+01  0.00000000000E+00 0.  1.
          2    1    1    2  501    0 -0.16669778016E+02  0.19504423289E+02  0.12918487635E+04  0.12921035298E+04  0.00000000000E+00 0. -1.
          1    1    1    2  502    0  0.16669778016E+02 -0.19504423289E+02  0.48680791599E+02  0.55028388107E+02  0.00000000000E+00 0.  1.
</event>
<event>
 4    1  0.3593938E+003  0.2474897E+02  0.7546771E-02  0.1471631E+00
          2   -1    0    0  502    0  0.00000000000E+00  0.00000000000E+00  0.37886172267E+02  0.37886172267E+02  0.00000000000E+00 0.  1.
          1   -1    0    0  501    0 -0.00000000000E+00 -0.00000000000E+00 -0.18541530483E+02  0.18541530483E+02  0.00000000000E+00 0.  1.
          2    1    1    2  501    0  0.24553796886E+02 -0.31020070202E+01  0.19768681185E+02  0.31675102918E+02  0.00000000000E+00 0.  1.
          1    1    1    2  502    0 -0.24553796886E+02  0.31020070202E+01 -0.42403940041E+00  0.24752599832E+02  0.00000000000E+00 0.  1.
</event>
<event>
 4    1  0.3593938E+003  0.2140558E+02  0.7546771E-02  0.1513552E+00
          2   -1    0    0  502    0  0.00000000000E+00  0.00000000000E+00  0.11839992547E+04  0.11839992547E+04  0.00000000000E+00 0. -1.
          1   -1    0    0  501    0 -0.00000000000E+00 -0.00000000000E+00 -0.66485982861E+00  0.66485982861E+00  0.00000000000E+00 0. -1.
          2    1    1    2  501    0  0.19259903285E+02 -0.93410423335E+01  0.97459672672E+03  0.97483176943E+03  0.00000000000E+00 0. -1.
          1    1    1    2  502    0 -0.19259903285E+02  0.93410423335E+01  0.20873766810E+03  0.20983234505E+03  0.00000000000E+00 0. -1.
</event>
<event>
 4    1  0.3593938E+003  0.2238917E+02  0.7546771E-02  0.1500314E+00
          2   -1    0    0  502    0  0.00000000000E+00  0.00000000000E+00  0.31069042868E+03  0.31069042868E+03  0.00000000000E+00 0. -1.
          1   -1    0    0  501    0 -0.00000000000E+00 -0.00000000000E+00 -0.26060648794E+02  0.26060648794E+02  0.00000000000E+00 0. -1.
          2    1    1    2  501    0 -0.12512445392E+02  0.18566467571E+02  0.30539506935E+03  0.30621466881E+03  0.00000000000E+00 0. -1.
          1    1    1    2  502    0  0.12512445392E+02 -0.18566467571E+02 -0.20765289466E+02  0.30536408668E+02  0.00000000000E+00 0. -1.
</event>
<event>
 4    1  0.3593938E+003  0.4625084E+02  0.7546771E-02  0.1315301E+00
          2   -1    0    0  502    0  0.00000000000E+00  0.00000000000E+00  0.25772612121E+02  0.25772612121E+02  0.00000000000E+00 0.  1.
          1   -1    0    0  501    0 -0.00000000000E+00 -0.00000000000E+00 -0.83720895292E+02  0.83720895292E+02  0.00000000000E+00 0.  1.
          2    1    1    2  501    0  0.24535963381E+02  0.39206207830E+02 -0.23895815687E+02  0.52059103323E+02  0.00000000000E+00 0.  1.
          1    1    1    2  502    0 -0.24535963381E+02 -0.39206207830E+02 -0.34052467483E+02  0.57434404089E+02  0.00000000000E+00 0.  1.
</event>
<event>
 4    1  0.3593938E+003  0.4551053E+02  0.7546771E-02  0.1318906E+00
          2   -1    0    0  502    0  0.00000000000E+00  0.00000000000E+00  0.48491909333E+03  0.48491909333E+03  0.00000000000E+00 0.  1.
          1   -1    0    0  501    0 -0.00000000000E+00 -0.00000000000E+00 -0.91787024798E+01  0.91787024798E+01  0.00000000000E+00 0. -1.
          2    1    1    2  501    0 -0.34011219461E+02 -0.30239791098E+02  0.41851295905E+03  0.42098017164E+03  0.00000000000E+00 0.  1.
          1    1    1    2  502    0  0.34011219461E+02  0.30239791098E+02  0.57227431799E+02  0.73117624177E+02  0.00000000000E+00 0. -1.
</event>
<event>
 4    1  0.3593938E+003  0.2621053E+02  0.7546771E-02  0.1455704E+00
          2   -1    0    0  502    0  0.00000000000E+00  0.00000000000E+00  0.10423660426E+02  0.10423660426E+02  0.00000000000E+00 0.  1.
          1   -1    0    0  501    0 -0.00000000000E+00 -0.00000000000E+00 -0.44262022640E+03  0.44262022640E+03  0.00000000000E+00 0. -1.
          2    1    1    2  501    0  0.23727271598E+02  0.11135918329E+02 -0.71205130549E+01  0.27160519154E+02  0.00000000000E+00 0.  1.
          1    1    1    2  502    0 -0.23727271598E+02 -0.11135918329E+02 -0.42507605292E+03  0.42588336768E+03  0.00000000000E+00 0. -1.
</event>
<event>
 4    1  0.3593938E+003  0.3480116E+02  0.7546771E-02  0.1381967E+00
          2   -1    0    0  502    0  0.00000000000E+00  0.00000000000E+00  0.33846167341E+03  0.33846167341E+03  0.00000000000E+00 0. -1.
          1   -1    0    0  501    0 -0.00000000000E+00 -0.00000000000E+00 -0.69322170589E+01  0.69322170589E+01  0.00000000000E+00 0.  1.
          2    1    1    2  501    0 -0.15935226073E+02 -0.30938470636E+02  0.28588717408E+03  0.28799756371E+03  0.00000000000E+00 0. -1.
          1    1    1    2  502    0  0.15935226073E+02  0.30938470636E+02  0.45642282271E+02  0.57396326766E+02  0.00000000000E+00 0.  1.
</event>
<event>
 4    1  0.3593938E+003  0.2219450E+02  0.7546771E-02  0.1502868E+00
          2   -1    0    0  502    0  0.00000000000E+00  0.00000000000E+00  0.18486212800E+04  0.18486212800E+04  0.00000000000E+00 0. -1.
          1   -1    0    0  501    0 -0.00000000000E+00 -0.00000000000E+00 -0.28267199339E+00  0.28267199339E+00  0.00000000000E+00 0. -1.
          2    1    1    2  501    0  0.91958656878E+01 -0.20199799333E+02  0.11455158088E+04  0.11457307991E+04  0.00000000000E+00 0. -1.
          1    1    1    2  502    0 -0.91958656878E+01  0.20199799333E+02  0.70282279918E+03  0.70317315285E+03  0.00000000000E+00 0. -1.
</event>
<event>
 4    1  0.3593938E+003  0.2143995E+02  0.7546771E-02  0.1513075E+00
          2   -1    0    0  502    0  0.00000000000E+00  0.00000000000E+00  0.66641350089E+03  0.66641350089E+03  0.00000000000E+00 0.  1.
          1   -1    0    0  501    0 -0.00000000000E+00 -0.00000000000E+00 -0.11080830810E+01  0.11080830810E+01  0.00000000000E+00 0. -1.
          2    1    1    2  501    0  0.10961947733E+02  0.18425714845E+02  0.53772192993E+03  0.53814918489E+03  0.00000000000E+00 0.  1.
          1    1    1    2  502    0 -0.10961947733E+02 -0.18425714845E+02  0.12758348787E+03  0.12937239908E+03  0.00000000000E+00 0. -1.
</event>
<event>
 4    1  0.3593938E+003  0.2336532E+02  0.7546771E-02  0.1487961E+00
          2   -1    0    0  502    0  0.00000000000E+00  0.00000000000E+00  0.12775352188E+02  0.12775352188E+02  0.00000000000E+00 0.  1.
          1   -1    0    0  501    0 -0.00000000000E+00 -0.00000000000E+00 -0.79515070251E+03  0.79515070251E+03  0.00000000000E+00 0.  1.
          2    1    1    2  501    0 -0.16782372776E+02  0.16256999345E+02  0.17703795515E+01  0.23432291981E+02  0.00000000000E+00 0.  1.
          1    1    1    2  502    0  0.16782372776E+02 -0.16256999345E+02 -0.78414572987E+03  0.78449376272E+03  0.00000000000E+00 0.  1.
</event>
<event>
 4    1  0.3593938E+003  0.2691120E+02  0.7546771E-02  0.1448502E+00
          2   -1    0    0  502    0  0.00000000000E+00  0.00000000000E+00  0.53330062668E+03  0.53330062668E+03  0.00000000000E+00 0. -1.
          1   -1    0    0  501    0 -0.00000000000E+00 -0.00000000000E+00 -0.23802441855E+01  0.23802441855E+01  0.00000000000E+00 0. -1.
          2    1    1    2  501    0  0.16472368220E+02 -0.21280835472E+02  0.44098820793E+03  0.44180856987E+03  0.00000000000E+00 0. -1.
          1    1    1    2  502    0 -0.16472368220E+02  0.21280835472E+02  0.89932174567E+02  0.93872301003E+02  0.00000000000E+00 0. -1.
</event>
<event>
 4    1  0.3593938E+003  0.3051662E+02  0.7546771E-02  0.1415159E+00
          2   -1    0    0  502    0  0.00000000000E+00  0.00000000000E+00  0.95614037077E+03  0.95614037077E+03  0.00000000000E+00 0.  1.
          1   -1    0    0  501    0 -0.00000000000E+00 -0.00000000000E+00 -0.30815576846E+02  0.30815576846E+02  0.00000000000E+00 0. -1.
          2    1    1    2  501    0  0.91954694835E+01 -0.29098241786E+02  0.94827911617E+03  0.94877001770E+03  0.00000000000E+00 0.  1.
          1    1    1    2  502    0 -0.91954694835E+01  0.29098241786E+02 -0.22954322240E+02  0.38185929916E+02  0.00000000000E+00 0. -1.
</event>
<event>
 4    1  0.3593938E+003  0.5867341E+02  0.7546771E-02  0.1264408E+00
          2   -1    0    0  502    0  0.00000000000E+00  0.00000000000E+00  0.95334639172E+01  0.95334639172E+01  0.00000000000E+00 0. -1.
          1   -1    0    0  501    0 -0.00000000000E+00 -0.00000000000E+00 -0.87404518857E+03  0.87404518857E+03  0.00000000000E+00 0.  1.
          2    1    1    2  501    0  0.40663972088E+01  0.58532323692E+02 -0.93815449666E+02  0.11065218976E+03  0.00000000000E+00 0. -1.
          1    1    1    2  502    0 -0.40663972088E+01 -0.58532323692E+02 -0.77069627499E+03  0.77292646273E+03  0.00000000000E+00 0.  1.
</event>
<event>
 4    1  0.3593938E+003  0.3205406E+02  0.7546771E-02  0.1402548E+00
          2   -1    0    0  502    0  0.00000000000E+00  0.00000000000E+00  0.10777665384E+04  0.10777665384E+04  0.00000000000E+00 0.  1.
          1   -1    0    0  501    0 -0.00000000000E+00 -0.00000000000E+00 -0.95384730779E+00  0.95384730779E+00  0.00000000000E+00 0.  1.
          2    1    1    2  501    0 -0.13479888765E+02 -0.29081873247E+02  0.55101675575E+03  0.55194830181E+03  0.00000000000E+00 0.  1.
          1    1    1    2  502    0  0.13479888765E+02  0.29081873247E+02  0.52579593539E+03  0.52677208394E+03  0.00000000000E+00 0.  1.
</event>
<event>
 4    1  0.3593938E+003  0.2096340E+02  0.7546771E-02  0.1519788E+00
          2   -1    0    0  502    0  0.00000000000E+00  0.00000000000E+00  0.82569336758E+00  0.82569336758E+00  0.00000000000E+00 0. -1.
          1   -1    0    0  501    0 -0.00000000000E+00 -0.00000000000E+00 -0.11247790341E+04  0.11247790341E+04  0.00000000000E+00 0.  1.
          2    1    1    2  501    0  0.20052885701E+02 -0.61111461331E+01 -0.15348614286E+03  0.15491113705E+03  0.00000000000E+00 0. -1.
          1    1    1    2  502    0 -0.20052885701E+02  0.61111461331E+01 -0.97046719782E+03  0.97069359037E+03  0.00000000000E+00 0.  1.
</event>
<event>
 4    1  0.3593938E+003  0.2566001E+02  0.7546771E-02  0.1461554E+00
          2   -1    0    0  502    0  0.00000000000E+00  0.00000000000E+00  0.11823435963E+03  0.11823435963E+03  0.00000000000E+00 0.  1.
          1   -1    0    0  501    0 -0.00000000000E+00 -0.00000000000E+00 -0.44620839002E+03  0.44620839002E+03  0.00000000000E+00 0.  1.
          2    1    1    2  501    0  0.12484672053E+02 -0.22418053304E+02  0.11646769718E+03  0.11926089316E+03  0.00000000000E+00 0.  1.
          1    1    1    2  502    0 -0.12484672053E+02  0.22418053304E+02 -0.44444172756E+03  0.44518185649E+03  0.00000000000E+00 0.  1.
</event>
<event>
 4    1  0.3593938E+003  0.2183296E+02  0.7546771E-02  0.1507697E+00
          2   -1    0    0  502    0  0.00000000000E+00  0.00000000000E+00  0.35743764871E+02  0.35743764871E+02  0.00000000000E+00 0.  1.
          1   -1    0    0  501    0 -0.00000000000E+00 -0.00000000000E+00 -0.89219521077E+03  0.89219521077E+03  0.00000000000E+00 0. -1.
          2    1    1    2  501    0  0.21797393643E+02  0.12456286004E+01  0.32263146736E+02  0.38956239520E+02  0.00000000000E+00 0.  1.
          1    1    1    2  502    0 -0.21797393643E+02 -0.12456286004E+01 -0.88871459263E+03  0.88898273612E+03  0.00000000000E+00 0. -1.
</event>
<event>
 4    1  0.3593938E+003  0.2863422E+02  0.7546771E-02  0.1431848E+00
          2   -1    0    0  502    0  0.00000000000E+00  0.00000000000E+00  0.39369309597E+03  0.39369309597E+03  0.00000000000E+00 0.  1.
          1   -1    0    0  501    0 -0.00000000000E+00 -0.00000000000E+00 -0.25129685104E+02  0.25129685104E+02  0.00000000000E+00 0.  1.
          2    1    1    2  501    0  0.42773676287E+01  0.28312938458E+02  0.38482791879E+03  0.38589175352E+03  0.00000000000E+00 0.  1.
          1    1    1    2  502    0 -0.42773676287E+01 -0.28312938458E+02 -0.16264507919E+02  0.32931027554E+02  0.00000000000E+00 0.  1.
</event>
<event>
 4    1  0.3593938E+003  0.4262836E+02  0.7546771E-02  0.1333736E+00
          2   -1    0    0  502    0  0.00000000000E+00  0.00000000000E+00  0.96550560655E+00  0.96550560655E+00  0.00000000000E+00 0. -1.
          1   -1    0    0  501    0 -0.00000000000E+00 -0.00000000000E+00 -0.25206644592E+04  0.25206644592E+04  0.00000000000E+00 0.  1.
          2    1    1    2  501    0 -0.12902578365E+02 -0.40628812796E+02 -0.62525451965E+03  0.62670598474E+03  0.00000000000E+00 0. -1.
          1    1    1    2  502    0  0.12902578365E+02  0.40628812796E+02 -0.18944444339E+04  0.18949239801E+04  0.00000000000E+00 0.  1.
</event>
<event>
 4    1  0.3593938E+003  0.2298809E+02  0.7546771E-02  0.1492648E+00
          2   -1    0    0  502    0  0.00000000000E+00  0.00000000000E+00  0.19953328811E+02  0.19953328811E+02  0.00000000000E+00 0. -1.
          1   -1    0    0  501    0 -0.00000000000E+00 -0.00000000000E+00 -0.51178767972E+03  0.51178767972E+03  0.00000000000E+00 0. -1.
          2    1    1    2  501    0  0.21166591910E+02  0.89681476053E+01  0.12982705832E+02  0.26400813156E+02  0.00000000000E+00 0. -1.
          1    1    1    2  502    0 -0.21166591910E+02 -0.89681476053E+01 -0.50481705674E+03  0.50534019537E+03  0.00000000000E+00 0. -1.
</event>
<event>
 4    1  0.3593938E+003  0.2314752E+02  0.7546771E-02  0.1490654E+00
          2   -1    0    0  502    0  0.00000000000E+00  0.00000000000E+00  0.11436515664E+04  0.11436515664E+04  0.00000000000E+00 0. -1.
          1   -1    0    0  501    0 -0.00000000000E+00 -0.00000000000E+00 -0.62322059389E+01  0.62322059389E+01  0.00000000000E+00 0. -1.
          2    1    1    2  501    0 -0.20549580451E+02  0.10654699921E+02  0.11216187630E+04  0.11218575923E+04  0.00000000000E+00 0. -1.
          1    1    1    2  502    0  0.20549580451E+02 -0.10654699921E+02  0.15800597447E+02  0.28026180025E+02  0.00000000000E+00 0. -1.
</event>
<event>
 4    1  0.3593938E+003  0.2409650E+02  0.7546771E-02  0.1479170E+00
          2   -1    0    0  502    0  0.00000000000E+00  0.00000000000E+00  0.12090519742E+01  0.12090519742E+01  0.00000000000E+00 0.  1.
          1   -1    0    0  501    0 -0.00000000000E+00 -0.00000000000E+00 -0.10462150170E+04  0.10462150170E+04  0.00000000000E+00 0. -1.
          2    1    1    2  501    0  0.19437104563E+02 -0.14242204672E+02 -0.13730969710E+03  0.13940801392E+03  0.00000000000E+00 0.  1.
          1    1    1    2  502    0 -0.19437104563E+02  0.14242204672E+02 -0.90769626792E+03  0.90801605505E+03  0.00000000000E+00 0. -1.
</event>
<event>
 4    1  0.3593938E+003  0.4523980E+02  0.7546771E-02  0.1320245E+00
          2   -1    0    0  502    0  0.00000000000E+00  0.00000000000E+00  0.20753085862E+04  0.20753085862E+04  0.00000000000E+00 0. -1.
          1   -1    0    0  501    0 -0.00000000000E+00 -0.00000000000E+00 -0.24129025478E+03  0.24129025478E+03  0.00000000000E+00 0. -1.
          2    1    1    2  501    0  0.31247225845E+02 -0.32714683002E+02  0.20729391000E+04  0.20734326977E+04  0.00000000000E+00 0. -1.
          1    1    1    2  502    0 -0.31247225845E+02  0.32714683002E+02 -0.23892076855E+03  0.24316614330E+03  0.00000000000E+00 0. -1.
</event>
<event>
 4    1  0.3593938E+003  0.2899032E+02  0.7546771E-02  0.1428578E+00
          2   -1    0    0  502    0  0.00000000000E+00  0.00000000000E+00  0.21253337446E+04  0.21253337446E+04  0.00000000000E+00 0. -1.
          1   -1    0    0  501    0 -0.00000000000E+00 -0.00000000000E+00 -0.36411366206E+01  0.36411366206E+01  0.00000000000E+00 0. -1.
          2    1    1    2  501    0 -0.23223345897E+02  0.17352668097E+02  0.20658695649E+04  0.20660729653E+04  0.00000000000E+00 0. -1.
          1    1    1    2  502    0  0.23223345897E+02 -0.17352668097E+02  0.55823043121E+02  0.62901915933E+02  0.00000000000E+00 0. -1.
</event>
<event>
 4    1  0.3593938E+003  0.9185181E+02  0.7546771E-02  0.1178729E+00
          2   -1    0    0  502    0  0.00000000000E+00  0.00000000000E+00  0.68140710185E+03  0.68140710185E+03  0.00000000000E+00 0. -1.
          1   -1    0    0  501    0 -0.00000000000E+00 -0.00000000000E+00 -0.19972402406E+02  0.19972402406E+02  0.00000000000E+00 0.  1.
          2    1    1    2  501    0 -0.74178607929E+02 -0.54169083577E+02  0.54691862846E+03  0.55457798518E+03  0.00000000000E+00 0. -1.
          1    1    1    2  502    0  0.74178607929E+02  0.54169083577E+02  0.11451607099E+03  0.14680151908E+03  0.00000000000E+00 0.  1.
</event>
<event>
 4    1  0.3593938E+003  0.4013019E+02  0.7546771E-02  0.1347725E+00
          2   -1    0    0  502    0  0.00000000000E+00  0.00000000000E+00  0.19617376302E+04  0.19617376302E+04  0.00000000000E+00 0.  1.
          1   -1    0    0  501    0 -0.00000000000E+00 -0.00000000000E+00 -0.17495293095E+03  0.17495293095E+03  0.00000000000E+00 0.  1.
          2    1    1    2  501    0 -0.99176207167E+01 -0.38885384027E+02  0.19592282162E+04  0.19596391595E+04  0.00000000000E+00 0.  1.
          1    1    1    2  502    0  0.99176207167E+01  0.38885384027E+02 -0.17244351694E+03  0.17705140165E+03  0.00000000000E+00 0.  1.
</event>
<event>
 4    1  0.3593938E+003  0.2164993E+02  0.7546771E-02  0.1510184E+00
          2   -1    0    0  502    0  0.00000000000E+00  0.00000000000E+00  0.18914080070E+02  0.18914080070E+02  0.00000000000E+00 0.  1.
          1   -1    0    0  501    0 -0.00000000000E+00 -0.00000000000E+00 -0.36501468057E+03  0.36501468057E+03  0.00000000000E+00 0.  1.
          2    1    1    2  501    0  0.76108086260E+01 -0.20268084319E+02  0.12283147634E+02  0.24891672618E+02  0.00000000000E+00 0.  1.
          1    1    1    2  502    0 -0.76108086260E+01  0.20268084319E+02 -0.35838374813E+03  0.35903708802E+03  0.00000000000E+00 0.  1.
</event>
<event>
 4    1  0.3593938E+003  0.2669510E+02  0.7546771E-02  0.1450695E+00
          2   -1    0    0  502    0  0.00000000000E+00  0.00000000000E+00  0.92667017699E+02  0.92667017699E+02  0.00000000000E+00 0.  1.
          1   -1    0    0  501    0 -0.00000000000E+00 -0.00000000000E+00 -0.95201050518E+01  0.95201050518E+01  0.00000000000E+00 0.  1.
          2    1    1    2  501    0  0.37714361507E+01 -0.26427348473E+02  0.63974014608E+02  0.69320293010E+02  0.00000000000E+00 0.  1.
          1    1    1    2  502    0 -0.37714361507E+01  0.26427348473E+02  0.19172898039E+02  0.32866829740E+02  0.00000000000E+00 0.  1.
</event>
<event>
 4    1  0.3593938E+003  0.2021207E+02  0.7546771E-02  0.1530818E+00
          2   -1    0    0  502    0  0.00000000000E+00  0.00000000000E+00  0.27660960459E+02  0.27660960459E+02  0.00000000000E+00 0. -1.
          1   -1    0    0  501    0 -0.00000000000E+00 -0.00000000000E+00 -0.88192210084E+03  0.88192210084E+03  0.00000000000E+00 0.  1.
          2    1    1    2  501    0 -0.20046021532E+02 -0.25855294470E+01  0.23836797314E+02  0.31252533465E+02  0.00000000000E+00 0. -1.
          1    1    1    2  502    0  0.20046021532E+02  0.25855294470E+01 -0.87809793770E+03  0.87833052784E+03  0.00000000000E+00 0.  1.
</event>
<event>
 4    1  0.3593938E+003  0.3050419E+02  0.7546771E-02  0.1415265E+00
          2   -1    0    0  502    0  0.00000000000E+00  0.00000000000E+00  0.54447369103E+01  0.54447369103E+01  0.00000000000E+00 0. -1.
          1   -1    0    0  501    0 -0.00000000000E+00 -0.00000000000E+00 -0.14380000763E+04  0.14380000763E+04  0.00000000000E+00 0. -1.
          2    1    1    2  501    0  0.19301713275E+02 -0.23620948585E+02 -0.38798106870E+02  0.49353808810E+02  0.00000000000E+00 0. -1.
          1    1    1    2  502    0 -0.19301713275E+02  0.23620948585E+02 -0.13937572325E+04  0.13940910044E+04  0.00000000000E+00 0. -1.
</event>
<event>
 4    1  0.3593938E+003  0.2052148E+02  0.7546771E-02  0.1526208E+00
          2   -1    0    0  502    0  0.00000000000E+00  0.00000000000E+00  0.23468155385E+01  0.23468155385E+01  0.00000000000E+00 0. -1.
          1   -1    0    0  501    0 -0.00000000000E+00 -0.00000000000E+00 -0.47554888303E+03  0.47554888303E+03  0.00000000000E+00 0. -1.
          2    1    1    2  501    0  0.20391412203E+02  0.23067417930E+01 -0.42515061984E+03  0.42564560411E+03  0.00000000000E+00 0. -1.
          1    1    1    2  502    0 -0.20391412203E+02 -0.23067417930E+01 -0.48051447654E+02  0.52250094459E+02  0.00000000000E+00 0. -1.
</event>
<event>
 4    1  0.3593938E+003  0.2193133E+02  0.7546771E-02  0.1506372E+00
          2   -1    0    0  502    0  0.00000000000E+00  0.00000000000E+00  0.15009561183E+04  0.15009561183E+04  0.00000000000E+00 0. -1.
          1   -1    0    0  501    0 -0.00000000000E+00 -0.00000000000E+00 -0.51981948929E+00  0.51981948929E+00  0.00000000000E+00 0.  1.
          2    1    1    2  501    0 -0.72216149852E+01  0.20708247314E+02  0.12151508722E+04  0.12153487670E+04  0.00000000000E+00 0. -1.
          1    1    1    2  502    0  0.72216149852E+01 -0.20708247314E+02  0.28528542660E+03  0.28612717079E+03  0.00000000000E+00 0.  1.
</event>
<event>
 4    1  0.3593938E+003  0.2838346E+02  0.7546771E-02  0.1434185E+00
          2   -1    0    0  502    0  0.00000000000E+00  0.00000000000E+00  0.23140116145E+02  0.23140116145E+02  0.00000000000E+00 0.  1.
          1   -1    0    0  501    0 -0.00000000000E+00 -0.00000000000E+00 -0.40309962313E+02  0.40309962313E+02  0.00000000000E+00 0.  1.
          2    1    1    2  501    0  0.88181023706E+01  0.26978914713E+02  0.31284610730E+01  0.28555350412E+02  0.00000000000E+00 0.  1.
          1    1    1    2  502    0 -0.88181023706E+01 -0.26978914713E+02 -0.20298307241E+02  0.34894728045E+02  0.00000000000E+00 0.  1.
</event>
<event>
 4    1  0.3593938E+003  0.2060172E+02  0.7546771E-02  0.1525028E+00
          2   -1    0    0  502    0  0.00000000000E+00  0.00000000000E+00  0.96511856787E+02  0.96511856787E+02  0.00000000000E+00 0.  1.
          1   -1    0    0  501    0 -0.00000000000E+00 -0.00000000000E+00 -0.11945358777E+02  0.11945358777E+02  0.00000000000E+00 0. -1.
          2    1    1    2  501    0 -0.20200844401E+02  0.40443634193E+01  0.85388953464E+02  0.87839082211E+02  0.00000000000E+00 0.  1.
          1    1    1    2  502    0  0.20200844401E+02 -0.40443634193E+01 -0.82245545430E+00  0.20618133353E+02  0.00000000000E+00 0. -1.
</event>
<event>
 4    1  0.3593938E+003  0.3454709E+02  0.7546771E-02  0.1383776E+00
          2   -1    0    0  502    0  0.00000000000E+00  0.00000000000E+00  0.18187522159E+04  0.18187522159E+04  0.00000000000E+00 0.  1.
          1   -1    0    0  501    0 -0.00000000000E+00 -0.00000000000E+00 -0.25328560680E+01  0.25328560680E+01  0.00000000000E+00 0. -1.
          2    1    1    2  501    0 -0.32806982037E+02  0.10826041132E+02  0.16919592561E+04  0.16923119174E+04  0.00000000000E+00 0.  1.
          1    1    1    2  502    0  0.32806982037E+02 -0.10826041132E+02  0.12426010367E+03  0.12897315457E+03  0.00000000000E+00 0. -1.
</event>
<event>
 4    1  0.3593938E+003  0.2748225E+02  0.7546771E-02  0.1442823E+00
          2   -1    0    0  502    0  0.00000000000E+00  0.00000000000E+00  0.24557261461E+01  0.24557261461E+01  0.00000000000E+00 0.  1.
          1   -1    0    0  501    0 -0.00000000000E+00 -0.00000000000E+00 -0.32383868340E+03  0.32383868340E+03  0.00000000000E+00 0. -1.
          2    1    1    2  501    0 -0.19825731802E+02 -0.19031936887E+02 -0.12410900307E+03  0.12711537636E+03  0.00000000000E+00 0.  1.
          1    1    1    2  502    0  0.19825731802E+02  0.19031936887E+02 -0.19727395418E+03  0.19917903319E+03  0.00000000000E+00 0. -1.
</event>
<event>
 4    1  0.3593938E+003  0.2438945E+02  0.7546771E-02  0.1475751E+00
          2   -1    0    0  502    0  0.00000000000E+00  0.00000000000E+00  0.10243371038E+03  0.10243371038E+03  0.00000000000E+00 0. -1.
          1   -1    0    0  501    0 -0.00000000000E+00 -0.00000000000E+00 -0.13540798107E+02  0.13540798107E+02  0.00000000000E+00 0. -1.
          2    1    1    2  501    0  0.16201614520E+02  0.18230547513E+02  0.88269583770E+02  0.91577096452E+02  0.00000000000E+00 0. -1.
          1    1    1    2  502    0 -0.16201614520E+02 -0.18230547513E+02  0.62332850397E+00  0.24397412036E+02  0.00000000000E+00 0. -1.
</event>
<event>
 4    1  0.3593938E+003  0.3454219E+02  0.7546771E-02  0.1383811E+00
          2   -1    0    0  502    0  0.00000000000E+00  0.00000000000E+00  0.14623862665E+04  0.14623862665E+04  0.00000000000E+00 0. -1.
          1   -1    0    0  501    0 -0.00000000000E+00 -0.00000000000E+00 -0.27770913418E+01  0.27770913418E+01  0.00000000000E+00 0.  1.
          2    1    1    2  501    0 -0.34478347354E+02  0.20991411746E+01  0.13454360584E+04  0.13458793966E+04  0.00000000000E+00 0. -1.
          1    1    1    2  502    0  0.34478347354E+02 -0.20991411746E+01  0.11417311677E+03  0.11928396130E+03  0.00000000000E+00 0.  1.
</event>
<event>
 4    1  0.3593938E+003  0.1053331E+03  0.7546771E-02  0.1154874E+00
          2   -1    0    0  502    0  0.00000000000E+00  0.00000000000E+00  0.10955155356E+03  0.10955155356E+03  0.00000000000E+00 0. -1.
          1   -1    0    0  501    0 -0.00000000000E+00 -0.00000000000E+00 -0.10528401415E+03  0.10528401415E+03  0.00000000000E+00 0.  1.
          2    1    1    2  501    0 -0.10362800437E+03 -0.18875478124E+02 -0.18822223140E+02  0.10700150956E+03  0.00000000000E+00 0. -1.
          1    1    1    2  502    0  0.10362800437E+03  0.18875478124E+02  0.23089762547E+02  0.10783405816E+03  0.00000000000E+00 0.  1.
</event>
<event>
 4    1  0.3593938E+003  0.2710506E+02  0.7546771E-02  0.1446556E+00
          2   -1    0    0  502    0  0.00000000000E+00  0.00000000000E+00  0.10446830182E+03  0.10446830182E+03  0.00000000000E+00 0. -1.
          1   -1    0    0  501    0 -0.00000000000E+00 -0.00000000000E+00 -0.17879248528E+04  0.17879248528E+04  0.00000000000E+00 0. -1.
          2    1    1    2  501    0  0.19836644698E+02  0.18471372639E+02  0.10260558900E+03  0.10612535500E+03  0.00000000000E+00 0. -1.
          1    1    1    2  502    0 -0.19836644698E+02 -0.18471372639E+02 -0.17860621399E+04  0.17862677996E+04  0.00000000000E+00 0. -1.
</event>
<event>
 4    1  0.3593938E+003  0.2788392E+02  0.7546771E-02  0.1438925E+00
          2   -1    0    0  502    0  0.00000000000E+00  0.00000000000E+00  0.86971545576E+03  0.86971545576E+03  0.00000000000E+00 0.  1.
          1   -1    0    0  501    0 -0.00000000000E+00 -0.00000000000E+00 -0.23008649430E+03  0.23008649430E+03  0.00000000000E+00 0.  1.
          2    1    1    2  501    0 -0.97850408504E+01  0.26110651030E+02  0.86864611437E+03  0.86909354223E+03  0.00000000000E+00 0.  1.
          1    1    1    2  502    0  0.97850408504E+01 -0.26110651030E+02 -0.22901715291E+03  0.23070840784E+03  0.00000000000E+00 0.  1.
</event>
<event>
 4    1  0.3593938E+003  0.2364484E+02  0.7546771E-02  0.1484556E+00
          2   -1    0    0  502    0  0.00000000000E+00  0.00000000000E+00  0.13951034349E+04  0.13951034349E+04  0.00000000000E+00 0. -1.
          1   -1    0    0  501    0 -0.00000000000E+00 -0.00000000000E+00 -0.75506802506E+01  0.75506802506E+01  0.00000000000E+00 0.  1.
          2    1    1    2  501    0  0.14657183097E+02 -0.18553857303E+02  0.13762386604E+04  0.13764417638E+04  0.00000000000E+00 0. -1.
          1    1    1    2  502    0 -0.14657183097E+02  0.18553857303E+02  0.11314094260E+02  0.26212351404E+02  0.00000000000E+00 0.  1.
</event>
<event>
 4    1  0.3593938E+003  0.2224933E+02  0.7546771E-02  0.1502146E+00
          2   -1    0    0  502    0  0.00000000000E+00  0.00000000000E+00  0.44551571873E+03  0.44551571873E+03  0.00000000000E+00 0. -1.
          1   -1    0    0  501    0 -0.00000000000E+00 -0.00000000000E+00 -0.23497575782E+02  0.23497575782E+02  0.00000000000E+00 0. -1.
          2    1    1    2  501    0  0.43147135740E+01  0.21826956025E+02  0.43990393767E+03  0.44046623836E+03  0.00000000000E+00 0. -1.
          1    1    1    2  502    0 -0.43147135740E+01 -0.21826956025E+02 -0.17885794714E+02  0.28547056155E+02  0.00000000000E+00 0. -1.
</event>
<event>
 4    1  0.3593938E+003  0.3229247E+02  0.7546771E-02  0.1400667E+00
          2   -1    0    0  502    0  0.00000000000E+00  0.00000000000E+00  0.42374562889E+02  0.42374562889E+02  0.00000000000E+00 0.  1.
          1   -1    0    0  501    0 -0.00000000000E+00 -0.00000000000E+00 -0.18710858172E+03  0.18710858172E+03  0.00000000000E+00 0.  1.
          2    1    1    2  501    0 -0.32248934519E+02 -0.16761912870E+01  0.34563053359E+02  0.47301247894E+02  0.00000000000E+00 0.  1.
          1    1    1    2  502    0  0.32248934519E+02  0.16761912870E+01 -0.17929707219E+03  0.18218189671E+03  0.00000000000E+00 0.  1.
</event>
<event>
 4    1  0.3593938E+003  0.3424715E+02  0.7546771E-02  0.1385935E+00
          2   -1    0    0  502    0  0.00000000000E+00  0.00000000000E+00  0.88591293020E+01  0.88591293020E+01  0.00000000000E+00 0.  1.
          1   -1    0    0  501    0 -0.00000000000E+00 -0.00000000000E+00 -0.19401097415E+04  0.19401097415E+04  0.00000000000E+00 0. -1.
          2    1    1    2  501    0  0.31975191310E+02  0.12266000168E+02 -0.24977152000E+02  0.42387801801E+02  0.00000000000E+00 0.  1.
          1    1    1    2  502    0 -0.31975191310E+02 -0.12266000168E+02 -0.19062734602E+04  0.19065810690E+04  0.00000000000E+00 0. -1.
</event>
<event>
 4    1  0.3593938E+003  0.2228290E+02  0.7546771E-02  0.1501705E+00
          2   -1    0    0  502    0  0.00000000000E+00  0.00000000000E+00  0.34330928783E+02  0.34330928783E+02  0.00000000000E+00 0. -1.
          1   -1    0    0  501    0 -0.00000000000E+00 -0.00000000000E+00 -0.43555155686E+03  0.43555155686E+03  0.00000000000E+00 0. -1.
          2    1    1    2  501    0 -0.11669639507E+02  0.18982808492E+02  0.30397253530E+02  0.37689793401E+02  0.00000000000E+00 0. -1.
          1    1    1    2  502    0  0.11669639507E+02 -0.18982808492E+02 -0.43161788161E+03  0.43219269224E+03  0.00000000000E+00 0. -1.
</event>
<event>
 4    1  0.3593938E+003  0.6006857E+02  0.7546771E-02  0.1259600E+00
          2   -1    0    0  502    0  0.00000000000E+00  0.00000000000E+00  0.11923728133E+04  0.11923728133E+04  0.00000000000E+00 0. -1.
          1   -1    0    0  501    0 -0.00000000000E+00 -0.00000000000E+00 -0.48565978918E+02  0.48565978918E+02  0.00000000000E+00 0. -1.
          2    1    1    2  501    0  0.30693439961E+02  0.51634737477E+02  0.11727315389E+04  0.11742689197E+04  0.00000000000E+00 0. -1.
          1    1    1    2  502    0 -0.30693439961E+02 -0.51634737477E+02 -0.28924704535E+02  0.66669872532E+02  0.00000000000E+00 0. -1.
</event>
<event>
 4    1  0.3593938E+003  0.2697221E+02  0.7546771E-02  0.1447888E+00
          2   -1    0    0  502    0  0.00000000000E+00  0.00000000000E+00  0.19155332439E+03  0.19155332439E+03  0.00000000000E+00 0. -1.
          1   -1    0    0  501    0 -0.00000000000E+00 -0.00000000000E+00 -0.54283702993E+02  0.54283702993E+02  0.00000000000E+00 0.  1.
          2    1    1    2  501    0  0.13694172595E+02 -0.23237244397E+02  0.18717543559E+03  0.18910881412E+03  0.00000000000E+00 0. -1.
          1    1    1    2  502    0 -0.13694172595E+02  0.23237244397E+02 -0.49905814190E+02  0.56728213264E+02  0.00000000000E+00 0.  1.
</event>
<event>
 4    1  0.3593938E+003  0.4864080E+02  0.7546771E-02  0.1304175E+00
          2   -1    0    0  502    0  0.00000000000E+00  0.00000000000E+00  0.19181657917E+04  0.19181657917E+04  0.00000000000E+00 0. -1.
          1   -1    0    0  501    0 -0.00000000000E+00 -0.00000000000E+00 -0.11287490363E+04  0.11287490363E+04  0.00000000000E+00 0.  1.
          2    1    1    2  501    0 -0.38500379878E+02  0.29726227656E+02  0.19173331906E+04  0.19179500754E+04  0.00000000000E+00 0. -1.
          1    1    1    2  502    0  0.38500379878E+02 -0.29726227656E+02 -0.11279164352E+04  0.11289647526E+04  0.00000000000E+00 0.  1.
</event>
<event>
 4    1  0.3593938E+003  0.4305224E+02  0.7546771E-02  0.1331472E+00
          2   -1    0    0  502    0  0.00000000000E+00  0.00000000000E+00  0.32990398304E+03  0.32990398304E+03  0.00000000000E+00 0. -1.
          1   -1    0    0  501    0 -0.00000000000E+00 -0.00000000000E+00 -0.10266395107E+02  0.10266395107E+02  0.00000000000E+00 0. -1.
          2    1    1    2  501    0  0.39829721421E+02 -0.16342850393E+02  0.27426346911E+03  0.27762194790E+03  0.00000000000E+00 0. -1.
          1    1    1    2  502    0 -0.39829721421E+02  0.16342850393E+02  0.45374118825E+02  0.62548430249E+02  0.00000000000E+00 0. -1.
</event>
<event>
 4    1  0.3593938E+003  0.4169249E+02  0.7546771E-02  0.1338843E+00
          2   -1    0    0  502    0  0.00000000000E+00  0.00000000000E+00  0.55537718826E+02  0.55537718826E+02  0.00000000000E+00 0. -1.
          1   -1    0    0  501    0 -0.00000000000E+00 -0.00000000000E+00 -0.80928977534E+03  0.80928977534E+03  0.00000000000E+00 0.  1.
          2    1    1    2  501    0  0.33322898482E+02  0.25056900473E+02  0.47093599570E+02  0.62897304752E+02  0.00000000000E+00 0. -1.
          1    1    1    2  502    0 -0.33322898482E+02 -0.25056900473E+02 -0.80084565608E+03  0.80193018941E+03  0.00000000000E+00 0.  1.
</event>
<event>
 4    1  0.3593938E+003  0.4458883E+02  0.7546771E-02  0.1323508E+00
          2   -1    0    0  502    0  0.00000000000E+00  0.00000000000E+00  0.11209926466E+04  0.11209926466E+04  0.00000000000E+00 0. -1.
          1   -1    0    0  501    0 -0.00000000000E+00 -0.00000000000E+00 -0.33602182033E+02  0.33602182033E+02  0.00000000000E+00 0.  1.
          2    1    1    2  501    0 -0.21049794999E+02  0.39307381644E+02  0.11055508026E+04  0.11064496108E+04  0.00000000000E+00 0. -1.
          1    1    1    2  502    0  0.21049794999E+02 -0.39307381644E+02 -0.18160338041E+02  0.48145217820E+02  0.00000000000E+00 0.  1.
</event>
<event>
 4    1  0.3593938E+003  0.2645092E+02  0.7546771E-02  0.1453203E+00
          2   -1    0    0  502    0  0.00000000000E+00  0.00000000000E+00  0.18540672523E+02  0.18540672523E+02  0.00000000000E+00 0. -1.
          1   -1    0    0  501    0 -0.00000000000E+00 -0.00000000000E+00 -0.13304466590E+04  0.13304466590E+04  0.00000000000E+00 0.  1.
          2    1    1    2  501    0 -0.19898081478E+02  0.17427486484E+02  0.89063951627E+01  0.27910120144E+02  0.00000000000E+00 0. -1.
          1    1    1    2  502    0  0.19898081478E+02 -0.17427486484E+02 -0.13208123816E+04  0.13210772113E+04  0.00000000000E+00 0.  1.
</event>
<event>
 4    1  0.3695161E+003  0.3483519E+02  0.7546771E-02  0.1381726E+00
          2   -1    0    0  502    0  0.00000000000E+00  0.00000000000E+00  0.59102836822E+03  0.59102836822E+03  0.00000000000E+00 0.  1.
          1   -1    0    0  501    0 -0.00000000000E+00 -0.00000000000E+00 -0.99493358984E+03  0.99493358984E+03  0.00000000000E+00 0. -1.
          2    1    1    2  501    0 -0.19236806253E+02 -0.29041960832E+02  0.59020973218E+03  0.59123685454E+03  0.00000000000E+00 0.  1.
          1    1    1    2  502    0  0.19236806253E+02  0.29041960832E+02 -0.99411495380E+03  0.99472510352E+03  0.00000000000E+00 0. -1.
</event>
<event>
 4    1  0.3593938E+003  0.2494833E+02  0.7546771E-02  0.1469382E+00
          2   -1    0    0  502    0  0.00000000000E+00  0.00000000000E+00  0.74322614234E+01  0.74322614234E+01  0.00000000000E+00 0.  1.
          1   -1    0    0  501    0 -0.00000000000E+00 -0.00000000000E+00 -0.11763515473E+04  0.11763515473E+04  0.00000000000E+00 0. -1.
          2    1    1    2  501    0 -0.16182355719E+02  0.18988161782E+02 -0.14025354061E+02  0.28620438169E+02  0.00000000000E+00 0.  1.
          1    1    1    2  502    0  0.16182355719E+02 -0.18988161782E+02 -0.11548939318E+04  0.11551633705E+04  0.00000000000E+00 0. -1.
</event>
<event>
 4    1  0.3593938E+003  0.7049251E+02  0.7546771E-02  0.1227826E+00
          2   -1    0    0  502    0  0.00000000000E+00  0.00000000000E+00  0.34053484147E+02  0.34053484147E+02  0.00000000000E+00 0.  1.
          1   -1    0    0  501    0 -0.00000000000E+00 -0.00000000000E+00 -0.66559189185E+03  0.66559189185E+03  0.00000000000E+00 0.  1.
          2    1    1    2  501    0 -0.67418453036E+02 -0.20589946734E+02 -0.66633474104E+01  0.70806736367E+02  0.00000000000E+00 0.  1.
          1    1    1    2  502    0  0.67418453036E+02  0.20589946734E+02 -0.62487506029E+03  0.62883863963E+03  0.00000000000E+00 0.  1.
</event>
<event>
 4    1  0.3593938E+003  0.3192467E+02  0.7546771E-02  0.1403577E+00
          2   -1    0    0  502    0  0.00000000000E+00  0.00000000000E+00  0.16733501816E+03  0.16733501816E+03  0.00000000000E+00 0.  1.
          1   -1    0    0  501    0 -0.00000000000E+00 -0.00000000000E+00 -0.47185224657E+02  0.47185224657E+02  0.00000000000E+00 0.  1.
          2    1    1    2  501    0 -0.57589872243E+01  0.31400935764E+02  0.16017334301E+03  0.16332386388E+03  0.00000000000E+00 0.  1.
          1    1    1    2  502    0  0.57589872243E+01 -0.31400935764E+02 -0.40023549511E+02  0.51196378936E+02  0.00000000000E+00 0.  1.
</event>
<event>
 4    1  0.3593938E+003  0.2484179E+02  0.7546771E-02  0.1470581E+00
          2   -1    0    0  502    0  0.00000000000E+00  0.00000000000E+00  0.24657584225E+02  0.24657584225E+02  0.00000000000E+00 0.  1.
          1   -1    0    0  501    0 -0.00000000000E+00 -0.00000000000E+00 -0.25084007323E+02  0.25084007323E+02  0.00000000000E+00 0.  1.
          2    1    1    2  501    0  0.56913216461E+01  0.24181054933E+02  0.96855245189E+00  0.24860664786E+02  0.00000000000E+00 0.  1.
          1    1    1    2  502    0 -0.56913216461E+01 -0.24181054933E+02 -0.13949755498E+01  0.24880926762E+02  0.00000000000E+00 0.  1.
</event>
<event>
 4    1  0.3593938E+003  0.2668038E+02  0.7546771E-02  0.1450845E+00
          2   -1    0    0  502    0  0.00000000000E+00  0.00000000000E+00  0.51568794945E+03  0.51568794945E+03  0.00000000000E+00 0. -1.
          1   -1    0    0  501    0 -0.00000000000E+00 -0.00000000000E+00 -0.20723490394E+01  0.20723490394E+01  0.00000000000E+00 0. -1.
          2    1    1    2  501    0  0.26320496565E+02  0.43673186524E+01  0.10721432540E+03  0.11048417797E+03  0.00000000000E+00 0. -1.
          1    1    1    2  502    0 -0.26320496565E+02 -0.43673186524E+01  0.40640127501E+03  0.40727612051E+03  0.00000000000E+00 0. -1.
</event>
<event>
 4    1  0.4278537E+003  0.2547046E+02  0.7546771E-02  0.1463609E+00
          2   -1    0    0  502    0  0.00000000000E+00  0.00000000000E+00  0.64195960985E+03  0.64195960985E+03  0.00000000000E+00 0. -1.
          1   -1    0    0  501    0 -0.00000000000E+00 -0.00000000000E+00 -0.42976149339E+03  0.42976149339E+03  0.00000000000E+00 0.  1.
          2    1    1    2  501    0 -0.25462932864E+02  0.61911781274E+00  0.64132921067E+03  0.64183479238E+03  0.00000000000E+00 0. -1.
          1    1    1    2  502    0  0.25462932864E+02 -0.61911781274E+00 -0.42913109420E+03  0.42988631086E+03  0.00000000000E+00 0.  1.
</event>
<event>
 4    1  0.3593938E+003  0.2146715E+02  0.7546771E-02  0.1512699E+00
          2   -1    0    0  502    0  0.00000000000E+00  0.00000000000E+00  0.15559061475E+04  0.15559061475E+04  0.00000000000E+00 0.  1.
          1   -1    0    0  501    0 -0.00000000000E+00 -0.00000000000E+00 -0.46411663289E+00  0.46411663289E+00  0.00000000000E+00 0.  1.
          2    1    1    2  501    0  0.14470089675E+02 -0.15857333684E+02  0.12458155495E+04  0.12460004903E+04  0.00000000000E+00 0.  1.
          1    1    1    2  502    0 -0.14470089675E+02  0.15857333684E+02  0.30962648146E+03  0.31036977389E+03  0.00000000000E+00 0.  1.
</event>
<event>
 4    1  0.3593938E+003  0.2584060E+02  0.7546771E-02  0.1459615E+00
          2   -1    0    0  502    0  0.00000000000E+00  0.00000000000E+00  0.11336075768E+04  0.11336075768E+04  0.00000000000E+00 0.  1.
          1   -1    0    0  501    0 -0.00000000000E+00 -0.00000000000E+00 -0.11053509260E+02  0.11053509260E+02  0.00000000000E+00 0. -1.
          2    1    1    2  501    0 -0.25445718499E+02  0.45002395756E+01  0.11181491855E+04  0.11184477358E+04  0.00000000000E+00 0.  1.
          1    1    1    2  502    0  0.25445718499E+02 -0.45002395756E+01  0.44048820772E+01  0.26213350268E+02  0.00000000000E+00 0. -1.
</event>
<event>
 4    1  0.3593938E+003  0.3452975E+02  0.7546771E-02  0.1383900E+00
          2   -1    0    0  502    0  0.00000000000E+00  0.00000000000E+00  0.43457868757E+03  0.43457868757E+03  0.00000000000E+00 0.  1.
          1   -1    0    0  501    0 -0.00000000000E+00 -0.00000000000E+00 -0.10126358523E+02  0.10126358523E+02  0.00000000000E+00 0. -1.
          2    1    1    2  501    0  0.25116937958E+02 -0.23694795452E+02  0.40208252986E+03  0.40356246694E+03  0.00000000000E+00 0.  1.
          1    1    1    2  502    0 -0.25116937958E+02  0.23694795452E+02  0.22369799194E+02  0.41142579159E+02  0.00000000000E+00 0. -1.
</event>
<event>
 4    1  0.3593938E+003  0.2057369E+02  0.7546771E-02  0.1525439E+00
          2   -1    0    0  502    0  0.00000000000E+00  0.00000000000E+00  0.78558736918E+03  0.78558736918E+03  0.00000000000E+00 0. -1.
          1   -1    0    0  501    0 -0.00000000000E+00 -0.00000000000E+00 -0.10150690903E+02  0.10150690903E+02  0.00000000000E+00 0. -1.
          2    1    1    2  501    0  0.20434391108E+02  0.23900769931E+01  0.77488386772E+03  0.77515694234E+03  0.00000000000E+00 0. -1.
          1    1    1    2  502    0 -0.20434391108E+02 -0.23900769931E+01  0.55281055792E+00  0.20581117742E+02  0.00000000000E+00 0. -1.
</event>
<event>
 4    1  0.3593938E+003  0.2883542E+02  0.7546771E-02  0.1429994E+00
          2   -1    0    0  502    0  0.00000000000E+00  0.00000000000E+00  0.13154244837E+02  0.13154244837E+02  0.00000000000E+00 0.  1.
          1   -1    0    0  501    0 -0.00000000000E+00 -0.00000000000E+00 -0.76547046229E+02  0.76547046229E+02  0.00000000000E+00 0.  1.
          2    1    1    2  501    0 -0.65314439438E+01 -0.28085966226E+02 -0.12975250723E+02  0.31620221222E+02  0.00000000000E+00 0.  1.
          1    1    1    2  502    0  0.65314439438E+01  0.28085966226E+02 -0.50417550669E+02  0.58081069844E+02  0.00000000000E+00 0.  1.
</event>
<event>
 4    1  0.3593938E+003  0.2110387E+02  0.7546771E-02  0.1517787E+00
          2   -1    0    0  502    0  0.00000000000E+00  0.00000000000E+00  0.13394562831E+03  0.13394562831E+03  0.00000000000E+00 0. -1.
          1   -1    0    0  501    0 -0.00000000000E+00 -0.00000000000E+00 -0.42695107182E+03  0.42695107182E+03  0.00000000000E+00 0. -1.
          2    1    1    2  501    0  0.20473880013E+02 -0.51179834474E+01  0.13285144857E+03  0.13451721416E+03  0.00000000000E+00 0. -1.
          1    1    1    2  502    0 -0.20473880013E+02  0.51179834474E+01 -0.42585689209E+03  0.42637948597E+03  0.00000000000E+00 0. -1.
</event>
<event>
 4    1  0.3593938E+003  0.4234286E+02  0.7546771E-02  0.1335278E+00
          2   -1    0    0  502    0  0.00000000000E+00  0.00000000000E+00  0.40767478514E+03  0.40767478514E+03  0.00000000000E+00 0.  1.
          1   -1    0    0  501    0 -0.00000000000E+00 -0.00000000000E+00 -0.19122704697E+04  0.19122704697E+04  0.00000000000E+00 0. -1.
          2    1    1    2  501    0  0.41645750222E+02  0.76517298776E+01  0.40634014312E+03  0.40854036446E+03  0.00000000000E+00 0.  1.
          1    1    1    2  502    0 -0.41645750222E+02 -0.76517298776E+01 -0.19109358276E+04  0.19114048903E+04  0.00000000000E+00 0. -1.
</event>
<event>
 4    1  0.3593938E+003  0.3052443E+02  0.7546771E-02  0.1415093E+00
          2   -1    0    0  502    0  0.00000000000E+00  0.00000000000E+00  0.72447271875E+03  0.72447271875E+03  0.00000000000E+00 0.  1.
          1   -1    0    0  501    0 -0.00000000000E+00 -0.00000000000E+00 -0.22037665659E+02  0.22037665659E+02  0.00000000000E+00 0. -1.
          2    1    1    2  501    0 -0.20178801873E+02 -0.22903209000E+02  0.71341760943E+03  0.71407032320E+03  0.00000000000E+00 0.  1.
          1    1    1    2  502    0  0.20178801873E+02  0.22903209000E+02 -0.10982556339E+02  0.32440061210E+02  0.00000000000E+00 0. -1.
</event>
<event>
 4    1  0.3593938E+003  0.2713495E+02  0.7546771E-02  0.1446257E+00
          2   -1    0    0  502    0  0.00000000000E+00  0.00000000000E+00  0.16340320774E+04  0.16340320774E+04  0.00000000000E+00 0.  1.
          1   -1    0    0  501    0 -0.00000000000E+00 -0.00000000000E+00 -0.30094254899E+02  0.30094254899E+02  0.00000000000E+00 0.  1.
          2    1    1    2  501    0  0.62856644472E+00  0.27127666879E+02  0.16277792706E+04  0.16280054236E+04  0.00000000000E+00 0.  1.
          1    1    1    2  502    0 -0.62856644472E+00 -0.27127666879E+02 -0.23841448043E+02  0.36120908777E+02  0.00000000000E+00 0.  1.
</event>
<event>
 4    1  0.3593938E+003  0.2194788E+02  0.7546771E-02  0.1506150E+00
          2   -1    0    0  502    0  0.00000000000E+00  0.00000000000E+00  0.85208742380E+01  0.85208742380E+01  0.00000000000E+00 0.  1.
          1   -1    0    0  501    0 -0.00000000000E+00 -0.00000000000E+00 -0.87149545389E+03  0.87149545389E+03  0.00000000000E+00 0. -1.
          2    1    1    2  501    0 -0.21867509083E+02 -0.18766189368E+01 -0.59898011759E+01  0.22750546592E+02  0.00000000000E+00 0.  1.
          1    1    1    2  502    0  0.21867509083E+02  0.18766189368E+01 -0.85698477848E+03  0.85726578154E+03  0.00000000000E+00 0. -1.
</event>
<event>
 4    1  0.3593938E+003  0.3149596E+02  0.7546771E-02  0.1407027E+00
          2   -1    0    0  502    0  0.00000000000E+00  0.00000000000E+00  0.14929392341E+04  0.14929392341E+04  0.00000000000E+00 0.  1.
          1   -1    0    0  501    0 -0.00000000000E+00 -0.00000000000E+00 -0.13173010755E+01  0.13173010755E+01  0.00000000000E+00 0.  1.
          2    1    1    2  501    0 -0.18361826860E+02 -0.25589819172E+02  0.12717761792E+04  0.12721661234E+04  0.00000000000E+00 0.  1.
          1    1    1    2  502    0  0.18361826860E+02  0.25589819172E+02  0.21984575389E+03  0.22209041185E+03  0.00000000000E+00 0.  1.
</event>
<event>
 4    1  0.3593938E+003  0.2144152E+02  0.7546771E-02  0.1513054E+00
          2   -1    0    0  502    0  0.00000000000E+00  0.00000000000E+00  0.24874317380E+03  0.24874317380E+03  0.00000000000E+00 0. -1.
          1   -1    0    0  501    0 -0.00000000000E+00 -0.00000000000E+00 -0.32128910285E+02  0.32128910285E+02  0.00000000000E+00 0.  1.
          2    1    1    2  501    0 -0.13140300386E+02 -0.16943173455E+02  0.24464398973E+03  0.24558179968E+03  0.00000000000E+00 0. -1.
          1    1    1    2  502    0  0.13140300386E+02  0.16943173455E+02 -0.28029726223E+02  0.35290284401E+02  0.00000000000E+00 0.  1.
</event>
<event>
 4    1  0.3593938E+003  0.2030934E+02  0.7546771E-02  0.1529358E+00
          2   -1    0    0  502    0  0.00000000000E+00  0.00000000000E+00  0.80737824405E+03  0.80737824405E+03  0.00000000000E+00 0. -1.
          1   -1    0    0  501    0 -0.00000000000E+00 -0.00000000000E+00 -0.11855672990E+01  0.11855672990E+01  0.00000000000E+00 0.  1.
          2    1    1    2  501    0  0.17464481436E+02  0.10366349061E+02  0.70807826039E+03  0.70836946019E+03  0.00000000000E+00 0. -1.
          1    1    1    2  502    0 -0.17464481436E+02 -0.10366349061E+02  0.98114416362E+02  0.10019435115E+03  0.00000000000E+00 0.  1.
</event>
<event>
 4    1  0.3593938E+003  0.2686043E+02  0.7546771E-02  0.1449015E+00
          2   -1    0    0  502    0  0.00000000000E+00  0.00000000000E+00  0.49831442213E+03  0.49831442213E+03  0.00000000000E+00 0.  1.
          1   -1    0    0  501    0 -0.00000000000E+00 -0.00000000000E+00 -0.31073921650E+01  0.31073921650E+01  0.00000000000E+00 0. -1.
          2    1    1    2  501    0  0.20597538062E+02  0.17240188880E+02  0.43082222721E+03  0.43165874733E+03  0.00000000000E+00 0.  1.
          1    1    1    2  502    0 -0.20597538062E+02 -0.17240188880E+02  0.64384802755E+02  0.69763066967E+02  0.00000000000E+00 0. -1.
</event>
<event>
 4    1  0.3593938E+003  0.2387696E+02  0.7546771E-02  0.1481770E+00
          2   -1    0    0  502    0  0.00000000000E+00  0.00000000000E+00  0.64499635164E+03  0.64499635164E+03  0.00000000000E+00 0.  1.
          1   -1    0    0  501    0 -0.00000000000E+00 -0.00000000000E+00 -0.31454669946E+01  0.31454669946E+01  0.00000000000E+00 0.  1.
          2    1    1    2  501    0 -0.79372471752E+01 -0.22519090247E+02  0.59571653460E+03  0.59619484978E+03  0.00000000000E+00 0.  1.
          1    1    1    2  502    0  0.79372471752E+01  0.22519090247E+02  0.46134350052E+02  0.51946968853E+02  0.00000000000E+00 0.  1.
</event>
<event>
 4    1  0.3593938E+003  0.2694089E+02  0.7546771E-02  0.1448203E+00
          2   -1    0    0  502    0  0.00000000000E+00  0.00000000000E+00  0.14842810780E+04  0.14842810780E+04  0.00000000000E+00 0.  1.
          1   -1    0    0  501    0 -0.00000000000E+00 -0.00000000000E+00 -0.95413965074E+01  0.95413965074E+01  0.00000000000E+00 0.  1.
          2    1    1    2  501    0  0.16037764325E+02 -0.21647214876E+02  0.14648896656E+04  0.14651373806E+04  0.00000000000E+00 0.  1.
          1    1    1    2  502    0 -0.16037764325E+02  0.21647214876E+02  0.98500158903E+01  0.28685093855E+02  0.00000000000E+00 0.  1.
</event>
<event>
 4    1  0.3593938E+003  0.2489953E+02  0.7546771E-02  0.1469931E+00
          2   -1    0    0  502    0  0.00000000000E+00  0.00000000000E+00  0.21531744232E+02  0.21531744232E+02  0.00000000000E+00 0. -1.
          1   -1    0    0  501    0 -0.00000000000E+00 -0.00000000000E+00 -0.55697042261E+03  0.55697042261E+03  0.00000000000E+00 0.  1.
          2    1    1    2  501    0  0.22346793462E+02 -0.10982143105E+02  0.13955725424E+02  0.28543806987E+02  0.00000000000E+00 0. -1.
          1    1    1    2  502    0 -0.22346793462E+02  0.10982143105E+02 -0.54939440380E+03  0.54995835985E+03  0.00000000000E+00 0.  1.
</event>
<event>
 4    1  0.3593938E+003  0.2969335E+02  0.7546771E-02  0.1422280E+00
          2   -1    0    0  502    0  0.00000000000E+00  0.00000000000E+00  0.40765784927E+01  0.40765784927E+01  0.00000000000E+00 0. -1.
          1   -1    0    0  501    0 -0.00000000000E+00 -0.00000000000E+00 -0.12791469761E+04  0.12791469761E+04  0.00000000000E+00 0. -1.
          2    1    1    2  501    0  0.15368628430E+02 -0.25406697243E+02 -0.52676534907E+02  0.60469102312E+02  0.00000000000E+00 0. -1.
          1    1    1    2  502    0 -0.15368628430E+02  0.25406697243E+02 -0.12223938627E+04  0.12227544523E+04  0.00000000000E+00 0. -1.
</event>
<event>
 4    1  0.3593938E+003  0.2451798E+02  0.7546771E-02  0.1474269E+00
          2   -1    0    0  502    0  0.00000000000E+00  0.00000000000E+00  0.52669374710E+01  0.52669374710E+01  0.00000000000E+00 0. -1.
          1   -1    0    0  501    0 -0.00000000000E+00 -0.00000000000E+00 -0.52715451417E+03  0.52715451417E+03  0.00000000000E+00 0.  1.
          2    1    1    2  501    0  0.24480013132E+02  0.13639184145E+01 -0.25307090702E+02  0.35236063290E+02  0.00000000000E+00 0. -1.
          1    1    1    2  502    0 -0.24480013132E+02 -0.13639184145E+01 -0.49658048600E+03  0.49718538835E+03  0.00000000000E+00 0.  1.
</event>
<event>
 4    1  0.3593938E+003  0.2548913E+02  0.7546771E-02  0.1463405E+00
          2   -1    0    0  502    0  0.00000000000E+00  0.00000000000E+00  0.22656149450E+03  0.22656149450E+03  0.00000000000E+00 0. -1.
          1   -1    0    0  501    0 -0.00000000000E+00 -0.00000000000E+00 -0.26309154399E+02  0.26309154399E+02  0.00000000000E+00 0. -1.
          2    1    1    2  501    0  0.14572351961E+02 -0.20912726818E+02  0.21947216927E+03  0.22094734365E+03  0.00000000000E+00 0. -1.
          1    1    1    2  502    0 -0.14572351961E+02  0.20912726818E+02 -0.19219829166E+02  0.31923305246E+02  0.00000000000E+00 0. -1.
</event>
<event>
 4    1  0.3593938E+003  0.2412700E+02  0.7546771E-02  0.1478811E+00
          2   -1    0    0  502    0  0.00000000000E+00  0.00000000000E+00  0.18639283438E+02  0.18639283438E+02  0.00000000000E+00 0. -1.
          1   -1    0    0  501    0 -0.00000000000E+00 -0.00000000000E+00 -0.33165375791E+02  0.33165375791E+02  0.00000000000E+00 0. -1.
          2    1    1    2  501    0 -0.65879244341E+01 -0.23210161698E+02 -0.10065141907E+01  0.24147990086E+02  0.00000000000E+00 0. -1.
          1    1    1    2  502    0  0.65879244341E+01  0.23210161698E+02 -0.13519578163E+02  0.27656669143E+02  0.00000000000E+00 0. -1.
</event>
<event>
 4    1  0.3593938E+003  0.2528011E+02  0.7546771E-02  0.1465694E+00
          2   -1    0    0  502    0  0.00000000000E+00  0.00000000000E+00  0.53785816062E+03  0.53785816062E+03  0.00000000000E+00 0. -1.
          1   -1    0    0  501    0 -0.00000000000E+00 -0.00000000000E+00 -0.15665687059E+03  0.15665687059E+03  0.00000000000E+00 0. -1.
          2    1    1    2  501    0 -0.25107101812E+02  0.29525329935E+01  0.53653872484E+03  0.53713395654E+03  0.00000000000E+00 0. -1.
          1    1    1    2  502    0  0.25107101812E+02 -0.29525329935E+01 -0.15533743481E+03  0.15738107467E+03  0.00000000000E+00 0. -1.
</event>
<event>
 4    1  0.3593938E+003  0.2121074E+02  0.7546771E-02  0.1516277E+00
          2   -1    0    0  502    0  0.00000000000E+00  0.00000000000E+00  0.42063231179E+03  0.42063231179E+03  0.00000000000E+00 0.  1.
          1   -1    0    0  501    0 -0.00000000000E+00 -0.00000000000E+00 -0.20206782673E+01  0.20206782673E+01  0.00000000000E+00 0.  1.
          2    1    1    2  501    0  0.56627706354E+01  0.20440858533E+02  0.35428991142E+03  0.35492426939E+03  0.00000000000E+00 0.  1.
          1    1    1    2  502    0 -0.56627706354E+01 -0.20440858533E+02  0.64321722105E+02  0.67728720668E+02  0.00000000000E+00 0.  1.
</event>
<event>
 4    1  0.3593938E+003  0.2319653E+02  0.7546771E-02  0.1490045E+00
          2   -1    0    0  502    0  0.00000000000E+00  0.00000000000E+00  0.37109178361E+03  0.37109178361E+03  0.00000000000E+00 0.  1.
          1   -1    0    0  501    0 -0.00000000000E+00 -0.00000000000E+00 -0.74701779277E+02  0.74701779277E+02  0.00000000000E+00 0. -1.
          2    1    1    2  501    0 -0.19086313937E+02  0.13182999323E+02  0.36891792948E+03  0.36964647643E+03  0.00000000000E+00 0.  1.
          1    1    1    2  502    0  0.19086313937E+02 -0.13182999323E+02 -0.72527925139E+02  0.76147086457E+02  0.00000000000E+00 0. -1.
</event>
<event>
 4    1  0.3593938E+003  0.1198259E+03  0.7546771E-02  0.1133297E+00
          2   -1    0    0  502    0  0.00000000000E+00  0.00000000000E+00  0.55519974959E+03  0.55519974959E+03  0.00000000000E+00 0. -1.
          1   -1    0    0  501    0 -0.00000000000E+00 -0.00000000000E+00 -0.34756340854E+02  0.34756340854E+02  0.00000000000E+00 0.  1.
          2    1    1    2  501    0 -0.70262626340E+02  0.97063967337E+02  0.40944748762E+03  0.42662102097E+03  0.00000000000E+00 0. -1.
          1    1    1    2  502    0  0.70262626340E+02 -0.97063967337E+02  0.11099592111E+03  0.16333506947E+03  0.00000000000E+00 0.  1.
</event>
<event>
 4    1  0.3593938E+003  0.3051984E+02  0.7546771E-02  0.1415132E+00
          2   -1    0    0  502    0  0.00000000000E+00  0.00000000000E+00  0.18968817441E+03  0.18968817441E+03  0.00000000000E+00 0.  1.
          1   -1    0    0  501    0 -0.00000000000E+00 -0.00000000000E+00 -0.11411836864E+02  0.11411836864E+02  0.00000000000E+00 0. -1.
          2    1    1    2  501    0  0.24699989101E+02  0.17926827448E+02  0.16503195435E+03  0.16783029095E+03  0.00000000000E+00 0.  1.
          1    1    1    2  502    0 -0.24699989101E+02 -0.17926827448E+02  0.13244383190E+02  0.33269720317E+02  0.00000000000E+00 0. -1.
</event>
<event>
 4    1  0.3593938E+003  0.2432160E+02  0.7546771E-02  0.1476538E+00
          2   -1    0    0  502    0  0.00000000000E+00  0.00000000000E+00  0.18945484893E+02  0.18945484893E+02  0.00000000000E+00 0.  1.
          1   -1    0    0  501    0 -0.00000000000E+00 -0.00000000000E+00 -0.51588397152E+03  0.51588397152E+03  0.00000000000E+00 0. -1.
          2    1    1    2  501    0 -0.17003792503E+02  0.17389974074E+02  0.10726702897E+02  0.26581992266E+02  0.00000000000E+00 0.  1.
          1    1    1    2  502    0  0.17003792503E+02 -0.17389974074E+02 -0.50766518953E+03  0.50824746415E+03  0.00000000000E+00 0. -1.
</event>
<event>
 4    1  0.3593938E+003  0.3709748E+02  0.7546771E-02  0.1366389E+00
          2   -1    0    0  502    0  0.00000000000E+00  0.00000000000E+00  0.50102801941E+02  0.50102801941E+02  0.00000000000E+00 0.  1.
          1   -1    0    0  501    0 -0.00000000000E+00 -0.00000000000E+00 -0.41205789447E+03  0.41205789447E+03  0.00000000000E+00 0.  1.
          2    1    1    2  501    0  0.56200426577E+01  0.36669303247E+02  0.42268018876E+02  0.56238848670E+02  0.00000000000E+00 0.  1.
          1    1    1    2  502    0 -0.56200426577E+01 -0.36669303247E+02 -0.40422311140E+03  0.40592184774E+03  0.00000000000E+00 0.  1.
</event>
<event>
 4    1  0.3593938E+003  0.2677749E+02  0.7546771E-02  0.1449856E+00
          2   -1    0    0  502    0  0.00000000000E+00  0.00000000000E+00  0.13139638342E+03  0.13139638342E+03  0.00000000000E+00 0. -1.
          1   -1    0    0  501    0 -0.00000000000E+00 -0.00000000000E+00 -0.32349641794E+02  0.32349641794E+02  0.00000000000E+00 0. -1.
          2    1    1    2  501    0  0.26017319162E+02  0.63350548251E+01  0.12417212016E+03  0.12702656904E+03  0.00000000000E+00 0. -1.
          1    1    1    2  502    0 -0.26017319162E+02 -0.63350548251E+01 -0.25125378530E+02  0.36719456182E+02  0.00000000000E+00 0. -1.
</event>
<event>
 4    1  0.3593938E+003  0.2125189E+02  0.7546771E-02  0.1515699E+00
          2   -1    0    0  502    0  0.00000000000E+00  0.00000000000E+00  0.32650919238E+03  0.32650919238E+03  0.00000000000E+00 0. -1.
          1   -1    0    0  501    0 -0.00000000000E+00 -0.00000000000E+00 -0.44951444711E+01  0.44951444711E+01  0.00000000000E+00 0. -1.
          2    1    1    2  501    0  0.13514045785E+02  0.16401625837E+02  0.29871037905E+03  0.29946541255E+03  0.00000000000E+00 0. -1.
          1    1    1    2  502    0 -0.13514045785E+02 -0.16401625837E+02  0.23303668860E+02  0.31538924298E+02  0.00000000000E+00 0. -1.
</event>
<event>
 4    1  0.3593938E+003  0.2075408E+02  0.7546771E-02  0.1522805E+00
          2   -1    0    0  502    0  0.00000000000E+00  0.00000000000E+00  0.61558345109E+02  0.61558345109E+02  0.00000000000E+00 0.  1.
          1   -1    0    0  501    0 -0.00000000000E+00 -0.00000000000E+00 -0.10940456184E+04  0.10940456184E+04  0.00000000000E+00 0.  1.
          2    1    1    2  501    0  0.13826836087E+01  0.20707969241E+02  0.59707672171E+02  0.63211849524E+02  0.00000000000E+00 0.  1.
          1    1    1    2  502    0 -0.13826836087E+01 -0.20707969241E+02 -0.10921949455E+04  0.10923921140E+04  0.00000000000E+00 0.  1.
</event>
<event>
 4    1  0.3593938E+003  0.2555931E+02  0.7546771E-02  0.1462643E+00
          2   -1    0    0  502    0  0.00000000000E+00  0.00000000000E+00  0.22740022218E+03  0.22740022218E+03  0.00000000000E+00 0. -1.
          1   -1    0    0  501    0 -0.00000000000E+00 -0.00000000000E+00 -0.49622830188E+02  0.49622830188E+02  0.00000000000E+00 0.  1.
          2    1    1    2  501    0 -0.64649749283E+01 -0.24728166774E+02  0.22333102911E+03  0.22478884914E+03  0.00000000000E+00 0. -1.
          1    1    1    2  502    0  0.64649749283E+01  0.24728166774E+02 -0.45553637116E+02  0.52234203232E+02  0.00000000000E+00 0.  1.
</event>
<event>
 4    1  0.3593938E+003  0.2346191E+02  0.7546771E-02  0.1486778E+00
          2   -1    0    0  502    0  0.00000000000E+00  0.00000000000E+00  0.22741588134E+02  0.22741588134E+02  0.00000000000E+00 0. -1.
          1   -1    0    0  501    0 -0.00000000000E+00 -0.00000000000E+00 -0.53715021199E+02  0.53715021199E+02  0.00000000000E+00 0.  1.
          2    1    1    2  501    0  0.22855130981E+02 -0.53013205807E+01  0.12848180686E+02  0.26749518856E+02  0.00000000000E+00 0. -1.
          1    1    1    2  502    0 -0.22855130981E+02  0.53013205807E+01 -0.43821613750E+02  0.49707090477E+02  0.00000000000E+00 0.  1.
</event>
<event>
 4    1  0.3593938E+003  0.4755410E+02  0.7546771E-02  0.1309140E+00
          2   -1    0    0  502    0  0.00000000000E+00  0.00000000000E+00  0.24806968051E+03  0.24806968051E+03  0.00000000000E+00 0. -1.
          1   -1    0    0  501    0 -0.00000000000E+00 -0.00000000000E+00 -0.51418566421E+02  0.51418566421E+02  0.00000000000E+00 0.  1.
          2    1    1    2  501    0 -0.38670234588E+02 -0.27676800065E+02  0.23414857920E+03  0.23892875391E+03  0.00000000000E+00 0. -1.
          1    1    1    2  502    0  0.38670234588E+02  0.27676800065E+02 -0.37497465110E+02  0.60559493018E+02  0.00000000000E+00 0.  1.
</event>
<event>
 4    1  0.4856582E+003  0.2142780E+02  0.7546771E-02  0.1513244E+00
          2   -1    0    0  502    0  0.00000000000E+00  0.00000000000E+00  0.84639543647E+03  0.84639543647E+03  0.00000000000E+00 0.  1.
          1   -1    0    0  501    0 -0.00000000000E+00 -0.00000000000E+00 -0.10218647068E+04  0.10218647068E+04  0.00000000000E+00 0.  1.
          2    1    1    2  501    0  0.13349223914E+02  0.16761523530E+02  0.84614745267E+03  0.84641872741E+03  0.00000000000E+00 0.  1.
          1    1    1    2  502    0 -0.13349223914E+02 -0.16761523530E+02 -0.10216167230E+04  0.10218414159E+04  0.00000000000E+00 0.  1.
</event>
<event>
 4    1  0.3593938E+003  0.5816744E+02  0.7546771E-02  0.1266189E+00
          2   -1    0    0  502    0  0.00000000000E+00  0.00000000000E+00  0.48106666347E+03  0.48106666347E+03  0.00000000000E+00 0.  1.
          1   -1    0    0  501    0 -0.00000000000E+00 -0.00000000000E+00 -0.36495213864E+02  0.36495213864E+02  0.00000000000E+00 0. -1.
          2    1    1    2  501    0  0.50440523036E+02 -0.28969033478E+02  0.45479770763E+03  0.45850235128E+03  0.00000000000E+00 0.  1.
          1    1    1    2  502    0 -0.50440523036E+02  0.28969033478E+02 -0.10226258021E+02  0.59059526056E+02  0.00000000000E+00 0. -1.
</event>
<event>
 4    1  0.3593938E+003  0.2976070E+02  0.7546771E-02  0.1421688E+00
          2   -1    0    0  502    0  0.00000000000E+00  0.00000000000E+00  0.19864128365E+03  0.19864128365E+03  0.00000000000E+00 0.  1.
          1   -1    0    0  501    0 -0.00000000000E+00 -0.00000000000E+00 -0.44703256749E+01  0.44703256749E+01  0.00000000000E+00 0.  1.
          2    1    1    2  501    0 -0.13926217623E+02  0.26301330254E+02  0.10224466508E+03  0.10648789155E+03  0.00000000000E+00 0.  1.
          1    1    1    2  502    0  0.13926217623E+02 -0.26301330254E+02  0.91926292903E+02  0.96623717778E+02  0.00000000000E+00 0.  1.
</event>
<event>
 4    1  0.3593938E+003  0.3408245E+02  0.7546771E-02  0.1387131E+00
          2   -1    0    0  502    0  0.00000000000E+00  0.00000000000E+00  0.29774128050E+03  0.29774128050E+03  0.00000000000E+00 0.  1.
          1   -1    0    0  501    0 -0.00000000000E+00 -0.00000000000E+00 -0.27552420446E+03  0.27552420446E+03  0.00000000000E+00 0.  1.
          2    1    1    2  501    0  0.25883260903E+02 -0.22173640416E+02  0.29570468733E+03  0.29766235172E+03  0.00000000000E+00 0.  1.
          1    1    1    2  502    0 -0.25883260903E+02  0.22173640416E+02 -0.27348761129E+03  0.27560313324E+03  0.00000000000E+00 0.  1.
</event>
<event>
 4    1  0.3593938E+003  0.2832723E+02  0.7546771E-02  0.1434713E+00
          2   -1    0    0  502    0  0.00000000000E+00  0.00000000000E+00  0.92540282734E+03  0.92540282734E+03  0.00000000000E+00 0. -1.
          1   -1    0    0  501    0 -0.00000000000E+00 -0.00000000000E+00 -0.69317416711E+02  0.69317416711E+02  0.00000000000E+00 0. -1.
          2    1    1    2  501    0  0.17871067854E+02  0.21978555758E+02  0.92228220938E+03  0.92271713201E+03  0.00000000000E+00 0. -1.
          1    1    1    2  502    0 -0.17871067854E+02 -0.21978555758E+02 -0.66196798744E+02  0.72003112040E+02  0.00000000000E+00 0. -1.
</event>
<event>
 4    1  0.3593938E+003  0.2050561E+02  0.7546771E-02  0.1526442E+00
          2   -1    0    0  502    0  0.00000000000E+00  0.00000000000E+00  0.47928492776E+02  0.47928492776E+02  0.00000000000E+00 0. -1.
          1   -1    0    0  501    0 -0.00000000000E+00 -0.00000000000E+00 -0.98535057978E+01  0.98535057978E+01  0.00000000000E+00 0. -1.
          2    1    1    2  501    0  0.20308584095E+02  0.28357251873E+01  0.28604301621E+02  0.35194971182E+02  0.00000000000E+00 0. -1.
          1    1    1    2  502    0 -0.20308584095E+02 -0.28357251873E+01  0.94706853577E+01  0.22587027392E+02  0.00000000000E+00 0. -1.
</event>
<event>
 4    1  0.3593938E+003  0.4677297E+02  0.7546771E-02  0.1312805E+00
          2   -1    0    0  502    0  0.00000000000E+00  0.00000000000E+00  0.16559301561E+04  0.16559301561E+04  0.00000000000E+00 0. -1.
          1   -1    0    0  501    0 -0.00000000000E+00 -0.00000000000E+00 -0.21791057246E+01  0.21791057246E+01  0.00000000000E+00 0.  1.
          2    1    1    2  501    0 -0.35007450136E+02  0.31019180298E+02  0.13470866660E+04  0.13478984371E+04  0.00000000000E+00 0. -1.
          1    1    1    2  502    0  0.35007450136E+02 -0.31019180298E+02  0.30666438440E+03  0.31021082471E+03  0.00000000000E+00 0.  1.
</event>
<event>
 4    1  0.3593938E+003  0.4195231E+02  0.7546771E-02  0.1337410E+00
          2   -1    0    0  502    0  0.00000000000E+00  0.00000000000E+00  0.91902458341E+03  0.91902458341E+03  0.00000000000E+00 0. -1.
          1   -1    0    0  501    0 -0.00000000000E+00 -0.00000000000E+00 -0.47646646505E+03  0.47646646505E+03  0.00000000000E+00 0. -1.
          2    1    1    2  501    0  0.19664549982E+01 -0.41906199516E+02  0.91762094110E+03  0.91857944025E+03  0.00000000000E+00 0. -1.
          1    1    1    2  502    0 -0.19664549982E+01  0.41906199516E+02 -0.47506282274E+03  0.47691160822E+03  0.00000000000E+00 0. -1.
</event>
<event>
 4    1  0.3593938E+003  0.2087852E+02  0.7546771E-02  0.1521006E+00
          2   -1    0    0  502    0  0.00000000000E+00  0.00000000000E+00  0.32031141173E+03  0.32031141173E+03  0.00000000000E+00 0. -1.
          1   -1    0    0  501    0 -0.00000000000E+00 -0.00000000000E+00 -0.16426784114E+02  0.16426784114E+02  0.00000000000E+00 0. -1.
          2    1    1    2  501    0  0.51621258850E+01 -0.20230301307E+02  0.31318624727E+03  0.31388140773E+03  0.00000000000E+00 0. -1.
          1    1    1    2  502    0 -0.51621258850E+01  0.20230301307E+02 -0.93016196602E+01  0.22856788115E+02  0.00000000000E+00 0. -1.
</event>
<event>
 4    1  0.3593938E+003  0.2079100E+02  0.7546771E-02  0.1522270E+00
          2   -1    0    0  502    0  0.00000000000E+00  0.00000000000E+00  0.76025301419E+03  0.76025301419E+03  0.00000000000E+00 0. -1.
          1   -1    0    0  501    0 -0.00000000000E+00 -0.00000000000E+00 -0.83383228906E+00  0.83383228906E+00  0.00000000000E+00 0. -1.
          2    1    1    2  501    0  0.57706836512E+01 -0.19974105642E+02  0.59434102656E+03  0.59470456660E+03  0.00000000000E+00 0. -1.
          1    1    1    2  502    0 -0.57706836512E+01  0.19974105642E+02  0.16507815534E+03  0.16638227988E+03  0.00000000000E+00 0. -1.
</event>
<event>
 4    1  0.3593938E+003  0.2690965E+02  0.7546771E-02  0.1448518E+00
          2   -1    0    0  502    0  0.00000000000E+00  0.00000000000E+00  0.16644147309E+04  0.16644147309E+04  0.00000000000E+00 0.  1.
          1   -1    0    0  501    0 -0.00000000000E+00 -0.00000000000E+00 -0.44103521669E+00  0.44103521669E+00  0.00000000000E+00 0.  1.
          2    1    1    2  501    0 -0.16482637024E+02 -0.21270916549E+02  0.92883503578E+03  0.92922475909E+03  0.00000000000E+00 0.  1.
          1    1    1    2  502    0  0.16482637024E+02  0.21270916549E+02  0.73513865986E+03  0.73563100698E+03  0.00000000000E+00 0.  1.
</event>
<event>
 4    1  0.3593938E+003  0.4582501E+02  0.7546771E-02  0.1317365E+00
          2   -1    0    0  502    0  0.00000000000E+00  0.00000000000E+00  0.12416917591E+04  0.12416917591E+04  0.00000000000E+00 0. -1.
          1   -1    0    0  501    0 -0.00000000000E+00 -0.00000000000E+00 -0.23585912293E+02  0.23585912293E+02  0.00000000000E+00 0. -1.
          2    1    1    2  501    0  0.30216936654E+02 -0.34450948522E+02  0.12185888014E+04  0.12194501211E+04  0.00000000000E+00 0. -1.
          1    1    1    2  502    0 -0.30216936654E+02  0.34450948522E+02 -0.48295459064E+00  0.45827550228E+02  0.00000000000E+00 0. -1.
</event>
<event>
 4    1  0.3593938E+003  0.2086441E+02  0.7546771E-02  0.1521210E+00
          2   -1    0    0  502    0  0.00000000000E+00  0.00000000000E+00  0.54408127407E+00  0.54408127407E+00  0.00000000000E+00 0.  1.
          1   -1    0    0  501    0 -0.00000000000E+00 -0.00000000000E+00 -0.13514731658E+04  0.13514731658E+04  0.00000000000E+00 0. -1.
          2    1    1    2  501    0 -0.19560538919E+02 -0.72600835493E+01 -0.24367870759E+03  0.24457030896E+03  0.00000000000E+00 0.  1.
          1    1    1    2  502    0  0.19560538919E+02  0.72600835493E+01 -0.11072503770E+04  0.11074469382E+04  0.00000000000E+00 0. -1.
</event>
<event>
 4    1  0.3593938E+003  0.6403577E+02  0.7546771E-02  0.1246704E+00
          2   -1    0    0  502    0  0.00000000000E+00  0.00000000000E+00  0.61092750702E+03  0.61092750702E+03  0.00000000000E+00 0.  1.
          1   -1    0    0  501    0 -0.00000000000E+00 -0.00000000000E+00 -0.16008525730E+02  0.16008525730E+02  0.00000000000E+00 0.  1.
          2    1    1    2  501    0 -0.10967515166E+01  0.64026381047E+02  0.53633771915E+03  0.54014695159E+03  0.00000000000E+00 0.  1.
          1    1    1    2  502    0  0.10967515166E+01 -0.64026381047E+02  0.58581262141E+02  0.86789081156E+02  0.00000000000E+00 0.  1.
</event>
<event>
 4    1  0.3593938E+003  0.2900874E+02  0.7546771E-02  0.1428410E+00
          2   -1    0    0  502    0  0.00000000000E+00  0.00000000000E+00  0.13580249387E+03  0.13580249387E+03  0.00000000000E+00 0.  1.
          1   -1    0    0  501    0 -0.00000000000E+00 -0.00000000000E+00 -0.13240833469E+02  0.13240833469E+02  0.00000000000E+00 0. -1.
          2    1    1    2  501    0  0.38874393696E+01 -0.28747085234E+02  0.11563630052E+03  0.11921938220E+03  0.00000000000E+00 0.  1.
          1    1    1    2  502    0 -0.38874393696E+01  0.28747085234E+02  0.69253598851E+01  0.29823945142E+02  0.00000000000E+00 0. -1.
</event>
<event>
 4    1  0.3593938E+003  0.5322687E+02  0.7546771E-02  0.1284757E+00
          2   -1    0    0  502    0  0.00000000000E+00  0.00000000000E+00  0.13440693347E+03  0.13440693347E+03  0.00000000000E+00 0.  1.
          1   -1    0    0  501    0 -0.00000000000E+00 -0.00000000000E+00 -0.33994100137E+03  0.33994100137E+03  0.00000000000E+00 0.  1.
          2    1    1    2  501    0 -0.28840562391E+02  0.44736128293E+02  0.12693611803E+03  0.13764402375E+03  0.00000000000E+00 0.  1.
          1    1    1    2  502    0  0.28840562391E+02 -0.44736128293E+02 -0.33247018592E+03  0.33670391109E+03  0.00000000000E+00 0.  1.
</event>
<event>
 4    1  0.3593938E+003  0.3146859E+02  0.7546771E-02  0.1407250E+00
          2   -1    0    0  502    0  0.00000000000E+00  0.00000000000E+00  0.87827032364E+03  0.87827032364E+03  0.00000000000E+00 0.  1.
          1   -1    0    0  501    0 -0.00000000000E+00 -0.00000000000E+00 -0.39999216597E+03  0.39999216597E+03  0.00000000000E+00 0. -1.
          2    1    1    2  501    0 -0.22615485493E+02 -0.21881765518E+02  0.87736887462E+03  0.87793303503E+03  0.00000000000E+00 0.  1.
          1    1    1    2  502    0  0.22615485493E+02  0.21881765518E+02 -0.39909071695E+03  0.40032945458E+03  0.00000000000E+00 0. -1.
</event>
<event>
 4    1  0.3593938E+003  0.2293611E+02  0.7546771E-02  0.1493302E+00
          2   -1    0    0  502    0  0.00000000000E+00  0.00000000000E+00  0.67103987487E+01  0.67103987487E+01  0.00000000000E+00 0. -1.
          1   -1    0    0  501    0 -0.00000000000E+00 -0.00000000000E+00 -0.92338820166E+02  0.92338820166E+02  0.00000000000E+00 0.  1.
          2    1    1    2  501    0 -0.22081490503E+02 -0.62026407173E+01 -0.23569463597E+02  0.32887453367E+02  0.00000000000E+00 0. -1.
          1    1    1    2  502    0  0.22081490503E+02  0.62026407173E+01 -0.62058957820E+02  0.66161765548E+02  0.00000000000E+00 0.  1.
</event>
<event>
 4    1  0.3593938E+003  0.2034801E+02  0.7546771E-02  0.1528781E+00
          2   -1    0    0  502    0  0.00000000000E+00  0.00000000000E+00  0.49639440514E+00  0.49639440514E+00  0.00000000000E+00 0.  1.
          1   -1    0    0  501    0 -0.00000000000E+00 -0.00000000000E+00 -0.10171575601E+04  0.10171575601E+04  0.00000000000E+00 0.  1.
          2    1    1    2  501    0 -0.20039601195E+02  0.35293061201E+01 -0.29247060333E+03  0.29317758344E+03  0.00000000000E+00 0.  1.
          1    1    1    2  502    0  0.20039601195E+02 -0.35293061201E+01 -0.72419056240E+03  0.72447637110E+03  0.00000000000E+00 0.  1.
</event>
<event>
 4    1  0.3593938E+003  0.2109187E+02  0.7546771E-02  0.1517957E+00
          2   -1    0    0  502    0  0.00000000000E+00  0.00000000000E+00  0.15655949308E+01  0.15655949308E+01  0.00000000000E+00 0. -1.
          1   -1    0    0  501    0 -0.00000000000E+00 -0.00000000000E+00 -0.14661343954E+04  0.14661343954E+04  0.00000000000E+00 0. -1.
          2    1    1    2  501    0 -0.19364588349E+02 -0.83593959505E+01 -0.73374662284E+02  0.76345974667E+02  0.00000000000E+00 0. -1.
          1    1    1    2  502    0  0.19364588349E+02  0.83593959505E+01 -0.13911941382E+04  0.13913540157E+04  0.00000000000E+00 0. -1.
</event>
<event>
 4    1  0.3593938E+003  0.2294110E+02  0.7546771E-02  0.1493239E+00
          2   -1    0    0  502    0  0.00000000000E+00  0.00000000000E+00  0.21277569035E+03  0.21277569035E+03  0.00000000000E+00 0.  1.
          1   -1    0    0  501    0 -0.00000000000E+00 -0.00000000000E+00 -0.18275114422E+02  0.18275114422E+02  0.00000000000E+00 0. -1.
          2    1    1    2  501    0 -0.17656671029E+02 -0.14647047229E+02  0.20467361450E+03  0.20595529247E+03  0.00000000000E+00 0.  1.
          1    1    1    2  502    0  0.17656671029E+02  0.14647047229E+02 -0.10173038565E+02  0.25095512308E+02  0.00000000000E+00 0. -1.
</event>
<event>
 4    1  0.3593938E+003  0.2221493E+02  0.7546771E-02  0.1502599E+00
          2   -1    0    0  502    0  0.00000000000E+00  0.00000000000E+00  0.13260641470E+04  0.13260641470E+04  0.00000000000E+00 0. -1.
          1   -1    0    0  501    0 -0.00000000000E+00 -0.00000000000E+00 -0.25635062869E+02  0.25635062869E+02  0.00000000000E+00 0. -1.
          2    1    1    2  501    0 -0.20678528387E+02 -0.81179870514E+01  0.13211403966E+04  0.13213271551E+04  0.00000000000E+00 0. -1.
          1    1    1    2  502    0  0.20678528387E+02  0.81179870514E+01 -0.20711312443E+02  0.30372054806E+02  0.00000000000E+00 0. -1.
</event>
<event>
 4    1  0.3593938E+003  0.2222506E+02  0.7546771E-02  0.1502465E+00
          2   -1    0    0  502    0  0.00000000000E+00  0.00000000000E+00  0.41366230766E+02  0.41366230766E+02  0.00000000000E+00 0.  1.
          1   -1    0    0  501    0 -0.00000000000E+00 -0.00000000000E+00 -0.41542929778E+03  0.41542929778E+03  0.00000000000E+00 0.  1.
          2    1    1    2  501    0  0.78709390938E+01  0.20784651628E+02  0.38059797374E+02  0.44073819912E+02  0.00000000000E+00 0.  1.
          1    1    1    2  502    0 -0.78709390938E+01 -0.20784651628E+02 -0.41212286439E+03  0.41272170863E+03  0.00000000000E+00 0.  1.
</event>
<event>
 4    1  0.3593938E+003  0.2763575E+02  0.7546771E-02  0.1441324E+00
          2   -1    0    0  502    0  0.00000000000E+00  0.00000000000E+00  0.12784321718E+04  0.12784321718E+04  0.00000000000E+00 0.  1.
          1   -1    0    0  501    0 -0.00000000000E+00 -0.00000000000E+00 -0.30783089737E+02  0.30783089737E+02  0.00000000000E+00 0.  1.
          2    1    1    2  501    0  0.18928457560E+02  0.20135740959E+02  0.12720491522E+04  0.12723493154E+04  0.00000000000E+00 0.  1.
          1    1    1    2  502    0 -0.18928457560E+02 -0.20135740959E+02 -0.24400070125E+02  0.36865946233E+02  0.00000000000E+00 0.  1.
</event>
<event>
 4    1  0.3593938E+003  0.2263864E+02  0.7546771E-02  0.1497086E+00
          2   -1    0    0  502    0  0.00000000000E+00  0.00000000000E+00  0.53414919654E+02  0.53414919654E+02  0.00000000000E+00 0. -1.
          1   -1    0    0  501    0 -0.00000000000E+00 -0.00000000000E+00 -0.68686697201E+03  0.68686697201E+03  0.00000000000E+00 0.  1.
          2    1    1    2  501    0 -0.18737116181E+02  0.12705450725E+02  0.50820577553E+02  0.55634873090E+02  0.00000000000E+00 0. -1.
          1    1    1    2  502    0  0.18737116181E+02 -0.12705450725E+02 -0.68427262991E+03  0.68464701858E+03  0.00000000000E+00 0.  1.
</event>
<event>
 4    1  0.3593938E+003  0.2038486E+02  0.7546771E-02  0.1528231E+00
          2   -1    0    0  502    0  0.00000000000E+00  0.00000000000E+00  0.33222380429E+02  0.33222380429E+02  0.00000000000E+00 0.  1.
          1   -1    0    0  501    0 -0.00000000000E+00 -0.00000000000E+00 -0.30191459216E+02  0.30191459216E+02  0.00000000000E+00 0.  1.
          2    1    1    2  501    0 -0.17817692876E+02  0.99031556987E+01  0.25781375661E+02  0.32866730947E+02  0.00000000000E+00 0.  1.
          1    1    1    2  502    0  0.17817692876E+02 -0.99031556987E+01 -0.22750454447E+02  0.30547108698E+02  0.00000000000E+00 0.  1.
</event>
<event>
 4    1  0.3593938E+003  0.2726664E+02  0.7546771E-02  0.1444948E+00
          2   -1    0    0  502    0  0.00000000000E+00  0.00000000000E+00  0.13021561942E+03  0.13021561942E+03  0.00000000000E+00 0. -1.
          1   -1    0    0  501    0 -0.00000000000E+00 -0.00000000000E+00 -0.58431928513E+02  0.58431928513E+02  0.00000000000E+00 0.  1.
          2    1    1    2  501    0 -0.86152207779E+01  0.25869822768E+02  0.12548888205E+03  0.12841701320E+03  0.00000000000E+00 0. -1.
          1    1    1    2  502    0  0.86152207779E+01 -0.25869822768E+02 -0.53705191145E+02  0.60230534740E+02  0.00000000000E+00 0.  1.
</event>
<event>
 4    1  0.3593938E+003  0.2073474E+02  0.7546771E-02  0.1523086E+00
          2   -1    0    0  502    0  0.00000000000E+00  0.00000000000E+00  0.16891435482E+01  0.16891435482E+01  0.00000000000E+00 0.  1.
          1   -1    0    0  501    0 -0.00000000000E+00 -0.00000000000E+00 -0.62082060229E+03  0.62082060229E+03  0.00000000000E+00 0.  1.
          2    1    1    2  501    0 -0.26565137287E+00  0.20733035503E+02 -0.70482602807E+02  0.73469222333E+02  0.00000000000E+00 0.  1.
          1    1    1    2  502    0  0.26565137287E+00 -0.20733035503E+02 -0.54864885594E+03  0.54904052351E+03  0.00000000000E+00 0.  1.
</event>
<event>
 4    1  0.3593938E+003  0.2102325E+02  0.7546771E-02  0.1518933E+00
          2   -1    0    0  502    0  0.00000000000E+00  0.00000000000E+00  0.26622336715E+03  0.26622336715E+03  0.00000000000E+00 0.  1.
          1   -1    0    0  501    0 -0.00000000000E+00 -0.00000000000E+00 -0.17702909081E+02  0.17702909081E+02  0.00000000000E+00 0. -1.
          2    1    1    2  501    0  0.26187371920E+01 -0.20859515254E+02  0.25940289280E+03  0.26025341103E+03  0.00000000000E+00 0.  1.
          1    1    1    2  502    0 -0.26187371920E+01  0.20859515254E+02 -0.10882434729E+02  0.23672865200E+02  0.00000000000E+00 0. -1.
</event>
<event>
 4    1  0.6633677E+003  0.2840871E+02  0.7546771E-02  0.1433948E+00
          2   -1    0    0  502    0  0.00000000000E+00  0.00000000000E+00  0.94968059521E+03  0.94968059521E+03  0.00000000000E+00 0. -1.
          1   -1    0    0  501    0 -0.00000000000E+00 -0.00000000000E+00 -0.13931216441E+04  0.13931216441E+04  0.00000000000E+00 0.  1.
          2    1    1    2  501    0  0.34035489128E+01  0.28204086660E+02  0.94932325802E+03  0.94974823130E+03  0.00000000000E+00 0. -1.
          1    1    1    2  502    0 -0.34035489128E+01 -0.28204086660E+02 -0.13927643069E+04  0.13930540080E+04  0.00000000000E+00 0.  1.
</event>
<event>
 4    1  0.3593938E+003  0.4884210E+02  0.7546771E-02  0.1303272E+00
          2   -1    0    0  502    0  0.00000000000E+00  0.00000000000E+00  0.12952252692E+03  0.12952252692E+03  0.00000000000E+00 0. -1.
          1   -1    0    0  501    0 -0.00000000000E+00 -0.00000000000E+00 -0.26180573259E+02  0.26180573259E+02  0.00000000000E+00 0.  1.
          2    1    1    2  501    0 -0.29373565544E+02 -0.39022358985E+02  0.94062544228E+02  0.10598732509E+03  0.00000000000E+00 0. -1.
          1    1    1    2  502    0  0.29373565544E+02  0.39022358985E+02  0.92794094374E+01  0.49715775092E+02  0.00000000000E+00 0.  1.
</event>
<event>
 4    1  0.3593938E+003  0.2005501E+02  0.7546771E-02  0.1533196E+00
          2   -1    0    0  502    0  0.00000000000E+00  0.00000000000E+00  0.17811577902E+01  0.17811577902E+01  0.00000000000E+00 0. -1.
          1   -1    0    0  501    0 -0.00000000000E+00 -0.00000000000E+00 -0.12239354953E+04  0.12239354953E+04  0.00000000000E+00 0. -1.
          2    1    1    2  501    0  0.15487682689E+02  0.12741084915E+02 -0.57633579123E+02  0.61023216913E+02  0.00000000000E+00 0. -1.
          1    1    1    2  502    0 -0.15487682689E+02 -0.12741084915E+02 -0.11645207583E+04  0.11646934361E+04  0.00000000000E+00 0. -1.
</event>
<event>
 4    1  0.3593938E+003  0.3659909E+02  0.7546771E-02  0.1369657E+00
          2   -1    0    0  502    0  0.00000000000E+00  0.00000000000E+00  0.84677145004E+03  0.84677145004E+03  0.00000000000E+00 0. -1.
          1   -1    0    0  501    0 -0.00000000000E+00 -0.00000000000E+00 -0.12192864485E+02  0.12192864485E+02  0.00000000000E+00 0. -1.
          2    1    1    2  501    0 -0.33522573094E+02 -0.14687777716E+02  0.81794379014E+03  0.81876219841E+03  0.00000000000E+00 0. -1.
          1    1    1    2  502    0  0.33522573094E+02  0.14687777716E+02  0.16634795410E+02  0.40202116107E+02  0.00000000000E+00 0. -1.
</event>
<event>
 4    1  0.3593938E+003  0.4359664E+02  0.7546771E-02  0.1328608E+00
          2   -1    0    0  502    0  0.00000000000E+00  0.00000000000E+00  0.43717803094E+02  0.43717803094E+02  0.00000000000E+00 0. -1.
          1   -1    0    0  501    0 -0.00000000000E+00 -0.00000000000E+00 -0.22825320591E+03  0.22825320591E+03  0.00000000000E+00 0.  1.
          2    1    1    2  501    0 -0.12036776311E+02  0.41902060507E+02  0.30083602328E+02  0.52968762377E+02  0.00000000000E+00 0. -1.
          1    1    1    2  502    0  0.12036776311E+02 -0.41902060507E+02 -0.21461900515E+03  0.21900224663E+03  0.00000000000E+00 0.  1.
</event>
<event>
 4    1  0.3593938E+003  0.3802813E+02  0.7546771E-02  0.1360445E+00
          2   -1    0    0  502    0  0.00000000000E+00  0.00000000000E+00  0.17815021880E+04  0.17815021880E+04  0.00000000000E+00 0. -1.
          1   -1    0    0  501    0 -0.00000000000E+00 -0.00000000000E+00 -0.81613877348E+00  0.81613877348E+00  0.00000000000E+00 0. -1.
          2    1    1    2  501    0  0.29379373887E+02 -0.24145202495E+02  0.95567614324E+03  0.95643244883E+03  0.00000000000E+00 0. -1.
          1    1    1    2  502    0 -0.29379373887E+02  0.24145202495E+02  0.82500990602E+03  0.82588587798E+03  0.00000000000E+00 0. -1.
</event>
<event>
 4    1  0.3593938E+003  0.2349313E+02  0.7546771E-02  0.1486397E+00
          2   -1    0    0  502    0  0.00000000000E+00  0.00000000000E+00  0.10845723704E+04  0.10845723704E+04  0.00000000000E+00 0. -1.
          1   -1    0    0  501    0 -0.00000000000E+00 -0.00000000000E+00 -0.19861411308E+01  0.19861411308E+01  0.00000000000E+00 0. -1.
          2    1    1    2  501    0  0.22438745733E+02 -0.69591688030E+01  0.10098316648E+04  0.10101049048E+04  0.00000000000E+00 0. -1.
          1    1    1    2  502    0 -0.22438745733E+02  0.69591688030E+01  0.72754564440E+02  0.76453606765E+02  0.00000000000E+00 0. -1.
</event>
<event>
 4    1  0.3593938E+003  0.2207888E+02  0.7546771E-02  0.1504400E+00
          2   -1    0    0  502    0  0.00000000000E+00  0.00000000000E+00  0.39628728858E+00  0.39628728858E+00  0.00000000000E+00 0.  1.
          1   -1    0    0  501    0 -0.00000000000E+00 -0.00000000000E+00 -0.17845562310E+04  0.17845562310E+04  0.00000000000E+00 0.  1.
          2    1    1    2  501    0  0.82837765811E+01  0.20465971920E+02 -0.39461641924E+03  0.39523359586E+03  0.00000000000E+00 0.  1.
          1    1    1    2  502    0 -0.82837765811E+01 -0.20465971920E+02 -0.13895435244E+04  0.13897189224E+04  0.00000000000E+00 0.  1.
</event>
<event>
 4    1  0.3593938E+003  0.2077766E+02  0.7546771E-02  0.1522463E+00
          2   -1    0    0  502    0  0.00000000000E+00  0.00000000000E+00  0.12986243052E+01  0.12986243052E+01  0.00000000000E+00 0.  1.
          1   -1    0    0  501    0 -0.00000000000E+00 -0.00000000000E+00 -0.52539711131E+03  0.52539711131E+03  0.00000000000E+00 0. -1.
          2    1    1    2  501    0 -0.19410031070E+02 -0.74136283921E+01 -0.10245421110E+03  0.10453983243E+03  0.00000000000E+00 0.  1.
          1    1    1    2  502    0  0.19410031070E+02  0.74136283921E+01 -0.42164427590E+03  0.42215590318E+03  0.00000000000E+00 0. -1.
</event>
<event>
 4    1  0.3593938E+003  0.3008240E+02  0.7546771E-02  0.1418882E+00
          2   -1    0    0  502    0  0.00000000000E+00  0.00000000000E+00  0.18412345976E+04  0.18412345976E+04  0.00000000000E+00 0.  1.
          1   -1    0    0  501    0 -0.00000000000E+00 -0.00000000000E+00 -0.55352522837E+00  0.55352522837E+00  0.00000000000E+00 0.  1.
          2    1    1    2  501    0  0.29992862392E+02  0.23190690889E+01  0.61205202900E+03  0.61279085835E+03  0.00000000000E+00 0.  1.
          1    1    1    2  502    0 -0.29992862392E+02 -0.23190690889E+01  0.12286290434E+04  0.12289972645E+04  0.00000000000E+00 0.  1.
</event>
<event>
 4    1  0.3593938E+003  0.3036471E+02  0.7546771E-02  0.1416453E+00
          2   -1    0    0  502    0  0.00000000000E+00  0.00000000000E+00  0.24060278226E+02  0.24060278226E+02  0.00000000000E+00 0.  1.
          1   -1    0    0  501    0 -0.00000000000E+00 -0.00000000000E+00 -0.11258991392E+03  0.11258991392E+03  0.00000000000E+00 0. -1.
          2    1    1    2  501    0 -0.13337202590E+02  0.27278830972E+02  0.11227624693E+02  0.32373988762E+02  0.00000000000E+00 0.  1.
          1    1    1    2  502    0  0.13337202590E+02 -0.27278830972E+02 -0.99757260387E+02  0.10427620338E+03  0.00000000000E+00 0. -1.
</event>
<event>
 4    1  0.3593938E+003  0.2699615E+02  0.7546771E-02  0.1447647E+00
          2   -1    0    0  502    0  0.00000000000E+00  0.00000000000E+00  0.28720216915E+03  0.28720216915E+03  0.00000000000E+00 0.  1.
          1   -1    0    0  501    0 -0.00000000000E+00 -0.00000000000E+00 -0.29137413294E+01  0.29137413294E+01  0.00000000000E+00 0.  1.
          2    1    1    2  501    0 -0.11849329648E+02 -0.24256647714E+02  0.90022700923E+02  0.93983393496E+02  0.00000000000E+00 0.  1.
          1    1    1    2  502    0  0.11849329648E+02  0.24256647714E+02  0.19426572690E+03  0.19613251699E+03  0.00000000000E+00 0.  1.
</event>
<event>
 4    1  0.3593938E+003  0.3943701E+02  0.7546771E-02  0.1351817E+00
          2   -1    0    0  502    0  0.00000000000E+00  0.00000000000E+00  0.23373526010E+01  0.23373526010E+01  0.00000000000E+00 0. -1.
          1   -1    0    0  501    0 -0.00000000000E+00 -0.00000000000E+00 -0.20803566794E+04  0.20803566794E+04  0.00000000000E+00 0. -1.
          2    1    1    2  501    0 -0.33786505975E+02  0.20340846996E+02 -0.18019804707E+03  0.18446304294E+03  0.00000000000E+00 0. -1.
          1    1    1    2  502    0  0.33786505975E+02 -0.20340846996E+02 -0.18978212798E+04  0.18982309891E+04  0.00000000000E+00 0. -1.
</event>
<event>
 4    1  0.3593938E+003  0.5551118E+02  0.7546771E-02  0.1275897E+00
          2   -1    0    0  502    0  0.00000000000E+00  0.00000000000E+00  0.82126308190E+02  0.82126308190E+02  0.00000000000E+00 0. -1.
          1   -1    0    0  501    0 -0.00000000000E+00 -0.00000000000E+00 -0.29176936545E+03  0.29176936545E+03  0.00000000000E+00 0.  1.
          2    1    1    2  501    0 -0.38346649554E+02  0.40137588212E+02  0.69692107874E+02  0.89098156094E+02  0.00000000000E+00 0. -1.
          1    1    1    2  502    0  0.38346649554E+02 -0.40137588212E+02 -0.27933516513E+03  0.28479751754E+03  0.00000000000E+00 0.  1.
</event>
<event>
 4    1  0.3593938E+003  0.2111034E+02  0.7546771E-02  0.1517695E+00
          2   -1    0    0  502    0  0.00000000000E+00  0.00000000000E+00  0.55928463044E+03  0.55928463044E+03  0.00000000000E+00 0.  1.
          1   -1    0    0  501    0 -0.00000000000E+00 -0.00000000000E+00 -0.13740104957E+01  0.13740104957E+01  0.00000000000E+00 0. -1.
          2    1    1    2  501    0 -0.10319568382E+02  0.18416111678E+02  0.46064688041E+03  0.46113034501E+03  0.00000000000E+00 0.  1.
          1    1    1    2  502    0  0.10319568382E+02 -0.18416111678E+02  0.97263739532E+02  0.99528295920E+02  0.00000000000E+00 0. -1.
</event>
<event>
 4    1  0.3593938E+003  0.2251799E+02  0.7546771E-02  0.1498641E+00
          2   -1    0    0  502    0  0.00000000000E+00  0.00000000000E+00  0.37242388154E+02  0.37242388154E+02  0.00000000000E+00 0.  1.
          1   -1    0    0  501    0 -0.00000000000E+00 -0.00000000000E+00 -0.46111826783E+03  0.46111826783E+03  0.00000000000E+00 0. -1.
          2    1    1    2  501    0 -0.20306695251E+02  0.97312961473E+01  0.33536134601E+02  0.40394706593E+02  0.00000000000E+00 0.  1.
          1    1    1    2  502    0  0.20306695251E+02 -0.97312961473E+01 -0.45741201428E+03  0.45796594940E+03  0.00000000000E+00 0. -1.
</event>
<event>
 4    1  0.3593938E+003  0.2121515E+02  0.7546771E-02  0.1516215E+00
          2   -1    0    0  502    0  0.00000000000E+00  0.00000000000E+00  0.31903971500E+03  0.31903971500E+03  0.00000000000E+00 0. -1.
          1   -1    0    0  501    0 -0.00000000000E+00 -0.00000000000E+00 -0.37071190721E+02  0.37071190721E+02  0.00000000000E+00 0. -1.
          2    1    1    2  501    0 -0.12386549979E+02 -0.17223704017E+02  0.31561891073E+03  0.31633112305E+03  0.00000000000E+00 0. -1.
          1    1    1    2  502    0  0.12386549979E+02  0.17223704017E+02 -0.33650386455E+02  0.39779782666E+02  0.00000000000E+00 0. -1.
</event>
<event>
 4    1  0.3593938E+003  0.2604164E+02  0.7546771E-02  0.1457480E+00
          2   -1    0    0  502    0  0.00000000000E+00  0.00000000000E+00  0.45342331562E+02  0.45342331562E+02  0.00000000000E+00 0. -1.
          1   -1    0    0  501    0 -0.00000000000E+00 -0.00000000000E+00 -0.41312734525E+03  0.41312734525E+03  0.00000000000E+00 0.  1.
          2    1    1    2  501    0 -0.25235188820E+02 -0.64305923308E+01  0.41154541927E+02  0.48701782243E+02  0.00000000000E+00 0. -1.
          1    1    1    2  502    0  0.25235188820E+02  0.64305923308E+01 -0.40893955562E+03  0.40976789457E+03  0.00000000000E+00 0.  1.
</event>
<event>
 4    1  0.3593938E+003  0.2663000E+02  0.7546771E-02  0.1451361E+00
          2   -1    0    0  502    0  0.00000000000E+00  0.00000000000E+00  0.38385324352E+03  0.38385324352E+03  0.00000000000E+00 0.  1.
          1   -1    0    0  501    0 -0.00000000000E+00 -0.00000000000E+00 -0.60290317394E+01  0.60290317394E+01  0.00000000000E+00 0.  1.
          2    1    1    2  501    0  0.24919621250E+02 -0.93898611379E+01  0.35126087987E+03  0.35226887847E+03  0.00000000000E+00 0.  1.
          1    1    1    2  502    0 -0.24919621250E+02  0.93898611379E+01  0.26563331912E+02  0.37613396785E+02  0.00000000000E+00 0.  1.
</event>
<event>
 4    1  0.3593938E+003  0.2036950E+02  0.7546771E-02  0.1528460E+00
          2   -1    0    0  502    0  0.00000000000E+00  0.00000000000E+00  0.42705454966E+02  0.42705454966E+02  0.00000000000E+00 0. -1.
          1   -1    0    0  501    0 -0.00000000000E+00 -0.00000000000E+00 -0.56219272720E+02  0.56219272720E+02  0.00000000000E+00 0. -1.
          2    1    1    2  501    0 -0.13869138718E+02 -0.14918566106E+02  0.38228851167E+02  0.43316990719E+02  0.00000000000E+00 0. -1.
          1    1    1    2  502    0  0.13869138718E+02  0.14918566106E+02 -0.51742668921E+02  0.55607736966E+02  0.00000000000E+00 0. -1.
</event>
<event>
 4    1  0.3593938E+003  0.2773686E+02  0.7546771E-02  0.1440343E+00
          2   -1    0    0  502    0  0.00000000000E+00  0.00000000000E+00  0.10089862588E+04  0.10089862588E+04  0.00000000000E+00 0. -1.
          1   -1    0    0  501    0 -0.00000000000E+00 -0.00000000000E+00 -0.10237634768E+01  0.10237634768E+01  0.00000000000E+00 0. -1.
          2    1    1    2  501    0 -0.27495483317E+02 -0.36512779206E+01  0.75910478904E+03  0.75961135732E+03  0.00000000000E+00 0. -1.
          1    1    1    2  502    0  0.27495483317E+02  0.36512779206E+01  0.24885770630E+03  0.25039866497E+03  0.00000000000E+00 0. -1.
</event>
<event>
 4    1  0.3593938E+003  0.2152123E+02  0.7546771E-02  0.1511952E+00
          2   -1    0    0  502    0  0.00000000000E+00  0.00000000000E+00  0.25752788507E+03  0.25752788507E+03  0.00000000000E+00 0. -1.
          1   -1    0    0  501    0 -0.00000000000E+00 -0.00000000000E+00 -0.90964938526E+03  0.90964938526E+03  0.00000000000E+00 0. -1.
          2    1    1    2  501    0  0.12806952443E+02 -0.17295812056E+02  0.25695068370E+03  0.25785037715E+03  0.00000000000E+00 0. -1.
          1    1    1    2  502    0 -0.12806952443E+02  0.17295812056E+02 -0.90907218388E+03  0.90932689318E+03  0.00000000000E+00 0. -1.
</event>
<event>
 4    1  0.3593938E+003  0.3690283E+02  0.7546771E-02  0.1367658E+00
          2   -1    0    0  502    0  0.00000000000E+00  0.00000000000E+00  0.13574659391E+04  0.13574659391E+04  0.00000000000E+00 0.  1.
          1   -1    0    0  501    0 -0.00000000000E+00 -0.00000000000E+00 -0.30848435648E+01  0.30848435648E+01  0.00000000000E+00 0.  1.
          2    1    1    2  501    0 -0.22188509622E+02 -0.29487096332E+02  0.12360089280E+04  0.12365596989E+04  0.00000000000E+00 0.  1.
          1    1    1    2  502    0  0.22188509622E+02  0.29487096332E+02  0.11837216747E+03  0.12399108371E+03  0.00000000000E+00 0.  1.
</event>
<event>
 4    1  0.3593938E+003  0.3472189E+02  0.7546771E-02  0.1382529E+00
          2   -1    0    0  502    0  0.00000000000E+00  0.00000000000E+00  0.32289605775E+03  0.32289605775E+03  0.00000000000E+00 0.  1.
          1   -1    0    0  501    0 -0.00000000000E+00 -0.00000000000E+00 -0.17467623351E+03  0.17467623351E+03  0.00000000000E+00 0. -1.
          2    1    1    2  501    0  0.30232286545E+02 -0.17076836202E+02  0.32022276882E+03  0.32209972238E+03  0.00000000000E+00 0.  1.
          1    1    1    2  502    0 -0.30232286545E+02  0.17076836202E+02 -0.17200294458E+03  0.17547256888E+03  0.00000000000E+00 0. -1.
</event>
<event>
 4    1  0.3593938E+003  0.2146287E+02  0.7546771E-02  0.1512758E+00
          2   -1    0    0  502    0  0.00000000000E+00  0.00000000000E+00  0.18984645704E+04  0.18984645704E+04  0.00000000000E+00 0. -1.
          1   -1    0    0  501    0 -0.00000000000E+00 -0.00000000000E+00 -0.43994072720E+00  0.43994072720E+00  0.00000000000E+00 0. -1.
          2    1    1    2  501    0  0.16951735812E+02 -0.13164095614E+02  0.15848317933E+04  0.15849771190E+04  0.00000000000E+00 0. -1.
          1    1    1    2  502    0 -0.16951735812E+02  0.13164095614E+02  0.31319283636E+03  0.31392739209E+03  0.00000000000E+00 0. -1.
</event>
<event>
 4    1  0.3593938E+003  0.2714369E+02  0.7546771E-02  0.1446170E+00
          2   -1    0    0  502    0  0.00000000000E+00  0.00000000000E+00  0.84936507483E+03  0.84936507483E+03  0.00000000000E+00 0.  1.
          1   -1    0    0  501    0 -0.00000000000E+00 -0.00000000000E+00 -0.16763585090E+01  0.16763585090E+01  0.00000000000E+00 0.  1.
          2    1    1    2  501    0 -0.26184936492E+02  0.71504711785E+01  0.71943281063E+03  0.71994468478E+03  0.00000000000E+00 0.  1.
          1    1    1    2  502    0  0.26184936492E+02 -0.71504711785E+01  0.12825590569E+03  0.13109674855E+03  0.00000000000E+00 0.  1.
</event>
<event>
 4    1  0.3593938E+003  0.2093723E+02  0.7546771E-02  0.1520163E+00
          2   -1    0    0  502    0  0.00000000000E+00  0.00000000000E+00  0.12834727618E+04  0.12834727618E+04  0.00000000000E+00 0. -1.
          1   -1    0    0  501    0 -0.00000000000E+00 -0.00000000000E+00 -0.56673802334E+00  0.56673802334E+00  0.00000000000E+00 0.  1.
          2    1    1    2  501    0  0.16029166475E+02  0.13469723510E+02  0.10461516375E+04  0.10463611309E+04  0.00000000000E+00 0. -1.
          1    1    1    2  502    0 -0.16029166475E+02 -0.13469723510E+02  0.23675438621E+03  0.23767836885E+03  0.00000000000E+00 0.  1.
</event>
<event>
 4    1  0.3593938E+003  0.2352415E+02  0.7546771E-02  0.1486019E+00
          2   -1    0    0  502    0  0.00000000000E+00  0.00000000000E+00  0.15526030427E+04  0.15526030427E+04  0.00000000000E+00 0. -1.
          1   -1    0    0  501    0 -0.00000000000E+00 -0.00000000000E+00 -0.10788910214E+01  0.10788910214E+01  0.00000000000E+00 0.  1.
          2    1    1    2  501    0  0.21060041218E+02  0.10481424619E+02  0.14114620973E+04  0.14116581165E+04  0.00000000000E+00 0. -1.
          1    1    1    2  502    0 -0.21060041218E+02 -0.10481424619E+02  0.14006205434E+03  0.14202381724E+03  0.00000000000E+00 0.  1.
</event>
<event>
 4    1  0.3593938E+003  0.4654382E+02  0.7546771E-02  0.1313895E+00
          2   -1    0    0  502    0  0.00000000000E+00  0.00000000000E+00  0.19002408385E+01  0.19002408385E+01  0.00000000000E+00 0.  1.
          1   -1    0    0  501    0 -0.00000000000E+00 -0.00000000000E+00 -0.11583091940E+04  0.11583091940E+04  0.00000000000E+00 0. -1.
          2    1    1    2  501    0 -0.38375000118E+02 -0.26337938339E+02 -0.50532634102E+03  0.50746530774E+03  0.00000000000E+00 0.  1.
          1    1    1    2  502    0  0.38375000118E+02  0.26337938339E+02 -0.65108261216E+03  0.65274412712E+03  0.00000000000E+00 0. -1.
</event>
<event>
 4    1  0.3593938E+003  0.2390820E+02  0.7546771E-02  0.1481398E+00
          2   -1    0    0  502    0  0.00000000000E+00  0.00000000000E+00  0.11048224279E+04  0.11048224279E+04  0.00000000000E+00 0.  1.
          1   -1    0    0  501    0 -0.00000000000E+00 -0.00000000000E+00 -0.53614372054E+00  0.53614372054E+00  0.00000000000E+00 0.  1.
          2    1    1    2  501    0  0.51974914767E+01 -0.23336413221E+02  0.65556360862E+03  0.65599942610E+03  0.00000000000E+00 0.  1.
          1    1    1    2  502    0 -0.51974914767E+01  0.23336413221E+02  0.44872267556E+03  0.44935914552E+03  0.00000000000E+00 0.  1.
</event>
<event>
 4    1  0.3593938E+003  0.2421353E+02  0.7546771E-02  0.1477797E+00
          2   -1    0    0  502    0  0.00000000000E+00  0.00000000000E+00  0.44144041257E+03  0.44144041257E+03  0.00000000000E+00 0. -1.
          1   -1    0    0  501    0 -0.00000000000E+00 -0.00000000000E+00 -0.48867464514E+02  0.48867464514E+02  0.00000000000E+00 0. -1.
          2    1    1    2  501    0 -0.11431536793E+00  0.24213264615E+02  0.43808601326E+03  0.43875465840E+03  0.00000000000E+00 0. -1.
          1    1    1    2  502    0  0.11431536793E+00 -0.24213264615E+02 -0.45513065211E+02  0.51553218679E+02  0.00000000000E+00 0. -1.
</event>
<event>
 4    1  0.3593938E+003  0.3411884E+02  0.7546771E-02  0.1386866E+00
          2   -1    0    0  502    0  0.00000000000E+00  0.00000000000E+00  0.78854058299E+01  0.78854058299E+01  0.00000000000E+00 0.  1.
          1   -1    0    0  501    0 -0.00000000000E+00 -0.00000000000E+00 -0.20667211534E+03  0.20667211534E+03  0.00000000000E+00 0.  1.
          2    1    1    2  501    0 -0.38352222978E+00  0.34116685036E+02 -0.42052200077E+02  0.54152403626E+02  0.00000000000E+00 0.  1.
          1    1    1    2  502    0  0.38352222978E+00 -0.34116685036E+02 -0.15673450944E+03  0.16040511755E+03  0.00000000000E+00 0.  1.
</event>
<event>
 4    1  0.3593938E+003  0.2927293E+02  0.7546771E-02  0.1426022E+00
          2   -1    0    0  502    0  0.00000000000E+00  0.00000000000E+00  0.75093726094E+03  0.75093726094E+03  0.00000000000E+00 0.  1.
          1   -1    0    0  501    0 -0.00000000000E+00 -0.00000000000E+00 -0.13248010922E+01  0.13248010922E+01  0.00000000000E+00 0.  1.
          2    1    1    2  501    0  0.29183080540E+02 -0.22918076176E+01  0.51486291825E+03  0.51569441451E+03  0.00000000000E+00 0.  1.
          1    1    1    2  502    0 -0.29183080540E+02  0.22918076176E+01  0.23474954160E+03  0.23656764752E+03  0.00000000000E+00 0.  1.
</event>
<event>
 4    1  0.3593938E+003  0.5461812E+02  0.7546771E-02  0.1279302E+00
          2   -1    0    0  502    0  0.00000000000E+00  0.00000000000E+00  0.66554177923E+01  0.66554177923E+01  0.00000000000E+00 0.  1.
          1   -1    0    0  501    0 -0.00000000000E+00 -0.00000000000E+00 -0.59228019122E+03  0.59228019122E+03  0.00000000000E+00 0.  1.
          2    1    1    2  501    0 -0.41444325418E+02 -0.35573971201E+02 -0.14512356780E+03  0.15506124425E+03  0.00000000000E+00 0.  1.
          1    1    1    2  502    0  0.41444325418E+02  0.35573971201E+02 -0.44050120563E+03  0.44387436477E+03  0.00000000000E+00 0.  1.
</event>
<event>
 4    1  0.3593938E+003  0.2368151E+02  0.7546771E-02  0.1484113E+00
          2   -1    0    0  502    0  0.00000000000E+00  0.00000000000E+00  0.24914024605E+02  0.24914024605E+02  0.00000000000E+00 0. -1.
          1   -1    0    0  501    0 -0.00000000000E+00 -0.00000000000E+00 -0.25120453631E+02  0.25120453631E+02  0.00000000000E+00 0. -1.
          2    1    1    2  501    0 -0.19116242507E+02 -0.13977954971E+02  0.79614463079E+01  0.24983966460E+02  0.00000000000E+00 0. -1.
          1    1    1    2  502    0  0.19116242507E+02  0.13977954971E+02 -0.81678753348E+01  0.25050511776E+02  0.00000000000E+00 0. -1.
</event>
<event>
 4    1  0.3593938E+003  0.2017208E+02  0.7546771E-02  0.1531421E+00
          2   -1    0    0  502    0  0.00000000000E+00  0.00000000000E+00  0.11497338139E+02  0.11497338139E+02  0.00000000000E+00 0. -1.
          1   -1    0    0  501    0 -0.00000000000E+00 -0.00000000000E+00 -0.39741601573E+02  0.39741601573E+02  0.00000000000E+00 0. -1.
          2    1    1    2  501    0 -0.73177658450E+01 -0.18797957202E+02 -0.56464214888E+01  0.20947433436E+02  0.00000000000E+00 0. -1.
          1    1    1    2  502    0  0.73177658450E+01  0.18797957202E+02 -0.22597841945E+02  0.30291506276E+02  0.00000000000E+00 0. -1.
</event>
<event>
 4    1  0.3593938E+003  0.2884230E+02  0.7546771E-02  0.1429931E+00
          2   -1    0    0  502    0  0.00000000000E+00  0.00000000000E+00  0.89411892446E+02  0.89411892446E+02  0.00000000000E+00 0. -1.
          1   -1    0    0  501    0 -0.00000000000E+00 -0.00000000000E+00 -0.69245718685E+03  0.69245718685E+03  0.00000000000E+00 0. -1.
          2    1    1    2  501    0 -0.22756542438E+02  0.17720551782E+02  0.86776703432E+02  0.91444378929E+02  0.00000000000E+00 0. -1.
          1    1    1    2  502    0  0.22756542438E+02 -0.17720551782E+02 -0.68982199784E+03  0.69042470037E+03  0.00000000000E+00 0. -1.
</event>
<event>
 4    1  0.3593938E+003  0.2305189E+02  0.7546771E-02  0.1491848E+00
          2   -1    0    0  502    0  0.00000000000E+00  0.00000000000E+00  0.46760917494E+03  0.46760917494E+03  0.00000000000E+00 0.  1.
          1   -1    0    0  501    0 -0.00000000000E+00 -0.00000000000E+00 -0.12545258702E+01  0.12545258702E+01  0.00000000000E+00 0.  1.
          2    1    1    2  501    0  0.17623304894E+02  0.14859633127E+02  0.30511479949E+03  0.30598436306E+03  0.00000000000E+00 0.  1.
          1    1    1    2  502    0 -0.17623304894E+02 -0.14859633127E+02  0.16123984958E+03  0.16287933775E+03  0.00000000000E+00 0.  1.
</event>
<event>
 4    1  0.3593938E+003  0.2132340E+02  0.7546771E-02  0.1514697E+00
          2   -1    0    0  502    0  0.00000000000E+00  0.00000000000E+00  0.34932122865E+01  0.34932122865E+01  0.00000000000E+00 0.  1.
          1   -1    0    0  501    0 -0.00000000000E+00 -0.00000000000E+00 -0.13579944487E+03  0.13579944487E+03  0.00000000000E+00 0. -1.
          2    1    1    2  501    0  0.86223264616E+01  0.19502385966E+02 -0.51964323290E+02  0.56169195000E+02  0.00000000000E+00 0.  1.
          1    1    1    2  502    0 -0.86223264616E+01 -0.19502385966E+02 -0.80341909298E+02  0.83123462161E+02  0.00000000000E+00 0. -1.
</event>
<event>
 4    1  0.3593938E+003  0.2262908E+02  0.7546771E-02  0.1497209E+00
          2   -1    0    0  502    0  0.00000000000E+00  0.00000000000E+00  0.10138193921E+03  0.10138193921E+03  0.00000000000E+00 0. -1.
          1   -1    0    0  501    0 -0.00000000000E+00 -0.00000000000E+00 -0.90135553769E+01  0.90135553769E+01  0.00000000000E+00 0. -1.
          2    1    1    2  501    0  0.13421383412E+02  0.18219272904E+02  0.82782711718E+02  0.85819885791E+02  0.00000000000E+00 0. -1.
          1    1    1    2  502    0 -0.13421383412E+02 -0.18219272904E+02  0.95856721171E+01  0.24575608798E+02  0.00000000000E+00 0. -1.
</event>
<event>
 4    1  0.3593938E+003  0.2652364E+02  0.7546771E-02  0.1452453E+00
          2   -1    0    0  502    0  0.00000000000E+00  0.00000000000E+00  0.13532085844E+01  0.13532085844E+01  0.00000000000E+00 0.  1.
          1   -1    0    0  501    0 -0.00000000000E+00 -0.00000000000E+00 -0.77574340902E+03  0.77574340902E+03  0.00000000000E+00 0.  1.
          2    1    1    2  501    0 -0.11621248420E+02 -0.23842186687E+02 -0.16404770507E+03  0.16617807563E+03  0.00000000000E+00 0.  1.
          1    1    1    2  502    0  0.11621248420E+02  0.23842186687E+02 -0.61034249537E+03  0.61091854198E+03  0.00000000000E+00 0.  1.
</event>
<event>
 4    1  0.3593938E+003  0.2078017E+02  0.7546771E-02  0.1522427E+00
          2   -1    0    0  502    0  0.00000000000E+00  0.00000000000E+00  0.10741132305E+04  0.10741132305E+04  0.00000000000E+00 0. -1.
          1   -1    0    0  501    0 -0.00000000000E+00 -0.00000000000E+00 -0.57870040347E+00  0.57870040347E+00  0.00000000000E+00 0. -1.
          2    1    1    2  501    0 -0.20666421548E+02  0.21712713948E+01  0.83367453761E+03  0.83393348059E+03  0.00000000000E+00 0. -1.
          1    1    1    2  502    0  0.20666421548E+02 -0.21712713948E+01  0.23985999253E+03  0.24075845035E+03  0.00000000000E+00 0. -1.
</event>
<event>
 4    1  0.3593938E+003  0.3072182E+02  0.7546771E-02  0.1413426E+00
          2   -1    0    0  502    0  0.00000000000E+00  0.00000000000E+00  0.23683930465E+03  0.23683930465E+03  0.00000000000E+00 0.  1.
          1   -1    0    0  501    0 -0.00000000000E+00 -0.00000000000E+00 -0.11100502749E+02  0.11100502749E+02  0.00000000000E+00 0.  1.
          2    1    1    2  501    0  0.23832334366E+02  0.19386849916E+02  0.21212258581E+03  0.21433576818E+03  0.00000000000E+00 0.  1.
          1    1    1    2  502    0 -0.23832334366E+02 -0.19386849916E+02  0.13616216086E+02  0.33604039213E+02  0.00000000000E+00 0.  1.
</event>
<event>
 4    1  0.3593938E+003  0.3481684E+02  0.7546771E-02  0.1381855E+00
          2   -1    0    0  502    0  0.00000000000E+00  0.00000000000E+00  0.92186388922E+03  0.92186388922E+03  0.00000000000E+00 0. -1.
          1   -1    0    0  501    0 -0.00000000000E+00 -0.00000000000E+00 -0.18496915000E+01  0.18496915000E+01  0.00000000000E+00 0.  1.
          2    1    1    2  501    0 -0.34623729835E+02  0.36618774563E+01  0.70833556338E+03  0.70919072355E+03  0.00000000000E+00 0. -1.
          1    1    1    2  502    0  0.34623729835E+02 -0.36618774563E+01  0.21167863434E+03  0.21452285717E+03  0.00000000000E+00 0.  1.
</event>
<event>
 4    1  0.3593938E+003  0.3183785E+02  0.7546771E-02  0.1404270E+00
          2   -1    0    0  502    0  0.00000000000E+00  0.00000000000E+00  0.46311408713E+03  0.46311408713E+03  0.00000000000E+00 0.  1.
          1   -1    0    0  501    0 -0.00000000000E+00 -0.00000000000E+00 -0.21964992269E+01  0.21964992269E+01  0.00000000000E+00 0.  1.
          2    1    1    2  501    0 -0.56197033189E+01  0.31337960748E+02  0.24426259235E+03  0.24632876988E+03  0.00000000000E+00 0.  1.
          1    1    1    2  502    0  0.56197033189E+01 -0.31337960748E+02  0.21665499555E+03  0.21898181647E+03  0.00000000000E+00 0.  1.
</event>
<event>
 4    1  0.3593938E+003  0.2080479E+02  0.7546771E-02  0.1522070E+00
          2   -1    0    0  502    0  0.00000000000E+00  0.00000000000E+00  0.27083712302E+02  0.27083712302E+02  0.00000000000E+00 0. -1.
          1   -1    0    0  501    0 -0.00000000000E+00 -0.00000000000E+00 -0.59737921030E+03  0.59737921030E+03  0.00000000000E+00 0. -1.
          2    1    1    2  501    0  0.13048891703E+02 -0.16203882557E+02  0.22878873367E+02  0.30923813334E+02  0.00000000000E+00 0. -1.
          1    1    1    2  502    0 -0.13048891703E+02  0.16203882557E+02 -0.59317437137E+03  0.59353910927E+03  0.00000000000E+00 0. -1.
</event>
<event>
 4    1  0.3593938E+003  0.2093389E+02  0.7546771E-02  0.1520211E+00
          2   -1    0    0  502    0  0.00000000000E+00  0.00000000000E+00  0.12435216237E+04  0.12435216237E+04  0.00000000000E+00 0.  1.
          1   -1    0    0  501    0 -0.00000000000E+00 -0.00000000000E+00 -0.19638374441E+01  0.19638374441E+01  0.00000000000E+00 0. -1.
          2    1    1    2  501    0 -0.12000264823E+02 -0.17152886788E+02  0.11848858386E+04  0.11850707483E+04  0.00000000000E+00 0.  1.
          1    1    1    2  502    0  0.12000264823E+02  0.17152886788E+02  0.56671947648E+02  0.60414712870E+02  0.00000000000E+00 0. -1.
</event>
<event>
 4    1  0.3593938E+003  0.2546314E+02  0.7546771E-02  0.1463688E+00
          2   -1    0    0  502    0  0.00000000000E+00  0.00000000000E+00  0.39881325759E+02  0.39881325759E+02  0.00000000000E+00 0. -1.
          1   -1    0    0  501    0 -0.00000000000E+00 -0.00000000000E+00 -0.35402554538E+02  0.35402554538E+02  0.00000000000E+00 0.  1.
          2    1    1    2  501    0  0.24981707308E+02  0.49280475971E+01  0.29920451209E+02  0.39288735710E+02  0.00000000000E+00 0. -1.
          1    1    1    2  502    0 -0.24981707308E+02 -0.49280475971E+01 -0.25441679989E+02  0.35995144586E+02  0.00000000000E+00 0.  1.
</event>
<event>
 4    1  0.3593938E+003  0.3356922E+02  0.7546771E-02  0.1390911E+00
          2   -1    0    0  502    0  0.00000000000E+00  0.00000000000E+00  0.41288086981E+03  0.41288086981E+03  0.00000000000E+00 0. -1.
          1   -1    0    0  501    0 -0.00000000000E+00 -0.00000000000E+00 -0.57895830743E+01  0.57895830743E+01  0.00000000000E+00 0.  1.
          2    1    1    2  501    0 -0.22238750129E+02  0.25146187077E+02  0.35573930106E+03  0.35731966507E+03  0.00000000000E+00 0. -1.
          1    1    1    2  502    0  0.22238750129E+02 -0.25146187077E+02  0.51351985677E+02  0.61350787809E+02  0.00000000000E+00 0.  1.
</event>
<event>
 4    1  0.3593938E+003  0.2196702E+02  0.7546771E-02  0.1505893E+00
          2   -1    0    0  502    0  0.00000000000E+00  0.00000000000E+00  0.14456347486E+04  0.14456347486E+04  0.00000000000E+00 0. -1.
          1   -1    0    0  501    0 -0.00000000000E+00 -0.00000000000E+00 -0.81229960259E+02  0.81229960259E+02  0.00000000000E+00 0. -1.
          2    1    1    2  501    0 -0.21935392001E+02  0.11784182512E+01  0.14440645485E+04  0.14442316194E+04  0.00000000000E+00 0. -1.
          1    1    1    2  502    0  0.21935392001E+02 -0.11784182512E+01 -0.79659760164E+02  0.82633089505E+02  0.00000000000E+00 0. -1.
</event>
<event>
 4    1  0.3593938E+003  0.2973630E+02  0.7546771E-02  0.1421902E+00
          2   -1    0    0  502    0  0.00000000000E+00  0.00000000000E+00  0.97486577814E+02  0.97486577814E+02  0.00000000000E+00 0. -1.
          1   -1    0    0  501    0 -0.00000000000E+00 -0.00000000000E+00 -0.12263820480E+03  0.12263820480E+03  0.00000000000E+00 0. -1.
          2    1    1    2  501    0  0.26556340863E+02  0.13379408483E+02  0.93338232507E+02  0.97960570940E+02  0.00000000000E+00 0. -1.
          1    1    1    2  502    0 -0.26556340863E+02 -0.13379408483E+02 -0.11848985949E+03  0.12216421167E+03  0.00000000000E+00 0. -1.
</event>
<event>
 4    1  0.3593938E+003  0.3823298E+02  0.7546771E-02  0.1359164E+00
          2   -1    0    0  502    0  0.00000000000E+00  0.00000000000E+00  0.10682233772E+03  0.10682233772E+03  0.00000000000E+00 0. -1.
          1   -1    0    0  501    0 -0.00000000000E+00 -0.00000000000E+00 -0.28076996881E+02  0.28076996881E+02  0.00000000000E+00 0.  1.
          2    1    1    2  501    0  0.10187655590E+02  0.36850677751E+02  0.87665154871E+02  0.95639636949E+02  0.00000000000E+00 0. -1.
          1    1    1    2  502    0 -0.10187655590E+02 -0.36850677751E+02 -0.89198140354E+01  0.39259697650E+02  0.00000000000E+00 0.  1.
</event>
<event>
 4    1  0.3593938E+003  0.2429265E+02  0.7546771E-02  0.1476874E+00
          2   -1    0    0  502    0  0.00000000000E+00  0.00000000000E+00  0.15588634931E+01  0.15588634931E+01  0.00000000000E+00 0.  1.
          1   -1    0    0  501    0 -0.00000000000E+00 -0.00000000000E+00 -0.45681611902E+03  0.45681611902E+03  0.00000000000E+00 0.  1.
          2    1    1    2  501    0 -0.14955038690E+02 -0.19143664418E+02 -0.13277322404E+03  0.13497726509E+03  0.00000000000E+00 0.  1.
          1    1    1    2  502    0  0.14955038690E+02  0.19143664418E+02 -0.32248403149E+03  0.32339771743E+03  0.00000000000E+00 0.  1.
</event>
<event>
 4    1  0.3593938E+003  0.7214503E+02  0.7546771E-02  0.1223360E+00
          2   -1    0    0  502    0  0.00000000000E+00  0.00000000000E+00  0.22896126983E+04  0.22896126983E+04  0.00000000000E+00 0. -1.
          1   -1    0    0  501    0 -0.00000000000E+00 -0.00000000000E+00 -0.28953098873E+01  0.28953098873E+01  0.00000000000E+00 0. -1.
          2    1    1    2  501    0  0.44261486067E+02  0.56972155415E+02  0.16746623376E+04  0.16762156337E+04  0.00000000000E+00 0. -1.
          1    1    1    2  502    0 -0.44261486067E+02 -0.56972155415E+02  0.61205505078E+03  0.61629237446E+03  0.00000000000E+00 0. -1.
</event>
<event>
 4    1  0.3593938E+003  0.2766822E+02  0.7546771E-02  0.1441009E+00
          2   -1    0    0  502    0  0.00000000000E+00  0.00000000000E+00  0.10518053125E+04  0.10518053125E+04  0.00000000000E+00 0. -1.
          1   -1    0    0  501    0 -0.00000000000E+00 -0.00000000000E+00 -0.89323095694E+00  0.89323095694E+00  0.00000000000E+00 0. -1.
          2    1    1    2  501    0 -0.10003360549E+02 -0.25796577578E+02  0.75195550176E+03  0.75246435614E+03  0.00000000000E+00 0. -1.
          1    1    1    2  502    0  0.10003360549E+02  0.25796577578E+02  0.29895657975E+03  0.30023418728E+03  0.00000000000E+00 0. -1.
</event>
<event>
 4    1  0.3593938E+003  0.3335887E+02  0.7546771E-02  0.1392483E+00
          2   -1    0    0  502    0  0.00000000000E+00  0.00000000000E+00  0.74150754969E+02  0.74150754969E+02  0.00000000000E+00 0.  1.
          1   -1    0    0  501    0 -0.00000000000E+00 -0.00000000000E+00 -0.18424472397E+02  0.18424472397E+02  0.00000000000E+00 0.  1.
          2    1    1    2  501    0 -0.30470060902E+02 -0.13579005702E+02  0.47796980541E+02  0.58286922685E+02  0.00000000000E+00 0.  1.
          1    1    1    2  502    0  0.30470060902E+02  0.13579005702E+02  0.79293020310E+01  0.34288304682E+02  0.00000000000E+00 0.  1.
</event>
<event>
 4    1  0.3593938E+003  0.2082128E+02  0.7546771E-02  0.1521832E+00
          2   -1    0    0  502    0  0.00000000000E+00  0.00000000000E+00  0.28032407753E+03  0.28032407753E+03  0.00000000000E+00 0. -1.
          1   -1    0    0  501    0 -0.00000000000E+00 -0.00000000000E+00 -0.20712564615E+01  0.20712564615E+01  0.00000000000E+00 0. -1.
          2    1    1    2  501    0 -0.18472694051E+01  0.20739176052E+02  0.21019580715E+03  0.21122453260E+03  0.00000000000E+00 0. -1.
          1    1    1    2  502    0  0.18472694051E+01 -0.20739176052E+02  0.68057013915E+02  0.71170801391E+02  0.00000000000E+00 0. -1.
</event>
<event>
 4    1  0.3593938E+003  0.2702996E+02  0.7546771E-02  0.1447307E+00
          2   -1    0    0  502    0  0.00000000000E+00  0.00000000000E+00  0.15683598332E+03  0.15683598332E+03  0.00000000000E+00 0. -1.
          1   -1    0    0  501    0 -0.00000000000E+00 -0.00000000000E+00 -0.11036413684E+02  0.11036413684E+02  0.00000000000E+00 0. -1.
          2    1    1    2  501    0 -0.26169539942E+02 -0.67656568407E+01  0.13670775858E+03  0.13935433323E+03  0.00000000000E+00 0. -1.
          1    1    1    2  502    0  0.26169539942E+02  0.67656568407E+01  0.90918110552E+01  0.28518063776E+02  0.00000000000E+00 0. -1.
</event>
<event>
 4    1  0.3593938E+003  0.7837566E+02  0.7546771E-02  0.1207670E+00
          2   -1    0    0  502    0  0.00000000000E+00  0.00000000000E+00  0.90611444659E+03  0.90611444659E+03  0.00000000000E+00 0.  1.
          1   -1    0    0  501    0 -0.00000000000E+00 -0.00000000000E+00 -0.14820401668E+02  0.14820401668E+02  0.00000000000E+00 0. -1.
          2    1    1    2  501    0  0.73260510878E+02 -0.27850329428E+02  0.78482608563E+03  0.78872981939E+03  0.00000000000E+00 0.  1.
          1    1    1    2  502    0 -0.73260510878E+02  0.27850329428E+02  0.10646795929E+03  0.13220502887E+03  0.00000000000E+00 0. -1.
</event>
<event>
 4    1  0.3593938E+003  0.3012396E+02  0.7546771E-02  0.1418522E+00
          2   -1    0    0  502    0  0.00000000000E+00  0.00000000000E+00  0.60299471230E+02  0.60299471230E+02  0.00000000000E+00 0.  1.
          1   -1    0    0  501    0 -0.00000000000E+00 -0.00000000000E+00 -0.15898721821E+02  0.15898721821E+02  0.00000000000E+00 0.  1.
          2    1    1    2  501    0 -0.29600365615E+02  0.55920720733E+01  0.31007735721E+02  0.43231152993E+02  0.00000000000E+00 0.  1.
          1    1    1    2  502    0  0.29600365615E+02 -0.55920720733E+01  0.13393013688E+02  0.32967040059E+02  0.00000000000E+00 0.  1.
</event>
<event>
 4    1  0.3593938E+003  0.2172012E+02  0.7546771E-02  0.1509227E+00
          2   -1    0    0  502    0  0.00000000000E+00  0.00000000000E+00  0.13331282616E+03  0.13331282616E+03  0.00000000000E+00 0.  1.
          1   -1    0    0  501    0 -0.00000000000E+00 -0.00000000000E+00 -0.44706458505E+02  0.44706458505E+02  0.00000000000E+00 0. -1.
          2    1    1    2  501    0  0.11493229348E+02  0.18430122404E+02  0.12971739835E+03  0.13152325713E+03  0.00000000000E+00 0.  1.
          1    1    1    2  502    0 -0.11493229348E+02 -0.18430122404E+02 -0.41111030686E+02  0.46496027538E+02  0.00000000000E+00 0. -1.
</event>
<event>
 4    1  0.3593938E+003  0.2201425E+02  0.7546771E-02  0.1505262E+00
          2   -1    0    0  502    0  0.00000000000E+00  0.00000000000E+00  0.82885006236E+03  0.82885006236E+03  0.00000000000E+00 0. -1.
          1   -1    0    0  501    0 -0.00000000000E+00 -0.00000000000E+00 -0.74803198494E+02  0.74803198494E+02  0.00000000000E+00 0.  1.
          2    1    1    2  501    0 -0.19259690266E+02 -0.10662623294E+02  0.82708074948E+03  0.82737367215E+03  0.00000000000E+00 0. -1.
          1    1    1    2  502    0  0.19259690266E+02  0.10662623294E+02 -0.73033885616E+02  0.76279588704E+02  0.00000000000E+00 0.  1.
</event>
<event>
 4    1  0.3593938E+003  0.2606789E+02  0.7546771E-02  0.1457203E+00
          2   -1    0    0  502    0  0.00000000000E+00  0.00000000000E+00  0.69546917496E+03  0.69546917496E+03  0.00000000000E+00 0. -1.
          1   -1    0    0  501    0 -0.00000000000E+00 -0.00000000000E+00 -0.41986911871E+01  0.41986911871E+01  0.00000000000E+00 0.  1.
          2    1    1    2  501    0 -0.48745374103E+01  0.25608081712E+02  0.65207206578E+03  0.65259291594E+03  0.00000000000E+00 0. -1.
          1    1    1    2  502    0  0.48745374103E+01 -0.25608081712E+02  0.39198417996E+02  0.47074950211E+02  0.00000000000E+00 0.  1.
</event>
<event>
 4    1  0.3593938E+003  0.2859471E+02  0.7546771E-02  0.1432215E+00
          2   -1    0    0  502    0  0.00000000000E+00  0.00000000000E+00  0.21644460062E+01  0.21644460062E+01  0.00000000000E+00 0.  1.
          1   -1    0    0  501    0 -0.00000000000E+00 -0.00000000000E+00 -0.54265706875E+03  0.54265706875E+03  0.00000000000E+00 0.  1.
          2    1    1    2  501    0 -0.27502330985E+02 -0.78281230922E+01 -0.12008505582E+03  0.12344261157E+03  0.00000000000E+00 0.  1.
          1    1    1    2  502    0  0.27502330985E+02  0.78281230922E+01 -0.42040756692E+03  0.42137890318E+03  0.00000000000E+00 0.  1.
</event>
<event>
 4    1  0.3593938E+003  0.2184908E+02  0.7546771E-02  0.1507479E+00
          2   -1    0    0  502    0  0.00000000000E+00  0.00000000000E+00  0.10035791690E+02  0.10035791690E+02  0.00000000000E+00 0. -1.
          1   -1    0    0  501    0 -0.00000000000E+00 -0.00000000000E+00 -0.81075902817E+02  0.81075902817E+02  0.00000000000E+00 0.  1.
          2    1    1    2  501    0  0.14469598482E+02  0.16371103332E+02 -0.62332498305E+01  0.22720821024E+02  0.00000000000E+00 0. -1.
          1    1    1    2  502    0 -0.14469598482E+02 -0.16371103332E+02 -0.64806861297E+02  0.68390873483E+02  0.00000000000E+00 0.  1.
</event>
<event>
 4    1  0.3593938E+003  0.3294573E+02  0.7546771E-02  0.1395610E+00
          2   -1    0    0  502    0  0.00000000000E+00  0.00000000000E+00  0.67997462073E+03  0.67997462073E+03  0.00000000000E+00 0.  1.
          1   -1    0    0  501    0 -0.00000000000E+00 -0.00000000000E+00 -0.23444644822E+01  0.23444644822E+01  0.00000000000E+00 0.  1.
          2    1    1    2  501    0  0.71489858270E+01  0.32160737571E+02  0.53154263649E+03  0.53256266809E+03  0.00000000000E+00 0.  1.
          1    1    1    2  502    0 -0.71489858270E+01 -0.32160737571E+02  0.14608751976E+03  0.14975641712E+03  0.00000000000E+00 0.  1.
</event>
<event>
 4    1  0.3593938E+003  0.4961529E+02  0.7546771E-02  0.1299849E+00
          2   -1    0    0  502    0  0.00000000000E+00  0.00000000000E+00  0.14273783420E+03  0.14273783420E+03  0.00000000000E+00 0. -1.
          1   -1    0    0  501    0 -0.00000000000E+00 -0.00000000000E+00 -0.16589307154E+03  0.16589307154E+03  0.00000000000E+00 0. -1.
          2    1    1    2  501    0 -0.14780597316E+02 -0.47362544572E+02  0.13449649767E+03  0.14335614591E+03  0.00000000000E+00 0. -1.
          1    1    1    2  502    0  0.14780597316E+02  0.47362544572E+02 -0.15765173501E+03  0.16527475983E+03  0.00000000000E+00 0. -1.
</event>
<event>
 4    1  0.3593938E+003  0.2703870E+02  0.7546771E-02  0.1447220E+00
          2   -1    0    0  502    0  0.00000000000E+00  0.00000000000E+00  0.14543275570E+04  0.14543275570E+04  0.00000000000E+00 0.  1.
          1   -1    0    0  501    0 -0.00000000000E+00 -0.00000000000E+00 -0.48554109419E+01  0.48554109419E+01  0.00000000000E+00 0.  1.
          2    1    1    2  501    0 -0.26841823057E+02  0.32570051380E+01  0.14155270181E+04  0.14157852346E+04  0.00000000000E+00 0.  1.
          1    1    1    2  502    0  0.26841823057E+02 -0.32570051380E+01  0.33945127988E+02  0.43397733370E+02  0.00000000000E+00 0.  1.
</event>
<event>
 4    1  0.3593938E+003  0.2925116E+02  0.7546771E-02  0.1426217E+00
          2   -1    0    0  502    0  0.00000000000E+00  0.00000000000E+00  0.22203333128E+03  0.22203333128E+03  0.00000000000E+00 0. -1.
          1   -1    0    0  501    0 -0.00000000000E+00 -0.00000000000E+00 -0.12504723567E+02  0.12504723567E+02  0.00000000000E+00 0. -1.
          2    1    1    2  501    0  0.20749529262E+02  0.20617641544E+02  0.20230419237E+03  0.20440796550E+03  0.00000000000E+00 0. -1.
          1    1    1    2  502    0 -0.20749529262E+02 -0.20617641544E+02  0.72244153447E+01  0.30130089354E+02  0.00000000000E+00 0. -1.
</event>
<event>
 4    1  0.3593938E+003  0.2087744E+02  0.7546771E-02  0.1521022E+00
          2   -1    0    0  502    0  0.00000000000E+00  0.00000000000E+00  0.10947978750E+04  0.10947978750E+04  0.00000000000E+00 0.  1.
          1   -1    0    0  501    0 -0.00000000000E+00 -0.00000000000E+00 -0.87144601610E+02  0.87144601610E+02  0.00000000000E+00 0. -1.
          2    1    1    2  501    0  0.16884092068E+02 -0.12279856553E+02  0.10934463838E+04  0.10936456746E+04  0.00000000000E+00 0.  1.
          1    1    1    2  502    0 -0.16884092068E+02  0.12279856553E+02 -0.85793110410E+02  0.88296801957E+02  0.00000000000E+00 0. -1.
</event>
<event>
 4    1  0.3593938E+003  0.4039042E+02  0.7546771E-02  0.1346213E+00
          2   -1    0    0  502    0  0.00000000000E+00  0.00000000000E+00  0.19182193307E+04  0.19182193307E+04  0.00000000000E+00 0.  1.
          1   -1    0    0  501    0 -0.00000000000E+00 -0.00000000000E+00 -0.30686984468E+01  0.30686984468E+01  0.00000000000E+00 0.  1.
          2    1    1    2  501    0 -0.40254509688E+02  0.33107085007E+01  0.17743242834E+04  0.17747839443E+04  0.00000000000E+00 0.  1.
          1    1    1    2  502    0  0.40254509688E+02 -0.33107085007E+01  0.14082634889E+03  0.14650408486E+03  0.00000000000E+00 0.  1.
</event>
<event>
 4    1  0.3593938E+003  0.3699169E+02  0.7546771E-02  0.1367077E+00
          2   -1    0    0  502    0  0.00000000000E+00  0.00000000000E+00  0.22329372765E+04  0.22329372765E+04  0.00000000000E+00 0.  1.
          1   -1    0    0  501    0 -0.00000000000E+00 -0.00000000000E+00 -0.84669509306E+02  0.84669509306E+02  0.00000000000E+00 0.  1.
          2    1    1    2  501    0 -0.15507884023E+02 -0.33584087860E+02  0.22287360838E+04  0.22290430495E+04  0.00000000000E+00 0.  1.
          1    1    1    2  502    0  0.15507884023E+02  0.33584087860E+02 -0.80468316551E+02  0.88563736330E+02  0.00000000000E+00 0.  1.
</event>
<event>
 4    1  0.3593938E+003  0.2655860E+02  0.7546771E-02  0.1452093E+00
          2   -1    0    0  502    0  0.00000000000E+00  0.00000000000E+00  0.32377875188E+01  0.32377875188E+01  0.00000000000E+00 0.  1.
          1   -1    0    0  501    0 -0.00000000000E+00 -0.00000000000E+00 -0.27589618709E+03  0.27589618709E+03  0.00000000000E+00 0.  1.
          2    1    1    2  501    0 -0.11225612343E+02  0.24069583403E+02 -0.72313223010E+02  0.77036104781E+02  0.00000000000E+00 0.  1.
          1    1    1    2  502    0  0.11225612343E+02 -0.24069583403E+02 -0.20034517656E+03  0.20209786983E+03  0.00000000000E+00 0.  1.
</event>
<event>
 4    1  0.3593938E+003  0.2315670E+02  0.7546771E-02  0.1490540E+00
          2   -1    0    0  502    0  0.00000000000E+00  0.00000000000E+00  0.16777924886E+04  0.16777924886E+04  0.00000000000E+00 0.  1.
          1   -1    0    0  501    0 -0.00000000000E+00 -0.00000000000E+00 -0.75473307608E+01  0.75473307608E+01  0.00000000000E+00 0.  1.
          2    1    1    2  501    0  0.24166841716E+01  0.23030248391E+02  0.16597572582E+04  0.16599187898E+04  0.00000000000E+00 0.  1.
          1    1    1    2  502    0 -0.24166841716E+01 -0.23030248391E+02  0.10487899642E+02  0.25421029527E+02  0.00000000000E+00 0.  1.
</event>
<event>
 4    1  0.3593938E+003  0.2951189E+02  0.7546771E-02  0.1423886E+00
          2   -1    0    0  502    0  0.00000000000E+00  0.00000000000E+00  0.41065935671E+01  0.41065935671E+01  0.00000000000E+00 0.  1.
          1   -1    0    0  501    0 -0.00000000000E+00 -0.00000000000E+00 -0.21551255726E+03  0.21551255726E+03  0.00000000000E+00 0.  1.
          2    1    1    2  501    0  0.29511612823E+02  0.12768039530E+00 -0.91856998435E+02  0.96481395902E+02  0.00000000000E+00 0.  1.
          1    1    1    2  502    0 -0.29511612823E+02 -0.12768039530E+00 -0.11954896525E+03  0.12313775492E+03  0.00000000000E+00 0.  1.
</event>
<event>
 4    1  0.3593938E+003  0.2731037E+02  0.7546771E-02  0.1444515E+00
          2   -1    0    0  502    0  0.00000000000E+00  0.00000000000E+00  0.58265780589E+01  0.58265780589E+01  0.00000000000E+00 0. -1.
          1   -1    0    0  501    0 -0.00000000000E+00 -0.00000000000E+00 -0.45469390764E+03  0.45469390764E+03  0.00000000000E+00 0. -1.
          2    1    1    2  501    0 -0.20293392357E+02  0.18276611492E+02 -0.29258878282E+02  0.40024220908E+02  0.00000000000E+00 0. -1.
          1    1    1    2  502    0  0.20293392357E+02 -0.18276611492E+02 -0.41960845130E+03  0.42049626479E+03  0.00000000000E+00 0. -1.
</event>
<event>
 4    1  0.3593938E+003  0.2439486E+02  0.7546771E-02  0.1475688E+00
          2   -1    0    0  502    0  0.00000000000E+00  0.00000000000E+00  0.50056154214E+03  0.50056154214E+03  0.00000000000E+00 0.  1.
          1   -1    0    0  501    0 -0.00000000000E+00 -0.00000000000E+00 -0.50465413206E+03  0.50465413206E+03  0.00000000000E+00 0.  1.
          2    1    1    2  501    0  0.22323409697E+02 -0.98374159747E+01  0.49996916165E+03  0.50056395393E+03  0.00000000000E+00 0.  1.
          1    1    1    2  502    0 -0.22323409697E+02  0.98374159747E+01 -0.50406175157E+03  0.50465172027E+03  0.00000000000E+00 0.  1.
</event>
<event>
 4    1  0.3593938E+003  0.2850203E+02  0.7546771E-02  0.1433077E+00
          2   -1    0    0  502    0  0.00000000000E+00  0.00000000000E+00  0.69651201022E+02  0.69651201022E+02  0.00000000000E+00 0. -1.
          1   -1    0    0  501    0 -0.00000000000E+00 -0.00000000000E+00 -0.78225714739E+02  0.78225714739E+02  0.00000000000E+00 0. -1.
          2    1    1    2  501    0 -0.13876788416E+02  0.24895797301E+02  0.63916768361E+02  0.69983707088E+02  0.00000000000E+00 0. -1.
          1    1    1    2  502    0  0.13876788416E+02 -0.24895797301E+02 -0.72491282078E+02  0.77893208673E+02  0.00000000000E+00 0. -1.
</event>
<event>
 4    1  0.3593938E+003  0.2260963E+02  0.7546771E-02  0.1497459E+00
          2   -1    0    0  502    0  0.00000000000E+00  0.00000000000E+00  0.89809584712E+03  0.89809584712E+03  0.00000000000E+00 0.  1.
          1   -1    0    0  501    0 -0.00000000000E+00 -0.00000000000E+00 -0.13194122890E+01  0.13194122890E+01  0.00000000000E+00 0.  1.
          2    1    1    2  501    0 -0.18047762458E+02 -0.13618875944E+02  0.78749172976E+03  0.78781623488E+03  0.00000000000E+00 0.  1.
          1    1    1    2  502    0  0.18047762458E+02  0.13618875944E+02  0.10928470507E+03  0.11159902452E+03  0.00000000000E+00 0.  1.
</event>
<event>
 4    1  0.3593938E+003  0.3241789E+02  0.7546771E-02  0.1399686E+00
          2   -1    0    0  502    0  0.00000000000E+00  0.00000000000E+00  0.11128215206E+04  0.11128215206E+04  0.00000000000E+00 0.  1.
          1   -1    0    0  501    0 -0.00000000000E+00 -0.00000000000E+00 -0.10703134263E+02  0.10703134263E+02  0.00000000000E+00 0.  1.
          2    1    1    2  501    0 -0.10915811318E+02 -0.30524824085E+02  0.10874662061E+04  0.10879492953E+04  0.00000000000E+00 0.  1.
          1    1    1    2  502    0  0.10915811318E+02  0.30524824085E+02  0.14652180303E+02  0.35575359588E+02  0.00000000000E+00 0.  1.
</event>
<event>
 4    1  0.3593938E+003  0.6349809E+02  0.7546771E-02  0.1248389E+00
          2   -1    0    0  502    0  0.00000000000E+00  0.00000000000E+00  0.10559249660E+04  0.10559249660E+04  0.00000000000E+00 0.  1.
          1   -1    0    0  501    0 -0.00000000000E+00 -0.00000000000E+00 -0.39721260271E+01  0.39721260271E+01  0.00000000000E+00 0.  1.
          2    1    1    2  501    0  0.43638723053E+02  0.46126666196E+02  0.63021075682E+03  0.63340161469E+03  0.00000000000E+00 0.  1.
          1    1    1    2  502    0 -0.43638723053E+02 -0.46126666196E+02  0.42174208313E+03  0.42649547731E+03  0.00000000000E+00 0.  1.
</event>
<event>
 4    1  0.3593938E+003  0.4181699E+02  0.7546771E-02  0.1338155E+00
          2   -1    0    0  502    0  0.00000000000E+00  0.00000000000E+00  0.10897917544E+04  0.10897917544E+04  0.00000000000E+00 0.  1.
          1   -1    0    0  501    0 -0.00000000000E+00 -0.00000000000E+00 -0.80294251417E+01  0.80294251417E+01  0.00000000000E+00 0.  1.
          2    1    1    2  501    0  0.38524030876E+02 -0.16265298669E+02  0.10318914919E+04  0.10327384528E+04  0.00000000000E+00 0.  1.
          1    1    1    2  502    0 -0.38524030876E+02  0.16265298669E+02  0.49870837297E+02  0.65082726651E+02  0.00000000000E+00 0.  1.
</event>
<event>
 4    1  0.3593938E+003  0.2467313E+02  0.7546771E-02  0.1472493E+00
          2   -1    0    0  502    0  0.00000000000E+00  0.00000000000E+00  0.47097668370E+02  0.47097668370E+02  0.00000000000E+00 0. -1.
          1   -1    0    0  501    0 -0.00000000000E+00 -0.00000000000E+00 -0.36298083798E+02  0.36298083798E+02  0.00000000000E+00 0.  1.
          2    1    1    2  501    0  0.10341185675E+02  0.22401408391E+02  0.38859719561E+02  0.46030870331E+02  0.00000000000E+00 0. -1.
          1    1    1    2  502    0 -0.10341185675E+02 -0.22401408391E+02 -0.28060134990E+02  0.37364881837E+02  0.00000000000E+00 0.  1.
</event>
<event>
 4    1  0.3593938E+003  0.2469074E+02  0.7546771E-02  0.1472293E+00
          2   -1    0    0  502    0  0.00000000000E+00  0.00000000000E+00  0.13795291446E+04  0.13795291446E+04  0.00000000000E+00 0. -1.
          1   -1    0    0  501    0 -0.00000000000E+00 -0.00000000000E+00 -0.99177680511E+00  0.99177680511E+00  0.00000000000E+00 0.  1.
          2    1    1    2  501    0 -0.24688896637E+02 -0.30171511001E+00  0.12032334702E+04  0.12034867745E+04  0.00000000000E+00 0. -1.
          1    1    1    2  502    0  0.24688896637E+02  0.30171511001E+00  0.17530389755E+03  0.17703414684E+03  0.00000000000E+00 0.  1.
</event>
<event>
 4    1  0.3628063E+003  0.2547642E+02  0.7546771E-02  0.1463544E+00
          2   -1    0    0  502    0  0.00000000000E+00  0.00000000000E+00  0.47245625894E+03  0.47245625894E+03  0.00000000000E+00 0.  1.
          1   -1    0    0  501    0 -0.00000000000E+00 -0.00000000000E+00 -0.94274029699E+03  0.94274029699E+03  0.00000000000E+00 0. -1.
          2    1    1    2  501    0 -0.18639887830E+02  0.17366701514E+02  0.47194051037E+03  0.47262764738E+03  0.00000000000E+00 0.  1.
          1    1    1    2  502    0  0.18639887830E+02 -0.17366701514E+02 -0.94222454842E+03  0.94256890856E+03  0.00000000000E+00 0. -1.
</event>
<event>
 4    1  0.3593938E+003  0.2009445E+02  0.7546771E-02  0.1532597E+00
          2   -1    0    0  502    0  0.00000000000E+00  0.00000000000E+00  0.73224346916E+03  0.73224346916E+03  0.00000000000E+00 0.  1.
          1   -1    0    0  501    0 -0.00000000000E+00 -0.00000000000E+00 -0.43847299717E+02  0.43847299717E+02  0.00000000000E+00 0.  1.
          2    1    1    2  501    0  0.41034564985E+01 -0.19671012011E+02  0.72979565459E+03  0.73007224610E+03  0.00000000000E+00 0.  1.
          1    1    1    2  502    0 -0.41034564985E+01  0.19671012011E+02 -0.41399485143E+02  0.46018522780E+02  0.00000000000E+00 0.  1.
</event>
<event>
 4    1  0.3593938E+003  0.2672681E+02  0.7546771E-02  0.1450372E+00
          2   -1    0    0  502    0  0.00000000000E+00  0.00000000000E+00  0.97252310295E+02  0.97252310295E+02  0.00000000000E+00 0.  1.
          1   -1    0    0  501    0 -0.00000000000E+00 -0.00000000000E+00 -0.61849625649E+02  0.61849625649E+02  0.00000000000E+00 0. -1.
          2    1    1    2  501    0  0.83891003883E+01 -0.25376079175E+02  0.92379473319E+02  0.96168027381E+02  0.00000000000E+00 0.  1.
          1    1    1    2  502    0 -0.83891003883E+01  0.25376079175E+02 -0.56976788672E+02  0.62933908563E+02  0.00000000000E+00 0. -1.
</event>
<event>
 4    1  0.3593938E+003  0.4832715E+02  0.7546771E-02  0.1305593E+00
          2   -1    0    0  502    0  0.00000000000E+00  0.00000000000E+00  0.37586949306E+03  0.37586949306E+03  0.00000000000E+00 0.  1.
          1   -1    0    0  501    0 -0.00000000000E+00 -0.00000000000E+00 -0.95978476254E+02  0.95978476254E+02  0.00000000000E+00 0. -1.
          2    1    1    2  501    0 -0.63641682222E+01  0.47906272985E+02  0.36810488264E+03  0.37126367753E+03  0.00000000000E+00 0.  1.
          1    1    1    2  502    0  0.63641682222E+01 -0.47906272985E+02 -0.88213865835E+02  0.10058429179E+03  0.00000000000E+00 0. -1.
</event>
<event>
 4    1  0.3593938E+003  0.2149358E+02  0.7546771E-02  0.1512333E+00
          2   -1    0    0  502    0  0.00000000000E+00  0.00000000000E+00  0.21477877364E+04  0.21477877364E+04  0.00000000000E+00 0.  1.
          1   -1    0    0  501    0 -0.00000000000E+00 -0.00000000000E+00 -0.22539952349E+00  0.22539952349E+00  0.00000000000E+00 0.  1.
          2    1    1    2  501    0 -0.11441460250E+02  0.18195241069E+02  0.13034433343E+04  0.13036205352E+04  0.00000000000E+00 0.  1.
          1    1    1    2  502    0  0.11441460250E+02 -0.18195241069E+02  0.84411900252E+03  0.84439260077E+03  0.00000000000E+00 0.  1.
</event>
<event>
 4    1  0.3593938E+003  0.2204215E+02  0.7546771E-02  0.1504889E+00
          2   -1    0    0  502    0  0.00000000000E+00  0.00000000000E+00  0.15836705078E+02  0.15836705078E+02  0.00000000000E+00 0. -1.
          1   -1    0    0  501    0 -0.00000000000E+00 -0.00000000000E+00 -0.53511493187E+03  0.53511493187E+03  0.00000000000E+00 0.  1.
          2    1    1    2  501    0 -0.21351805517E+02 -0.54732739597E+01  0.78233860246E+01  0.23389350046E+02  0.00000000000E+00 0. -1.
          1    1    1    2  502    0  0.21351805517E+02  0.54732739597E+01 -0.52710161282E+03  0.52756228690E+03  0.00000000000E+00 0.  1.
</event>
<event>
 4    1  0.3593938E+003  0.3721759E+02  0.7546771E-02  0.1365610E+00
          2   -1    0    0  502    0  0.00000000000E+00  0.00000000000E+00  0.39261829271E+03  0.39261829271E+03  0.00000000000E+00 0.  1.
          1   -1    0    0  501    0 -0.00000000000E+00 -0.00000000000E+00 -0.36945718799E+01  0.36945718799E+01  0.00000000000E+00 0.  1.
          2    1    1    2  501    0 -0.17782568782E+02  0.32694484559E+02  0.23653979306E+03  0.23944983352E+03  0.00000000000E+00 0.  1.
          1    1    1    2  502    0  0.17782568782E+02 -0.32694484559E+02  0.15238392777E+03  0.15686303107E+03  0.00000000000E+00 0.  1.
</event>
<event>
 4    1  0.3593938E+003  0.2928288E+02  0.7546771E-02  0.1425932E+00
          2   -1    0    0  502    0  0.00000000000E+00  0.00000000000E+00  0.19830739125E+04  0.19830739125E+04  0.00000000000E+00 0. -1.
          1   -1    0    0  501    0 -0.00000000000E+00 -0.00000000000E+00 -0.21775760673E+02  0.21775760673E+02  0.00000000000E+00 0. -1.
          2    1    1    2  501    0  0.28594125439E+02  0.63137138560E+01  0.19730713951E+04  0.19732886806E+04  0.00000000000E+00 0. -1.
          1    1    1    2  502    0 -0.28594125439E+02 -0.63137138560E+01 -0.11773243274E+02  0.31560992530E+02  0.00000000000E+00 0. -1.
</event>
<event>
 4    1  0.3593938E+003  0.3108593E+02  0.7546771E-02  0.1410389E+00
          2   -1    0    0  502    0  0.00000000000E+00  0.00000000000E+00  0.18213752888E+03  0.18213752888E+03  0.00000000000E+00 0.  1.
          1   -1    0    0  501    0 -0.00000000000E+00 -0.00000000000E+00 -0.60285063906E+01  0.60285063906E+01  0.00000000000E+00 0.  1.
          2    1    1    2  501    0 -0.53106872247E+00  0.31081396997E+02  0.12063591830E+03  0.12457672357E+03  0.00000000000E+00 0.  1.
          1    1    1    2  502    0  0.53106872247E+00 -0.31081396997E+02  0.55473104196E+02  0.63589311699E+02  0.00000000000E+00 0.  1.
</event>
<event>
 4    1  0.3593938E+003  0.2246738E+02  0.7546771E-02  0.1499297E+00
          2   -1    0    0  502    0  0.00000000000E+00  0.00000000000E+00  0.10761867995E+04  0.10761867995E+04  0.00000000000E+00 0.  1.
          1   -1    0    0  501    0 -0.00000000000E+00 -0.00000000000E+00 -0.15701824773E+01  0.15701824773E+01  0.00000000000E+00 0.  1.
          2    1    1    2  501    0 -0.18575683699E+02 -0.12638328068E+02  0.98857777450E+03  0.98883304941E+03  0.00000000000E+00 0.  1.
          1    1    1    2  502    0  0.18575683699E+02  0.12638328068E+02  0.86038842497E+02  0.88923932546E+02  0.00000000000E+00 0.  1.
</event>
<event>
 4    1  0.3593938E+003  0.2685337E+02  0.7546771E-02  0.1449087E+00
          2   -1    0    0  502    0  0.00000000000E+00  0.00000000000E+00  0.25253590343E+03  0.25253590343E+03  0.00000000000E+00 0.  1.
          1   -1    0    0  501    0 -0.00000000000E+00 -0.00000000000E+00 -0.76118134569E+01  0.76118134569E+01  0.00000000000E+00 0. -1.
          2    1    1    2  501    0  0.25330458993E+02  0.89146739203E+01  0.22528343875E+03  0.22687823020E+03  0.00000000000E+00 0.  1.
          1    1    1    2  502    0 -0.25330458993E+02 -0.89146739203E+01  0.19640651222E+02  0.33269486685E+02  0.00000000000E+00 0. -1.
</event>
<event>
 4    1  0.3593938E+003  0.3295675E+02  0.7546771E-02  0.1395526E+00
          2   -1    0    0  502    0  0.00000000000E+00  0.00000000000E+00  0.23005334871E+03  0.23005334871E+03  0.00000000000E+00 0.  1.
          1   -1    0    0  501    0 -0.00000000000E+00 -0.00000000000E+00 -0.10126389151E+02  0.10126389151E+02  0.00000000000E+00 0. -1.
          2    1    1    2  501    0  0.30126321730E+02 -0.13362335998E+02  0.19770014477E+03  0.20042827776E+03  0.00000000000E+00 0.  1.
          1    1    1    2  502    0 -0.30126321730E+02  0.13362335998E+02  0.22226814786E+02  0.39751460098E+02  0.00000000000E+00 0. -1.
</event>
<event>
 4    1  0.3593938E+003  0.2304460E+02  0.7546771E-02  0.1491939E+00
          2   -1    0    0  502    0  0.00000000000E+00  0.00000000000E+00  0.27896775130E+02  0.27896775130E+02  0.00000000000E+00 0.  1.
          1   -1    0    0  501    0 -0.00000000000E+00 -0.00000000000E+00 -0.24725550756E+02  0.24725550756E+02  0.00000000000E+00 0.  1.
          2    1    1    2  501    0 -0.22996623206E+02 -0.14862416671E+01  0.14206548275E+02  0.27071749243E+02  0.00000000000E+00 0.  1.
          1    1    1    2  502    0  0.22996623206E+02  0.14862416671E+01 -0.11035323900E+02  0.25550576643E+02  0.00000000000E+00 0.  1.
</event>
<event>
 4    1  0.3593938E+003  0.2332399E+02  0.7546771E-02  0.1488469E+00
          2   -1    0    0  502    0  0.00000000000E+00  0.00000000000E+00  0.10917607919E+01  0.10917607919E+01  0.00000000000E+00 0.  1.
          1   -1    0    0  501    0 -0.00000000000E+00 -0.00000000000E+00 -0.71763517095E+03  0.71763517095E+03  0.00000000000E+00 0.  1.
          2    1    1    2  501    0  0.16620391884E+02  0.16363710365E+02 -0.15959329497E+03  0.16128864884E+03  0.00000000000E+00 0.  1.
          1    1    1    2  502    0 -0.16620391884E+02 -0.16363710365E+02 -0.55695011518E+03  0.55743828290E+03  0.00000000000E+00 0.  1.
</event>
<event>
 4    1  0.3593938E+003  0.4403368E+02  0.7546771E-02  0.1326343E+00
          2   -1    0    0  502    0  0.00000000000E+00  0.00000000000E+00  0.34384572813E+03  0.34384572813E+03  0.00000000000E+00 0.  1.
          1   -1    0    0  501    0 -0.00000000000E+00 -0.00000000000E+00 -0.30279769750E+03  0.30279769750E+03  0.00000000000E+00 0.  1.
          2    1    1    2  501    0  0.32090929990E+02 -0.30151898803E+02  0.34082094076E+03  0.34365371881E+03  0.00000000000E+00 0.  1.
          1    1    1    2  502    0 -0.32090929990E+02  0.30151898803E+02 -0.29977291013E+03  0.30298970682E+03  0.00000000000E+00 0.  1.
</event>
<event>
 4    1  0.3593938E+003  0.2928583E+02  0.7546771E-02  0.1425906E+00
          2   -1    0    0  502    0  0.00000000000E+00  0.00000000000E+00  0.10800864382E+04  0.10800864382E+04  0.00000000000E+00 0. -1.
          1   -1    0    0  501    0 -0.00000000000E+00 -0.00000000000E+00 -0.15290371681E+03  0.15290371681E+03  0.00000000000E+00 0.  1.
          2    1    1    2  501    0  0.26675828964E+02 -0.12085539011E+02  0.10784835500E+04  0.10788810999E+04  0.00000000000E+00 0. -1.
          1    1    1    2  502    0 -0.26675828964E+02  0.12085539011E+02 -0.15130082865E+03  0.15410905507E+03  0.00000000000E+00 0.  1.
</event>
<event>
 4    1  0.3593938E+003  0.2247259E+02  0.7546771E-02  0.1499229E+00
          2   -1    0    0  502    0  0.00000000000E+00  0.00000000000E+00  0.37296804578E+03  0.37296804578E+03  0.00000000000E+00 0.  1.
          1   -1    0    0  501    0 -0.00000000000E+00 -0.00000000000E+00 -0.41143145197E+02  0.41143145197E+02  0.00000000000E+00 0.  1.
          2    1    1    2  501    0 -0.87028463051E+01  0.20719015243E+02  0.36953237039E+03  0.37021505897E+03  0.00000000000E+00 0.  1.
          1    1    1    2  502    0  0.87028463051E+01 -0.20719015243E+02 -0.37707469800E+02  0.43896132007E+02  0.00000000000E+00 0.  1.
</event>
<event>
 4    1  0.3593938E+003  0.2739000E+02  0.7546771E-02  0.1443729E+00
          2   -1    0    0  502    0  0.00000000000E+00  0.00000000000E+00  0.43958236963E+02  0.43958236963E+02  0.00000000000E+00 0. -1.
          1   -1    0    0  501    0 -0.00000000000E+00 -0.00000000000E+00 -0.10142711293E+04  0.10142711293E+04  0.00000000000E+00 0.  1.
          2    1    1    2  501    0 -0.12270204982E+02 -0.24487832991E+02  0.39487820673E+02  0.48057256230E+02  0.00000000000E+00 0. -1.
          1    1    1    2  502    0  0.12270204982E+02  0.24487832991E+02 -0.10098007130E+04  0.10101721100E+04  0.00000000000E+00 0.  1.
</event>
<event>
 4    1  0.3593938E+003  0.3343959E+02  0.7546771E-02  0.1391878E+00
          2   -1    0    0  502    0  0.00000000000E+00  0.00000000000E+00  0.71625628336E+02  0.71625628336E+02  0.00000000000E+00 0. -1.
          1   -1    0    0  501    0 -0.00000000000E+00 -0.00000000000E+00 -0.47037650047E+02  0.47037650047E+02  0.00000000000E+00 0. -1.
          2    1    1    2  501    0 -0.27308124780E+02 -0.19299542186E+02  0.60790105041E+02  0.69380421435E+02  0.00000000000E+00 0. -1.
          1    1    1    2  502    0  0.27308124780E+02  0.19299542186E+02 -0.36202126752E+02  0.49282856948E+02  0.00000000000E+00 0. -1.
</event>
<event>
 4    1  0.3593938E+003  0.6505319E+02  0.7546771E-02  0.1243567E+00
          2   -1    0    0  502    0  0.00000000000E+00  0.00000000000E+00  0.10732561551E+04  0.10732561551E+04  0.00000000000E+00 0. -1.
          1   -1    0    0  501    0 -0.00000000000E+00 -0.00000000000E+00 -0.48254648641E+02  0.48254648641E+02  0.00000000000E+00 0.  1.
          2    1    1    2  501    0  0.61683304174E+02  0.20666096186E+02  0.10498572803E+04  0.10518708222E+04  0.00000000000E+00 0. -1.
          1    1    1    2  502    0 -0.61683304174E+02 -0.20666096186E+02 -0.24855773808E+02  0.69639981598E+02  0.00000000000E+00 0.  1.
</event>
<event>
 4    1  0.3593938E+003  0.2094477E+02  0.7546771E-02  0.1520055E+00
          2   -1    0    0  502    0  0.00000000000E+00  0.00000000000E+00  0.18012736718E+01  0.18012736718E+01  0.00000000000E+00 0. -1.
          1   -1    0    0  501    0 -0.00000000000E+00 -0.00000000000E+00 -0.27658744126E+03  0.27658744126E+03  0.00000000000E+00 0.  1.
          2    1    1    2  501    0 -0.20719193885E+02 -0.30656796420E+01 -0.89279250858E+02  0.91703151640E+02  0.00000000000E+00 0. -1.
          1    1    1    2  502    0  0.20719193885E+02  0.30656796420E+01 -0.18550691673E+03  0.18668556329E+03  0.00000000000E+00 0.  1.
</event>
<event>
 4    1  0.3593938E+003  0.3881858E+02  0.7546771E-02  0.1355551E+00
          2   -1    0    0  502    0  0.00000000000E+00  0.00000000000E+00  0.17533959928E+02  0.17533959928E+02  0.00000000000E+00 0.  1.
          1   -1    0    0  501    0 -0.00000000000E+00 -0.00000000000E+00 -0.11175132973E+03  0.11175132973E+03  0.00000000000E+00 0.  1.
          2    1    1    2  501    0 -0.25552911161E+02  0.29222097808E+02 -0.16042254272E+02  0.42002811707E+02  0.00000000000E+00 0.  1.
          1    1    1    2  502    0  0.25552911161E+02 -0.29222097808E+02 -0.78175115525E+02  0.87282477947E+02  0.00000000000E+00 0.  1.
</event>
<event>
 4    1  0.3593938E+003  0.2076147E+02  0.7546771E-02  0.1522698E+00
          2   -1    0    0  502    0  0.00000000000E+00  0.00000000000E+00  0.14058651904E+04  0.14058651904E+04  0.00000000000E+00 0. -1.
          1   -1    0    0  501    0 -0.00000000000E+00 -0.00000000000E+00 -0.27661434680E+01  0.27661434680E+01  0.00000000000E+00 0. -1.
          2    1    1    2  501    0 -0.85711654752E+01 -0.18909625170E+02  0.13656858198E+04  0.13658436211E+04  0.00000000000E+00 0. -1.
          1    1    1    2  502    0  0.85711654752E+01  0.18909625170E+02  0.37413227060E+02  0.42787712731E+02  0.00000000000E+00 0. -1.
</event>
<event>
 4    1  0.3593938E+003  0.2321131E+02  0.7546771E-02  0.1489862E+00
          2   -1    0    0  502    0  0.00000000000E+00  0.00000000000E+00  0.12772572594E+03  0.12772572594E+03  0.00000000000E+00 0.  1.
          1   -1    0    0  501    0 -0.00000000000E+00 -0.00000000000E+00 -0.12328433706E+02  0.12328433706E+02  0.00000000000E+00 0.  1.
          2    1    1    2  501    0 -0.18693098228E+02  0.13759832337E+02  0.11449629693E+03  0.11682536932E+03  0.00000000000E+00 0.  1.
          1    1    1    2  502    0  0.18693098228E+02 -0.13759832337E+02  0.90099530589E+00  0.23228790323E+02  0.00000000000E+00 0.  1.
</event>
<event>
 4    1  0.3593938E+003  0.2033899E+02  0.7546771E-02  0.1528915E+00
          2   -1    0    0  502    0  0.00000000000E+00  0.00000000000E+00  0.53551070059E+03  0.53551070059E+03  0.00000000000E+00 0.  1.
          1   -1    0    0  501    0 -0.00000000000E+00 -0.00000000000E+00 -0.39394708513E+01  0.39394708513E+01  0.00000000000E+00 0.  1.
          2    1    1    2  501    0  0.20336611990E+02 -0.31087329625E+00  0.50762409153E+03  0.50803138951E+03  0.00000000000E+00 0.  1.
          1    1    1    2  502    0 -0.20336611990E+02  0.31087329625E+00  0.23947138208E+02  0.31418781927E+02  0.00000000000E+00 0.  1.
</event>
<event>
 4    1  0.3593938E+003  0.2267944E+02  0.7546771E-02  0.1496563E+00
          2   -1    0    0  502    0  0.00000000000E+00  0.00000000000E+00  0.10092766353E+03  0.10092766353E+03  0.00000000000E+00 0. -1.
          1   -1    0    0  501    0 -0.00000000000E+00 -0.00000000000E+00 -0.11847255160E+02  0.11847255160E+02  0.00000000000E+00 0. -1.
          2    1    1    2  501    0  0.22117761770E+02  0.50161398452E+01  0.87105578911E+02  0.90009660160E+02  0.00000000000E+00 0. -1.
          1    1    1    2  502    0 -0.22117761770E+02 -0.50161398452E+01  0.19748294616E+01  0.22765258533E+02  0.00000000000E+00 0. -1.
</event>
<event>
 4    1  0.3593938E+003  0.2101623E+02  0.7546771E-02  0.1519033E+00
          2   -1    0    0  502    0  0.00000000000E+00  0.00000000000E+00  0.61599832696E+03  0.61599832696E+03  0.00000000000E+00 0. -1.
          1   -1    0    0  501    0 -0.00000000000E+00 -0.00000000000E+00 -0.20489477333E+02  0.20489477333E+02  0.00000000000E+00 0. -1.
          2    1    1    2  501    0 -0.21001705264E+02  0.78111784599E+00  0.61038035611E+03  0.61074205757E+03  0.00000000000E+00 0. -1.
          1    1    1    2  502    0  0.21001705264E+02 -0.78111784599E+00 -0.14871506480E+02  0.25745746718E+02  0.00000000000E+00 0. -1.
</event>
<event>
 4    1  0.3593938E+003  0.2448244E+02  0.7546771E-02  0.1474677E+00
          2   -1    0    0  502    0  0.00000000000E+00  0.00000000000E+00  0.14905343719E+04  0.14905343719E+04  0.00000000000E+00 0.  1.
          1   -1    0    0  501    0 -0.00000000000E+00 -0.00000000000E+00 -0.18710135766E+01  0.18710135766E+01  0.00000000000E+00 0. -1.
          2    1    1    2  501    0  0.24440487492E+02  0.14325644018E+01  0.14054998264E+04  0.14057130403E+04  0.00000000000E+00 0.  1.
          1    1    1    2  502    0 -0.24440487492E+02 -0.14325644018E+01  0.83163531927E+02  0.86692345176E+02  0.00000000000E+00 0. -1.
</event>
<event>
 4    1  0.3593938E+003  0.1269299E+03  0.7546771E-02  0.1123926E+00
          2   -1    0    0  502    0  0.00000000000E+00  0.00000000000E+00  0.58148831379E+02  0.58148831379E+02  0.00000000000E+00 0. -1.
          1   -1    0    0  501    0 -0.00000000000E+00 -0.00000000000E+00 -0.32507516962E+03  0.32507516962E+03  0.00000000000E+00 0. -1.
          2    1    1    2  501    0  0.12691616630E+03  0.18598416318E+01 -0.20709820279E+03  0.24290088077E+03  0.00000000000E+00 0. -1.
          1    1    1    2  502    0 -0.12691616630E+03 -0.18598416318E+01 -0.59828135451E+02  0.14032312023E+03  0.00000000000E+00 0. -1.
</event>
<event>
 4    1  0.3593938E+003  0.2715210E+02  0.7546771E-02  0.1446086E+00
          2   -1    0    0  502    0  0.00000000000E+00  0.00000000000E+00  0.23312416956E+03  0.23312416956E+03  0.00000000000E+00 0.  1.
          1   -1    0    0  501    0 -0.00000000000E+00 -0.00000000000E+00 -0.41513558956E+01  0.41513558956E+01  0.00000000000E+00 0.  1.
          2    1    1    2  501    0 -0.93015706822E+01  0.25509165349E+02  0.17239084457E+03  0.17451601653E+03  0.00000000000E+00 0.  1.
          1    1    1    2  502    0  0.93015706822E+01 -0.25509165349E+02  0.56581969094E+02  0.62759508925E+02  0.00000000000E+00 0.  1.
</event>
<event>
 4    1  0.3593938E+003  0.2258676E+02  0.7546771E-02  0.1497753E+00
          2   -1    0    0  502    0  0.00000000000E+00  0.00000000000E+00  0.38905037953E+03  0.38905037953E+03  0.00000000000E+00 0.  1.
          1   -1    0    0  501    0 -0.00000000000E+00 -0.00000000000E+00 -0.34821258325E+03  0.34821258325E+03  0.00000000000E+00 0. -1.
          2    1    1    2  501    0  0.19121561830E+01  0.22505675357E+02  0.38835562806E+03  0.38901189649E+03  0.00000000000E+00 0.  1.
          1    1    1    2  502    0 -0.19121561830E+01 -0.22505675357E+02 -0.34751783178E+03  0.34825106629E+03  0.00000000000E+00 0. -1.
</event>
<event>
 4    1  0.3593938E+003  0.3157144E+02  0.7546771E-02  0.1406415E+00
          2   -1    0    0  502    0  0.00000000000E+00  0.00000000000E+00  0.30271466549E+01  0.30271466549E+01  0.00000000000E+00 0. -1.
          1   -1    0    0  501    0 -0.00000000000E+00 -0.00000000000E+00 -0.39789641536E+03  0.39789641536E+03  0.00000000000E+00 0.  1.
          2    1    1    2  501    0 -0.14491853697E+02 -0.28048922372E+02 -0.11418456432E+03  0.11846885919E+03  0.00000000000E+00 0. -1.
          1    1    1    2  502    0  0.14491853697E+02  0.28048922372E+02 -0.28068470439E+03  0.28245470282E+03  0.00000000000E+00 0.  1.
</event>
<event>
 4    1  0.3593938E+003  0.4656255E+02  0.7546771E-02  0.1313806E+00
          2   -1    0    0  502    0  0.00000000000E+00  0.00000000000E+00  0.95103793962E+02  0.95103793962E+02  0.00000000000E+00 0. -1.
          1   -1    0    0  501    0 -0.00000000000E+00 -0.00000000000E+00 -0.37798537396E+02  0.37798537396E+02  0.00000000000E+00 0.  1.
          2    1    1    2  501    0 -0.23691947149E+02  0.40084447048E+02  0.70516028814E+02  0.84501961956E+02  0.00000000000E+00 0. -1.
          1    1    1    2  502    0  0.23691947149E+02 -0.40084447048E+02 -0.13210772247E+02  0.48400369402E+02  0.00000000000E+00 0.  1.
</event>
<event>
 4    1  0.3593938E+003  0.2344960E+02  0.7546771E-02  0.1486928E+00
          2   -1    0    0  502    0  0.00000000000E+00  0.00000000000E+00  0.14550089531E+04  0.14550089531E+04  0.00000000000E+00 0. -1.
          1   -1    0    0  501    0 -0.00000000000E+00 -0.00000000000E+00 -0.45485606817E+00  0.45485606817E+00  0.00000000000E+00 0.  1.
          2    1    1    2  501    0  0.23448000466E+02  0.27353540602E+00  0.10265632399E+04  0.10268310323E+04  0.00000000000E+00 0. -1.
          1    1    1    2  502    0 -0.23448000466E+02 -0.27353540602E+00  0.42799085714E+03  0.42863277679E+03  0.00000000000E+00 0.  1.
</event>
<event>
 4    1  0.3593938E+003  0.3189015E+02  0.7546771E-02  0.1403852E+00
          2   -1    0    0  502    0  0.00000000000E+00  0.00000000000E+00  0.15037428156E+03  0.15037428156E+03  0.00000000000E+00 0.  1.
          1   -1    0    0  501    0 -0.00000000000E+00 -0.00000000000E+00 -0.80431693573E+03  0.80431693573E+03  0.00000000000E+00 0.  1.
          2    1    1    2  501    0 -0.24048560696E+02  0.20943936929E+02  0.14836319324E+03  0.15175183318E+03  0.00000000000E+00 0.  1.
          1    1    1    2  502    0  0.24048560696E+02 -0.20943936929E+02 -0.80230584741E+03  0.80293938411E+03  0.00000000000E+00 0.  1.
</event>
<event>
 4    1  0.3593938E+003  0.2349254E+02  0.7546771E-02  0.1486404E+00
          2   -1    0    0  502    0  0.00000000000E+00  0.00000000000E+00  0.84437158952E+03  0.84437158952E+03  0.00000000000E+00 0.  1.
          1   -1    0    0  501    0 -0.00000000000E+00 -0.00000000000E+00 -0.11730169745E+02  0.11730169745E+02  0.00000000000E+00 0.  1.
          2    1    1    2  501    0 -0.19256384664E+02  0.13457003937E+02  0.83227486787E+03  0.83260636257E+03  0.00000000000E+00 0.  1.
          1    1    1    2  502    0  0.19256384664E+02 -0.13457003937E+02  0.36655189945E+00  0.23495396690E+02  0.00000000000E+00 0.  1.
</event>
<event>
 4    1  0.3593938E+003  0.2107478E+02  0.7546771E-02  0.1518200E+00
          2   -1    0    0  502    0  0.00000000000E+00  0.00000000000E+00  0.79490917821E+03  0.79490917821E+03  0.00000000000E+00 0. -1.
          1   -1    0    0  501    0 -0.00000000000E+00 -0.00000000000E+00 -0.68820871254E+00  0.68820871254E+00  0.00000000000E+00 0. -1.
          2    1    1    2  501    0 -0.12587228254E+02  0.16902896464E+02  0.56964996704E+03  0.57003967509E+03  0.00000000000E+00 0. -1.
          1    1    1    2  502    0  0.12587228254E+02 -0.16902896464E+02  0.22457100245E+03  0.22555771183E+03  0.00000000000E+00 0. -1.
</event>
<event>
 4    1  0.3593938E+003  0.2068183E+02  0.7546771E-02  0.1523856E+00
          2   -1    0    0  502    0  0.00000000000E+00  0.00000000000E+00  0.22469543691E+03  0.22469543691E+03  0.00000000000E+00 0.  1.
          1   -1    0    0  501    0 -0.00000000000E+00 -0.00000000000E+00 -0.22892783460E+02  0.22892783460E+02  0.00000000000E+00 0. -1.
          2    1    1    2  501    0 -0.13867196376E+02 -0.15344021188E+02  0.21943673256E+03  0.22040920516E+03  0.00000000000E+00 0.  1.
          1    1    1    2  502    0  0.13867196376E+02  0.15344021188E+02 -0.17634079114E+02  0.27179015209E+02  0.00000000000E+00 0. -1.
</event>
<event>
 4    1  0.3593938E+003  0.3277825E+02  0.7546771E-02  0.1396894E+00
          2   -1    0    0  502    0  0.00000000000E+00  0.00000000000E+00  0.70331272496E+03  0.70331272496E+03  0.00000000000E+00 0.  1.
          1   -1    0    0  501    0 -0.00000000000E+00 -0.00000000000E+00 -0.63747446511E+01  0.63747446511E+01  0.00000000000E+00 0. -1.
          2    1    1    2  501    0  0.16445833650E+02  0.28353976957E+02  0.65788774730E+03  0.65870380407E+03  0.00000000000E+00 0.  1.
          1    1    1    2  502    0 -0.16445833650E+02 -0.28353976957E+02  0.39050233016E+02  0.50983665544E+02  0.00000000000E+00 0. -1.
</event>
<event>
 4    1  0.3593938E+003  0.2238766E+02  0.7546771E-02  0.1500334E+00
          2   -1    0    0  502    0  0.00000000000E+00  0.00000000000E+00  0.82459400440E+02  0.82459400440E+02  0.00000000000E+00 0.  1.
          1   -1    0    0  501    0 -0.00000000000E+00 -0.00000000000E+00 -0.39688598747E+03  0.39688598747E+03  0.00000000000E+00 0. -1.
          2    1    1    2  501    0  0.20946512063E+02 -0.79026051791E+01  0.80617048349E+02  0.83667891217E+02  0.00000000000E+00 0.  1.
          1    1    1    2  502    0 -0.20946512063E+02  0.79026051791E+01 -0.39504363538E+03  0.39567749669E+03  0.00000000000E+00 0. -1.
</event>
<event>
 4    1  0.3593938E+003  0.6853262E+02  0.7546771E-02  0.1233307E+00
          2   -1    0    0  502    0  0.00000000000E+00  0.00000000000E+00  0.77887580682E+02  0.77887580682E+02  0.00000000000E+00 0.  1.
          1   -1    0    0  501    0 -0.00000000000E+00 -0.00000000000E+00 -0.33813050554E+03  0.33813050554E+03  0.00000000000E+00 0. -1.
          2    1    1    2  501    0  0.44343016830E+02  0.52253390066E+02  0.58429612384E+02  0.90059644227E+02  0.00000000000E+00 0.  1.
          1    1    1    2  502    0 -0.44343016830E+02 -0.52253390066E+02 -0.31867253725E+03  0.32595844200E+03  0.00000000000E+00 0. -1.
</event>
<event>
 4    1  0.3593938E+003  0.2864529E+02  0.7546771E-02  0.1431746E+00
          2   -1    0    0  502    0  0.00000000000E+00  0.00000000000E+00  0.44423954835E+03  0.44423954835E+03  0.00000000000E+00 0.  1.
          1   -1    0    0  501    0 -0.00000000000E+00 -0.00000000000E+00 -0.23785692983E+01  0.23785692983E+01  0.00000000000E+00 0.  1.
          2    1    1    2  501    0 -0.16055373139E+02  0.23722933109E+02  0.32648812420E+03  0.32774234973E+03  0.00000000000E+00 0.  1.
          1    1    1    2  502    0  0.16055373139E+02 -0.23722933109E+02  0.11537285485E+03  0.11887576792E+03  0.00000000000E+00 0.  1.
</event>
<event>
 4    1  0.3593938E+003  0.3410244E+02  0.7546771E-02  0.1386985E+00
          2   -1    0    0  502    0  0.00000000000E+00  0.00000000000E+00  0.12295705023E+01  0.12295705023E+01  0.00000000000E+00 0. -1.
          1   -1    0    0  501    0 -0.00000000000E+00 -0.00000000000E+00 -0.10069513637E+04  0.10069513637E+04  0.00000000000E+00 0.  1.
          2    1    1    2  501    0  0.18373250855E+02 -0.28729774542E+02 -0.37867646152E+03  0.38020894098E+03  0.00000000000E+00 0. -1.
          1    1    1    2  502    0 -0.18373250855E+02  0.28729774542E+02 -0.62704533171E+03  0.62797199326E+03  0.00000000000E+00 0.  1.
</event>
<event>
 4    1  0.3593938E+003  0.2655654E+02  0.7546771E-02  0.1452114E+00
          2   -1    0    0  502    0  0.00000000000E+00  0.00000000000E+00  0.11328600887E+04  0.11328600887E+04  0.00000000000E+00 0.  1.
          1   -1    0    0  501    0 -0.00000000000E+00 -0.00000000000E+00 -0.11347376986E+01  0.11347376986E+01  0.00000000000E+00 0.  1.
          2    1    1    2  501    0  0.13767379835E+02  0.22709233652E+02  0.94679901245E+03  0.94717137838E+03  0.00000000000E+00 0.  1.
          1    1    1    2  502    0 -0.13767379835E+02 -0.22709233652E+02  0.18492633855E+03  0.18682344802E+03  0.00000000000E+00 0.  1.
</event>
<event>
 4    1  0.3593938E+003  0.2495070E+02  0.7546771E-02  0.1469356E+00
          2   -1    0    0  502    0  0.00000000000E+00  0.00000000000E+00  0.20093578243E+03  0.20093578243E+03  0.00000000000E+00 0. -1.
          1   -1    0    0  501    0 -0.00000000000E+00 -0.00000000000E+00 -0.42063746417E+01  0.42063746417E+01  0.00000000000E+00 0. -1.
          2    1    1    2  501    0  0.24157326276E+02  0.62418762835E+01  0.15101209012E+03  0.15305942897E+03  0.00000000000E+00 0. -1.
          1    1    1    2  502    0 -0.24157326276E+02 -0.62418762835E+01  0.45717317665E+02  0.52082728104E+02  0.00000000000E+00 0. -1.
</event>
<event>
 4    1  0.3593938E+003  0.2235669E+02  0.7546771E-02  0.1500738E+00
          2   -1    0    0  502    0  0.00000000000E+00  0.00000000000E+00  0.14019217448E+04  0.14019217448E+04  0.00000000000E+00 0.  1.
          1   -1    0    0  501    0 -0.00000000000E+00 -0.00000000000E+00 -0.14809049189E+03  0.14809049189E+03  0.00000000000E+00 0. -1.
          2    1    1    2  501    0  0.18931688353E+02  0.11891707511E+02  0.14009882739E+04  0.14011666443E+04  0.00000000000E+00 0.  1.
          1    1    1    2  502    0 -0.18931688353E+02 -0.11891707511E+02 -0.14715702101E+03  0.14884559235E+03  0.00000000000E+00 0. -1.
</event>
<event>
 4    1  0.3593938E+003  0.2363545E+02  0.7546771E-02  0.1484669E+00
          2   -1    0    0  502    0  0.00000000000E+00  0.00000000000E+00  0.73358585047E+01  0.73358585047E+01  0.00000000000E+00 0. -1.
          1   -1    0    0  501    0 -0.00000000000E+00 -0.00000000000E+00 -0.48703053509E+03  0.48703053509E+03  0.00000000000E+00 0.  1.
          2    1    1    2  501    0 -0.13517501812E+02 -0.19388443883E+02 -0.12809634567E+02  0.26883477253E+02  0.00000000000E+00 0. -1.
          1    1    1    2  502    0  0.13517501812E+02  0.19388443883E+02 -0.46688504201E+03  0.46748291634E+03  0.00000000000E+00 0.  1.
</event>
<event>
 4    1  0.3593938E+003  0.2249439E+02  0.7546771E-02  0.1498947E+00
          2   -1    0    0  502    0  0.00000000000E+00  0.00000000000E+00  0.48913164368E+01  0.48913164368E+01  0.00000000000E+00 0. -1.
          1   -1    0    0  501    0 -0.00000000000E+00 -0.00000000000E+00 -0.19359045259E+03  0.19359045259E+03  0.00000000000E+00 0.  1.
          2    1    1    2  501    0  0.21611214408E+02 -0.62412382327E+01 -0.26630187128E+02  0.34859209821E+02  0.00000000000E+00 0. -1.
          1    1    1    2  502    0 -0.21611214408E+02  0.62412382327E+01 -0.16206894903E+03  0.16362255921E+03  0.00000000000E+00 0.  1.
</event>
<event>
 4    1  0.3593938E+003  0.2812537E+02  0.7546771E-02  0.1436620E+00
          2   -1    0    0  502    0  0.00000000000E+00  0.00000000000E+00  0.74118852565E+03  0.74118852565E+03  0.00000000000E+00 0.  1.
          1   -1    0    0  501    0 -0.00000000000E+00 -0.00000000000E+00 -0.19882784943E+01  0.19882784943E+01  0.00000000000E+00 0.  1.
          2    1    1    2  501    0  0.12456547539E+02 -0.25216484331E+02  0.62250607929E+03  0.62314111998E+03  0.00000000000E+00 0.  1.
          1    1    1    2  502    0 -0.12456547539E+02  0.25216484331E+02  0.11669416786E+03  0.12003568416E+03  0.00000000000E+00 0.  1.
</event>
<event>
 4    1  0.3593938E+003  0.2300872E+02  0.7546771E-02  0.1492389E+00
          2   -1    0    0  502    0  0.00000000000E+00  0.00000000000E+00  0.17730264966E+03  0.17730264966E+03  0.00000000000E+00 0. -1.
          1   -1    0    0  501    0 -0.00000000000E+00 -0.00000000000E+00 -0.12687595813E+02  0.12687595813E+02  0.00000000000E+00 0.  1.
          2    1    1    2  501    0  0.11173072286E+02  0.20113766254E+02  0.16537601989E+03  0.16696894649E+03  0.00000000000E+00 0. -1.
          1    1    1    2  502    0 -0.11173072286E+02 -0.20113766254E+02 -0.76096605001E+00  0.23021298977E+02  0.00000000000E+00 0.  1.
</event>
<event>
 4    1  0.3593938E+003  0.3882196E+02  0.7546771E-02  0.1355531E+00
          2   -1    0    0  502    0  0.00000000000E+00  0.00000000000E+00  0.24052765954E+04  0.24052765954E+04  0.00000000000E+00 0.  1.
          1   -1    0    0  501    0 -0.00000000000E+00 -0.00000000000E+00 -0.68306330003E+00  0.68306330003E+00  0.00000000000E+00 0.  1.
          2    1    1    2  501    0  0.36993220702E+02  0.11774795637E+02  0.15481679614E+04  0.15486546358E+04  0.00000000000E+00 0.  1.
          1    1    1    2  502    0 -0.36993220702E+02 -0.11774795637E+02  0.85642557066E+03  0.85730502289E+03  0.00000000000E+00 0.  1.
</event>
<event>
 4    1  0.3593938E+003  0.5268051E+02  0.7546771E-02  0.1286951E+00
          2   -1    0    0  502    0  0.00000000000E+00  0.00000000000E+00  0.79284374875E+03  0.79284374875E+03  0.00000000000E+00 0.  1.
          1   -1    0    0  501    0 -0.00000000000E+00 -0.00000000000E+00 -0.18235573685E+03  0.18235573685E+03  0.00000000000E+00 0. -1.
          2    1    1    2  501    0  0.39726623555E+02 -0.34598139219E+02  0.78814128355E+03  0.78989994220E+03  0.00000000000E+00 0.  1.
          1    1    1    2  502    0 -0.39726623555E+02  0.34598139219E+02 -0.17765327165E+03  0.18529954340E+03  0.00000000000E+00 0. -1.
</event>
<event>
 4    1  0.3593938E+003  0.2059036E+02  0.7546771E-02  0.1525195E+00
          2   -1    0    0  502    0  0.00000000000E+00  0.00000000000E+00  0.11735393575E+01  0.11735393575E+01  0.00000000000E+00 0. -1.
          1   -1    0    0  501    0 -0.00000000000E+00 -0.00000000000E+00 -0.39289864942E+03  0.39289864942E+03  0.00000000000E+00 0. -1.
          2    1    1    2  501    0 -0.14105810235E+02  0.14999613950E+02 -0.25176864034E+03  0.25260920521E+03  0.00000000000E+00 0. -1.
          1    1    1    2  502    0  0.14105810235E+02 -0.14999613950E+02 -0.13995646973E+03  0.14146298357E+03  0.00000000000E+00 0. -1.
</event>
<event>
 4    1  0.3593938E+003  0.2253225E+02  0.7546771E-02  0.1498457E+00
          2   -1    0    0  502    0  0.00000000000E+00  0.00000000000E+00  0.17952315376E+04  0.17952315376E+04  0.00000000000E+00 0.  1.
          1   -1    0    0  501    0 -0.00000000000E+00 -0.00000000000E+00 -0.42953611685E+00  0.42953611685E+00  0.00000000000E+00 0.  1.
          2    1    1    2  501    0 -0.92151583138E+00 -0.22513395048E+02  0.14221531730E+04  0.14223316596E+04  0.00000000000E+00 0.  1.
          1    1    1    2  502    0  0.92151583138E+00  0.22513395048E+02  0.37264882843E+03  0.37332941416E+03  0.00000000000E+00 0.  1.
</event>
<event>
 4    1  0.3593938E+003  0.2490573E+02  0.7546771E-02  0.1469861E+00
          2   -1    0    0  502    0  0.00000000000E+00  0.00000000000E+00  0.76329359414E+03  0.76329359414E+03  0.00000000000E+00 0. -1.
          1   -1    0    0  501    0 -0.00000000000E+00 -0.00000000000E+00 -0.22956085045E+01  0.22956085045E+01  0.00000000000E+00 0. -1.
          2    1    1    2  501    0  0.24546556809E+02  0.42144641994E+01  0.68816570090E+03  0.68861624077E+03  0.00000000000E+00 0. -1.
          1    1    1    2  502    0 -0.24546556809E+02 -0.42144641994E+01  0.72832284738E+02  0.76972961875E+02  0.00000000000E+00 0. -1.
</event>
<event>
 4    1  0.3593938E+003  0.2537812E+02  0.7546771E-02  0.1464617E+00
          2   -1    0    0  502    0  0.00000000000E+00  0.00000000000E+00  0.95068689375E+01  0.95068689375E+01  0.00000000000E+00 0.  1.
          1   -1    0    0  501    0 -0.00000000000E+00 -0.00000000000E+00 -0.13915784424E+04  0.13915784424E+04  0.00000000000E+00 0.  1.
          2    1    1    2  501    0  0.15753076530E+01 -0.25329183545E+02 -0.77579976701E+01  0.26537438857E+02  0.00000000000E+00 0.  1.
          1    1    1    2  502    0 -0.15753076530E+01  0.25329183545E+02 -0.13743135757E+04  0.13745478724E+04  0.00000000000E+00 0.  1.
</event>
<event>
 4    1  0.3593938E+003  0.4973097E+02  0.7546771E-02  0.1299343E+00
          2   -1    0    0  502    0  0.00000000000E+00  0.00000000000E+00  0.12805266726E+04  0.12805266726E+04  0.00000000000E+00 0. -1.
          1   -1    0    0  501    0 -0.00000000000E+00 -0.00000000000E+00 -0.25775944815E+01  0.25775944815E+01  0.00000000000E+00 0.  1.
          2    1    1    2  501    0  0.43111194887E+02 -0.24791014166E+02  0.96020498402E+03  0.96149195569E+03  0.00000000000E+00 0. -1.
          1    1    1    2  502    0 -0.43111194887E+02  0.24791014166E+02  0.31774409408E+03  0.32161231138E+03  0.00000000000E+00 0.  1.
</event>
<event>
 4    1  0.3593938E+003  0.2502804E+02  0.7546771E-02  0.1468490E+00
          2   -1    0    0  502    0  0.00000000000E+00  0.00000000000E+00  0.22312752242E+03  0.22312752242E+03  0.00000000000E+00 0. -1.
          1   -1    0    0  501    0 -0.00000000000E+00 -0.00000000000E+00 -0.40378644634E+02  0.40378644634E+02  0.00000000000E+00 0.  1.
          2    1    1    2  501    0  0.24377494047E+02  0.56692630628E+01  0.21846486969E+03  0.21989384268E+03  0.00000000000E+00 0. -1.
          1    1    1    2  502    0 -0.24377494047E+02 -0.56692630628E+01 -0.35715991903E+02  0.43612324374E+02  0.00000000000E+00 0.  1.
</event>
<event>
 4    1  0.3593938E+003  0.2289904E+02  0.7546771E-02  0.1493770E+00
          2   -1    0    0  502    0  0.00000000000E+00  0.00000000000E+00  0.85993166106E+03  0.85993166106E+03  0.00000000000E+00 0.  1.
          1   -1    0    0  501    0 -0.00000000000E+00 -0.00000000000E+00 -0.16446322656E+01  0.16446322656E+01  0.00000000000E+00 0.  1.
          2    1    1    2  501    0 -0.18177398945E+02 -0.13926528505E+02  0.77086263147E+03  0.77120267286E+03  0.00000000000E+00 0.  1.
          1    1    1    2  502    0  0.18177398945E+02  0.13926528505E+02  0.87424397322E+02  0.90373620464E+02  0.00000000000E+00 0.  1.
</event>
<event>
 4    1  0.3593938E+003  0.2620224E+02  0.7546771E-02  0.1455791E+00
          2   -1    0    0  502    0  0.00000000000E+00  0.00000000000E+00  0.23695803739E+03  0.23695803739E+03  0.00000000000E+00 0.  1.
          1   -1    0    0  501    0 -0.00000000000E+00 -0.00000000000E+00 -0.15804931249E+02  0.15804931249E+02  0.00000000000E+00 0.  1.
          2    1    1    2  501    0 -0.77507295893E+01  0.25029656538E+02  0.22478785247E+03  0.22630982333E+03  0.00000000000E+00 0.  1.
          1    1    1    2  502    0  0.77507295893E+01 -0.25029656538E+02 -0.36347463381E+01  0.26453145305E+02  0.00000000000E+00 0.  1.
</event>
<event>
 4    1  0.3593938E+003  0.2689814E+02  0.7546771E-02  0.1448634E+00
          2   -1    0    0  502    0  0.00000000000E+00  0.00000000000E+00  0.60652115295E+03  0.60652115295E+03  0.00000000000E+00 0.  1.
          1   -1    0    0  501    0 -0.00000000000E+00 -0.00000000000E+00 -0.17037240009E+01  0.17037240009E+01  0.00000000000E+00 0. -1.
          2    1    1    2  501    0 -0.96355323935E+01 -0.25113070110E+02  0.46893267595E+03  0.46970348557E+03  0.00000000000E+00 0.  1.
          1    1    1    2  502    0  0.96355323935E+01  0.25113070110E+02  0.13588475299E+03  0.13852139138E+03  0.00000000000E+00 0. -1.
</event>
<event>
 4    1  0.3593938E+003  0.2240103E+02  0.7546771E-02  0.1500160E+00
          2   -1    0    0  502    0  0.00000000000E+00  0.00000000000E+00  0.11077038045E+04  0.11077038045E+04  0.00000000000E+00 0. -1.
          1   -1    0    0  501    0 -0.00000000000E+00 -0.00000000000E+00 -0.64067334234E+00  0.64067334234E+00  0.00000000000E+00 0. -1.
          2    1    1    2  501    0 -0.21612657030E+02 -0.58906136974E+01  0.85345510306E+03  0.85374903760E+03  0.00000000000E+00 0. -1.
          1    1    1    2  502    0  0.21612657030E+02  0.58906136974E+01  0.25360802807E+03  0.25459544020E+03  0.00000000000E+00 0. -1.
</event>
<event>
 4    1  0.3593938E+003  0.2066639E+02  0.7546771E-02  0.1524082E+00
          2   -1    0    0  502    0  0.00000000000E+00  0.00000000000E+00  0.57854252513E+03  0.57854252513E+03  0.00000000000E+00 0.  1.
          1   -1    0    0  501    0 -0.00000000000E+00 -0.00000000000E+00 -0.96692344870E+02  0.96692344870E+02  0.00000000000E+00 0. -1.
          2    1    1    2  501    0  0.70709249722E+01  0.19419103147E+02  0.57725122281E+03  0.57762104687E+03  0.00000000000E+00 0.  1.
          1    1    1    2  502    0 -0.70709249722E+01 -0.19419103147E+02 -0.95401042550E+02  0.97613823133E+02  0.00000000000E+00 0. -1.
</event>
<event>
 4    1  0.3593938E+003  0.9500843E+02  0.7546771E-02  0.1172750E+00
          2   -1    0    0  502    0  0.00000000000E+00  0.00000000000E+00  0.92715378149E+02  0.92715378149E+02  0.00000000000E+00 0. -1.
          1   -1    0    0  501    0 -0.00000000000E+00 -0.00000000000E+00 -0.26501804952E+03  0.26501804952E+03  0.00000000000E+00 0.  1.
          2    1    1    2  501    0  0.94352445808E+02 -0.11145334878E+02  0.56116372297E+02  0.11034332675E+03  0.00000000000E+00 0. -1.
          1    1    1    2  502    0 -0.94352445808E+02  0.11145334878E+02 -0.22841904367E+03  0.24739010092E+03  0.00000000000E+00 0.  1.
</event>
<event>
 4    1  0.3593938E+003  0.2325499E+02  0.7546771E-02  0.1489321E+00
          2   -1    0    0  502    0  0.00000000000E+00  0.00000000000E+00  0.16017688836E+03  0.16017688836E+03  0.00000000000E+00 0. -1.
          1   -1    0    0  501    0 -0.00000000000E+00 -0.00000000000E+00 -0.56233215702E+02  0.56233215702E+02  0.00000000000E+00 0. -1.
          2    1    1    2  501    0  0.18383893576E+02  0.14241738068E+02  0.15687830271E+03  0.15859254872E+03  0.00000000000E+00 0. -1.
          1    1    1    2  502    0 -0.18383893576E+02 -0.14241738068E+02 -0.52934630059E+02  0.57817555341E+02  0.00000000000E+00 0. -1.
</event>
<event>
 4    1  0.3593938E+003  0.5874505E+02  0.7546771E-02  0.1264157E+00
          2   -1    0    0  502    0  0.00000000000E+00  0.00000000000E+00  0.33664886667E+03  0.33664886667E+03  0.00000000000E+00 0.  1.
          1   -1    0    0  501    0 -0.00000000000E+00 -0.00000000000E+00 -0.12980453034E+02  0.12980453034E+02  0.00000000000E+00 0.  1.
          2    1    1    2  501    0 -0.39888160925E+01 -0.58609468622E+02  0.24199691988E+03  0.24902507846E+03  0.00000000000E+00 0.  1.
          1    1    1    2  502    0  0.39888160925E+01  0.58609468622E+02  0.81671493754E+02  0.10060424125E+03  0.00000000000E+00 0.  1.
</event>
<event>
 4    1  0.3593938E+003  0.2052265E+02  0.7546771E-02  0.1526190E+00
          2   -1    0    0  502    0  0.00000000000E+00  0.00000000000E+00  0.30721437524E+03  0.30721437524E+03  0.00000000000E+00 0.  1.
          1   -1    0    0  501    0 -0.00000000000E+00 -0.00000000000E+00 -0.79144255023E+01  0.79144255023E+01  0.00000000000E+00 0. -1.
          2    1    1    2  501    0  0.10037875270E+02 -0.17900287714E+02  0.29291897991E+03  0.29363703450E+03  0.00000000000E+00 0.  1.
          1    1    1    2  502    0 -0.10037875270E+02  0.17900287714E+02  0.63809698285E+01  0.21491766240E+02  0.00000000000E+00 0. -1.
</event>
<event>
 4    1  0.3593938E+003  0.3661275E+02  0.7546771E-02  0.1369566E+00
          2   -1    0    0  502    0  0.00000000000E+00  0.00000000000E+00  0.41882418398E+01  0.41882418398E+01  0.00000000000E+00 0. -1.
          1   -1    0    0  501    0 -0.00000000000E+00 -0.00000000000E+00 -0.50296299749E+03  0.50296299749E+03  0.00000000000E+00 0. -1.
          2    1    1    2  501    0 -0.33404548460E+02  0.14987640783E+02 -0.96472902431E+02  0.10318679246E+03  0.00000000000E+00 0. -1.
          1    1    1    2  502    0  0.33404548460E+02 -0.14987640783E+02 -0.40230185321E+03  0.40396444687E+03  0.00000000000E+00 0. -1.
</event>
<event>
 4    1  0.3593938E+003  0.2867683E+02  0.7546771E-02  0.1431454E+00
          2   -1    0    0  502    0  0.00000000000E+00  0.00000000000E+00  0.78742172192E+03  0.78742172192E+03  0.00000000000E+00 0. -1.
          1   -1    0    0  501    0 -0.00000000000E+00 -0.00000000000E+00 -0.13697473044E+01  0.13697473044E+01  0.00000000000E+00 0. -1.
          2    1    1    2  501    0 -0.27999633367E+02 -0.61952576048E+01  0.58524870396E+03  0.58595085644E+03  0.00000000000E+00 0. -1.
          1    1    1    2  502    0  0.27999633367E+02  0.61952576048E+01  0.20080327066E+03  0.20284061278E+03  0.00000000000E+00 0. -1.
</event>
<event>
 4    1  0.3593938E+003  0.2248008E+02  0.7546771E-02  0.1499132E+00
          2   -1    0    0  502    0  0.00000000000E+00  0.00000000000E+00  0.14008298755E+04  0.14008298755E+04  0.00000000000E+00 0.  1.
          1   -1    0    0  501    0 -0.00000000000E+00 -0.00000000000E+00 -0.38678416545E+01  0.38678416545E+01  0.00000000000E+00 0. -1.
          2    1    1    2  501    0  0.52905267841E+01  0.21848665574E+02  0.13672742922E+04  0.13674590831E+04  0.00000000000E+00 0.  1.
          1    1    1    2  502    0 -0.52905267841E+01 -0.21848665574E+02  0.29687741599E+02  0.37238634001E+02  0.00000000000E+00 0. -1.
</event>
<event>
 4    1  0.3593938E+003  0.2027598E+02  0.7546771E-02  0.1529858E+00
          2   -1    0    0  502    0  0.00000000000E+00  0.00000000000E+00  0.87642465611E+01  0.87642465611E+01  0.00000000000E+00 0. -1.
          1   -1    0    0  501    0 -0.00000000000E+00 -0.00000000000E+00 -0.18938075843E+03  0.18938075843E+03  0.00000000000E+00 0.  1.
          2    1    1    2  501    0  0.15028813666E+02 -0.13610665481E+02 -0.43770819583E+01  0.20743054296E+02  0.00000000000E+00 0. -1.
          1    1    1    2  502    0 -0.15028813666E+02  0.13610665481E+02 -0.17623942991E+03  0.17740195069E+03  0.00000000000E+00 0.  1.
</event>
<event>
 4    1  0.3593938E+003  0.2290335E+02  0.7546771E-02  0.1493715E+00
          2   -1    0    0  502    0  0.00000000000E+00  0.00000000000E+00  0.46249653013E+00  0.46249653013E+00  0.00000000000E+00 0. -1.
          1   -1    0    0  501    0 -0.00000000000E+00 -0.00000000000E+00 -0.12534139694E+04  0.12534139694E+04  0.00000000000E+00 0. -1.
          2    1    1    2  501    0 -0.78096511727E+01  0.21530735348E+02 -0.43312651098E+03  0.43373164253E+03  0.00000000000E+00 0. -1.
          1    1    1    2  502    0  0.78096511727E+01 -0.21530735348E+02 -0.81982496188E+03  0.82014482339E+03  0.00000000000E+00 0. -1.
</event>
<event>
 4    1  0.3593938E+003  0.3233288E+02  0.7546771E-02  0.1400350E+00
          2   -1    0    0  502    0  0.00000000000E+00  0.00000000000E+00  0.18414499055E+01  0.18414499055E+01  0.00000000000E+00 0. -1.
          1   -1    0    0  501    0 -0.00000000000E+00 -0.00000000000E+00 -0.24345913854E+04  0.24345913854E+04  0.00000000000E+00 0.  1.
          2    1    1    2  501    0 -0.30173716223E+02 -0.11617321604E+02 -0.14960837960E+03  0.15306234860E+03  0.00000000000E+00 0. -1.
          1    1    1    2  502    0  0.30173716223E+02  0.11617321604E+02 -0.22831415559E+04  0.22833704867E+04  0.00000000000E+00 0.  1.
</event>
<event>
 4    1  0.3593938E+003  0.3441648E+02  0.7546771E-02  0.1384713E+00
          2   -1    0    0  502    0  0.00000000000E+00  0.00000000000E+00  0.55685721542E+01  0.55685721542E+01  0.00000000000E+00 0.  1.
          1   -1    0    0  501    0 -0.00000000000E+00 -0.00000000000E+00 -0.37502342538E+03  0.37502342538E+03  0.00000000000E+00 0.  1.
          2    1    1    2  501    0  0.28160978466E+02 -0.19785176779E+02 -0.59535312763E+02  0.68767342497E+02  0.00000000000E+00 0.  1.
          1    1    1    2  502    0 -0.28160978466E+02  0.19785176779E+02 -0.30991954046E+03  0.31182465503E+03  0.00000000000E+00 0.  1.
</event>
<event>
 4    1  0.3593938E+003  0.2097224E+02  0.7546771E-02  0.1519662E+00
          2   -1    0    0  502    0  0.00000000000E+00  0.00000000000E+00  0.77709638943E+03  0.77709638943E+03  0.00000000000E+00 0.  1.
          1   -1    0    0  501    0 -0.00000000000E+00 -0.00000000000E+00 -0.11235729466E+02  0.11235729466E+02  0.00000000000E+00 0. -1.
          2    1    1    2  501    0  0.55512162333E+01 -0.20224210760E+02  0.76704008895E+03  0.76732674446E+03  0.00000000000E+00 0.  1.
          1    1    1    2  502    0 -0.55512162333E+01  0.20224210760E+02 -0.11794289874E+01  0.21005374438E+02  0.00000000000E+00 0. -1.
</event>
<event>
 4    1  0.3593938E+003  0.2168435E+02  0.7546771E-02  0.1509714E+00
          2   -1    0    0  502    0  0.00000000000E+00  0.00000000000E+00  0.88909741118E+03  0.88909741118E+03  0.00000000000E+00 0. -1.
          1   -1    0    0  501    0 -0.00000000000E+00 -0.00000000000E+00 -0.20526710431E+01  0.20526710431E+01  0.00000000000E+00 0.  1.
          2    1    1    2  501    0 -0.67538044884E+01 -0.20605750938E+02  0.82742959826E+03  0.82771368898E+03  0.00000000000E+00 0. -1.
          1    1    1    2  502    0  0.67538044884E+01  0.20605750938E+02  0.59615141877E+02  0.63436393244E+02  0.00000000000E+00 0.  1.
</event>
<event>
 4    1  0.3593938E+003  0.2358694E+02  0.7546771E-02  0.1485256E+00
          2   -1    0    0  502    0  0.00000000000E+00  0.00000000000E+00  0.21015118383E+03  0.21015118383E+03  0.00000000000E+00 0.  1.
          1   -1    0    0  501    0 -0.00000000000E+00 -0.00000000000E+00 -0.42593924927E+01  0.42593924927E+01  0.00000000000E+00 0.  1.
          2    1    1    2  501    0  0.23505462168E+02 -0.19588766265E+01  0.16889827746E+03  0.17053730407E+03  0.00000000000E+00 0.  1.
          1    1    1    2  502    0 -0.23505462168E+02  0.19588766265E+01  0.36993513872E+02  0.43873272251E+02  0.00000000000E+00 0.  1.
</event>
<event>
 4    1  0.3593938E+003  0.2126670E+02  0.7546771E-02  0.1515491E+00
          2   -1    0    0  502    0  0.00000000000E+00  0.00000000000E+00  0.12723173875E+03  0.12723173875E+03  0.00000000000E+00 0. -1.
          1   -1    0    0  501    0 -0.00000000000E+00 -0.00000000000E+00 -0.11148684912E+02  0.11148684912E+02  0.00000000000E+00 0.  1.
          2    1    1    2  501    0 -0.37476442468E+00  0.21263397112E+02  0.11514562679E+03  0.11709307355E+03  0.00000000000E+00 0. -1.
          1    1    1    2  502    0  0.37476442468E+00 -0.21263397112E+02  0.93742704675E+00  0.21287350108E+02  0.00000000000E+00 0.  1.
</event>
<event>
 4    1  0.3593938E+003  0.5871531E+02  0.7546771E-02  0.1264261E+00
          2   -1    0    0  502    0  0.00000000000E+00  0.00000000000E+00  0.13611629742E+03  0.13611629742E+03  0.00000000000E+00 0.  1.
          1   -1    0    0  501    0 -0.00000000000E+00 -0.00000000000E+00 -0.40605967079E+02  0.40605967079E+02  0.00000000000E+00 0.  1.
          2    1    1    2  501    0  0.50995343756E+02  0.29102612649E+02  0.10195601111E+03  0.11765421943E+03  0.00000000000E+00 0.  1.
          1    1    1    2  502    0 -0.50995343756E+02 -0.29102612649E+02 -0.64456807696E+01  0.59068045070E+02  0.00000000000E+00 0.  1.
</event>
<event>
 4    1  0.3593938E+003  0.3506333E+02  0.7546771E-02  0.1380118E+00
          2   -1    0    0  502    0  0.00000000000E+00  0.00000000000E+00  0.32207811281E+02  0.32207811281E+02  0.00000000000E+00 0. -1.
          1   -1    0    0  501    0 -0.00000000000E+00 -0.00000000000E+00 -0.78082522072E+02  0.78082522072E+02  0.00000000000E+00 0.  1.
          2    1    1    2  501    0 -0.22001945155E+02 -0.27301131987E+02  0.16487862500E+02  0.38746445104E+02  0.00000000000E+00 0. -1.
          1    1    1    2  502    0  0.22001945155E+02  0.27301131987E+02 -0.62362573291E+02  0.71543888250E+02  0.00000000000E+00 0.  1.
</event>
<event>
 4    1  0.3593938E+003  0.2185431E+02  0.7546771E-02  0.1507409E+00
          2   -1    0    0  502    0  0.00000000000E+00  0.00000000000E+00  0.90670787818E+03  0.90670787818E+03  0.00000000000E+00 0. -1.
          1   -1    0    0  501    0 -0.00000000000E+00 -0.00000000000E+00 -0.11793790173E+01  0.11793790173E+01  0.00000000000E+00 0.  1.
          2    1    1    2  501    0  0.18190252559E+02 -0.12113026594E+02  0.79044597828E+03  0.79074803527E+03  0.00000000000E+00 0. -1.
          1    1    1    2  502    0 -0.18190252559E+02  0.12113026594E+02  0.11508252088E+03  0.11713922193E+03  0.00000000000E+00 0.  1.
</event>
<event>
 4    1  0.3593938E+003  0.8774714E+02  0.7546771E-02  0.1186921E+00
          2   -1    0    0  502    0  0.00000000000E+00  0.00000000000E+00  0.89495608609E+01  0.89495608609E+01  0.00000000000E+00 0. -1.
          1   -1    0    0  501    0 -0.00000000000E+00 -0.00000000000E+00 -0.90721259334E+03  0.90721259334E+03  0.00000000000E+00 0. -1.
          2    1    1    2  501    0  0.81600302935E+02  0.32263667505E+02 -0.55326850700E+03  0.56018353646E+03  0.00000000000E+00 0. -1.
          1    1    1    2  502    0 -0.81600302935E+02 -0.32263667505E+02 -0.34499452548E+03  0.35597861774E+03  0.00000000000E+00 0. -1.
</event>
<event>
 4    1  0.3593938E+003  0.2327097E+02  0.7546771E-02  0.1489123E+00
          2   -1    0    0  502    0  0.00000000000E+00  0.00000000000E+00  0.65235352687E+03  0.65235352687E+03  0.00000000000E+00 0.  1.
          1   -1    0    0  501    0 -0.00000000000E+00 -0.00000000000E+00 -0.32978251582E+01  0.32978251582E+01  0.00000000000E+00 0.  1.
          2    1    1    2  501    0  0.22352464115E+02 -0.64734429109E+01  0.60810740965E+03  0.60855251193E+03  0.00000000000E+00 0.  1.
          1    1    1    2  502    0 -0.22352464115E+02  0.64734429109E+01  0.40948292069E+02  0.47098840097E+02  0.00000000000E+00 0.  1.
</event>
<event>
 4    1  0.3593938E+003  0.2025307E+02  0.7546771E-02  0.1530202E+00
          2   -1    0    0  502    0  0.00000000000E+00  0.00000000000E+00  0.15541094188E+04  0.15541094188E+04  0.00000000000E+00 0. -1.
          1   -1    0    0  501    0 -0.00000000000E+00 -0.00000000000E+00 -0.63956118833E+00  0.63956118833E+00  0.00000000000E+00 0.  1.
          2    1    1    2  501    0 -0.14896007314E+02 -0.13722093460E+02  0.13724876644E+04  0.13726370882E+04  0.00000000000E+00 0. -1.
          1    1    1    2  502    0  0.14896007314E+02  0.13722093460E+02  0.18098219320E+03  0.18211189181E+03  0.00000000000E+00 0.  1.
</event>
<event>
 4    1  0.3593938E+003  0.2101127E+02  0.7546771E-02  0.1519104E+00
          2   -1    0    0  502    0  0.00000000000E+00  0.00000000000E+00  0.85374346923E+03  0.85374346923E+03  0.00000000000E+00 0. -1.
          1   -1    0    0  501    0 -0.00000000000E+00 -0.00000000000E+00 -0.15353179880E+01  0.15353179880E+01  0.00000000000E+00 0. -1.
          2    1    1    2  501    0 -0.18999144081E+02 -0.89725148197E+01  0.77435977413E+03  0.77464477878E+03  0.00000000000E+00 0. -1.
          1    1    1    2  502    0  0.18999144081E+02  0.89725148197E+01  0.77848377105E+02  0.80634008432E+02  0.00000000000E+00 0. -1.
</event>
<event>
 4    1  0.3593938E+003  0.2211917E+02  0.7546771E-02  0.1503865E+00
          2   -1    0    0  502    0  0.00000000000E+00  0.00000000000E+00  0.23875532570E+01  0.23875532570E+01  0.00000000000E+00 0. -1.
          1   -1    0    0  501    0 -0.00000000000E+00 -0.00000000000E+00 -0.69586471327E+03  0.69586471327E+03  0.00000000000E+00 0. -1.
          2    1    1    2  501    0 -0.13956963153E+02  0.17159856739E+02 -0.53489790297E+02  0.57882770923E+02  0.00000000000E+00 0. -1.
          1    1    1    2  502    0  0.13956963153E+02 -0.17159856739E+02 -0.63998736972E+03  0.64036949560E+03  0.00000000000E+00 0. -1.
</event>
<event>
 4    1  0.3593938E+003  0.2520616E+02  0.7546771E-02  0.1466510E+00
          2   -1    0    0  502    0  0.00000000000E+00  0.00000000000E+00  0.52514070553E+01  0.52514070553E+01  0.00000000000E+00 0.  1.
          1   -1    0    0  501    0 -0.00000000000E+00 -0.00000000000E+00 -0.14412294297E+04  0.14412294297E+04  0.00000000000E+00 0.  1.
          2    1    1    2  501    0 -0.75373046162E+01 -0.24052853097E+02 -0.25770815663E+02  0.36048379199E+02  0.00000000000E+00 0.  1.
          1    1    1    2  502    0  0.75373046162E+01  0.24052853097E+02 -0.14102072070E+04  0.14104324576E+04  0.00000000000E+00 0.  1.
</event>
<event>
 4    1  0.3593938E+003  0.2016328E+02  0.7546771E-02  0.1531554E+00
          2   -1    0    0  502    0  0.00000000000E+00  0.00000000000E+00  0.51310563525E+01  0.51310563525E+01  0.00000000000E+00 0. -1.
          1   -1    0    0  501    0 -0.00000000000E+00 -0.00000000000E+00 -0.24581856285E+03  0.24581856285E+03  0.00000000000E+00 0. -1.
          2    1    1    2  501    0  0.84470426541E+01 -0.18308616996E+02 -0.17052011183E+02  0.26406989062E+02  0.00000000000E+00 0. -1.
          1    1    1    2  502    0 -0.84470426541E+01  0.18308616996E+02 -0.22363549532E+03  0.22454263014E+03  0.00000000000E+00 0. -1.
</event>
<event>
 4    1  0.3593938E+003  0.3929153E+02  0.7546771E-02  0.1352688E+00
          2   -1    0    0  502    0  0.00000000000E+00  0.00000000000E+00  0.92753395343E+02  0.92753395343E+02  0.00000000000E+00 0. -1.
          1   -1    0    0  501    0 -0.00000000000E+00 -0.00000000000E+00 -0.17882175228E+02  0.17882175228E+02  0.00000000000E+00 0.  1.
          2    1    1    2  501    0  0.38161688336E+02  0.93546700114E+01  0.51989399344E+02  0.65166877721E+02  0.00000000000E+00 0. -1.
          1    1    1    2  502    0 -0.38161688336E+02 -0.93546700114E+01  0.22881820772E+02  0.45468692850E+02  0.00000000000E+00 0.  1.
</event>
<event>
 4    1  0.3593938E+003  0.6589298E+02  0.7546771E-02  0.1241026E+00
          2   -1    0    0  502    0  0.00000000000E+00  0.00000000000E+00  0.49443518421E+03  0.49443518421E+03  0.00000000000E+00 0. -1.
          1   -1    0    0  501    0 -0.00000000000E+00 -0.00000000000E+00 -0.98678021992E+01  0.98678021992E+01  0.00000000000E+00 0. -1.
          2    1    1    2  501    0  0.60711311613E+02 -0.25612831539E+02  0.15862183518E+03  0.17176369551E+03  0.00000000000E+00 0. -1.
          1    1    1    2  502    0 -0.60711311613E+02  0.25612831539E+02  0.32594554683E+03  0.33253929091E+03  0.00000000000E+00 0. -1.
</event>
<event>
 4    1  0.3593938E+003  0.2494257E+02  0.7546771E-02  0.1469447E+00
          2   -1    0    0  502    0  0.00000000000E+00  0.00000000000E+00  0.26599616958E+02  0.26599616958E+02  0.00000000000E+00 0. -1.
          1   -1    0    0  501    0 -0.00000000000E+00 -0.00000000000E+00 -0.10286964877E+03  0.10286964877E+03  0.00000000000E+00 0. -1.
          2    1    1    2  501    0 -0.22376103276E+02  0.11020069277E+02  0.18766577992E+02  0.31214041299E+02  0.00000000000E+00 0. -1.
          1    1    1    2  502    0  0.22376103276E+02 -0.11020069277E+02 -0.95036609802E+02  0.98255224428E+02  0.00000000000E+00 0. -1.
</event>
<event>
 4    1  0.3593938E+003  0.2879569E+02  0.7546771E-02  0.1430359E+00
          2   -1    0    0  502    0  0.00000000000E+00  0.00000000000E+00  0.24855960620E+02  0.24855960620E+02  0.00000000000E+00 0.  1.
          1   -1    0    0  501    0 -0.00000000000E+00 -0.00000000000E+00 -0.21792643382E+03  0.21792643382E+03  0.00000000000E+00 0. -1.
          2    1    1    2  501    0 -0.16886057822E+02  0.23324945638E+02  0.15179053996E+02  0.32551431888E+02  0.00000000000E+00 0.  1.
          1    1    1    2  502    0  0.16886057822E+02 -0.23324945638E+02 -0.20824952720E+03  0.21023096256E+03  0.00000000000E+00 0. -1.
</event>
<event>
 4    1  0.3593938E+003  0.8003440E+02  0.7546771E-02  0.1203768E+00
          2   -1    0    0  502    0  0.00000000000E+00  0.00000000000E+00  0.15618218803E+02  0.15618218803E+02  0.00000000000E+00 0. -1.
          1   -1    0    0  501    0 -0.00000000000E+00 -0.00000000000E+00 -0.41354123605E+03  0.41354123605E+03  0.00000000000E+00 0.  1.
          2    1    1    2  501    0  0.36434197350E+01  0.79951422794E+02 -0.17947351709E+03  0.19651017239E+03  0.00000000000E+00 0. -1.
          1    1    1    2  502    0 -0.36434197350E+01 -0.79951422794E+02 -0.21844950016E+03  0.23264928247E+03  0.00000000000E+00 0.  1.
</event>
<event>
 4    1  0.3593938E+003  0.2568348E+02  0.7546771E-02  0.1461301E+00
          2   -1    0    0  502    0  0.00000000000E+00  0.00000000000E+00  0.30452200379E+03  0.30452200379E+03  0.00000000000E+00 0.  1.
          1   -1    0    0  501    0 -0.00000000000E+00 -0.00000000000E+00 -0.92051443082E+01  0.92051443082E+01  0.00000000000E+00 0.  1.
          2    1    1    2  501    0 -0.81600391741E+01  0.24352717638E+02  0.28482934474E+03  0.28598495891E+03  0.00000000000E+00 0.  1.
          1    1    1    2  502    0  0.81600391741E+01 -0.24352717638E+02  0.10487514741E+02  0.27742189191E+02  0.00000000000E+00 0.  1.
</event>
<event>
 4    1  0.3593938E+003  0.2129206E+02  0.7546771E-02  0.1515136E+00
          2   -1    0    0  502    0  0.00000000000E+00  0.00000000000E+00  0.11296132702E+01  0.11296132702E+01  0.00000000000E+00 0.  1.
          1   -1    0    0  501    0 -0.00000000000E+00 -0.00000000000E+00 -0.82027981261E+03  0.82027981261E+03  0.00000000000E+00 0.  1.
          2    1    1    2  501    0  0.18370817202E+02  0.10764046983E+02 -0.11606174381E+03  0.11799864410E+03  0.00000000000E+00 0.  1.
          1    1    1    2  502    0 -0.18370817202E+02 -0.10764046983E+02 -0.70308845552E+03  0.70341078178E+03  0.00000000000E+00 0.  1.
</event>
<event>
 4    1  0.3593938E+003  0.4490666E+02  0.7546771E-02  0.1321907E+00
          2   -1    0    0  502    0  0.00000000000E+00  0.00000000000E+00  0.15812127134E+02  0.15812127134E+02  0.00000000000E+00 0. -1.
          1   -1    0    0  501    0 -0.00000000000E+00 -0.00000000000E+00 -0.14600447201E+04  0.14600447201E+04  0.00000000000E+00 0.  1.
          2    1    1    2  501    0 -0.94209632761E+01  0.43907333399E+02 -0.17153397252E+02  0.48071275337E+02  0.00000000000E+00 0. -1.
          1    1    1    2  502    0  0.94209632761E+01 -0.43907333399E+02 -0.14270791957E+04  0.14277855718E+04  0.00000000000E+00 0.  1.
</event>
<event>
 4    1  0.3593938E+003  0.2242389E+02  0.7546771E-02  0.1499862E+00
          2   -1    0    0  502    0  0.00000000000E+00  0.00000000000E+00  0.11150750907E+04  0.11150750907E+04  0.00000000000E+00 0. -1.
          1   -1    0    0  501    0 -0.00000000000E+00 -0.00000000000E+00 -0.51732661894E+00  0.51732661894E+00  0.00000000000E+00 0.  1.
          2    1    1    2  501    0  0.16893219096E+02  0.14746179568E+02  0.75709808787E+03  0.75743009270E+03  0.00000000000E+00 0. -1.
          1    1    1    2  502    0 -0.16893219096E+02 -0.14746179568E+02  0.35745967622E+03  0.35816232464E+03  0.00000000000E+00 0.  1.
</event>
<event>
 4    1  0.3593938E+003  0.2075071E+02  0.7546771E-02  0.1522854E+00
          2   -1    0    0  502    0  0.00000000000E+00  0.00000000000E+00  0.10833912281E+03  0.10833912281E+03  0.00000000000E+00 0. -1.
          1   -1    0    0  501    0 -0.00000000000E+00 -0.00000000000E+00 -0.11627813506E+04  0.11627813506E+04  0.00000000000E+00 0. -1.
          2    1    1    2  501    0 -0.18911428746E+02  0.85410765854E+01  0.10725199396E+03  0.10924093708E+03  0.00000000000E+00 0. -1.
          1    1    1    2  502    0  0.18911428746E+02 -0.85410765854E+01 -0.11616942217E+04  0.11618795363E+04  0.00000000000E+00 0. -1.
</event>
<event>
 4    1  0.3593938E+003  0.2040106E+02  0.7546771E-02  0.1527991E+00
          2   -1    0    0  502    0  0.00000000000E+00  0.00000000000E+00  0.73381154253E+00  0.73381154253E+00  0.00000000000E+00 0. -1.
          1   -1    0    0  501    0 -0.00000000000E+00 -0.00000000000E+00 -0.11418180548E+04  0.11418180548E+04  0.00000000000E+00 0. -1.
          2    1    1    2  501    0  0.10911856500E+02  0.17237590540E+02 -0.16527188139E+03  0.16652626795E+03  0.00000000000E+00 0. -1.
          1    1    1    2  502    0 -0.10911856500E+02 -0.17237590540E+02 -0.97581236190E+03  0.97602559842E+03  0.00000000000E+00 0. -1.
</event>
<event>
 4    1  0.3593938E+003  0.2387486E+02  0.7546771E-02  0.1481795E+00
          2   -1    0    0  502    0  0.00000000000E+00  0.00000000000E+00  0.76606052515E+02  0.76606052515E+02  0.00000000000E+00 0.  1.
          1   -1    0    0  501    0 -0.00000000000E+00 -0.00000000000E+00 -0.13625118496E+03  0.13625118496E+03  0.00000000000E+00 0. -1.
          2    1    1    2  501    0  0.11006369525E+00  0.23874602169E+02  0.73659181620E+02  0.77431800829E+02  0.00000000000E+00 0.  1.
          1    1    1    2  502    0 -0.11006369525E+00 -0.23874602169E+02 -0.13330431406E+03  0.13542543664E+03  0.00000000000E+00 0. -1.
</event>
<event>
 4    1  0.3593938E+003  0.2335970E+02  0.7546771E-02  0.1488030E+00
          2   -1    0    0  502    0  0.00000000000E+00  0.00000000000E+00  0.46382681489E+03  0.46382681489E+03  0.00000000000E+00 0. -1.
          1   -1    0    0  501    0 -0.00000000000E+00 -0.00000000000E+00 -0.13789665709E+01  0.13789665709E+01  0.00000000000E+00 0. -1.
          2    1    1    2  501    0 -0.22462882408E+02 -0.64104952202E+01  0.32036000680E+03  0.32121053764E+03  0.00000000000E+00 0. -1.
          1    1    1    2  502    0  0.22462882408E+02  0.64104952202E+01  0.14208784152E+03  0.14399524382E+03  0.00000000000E+00 0. -1.
</event>
<event>
 4    1  0.3593938E+003  0.2663654E+02  0.7546771E-02  0.1451294E+00
          2   -1    0    0  502    0  0.00000000000E+00  0.00000000000E+00  0.37091008095E+02  0.37091008095E+02  0.00000000000E+00 0.  1.
          1   -1    0    0  501    0 -0.00000000000E+00 -0.00000000000E+00 -0.30186248692E+03  0.30186248692E+03  0.00000000000E+00 0. -1.
          2    1    1    2  501    0  0.12106273328E+01  0.26609012368E+02  0.31633333730E+02  0.41354237516E+02  0.00000000000E+00 0.  1.
          1    1    1    2  502    0 -0.12106273328E+01 -0.26609012368E+02 -0.29640481256E+03  0.29759925750E+03  0.00000000000E+00 0. -1.
</event>
<event>
 4    1  0.3593938E+003  0.3994949E+02  0.7546771E-02  0.1348782E+00
          2   -1    0    0  502    0  0.00000000000E+00  0.00000000000E+00  0.10641915887E+02  0.10641915887E+02  0.00000000000E+00 0.  1.
          1   -1    0    0  501    0 -0.00000000000E+00 -0.00000000000E+00 -0.22268185810E+03  0.22268185810E+03  0.00000000000E+00 0. -1.
          2    1    1    2  501    0 -0.34102929833E+02  0.20807492476E+02 -0.39356021470E+02  0.56079033446E+02  0.00000000000E+00 0.  1.
          1    1    1    2  502    0  0.34102929833E+02 -0.20807492476E+02 -0.17268392075E+03  0.17724474054E+03  0.00000000000E+00 0. -1.
</event>
<event>
 4    1  0.5085397E+003  0.2531074E+02  0.7546771E-02  0.1465357E+00
          2   -1    0    0  502    0  0.00000000000E+00  0.00000000000E+00  0.67137602646E+03  0.67137602646E+03  0.00000000000E+00 0. -1.
          1   -1    0    0  501    0 -0.00000000000E+00 -0.00000000000E+00 -0.74284083372E+03  0.74284083372E+03  0.00000000000E+00 0. -1.
          2    1    1    2  501    0 -0.46993821900E+01 -0.24870647862E+02  0.67092172568E+03  0.67139898370E+03  0.00000000000E+00 0. -1.
          1    1    1    2  502    0  0.46993821900E+01  0.24870647862E+02 -0.74238653295E+03  0.74281787648E+03  0.00000000000E+00 0. -1.
</event>
<event>
 4    1  0.3593938E+003  0.2247301E+02  0.7546771E-02  0.1499224E+00
          2   -1    0    0  502    0  0.00000000000E+00  0.00000000000E+00  0.54329577598E+03  0.54329577598E+03  0.00000000000E+00 0.  1.
          1   -1    0    0  501    0 -0.00000000000E+00 -0.00000000000E+00 -0.20132365248E+03  0.20132365248E+03  0.00000000000E+00 0.  1.
          2    1    1    2  501    0  0.17284125503E+02  0.14362985504E+02  0.54243524191E+03  0.54290056918E+03  0.00000000000E+00 0.  1.
          1    1    1    2  502    0 -0.17284125503E+02 -0.14362985504E+02 -0.20046311842E+03  0.20171885929E+03  0.00000000000E+00 0.  1.
</event>
<event>
 4    1  0.3593938E+003  0.3947349E+02  0.7546771E-02  0.1351599E+00
          2   -1    0    0  502    0  0.00000000000E+00  0.00000000000E+00  0.75438333249E+02  0.75438333249E+02  0.00000000000E+00 0. -1.
          1   -1    0    0  501    0 -0.00000000000E+00 -0.00000000000E+00 -0.21279212530E+02  0.21279212530E+02  0.00000000000E+00 0. -1.
          2    1    1    2  501    0  0.26793813701E+01 -0.39382451000E+02  0.35364059908E+02  0.52997860943E+02  0.00000000000E+00 0. -1.
          1    1    1    2  502    0 -0.26793813701E+01  0.39382451000E+02  0.18795060811E+02  0.43719684836E+02  0.00000000000E+00 0. -1.
</event>
<event>
 4    1  0.3593938E+003  0.3325303E+02  0.7546771E-02  0.1393279E+00
          2   -1    0    0  502    0  0.00000000000E+00  0.00000000000E+00  0.68197263108E+03  0.68197263108E+03  0.00000000000E+00 0.  1.
          1   -1    0    0  501    0 -0.00000000000E+00 -0.00000000000E+00 -0.29404207871E+01  0.29404207871E+01  0.00000000000E+00 0.  1.
          2    1    1    2  501    0 -0.82078872521E+01 -0.32224133929E+02  0.56887901720E+03  0.56985006838E+03  0.00000000000E+00 0.  1.
          1    1    1    2  502    0  0.82078872521E+01  0.32224133929E+02  0.11015319308E+03  0.11506298348E+03  0.00000000000E+00 0.  1.
</event>
<event>
 4    1  0.3593938E+003  0.2412379E+02  0.7546771E-02  0.1478849E+00
          2   -1    0    0  502    0  0.00000000000E+00  0.00000000000E+00  0.18589057524E+03  0.18589057524E+03  0.00000000000E+00 0.  1.
          1   -1    0    0  501    0 -0.00000000000E+00 -0.00000000000E+00 -0.17214286632E+02  0.17214286632E+02  0.00000000000E+00 0. -1.
          2    1    1    2  501    0  0.91389790617E+01  0.22325687006E+02  0.17619325081E+03  0.17783705708E+03  0.00000000000E+00 0.  1.
          1    1    1    2  502    0 -0.91389790617E+01 -0.22325687006E+02 -0.75169621993E+01  0.25267804798E+02  0.00000000000E+00 0. -1.
</event>
<event>
 4    1  0.3593938E+003  0.2799958E+02  0.7546771E-02  0.1437818E+00
          2   -1    0    0  502    0  0.00000000000E+00  0.00000000000E+00  0.52494853901E+03  0.52494853901E+03  0.00000000000E+00 0.  1.
          1   -1    0    0  501    0 -0.00000000000E+00 -0.00000000000E+00 -0.16683584609E+02  0.16683584609E+02  0.00000000000E+00 0.  1.
          2    1    1    2  501    0  0.26357760705E+02 -0.94469548945E+01  0.51254333654E+03  0.51330755726E+03  0.00000000000E+00 0.  1.
          1    1    1    2  502    0 -0.26357760705E+02  0.94469548945E+01 -0.42783821342E+01  0.28324566366E+02  0.00000000000E+00 0.  1.
</event>
<event>
 4    1  0.3593938E+003  0.3007348E+02  0.7546771E-02  0.1418959E+00
          2   -1    0    0  502    0  0.00000000000E+00  0.00000000000E+00  0.18837764965E+04  0.18837764965E+04  0.00000000000E+00 0.  1.
          1   -1    0    0  501    0 -0.00000000000E+00 -0.00000000000E+00 -0.15420067551E+01  0.15420067551E+01  0.00000000000E+00 0. -1.
          2    1    1    2  501    0 -0.10746512802E+02  0.28087833904E+02  0.17233813315E+04  0.17236437067E+04  0.00000000000E+00 0.  1.
          1    1    1    2  502    0  0.10746512802E+02 -0.28087833904E+02  0.15885315831E+03  0.16167479660E+03  0.00000000000E+00 0. -1.
</event>
<event>
 4    1  0.3593938E+003  0.2951024E+02  0.7546771E-02  0.1423901E+00
          2   -1    0    0  502    0  0.00000000000E+00  0.00000000000E+00  0.11220365803E+04  0.11220365803E+04  0.00000000000E+00 0. -1.
          1   -1    0    0  501    0 -0.00000000000E+00 -0.00000000000E+00 -0.53171629169E+01  0.53171629169E+01  0.00000000000E+00 0. -1.
          2    1    1    2  501    0 -0.13685216463E+01  0.29478491936E+02  0.10792751272E+04  0.10796784959E+04  0.00000000000E+00 0. -1.
          1    1    1    2  502    0  0.13685216463E+01 -0.29478491936E+02  0.37444290176E+02  0.47675247299E+02  0.00000000000E+00 0. -1.
</event>
<event>
 4    1  0.3593938E+003  0.2935845E+02  0.7546771E-02  0.1425255E+00
          2   -1    0    0  502    0  0.00000000000E+00  0.00000000000E+00  0.29131575636E+01  0.29131575636E+01  0.00000000000E+00 0. -1.
          1   -1    0    0  501    0 -0.00000000000E+00 -0.00000000000E+00 -0.48710587630E+03  0.48710587630E+03  0.00000000000E+00 0. -1.
          2    1    1    2  501    0  0.21895452393E+02 -0.19557805058E+02 -0.88579907779E+02  0.93318372448E+02  0.00000000000E+00 0. -1.
          1    1    1    2  502    0 -0.21895452393E+02  0.19557805058E+02 -0.39561281096E+03  0.39670066141E+03  0.00000000000E+00 0. -1.
</event>
<event>
 4    1  0.3593938E+003  0.2926359E+02  0.7546771E-02  0.1426106E+00
          2   -1    0    0  502    0  0.00000000000E+00  0.00000000000E+00  0.27612575056E+03  0.27612575056E+03  0.00000000000E+00 0.  1.
          1   -1    0    0  501    0 -0.00000000000E+00 -0.00000000000E+00 -0.83580005905E+03  0.83580005905E+03  0.00000000000E+00 0.  1.
          2    1    1    2  501    0 -0.27571792402E+02  0.98058186151E+01  0.27509330963E+03  0.27664541713E+03  0.00000000000E+00 0.  1.
          1    1    1    2  502    0  0.27571792402E+02 -0.98058186151E+01 -0.83476761812E+03  0.83528039249E+03  0.00000000000E+00 0.  1.
</event>
<event>
 4    1  0.3593938E+003  0.2351797E+02  0.7546771E-02  0.1486094E+00
          2   -1    0    0  502    0  0.00000000000E+00  0.00000000000E+00  0.17928862141E+02  0.17928862141E+02  0.00000000000E+00 0.  1.
          1   -1    0    0  501    0 -0.00000000000E+00 -0.00000000000E+00 -0.35283097609E+02  0.35283097609E+02  0.00000000000E+00 0.  1.
          2    1    1    2  501    0  0.22410655342E+02  0.71314494254E+01  0.75431857511E+00  0.23530066729E+02  0.00000000000E+00 0.  1.
          1    1    1    2  502    0 -0.22410655342E+02 -0.71314494254E+01 -0.18108554043E+02  0.29681893021E+02  0.00000000000E+00 0.  1.
</event>
<event>
 4    1  0.3593938E+003  0.2902912E+02  0.7546771E-02  0.1428225E+00
          2   -1    0    0  502    0  0.00000000000E+00  0.00000000000E+00  0.27848132434E+03  0.27848132434E+03  0.00000000000E+00 0. -1.
          1   -1    0    0  501    0 -0.00000000000E+00 -0.00000000000E+00 -0.44980492851E+01  0.44980492851E+01  0.00000000000E+00 0. -1.
          2    1    1    2  501    0 -0.13936641748E+02  0.25464874061E+02  0.21793309957E+03  0.21985796707E+03  0.00000000000E+00 0. -1.
          1    1    1    2  502    0  0.13936641748E+02 -0.25464874061E+02  0.56050175487E+02  0.63121406561E+02  0.00000000000E+00 0. -1.
</event>
<event>
 4    1  0.3593938E+003  0.2102784E+02  0.7546771E-02  0.1518868E+00
          2   -1    0    0  502    0  0.00000000000E+00  0.00000000000E+00  0.62655375043E+03  0.62655375043E+03  0.00000000000E+00 0.  1.
          1   -1    0    0  501    0 -0.00000000000E+00 -0.00000000000E+00 -0.21387431233E+01  0.21387431233E+01  0.00000000000E+00 0.  1.
          2    1    1    2  501    0 -0.57954469322E+01  0.20213434705E+02  0.56951704787E+03  0.56990511312E+03  0.00000000000E+00 0.  1.
          1    1    1    2  502    0  0.57954469322E+01 -0.20213434705E+02  0.54897959436E+02  0.58787380431E+02  0.00000000000E+00 0.  1.
</event>
<event>
 4    1  0.3593938E+003  0.3087169E+02  0.7546771E-02  0.1412169E+00
          2   -1    0    0  502    0  0.00000000000E+00  0.00000000000E+00  0.55167481172E+01  0.55167481172E+01  0.00000000000E+00 0.  1.
          1   -1    0    0  501    0 -0.00000000000E+00 -0.00000000000E+00 -0.32424803572E+03  0.32424803572E+03  0.00000000000E+00 0.  1.
          2    1    1    2  501    0 -0.18961400281E+02  0.24362401257E+02 -0.46664605906E+02  0.55952182621E+02  0.00000000000E+00 0.  1.
          1    1    1    2  502    0  0.18961400281E+02 -0.24362401257E+02 -0.27206668170E+03  0.27381260122E+03  0.00000000000E+00 0.  1.
</event>
<event>
 4    1  0.3593938E+003  0.2102781E+02  0.7546771E-02  0.1518868E+00
          2   -1    0    0  502    0  0.00000000000E+00  0.00000000000E+00  0.18809715950E+01  0.18809715950E+01  0.00000000000E+00 0. -1.
          1   -1    0    0  501    0 -0.00000000000E+00 -0.00000000000E+00 -0.25765639986E+03  0.25765639986E+03  0.00000000000E+00 0. -1.
          2    1    1    2  501    0  0.14012391439E+02 -0.15678705175E+02 -0.89470367695E+02  0.91908191176E+02  0.00000000000E+00 0. -1.
          1    1    1    2  502    0 -0.14012391439E+02  0.15678705175E+02 -0.16630506057E+03  0.16762918028E+03  0.00000000000E+00 0. -1.
</event>
<event>
 4    1  0.3593938E+003  0.2210405E+02  0.7546771E-02  0.1504066E+00
          2   -1    0    0  502    0  0.00000000000E+00  0.00000000000E+00  0.24779815000E+03  0.24779815000E+03  0.00000000000E+00 0. -1.
          1   -1    0    0  501    0 -0.00000000000E+00 -0.00000000000E+00 -0.20263680828E+01  0.20263680828E+01  0.00000000000E+00 0. -1.
          2    1    1    2  501    0 -0.41419655567E+01 -0.21712514245E+02  0.14339864513E+03  0.14509224852E+03  0.00000000000E+00 0. -1.
          1    1    1    2  502    0  0.41419655567E+01  0.21712514245E+02  0.10237313678E+03  0.10473226957E+03  0.00000000000E+00 0. -1.
</event>
<event>
 4    1  0.3593938E+003  0.2255924E+02  0.7546771E-02  0.1498108E+00
          2   -1    0    0  502    0  0.00000000000E+00  0.00000000000E+00  0.26909408983E+03  0.26909408983E+03  0.00000000000E+00 0.  1.
          1   -1    0    0  501    0 -0.00000000000E+00 -0.00000000000E+00 -0.87615039940E+02  0.87615039940E+02  0.00000000000E+00 0.  1.
          2    1    1    2  501    0  0.20538886093E+02  0.93313196691E+01  0.26715863416E+03  0.26810940896E+03  0.00000000000E+00 0.  1.
          1    1    1    2  502    0 -0.20538886093E+02 -0.93313196691E+01 -0.85679584263E+02  0.88599720813E+02  0.00000000000E+00 0.  1.
</event>
<event>
 4    1  0.3593938E+003  0.2168984E+02  0.7546771E-02  0.1509639E+00
          2   -1    0    0  502    0  0.00000000000E+00  0.00000000000E+00  0.26547111604E+03  0.26547111604E+03  0.00000000000E+00 0.  1.
          1   -1    0    0  501    0 -0.00000000000E+00 -0.00000000000E+00 -0.17794839280E+01  0.17794839280E+01  0.00000000000E+00 0. -1.
          2    1    1    2  501    0 -0.19229630592E+02  0.10033472783E+02  0.14043611005E+03  0.14210119730E+03  0.00000000000E+00 0.  1.
          1    1    1    2  502    0  0.19229630592E+02 -0.10033472783E+02  0.12325552207E+03  0.12514940267E+03  0.00000000000E+00 0. -1.
</event>
<event>
 4    1  0.3593938E+003  0.2247394E+02  0.7546771E-02  0.1499212E+00
          2   -1    0    0  502    0  0.00000000000E+00  0.00000000000E+00  0.54075622868E+03  0.54075622868E+03  0.00000000000E+00 0. -1.
          1   -1    0    0  501    0 -0.00000000000E+00 -0.00000000000E+00 -0.91221497882E+01  0.91221497882E+01  0.00000000000E+00 0. -1.
          2    1    1    2  501    0  0.19799713244E+02  0.10632464764E+02  0.52630062834E+03  0.52678024767E+03  0.00000000000E+00 0. -1.
          1    1    1    2  502    0 -0.19799713244E+02 -0.10632464764E+02  0.53334505589E+01  0.23098130798E+02  0.00000000000E+00 0. -1.
</event>
<event>
 4    1  0.3593938E+003  0.2628240E+02  0.7546771E-02  0.1454953E+00
          2   -1    0    0  502    0  0.00000000000E+00  0.00000000000E+00  0.15498252831E+01  0.15498252831E+01  0.00000000000E+00 0.  1.
          1   -1    0    0  501    0 -0.00000000000E+00 -0.00000000000E+00 -0.50562997710E+03  0.50562997710E+03  0.00000000000E+00 0. -1.
          2    1    1    2  501    0 -0.49290827057E+01 -0.25816058218E+02 -0.16473894715E+03  0.16682231693E+03  0.00000000000E+00 0.  1.
          1    1    1    2  502    0  0.49290827057E+01  0.25816058218E+02 -0.33934120467E+03  0.34035748546E+03  0.00000000000E+00 0. -1.
</event>
<event>
 4    1  0.3593938E+003  0.3003934E+02  0.7546771E-02  0.1419255E+00
          2   -1    0    0  502    0  0.00000000000E+00  0.00000000000E+00  0.19527710509E+03  0.19527710509E+03  0.00000000000E+00 0.  1.
          1   -1    0    0  501    0 -0.00000000000E+00 -0.00000000000E+00 -0.58366151845E+01  0.58366151845E+01  0.00000000000E+00 0.  1.
          2    1    1    2  501    0 -0.15653352344E+02 -0.25638535976E+02  0.14061273410E+03  0.14378561457E+03  0.00000000000E+00 0.  1.
          1    1    1    2  502    0  0.15653352344E+02  0.25638535976E+02  0.48827755812E+02  0.57328105709E+02  0.00000000000E+00 0.  1.
</event>
<event>
 4    1  0.3593938E+003  0.3101606E+02  0.7546771E-02  0.1410968E+00
          2   -1    0    0  502    0  0.00000000000E+00  0.00000000000E+00  0.11429855157E+02  0.11429855157E+02  0.00000000000E+00 0. -1.
          1   -1    0    0  501    0 -0.00000000000E+00 -0.00000000000E+00 -0.52210312073E+03  0.52210312073E+03  0.00000000000E+00 0.  1.
          2    1    1    2  501    0 -0.12592609166E+02 -0.28344698122E+02 -0.11016409325E+02  0.32914388824E+02  0.00000000000E+00 0. -1.
          1    1    1    2  502    0  0.12592609166E+02  0.28344698122E+02 -0.49965685625E+03  0.50061858706E+03  0.00000000000E+00 0.  1.
</event>
<event>
 4    1  0.3593938E+003  0.3165773E+02  0.7546771E-02  0.1405718E+00
          2   -1    0    0  502    0  0.00000000000E+00  0.00000000000E+00  0.97151323004E+01  0.97151323004E+01  0.00000000000E+00 0.  1.
          1   -1    0    0  501    0 -0.00000000000E+00 -0.00000000000E+00 -0.11346423218E+03  0.11346423218E+03  0.00000000000E+00 0. -1.
          2    1    1    2  501    0  0.27053392864E+02  0.16441594851E+02 -0.33314107092E+02  0.45956956361E+02  0.00000000000E+00 0.  1.
          1    1    1    2  502    0 -0.27053392864E+02 -0.16441594851E+02 -0.70434992786E+02  0.77222408117E+02  0.00000000000E+00 0. -1.
</event>
<event>
 4    1  0.3593938E+003  0.3268702E+02  0.7546771E-02  0.1397596E+00
          2   -1    0    0  502    0  0.00000000000E+00  0.00000000000E+00  0.35867247278E+03  0.35867247278E+03  0.00000000000E+00 0. -1.
          1   -1    0    0  501    0 -0.00000000000E+00 -0.00000000000E+00 -0.26479446354E+02  0.26479446354E+02  0.00000000000E+00 0. -1.
          2    1    1    2  501    0 -0.26483753979E+02 -0.19158607722E+02  0.34751719922E+03  0.34905106392E+03  0.00000000000E+00 0. -1.
          1    1    1    2  502    0  0.26483753979E+02  0.19158607722E+02 -0.15324172796E+02  0.36100855205E+02  0.00000000000E+00 0. -1.
</event>
<event>
 4    1  0.3593938E+003  0.2081164E+02  0.7546771E-02  0.1521971E+00
          2   -1    0    0  502    0  0.00000000000E+00  0.00000000000E+00  0.43922518673E+02  0.43922518673E+02  0.00000000000E+00 0. -1.
          1   -1    0    0  501    0 -0.00000000000E+00 -0.00000000000E+00 -0.21705226379E+03  0.21705226379E+03  0.00000000000E+00 0.  1.
          2    1    1    2  501    0  0.18552855705E+02  0.94295124802E+01  0.40923920050E+02  0.45911778365E+02  0.00000000000E+00 0. -1.
          1    1    1    2  502    0 -0.18552855705E+02 -0.94295124802E+01 -0.21405366517E+03  0.21506300410E+03  0.00000000000E+00 0.  1.
</event>
<event>
 4    1  0.3593938E+003  0.2061722E+02  0.7546771E-02  0.1524801E+00
          2   -1    0    0  502    0  0.00000000000E+00  0.00000000000E+00  0.94178229277E+03  0.94178229277E+03  0.00000000000E+00 0. -1.
          1   -1    0    0  501    0 -0.00000000000E+00 -0.00000000000E+00 -0.45176006945E+00  0.45176006945E+00  0.00000000000E+00 0. -1.
          2    1    1    2  501    0 -0.68521689441E+01  0.19445247460E+02  0.48492467690E+03  0.48536276344E+03  0.00000000000E+00 0. -1.
          1    1    1    2  502    0  0.68521689441E+01 -0.19445247460E+02  0.45640585580E+03  0.45687128940E+03  0.00000000000E+00 0. -1.
</event>
<event>
 4    1  0.3593938E+003  0.2349751E+02  0.7546771E-02  0.1486344E+00
          2   -1    0    0  502    0  0.00000000000E+00  0.00000000000E+00  0.16751611310E+04  0.16751611310E+04  0.00000000000E+00 0.  1.
          1   -1    0    0  501    0 -0.00000000000E+00 -0.00000000000E+00 -0.67460335852E+00  0.67460335852E+00  0.00000000000E+00 0. -1.
          2    1    1    2  501    0  0.12352613597E+02  0.19988647215E+02  0.14364668146E+04  0.14366589862E+04  0.00000000000E+00 0.  1.
          1    1    1    2  502    0 -0.12352613597E+02 -0.19988647215E+02  0.23801971298E+03  0.23917674813E+03  0.00000000000E+00 0. -1.
</event>
<event>
 4    1  0.3593938E+003  0.2149697E+02  0.7546771E-02  0.1512286E+00
          2   -1    0    0  502    0  0.00000000000E+00  0.00000000000E+00  0.92902572988E+03  0.92902572988E+03  0.00000000000E+00 0.  1.
          1   -1    0    0  501    0 -0.00000000000E+00 -0.00000000000E+00 -0.40773378379E+01  0.40773378379E+01  0.00000000000E+00 0. -1.
          2    1    1    2  501    0  0.57236180505E+00  0.21489345173E+02  0.89964139503E+03  0.89989819380E+03  0.00000000000E+00 0.  1.
          1    1    1    2  502    0 -0.57236180505E+00 -0.21489345173E+02  0.25306997005E+02  0.33204873911E+02  0.00000000000E+00 0. -1.
</event>
<event>
 4    1  0.3593938E+003  0.2771630E+02  0.7546771E-02  0.1440542E+00
          2   -1    0    0  502    0  0.00000000000E+00  0.00000000000E+00  0.11275940465E+04  0.11275940465E+04  0.00000000000E+00 0. -1.
          1   -1    0    0  501    0 -0.00000000000E+00 -0.00000000000E+00 -0.36879567190E+02  0.36879567190E+02  0.00000000000E+00 0. -1.
          2    1    1    2  501    0  0.63508603072E+01 -0.26978875473E+02  0.11221912179E+04  0.11225334395E+04  0.00000000000E+00 0. -1.
          1    1    1    2  502    0 -0.63508603072E+01  0.26978875473E+02 -0.31476738554E+02  0.41940174278E+02  0.00000000000E+00 0. -1.
</event>
<event>
 4    1  0.3593938E+003  0.2051970E+02  0.7546771E-02  0.1526234E+00
          2   -1    0    0  502    0  0.00000000000E+00  0.00000000000E+00  0.72219677920E+03  0.72219677920E+03  0.00000000000E+00 0. -1.
          1   -1    0    0  501    0 -0.00000000000E+00 -0.00000000000E+00 -0.28573883167E+02  0.28573883167E+02  0.00000000000E+00 0. -1.
          2    1    1    2  501    0 -0.18832875211E+02  0.81474504300E+01  0.71834734370E+03  0.71864035814E+03  0.00000000000E+00 0. -1.
          1    1    1    2  502    0  0.18832875211E+02 -0.81474504300E+01 -0.24724447671E+02  0.32130304229E+02  0.00000000000E+00 0. -1.
</event>
<event>
 4    1  0.3593938E+003  0.3089989E+02  0.7546771E-02  0.1411934E+00
          2   -1    0    0  502    0  0.00000000000E+00  0.00000000000E+00  0.30287110431E+03  0.30287110431E+03  0.00000000000E+00 0. -1.
          1   -1    0    0  501    0 -0.00000000000E+00 -0.00000000000E+00 -0.39242012755E+03  0.39242012755E+03  0.00000000000E+00 0.  1.
          2    1    1    2  501    0  0.22719662499E+02 -0.20943259928E+02  0.30147188311E+03  0.30305131497E+03  0.00000000000E+00 0. -1.
          1    1    1    2  502    0 -0.22719662499E+02  0.20943259928E+02 -0.39102090635E+03  0.39223991689E+03  0.00000000000E+00 0.  1.
</event>
<event>
 4    1  0.3593938E+003  0.4070811E+02  0.7546771E-02  0.1344386E+00
          2   -1    0    0  502    0  0.00000000000E+00  0.00000000000E+00  0.77425718346E+03  0.77425718346E+03  0.00000000000E+00 0. -1.
          1   -1    0    0  501    0 -0.00000000000E+00 -0.00000000000E+00 -0.10187068116E+03  0.10187068116E+03  0.00000000000E+00 0.  1.
          2    1    1    2  501    0 -0.27042898858E+02 -0.30427480767E+02  0.76963087928E+03  0.77070671485E+03  0.00000000000E+00 0. -1.
          1    1    1    2  502    0  0.27042898858E+02  0.30427480767E+02 -0.97244376987E+02  0.10542114978E+03  0.00000000000E+00 0.  1.
</event>
<event>
 4    1  0.3593938E+003  0.3401639E+02  0.7546771E-02  0.1387613E+00
          2   -1    0    0  502    0  0.00000000000E+00  0.00000000000E+00  0.92363159372E+03  0.92363159372E+03  0.00000000000E+00 0. -1.
          1   -1    0    0  501    0 -0.00000000000E+00 -0.00000000000E+00 -0.73330474312E+01  0.73330474312E+01  0.00000000000E+00 0. -1.
          2    1    1    2  501    0 -0.30472967477E+01 -0.33879618780E+02  0.88200884820E+03  0.88266455853E+03  0.00000000000E+00 0. -1.
          1    1    1    2  502    0  0.30472967477E+01  0.33879618780E+02  0.34289698095E+02  0.48300082625E+02  0.00000000000E+00 0. -1.
</event>
<event>
 4    1  0.3593938E+003  0.3043456E+02  0.7546771E-02  0.1415857E+00
          2   -1    0    0  502    0  0.00000000000E+00  0.00000000000E+00  0.17823875813E+02  0.17823875813E+02  0.00000000000E+00 0.  1.
          1   -1    0    0  501    0 -0.00000000000E+00 -0.00000000000E+00 -0.10031423700E+04  0.10031423700E+04  0.00000000000E+00 0.  1.
          2    1    1    2  501    0  0.30347752959E+02  0.22969936445E+01  0.44253257480E+01  0.30754606118E+02  0.00000000000E+00 0.  1.
          1    1    1    2  502    0 -0.30347752959E+02 -0.22969936445E+01 -0.98974381998E+03  0.99021163974E+03  0.00000000000E+00 0.  1.
</event>
<event>
 4    1  0.3593938E+003  0.2730606E+02  0.7546771E-02  0.1444558E+00
          2   -1    0    0  502    0  0.00000000000E+00  0.00000000000E+00  0.78473915242E+03  0.78473915242E+03  0.00000000000E+00 0.  1.
          1   -1    0    0  501    0 -0.00000000000E+00 -0.00000000000E+00 -0.18558593858E+01  0.18558593858E+01  0.00000000000E+00 0.  1.
          2    1    1    2  501    0 -0.25510683034E+02  0.97378527883E+01  0.66619489893E+03  0.66675427564E+03  0.00000000000E+00 0.  1.
          1    1    1    2  502    0  0.25510683034E+02 -0.97378527883E+01  0.11668839411E+03  0.11984073617E+03  0.00000000000E+00 0.  1.
</event>
<event>
 4    1  0.4590717E+003  0.2322330E+02  0.7546771E-02  0.1489713E+00
          2   -1    0    0  502    0  0.00000000000E+00  0.00000000000E+00  0.53365683676E+03  0.53365683676E+03  0.00000000000E+00 0. -1.
          1   -1    0    0  501    0 -0.00000000000E+00 -0.00000000000E+00 -0.11310315576E+04  0.11310315576E+04  0.00000000000E+00 0.  1.
          2    1    1    2  501    0 -0.18528752337E+02  0.14000251637E+02  0.53328488972E+03  0.53379031024E+03  0.00000000000E+00 0. -1.
          1    1    1    2  502    0  0.18528752337E+02 -0.14000251637E+02 -0.11306596106E+04  0.11308980841E+04  0.00000000000E+00 0.  1.
</event>
<event>
 4    1  0.3593938E+003  0.2472911E+02  0.7546771E-02  0.1471857E+00
          2   -1    0    0  502    0  0.00000000000E+00  0.00000000000E+00  0.15016644296E+03  0.15016644296E+03  0.00000000000E+00 0.  1.
          1   -1    0    0  501    0 -0.00000000000E+00 -0.00000000000E+00 -0.20908214443E+02  0.20908214443E+02  0.00000000000E+00 0. -1.
          2    1    1    2  501    0  0.20258483632E+02 -0.14181782247E+02  0.14138558969E+03  0.14353192704E+03  0.00000000000E+00 0.  1.
          1    1    1    2  502    0 -0.20258483632E+02  0.14181782247E+02 -0.12127361176E+02  0.27542730363E+02  0.00000000000E+00 0. -1.
</event>
<event>
 4    1  0.3593938E+003  0.2023200E+02  0.7546771E-02  0.1530518E+00
          2   -1    0    0  502    0  0.00000000000E+00  0.00000000000E+00  0.27467774181E+03  0.27467774181E+03  0.00000000000E+00 0. -1.
          1   -1    0    0  501    0 -0.00000000000E+00 -0.00000000000E+00 -0.62622704235E+03  0.62622704235E+03  0.00000000000E+00 0.  1.
          2    1    1    2  501    0  0.18017602387E+02  0.92032427114E+01  0.27414145182E+03  0.27488701184E+03  0.00000000000E+00 0. -1.
          1    1    1    2  502    0 -0.18017602387E+02 -0.92032427114E+01 -0.62569075236E+03  0.62601777232E+03  0.00000000000E+00 0.  1.
</event>
<event>
 4    1  0.3593938E+003  0.2436474E+02  0.7546771E-02  0.1476037E+00
          2   -1    0    0  502    0  0.00000000000E+00  0.00000000000E+00  0.15905457833E+04  0.15905457833E+04  0.00000000000E+00 0. -1.
          1   -1    0    0  501    0 -0.00000000000E+00 -0.00000000000E+00 -0.86060589650E+01  0.86060589650E+01  0.00000000000E+00 0. -1.
          2    1    1    2  501    0 -0.19727360244E+01 -0.24284749624E+02  0.15730154544E+04  0.15732041382E+04  0.00000000000E+00 0. -1.
          1    1    1    2  502    0  0.19727360244E+01  0.24284749624E+02  0.89242699566E+01  0.25947704060E+02  0.00000000000E+00 0. -1.
</event>
<event>
 4    1  0.3593938E+003  0.2916055E+02  0.7546771E-02  0.1427034E+00
          2   -1    0    0  502    0  0.00000000000E+00  0.00000000000E+00  0.53970673402E+00  0.53970673402E+00  0.00000000000E+00 0. -1.
          1   -1    0    0  501    0 -0.00000000000E+00 -0.00000000000E+00 -0.16126403476E+04  0.16126403476E+04  0.00000000000E+00 0. -1.
          2    1    1    2  501    0  0.23831173664E+02  0.16805139460E+02 -0.68373347516E+03  0.68435502673E+03  0.00000000000E+00 0. -1.
          1    1    1    2  502    0 -0.23831173664E+02 -0.16805139460E+02 -0.92836716570E+03  0.92882502760E+03  0.00000000000E+00 0. -1.
</event>
<event>
 4    1  0.3593938E+003  0.3096711E+02  0.7546771E-02  0.1411374E+00
          2   -1    0    0  502    0  0.00000000000E+00  0.00000000000E+00  0.20845823639E+04  0.20845823639E+04  0.00000000000E+00 0.  1.
          1   -1    0    0  501    0 -0.00000000000E+00 -0.00000000000E+00 -0.30092143209E+01  0.30092143209E+01  0.00000000000E+00 0.  1.
          2    1    1    2  501    0 -0.25630118653E+01  0.30860859323E+02  0.20014913683E+04  0.20017309157E+04  0.00000000000E+00 0.  1.
          1    1    1    2  502    0  0.25630118653E+01 -0.30860859323E+02  0.80081781271E+02  0.85860662468E+02  0.00000000000E+00 0.  1.
</event>
<event>
 4    1  0.3593938E+003  0.2825147E+02  0.7546771E-02  0.1435426E+00
          2   -1    0    0  502    0  0.00000000000E+00  0.00000000000E+00  0.30566428454E+03  0.30566428454E+03  0.00000000000E+00 0. -1.
          1   -1    0    0  501    0 -0.00000000000E+00 -0.00000000000E+00 -0.42174716994E+02  0.42174716994E+02  0.00000000000E+00 0. -1.
          2    1    1    2  501    0 -0.11970117725E+02  0.25590273472E+02  0.30019428243E+03  0.30152073398E+03  0.00000000000E+00 0. -1.
          1    1    1    2  502    0  0.11970117725E+02 -0.25590273472E+02 -0.36704714885E+02  0.46318267557E+02  0.00000000000E+00 0. -1.
</event>
<event>
 4    1  0.3593938E+003  0.4008738E+02  0.7546771E-02  0.1347975E+00
          2   -1    0    0  502    0  0.00000000000E+00  0.00000000000E+00  0.61300454392E+03  0.61300454392E+03  0.00000000000E+00 0.  1.
          1   -1    0    0  501    0 -0.00000000000E+00 -0.00000000000E+00 -0.40943056544E+01  0.40943056544E+01  0.00000000000E+00 0.  1.
          2    1    1    2  501    0  0.39644246792E+02 -0.59440613181E+01  0.48951219984E+03  0.49115088513E+03  0.00000000000E+00 0.  1.
          1    1    1    2  502    0 -0.39644246792E+02  0.59440613181E+01  0.11939803843E+03  0.12594796445E+03  0.00000000000E+00 0.  1.
</event>
<event>
 4    1  0.3593938E+003  0.2007106E+02  0.7546771E-02  0.1532952E+00
          2   -1    0    0  502    0  0.00000000000E+00  0.00000000000E+00  0.10354644104E+04  0.10354644104E+04  0.00000000000E+00 0.  1.
          1   -1    0    0  501    0 -0.00000000000E+00 -0.00000000000E+00 -0.20772742958E+02  0.20772742958E+02  0.00000000000E+00 0. -1.
          2    1    1    2  501    0 -0.99168530619E+01  0.17450027446E+02  0.10304955028E+04  0.10306909473E+04  0.00000000000E+00 0.  1.
          1    1    1    2  502    0  0.99168530619E+01 -0.17450027446E+02 -0.15803835388E+02  0.25546206088E+02  0.00000000000E+00 0. -1.
</event>
<event>
 4    1  0.3593938E+003  0.2761134E+02  0.7546771E-02  0.1441562E+00
          2   -1    0    0  502    0  0.00000000000E+00  0.00000000000E+00  0.43397160359E+03  0.43397160359E+03  0.00000000000E+00 0.  1.
          1   -1    0    0  501    0 -0.00000000000E+00 -0.00000000000E+00 -0.29979889813E+01  0.29979889813E+01  0.00000000000E+00 0. -1.
          2    1    1    2  501    0 -0.21787247085E+01 -0.27525246663E+02  0.35606932463E+03  0.35713827852E+03  0.00000000000E+00 0.  1.
          1    1    1    2  502    0  0.21787247085E+01  0.27525246663E+02  0.74904289983E+02  0.79831314051E+02  0.00000000000E+00 0. -1.
</event>
<event>
 4    1  0.3593938E+003  0.2064715E+02  0.7546771E-02  0.1524363E+00
          2   -1    0    0  502    0  0.00000000000E+00  0.00000000000E+00  0.76608305633E+03  0.76608305633E+03  0.00000000000E+00 0. -1.
          1   -1    0    0  501    0 -0.00000000000E+00 -0.00000000000E+00 -0.70460434291E+01  0.70460434291E+01  0.00000000000E+00 0.  1.
          2    1    1    2  501    0  0.57934020330E+01 -0.19817705835E+02  0.75050433701E+03  0.75078829562E+03  0.00000000000E+00 0. -1.
          1    1    1    2  502    0 -0.57934020330E+01  0.19817705835E+02  0.85326758922E+01  0.22340804139E+02  0.00000000000E+00 0.  1.
</event>
<event>
 4    1  0.3593938E+003  0.2690138E+02  0.7546771E-02  0.1448601E+00
          2   -1    0    0  502    0  0.00000000000E+00  0.00000000000E+00  0.10279299717E+04  0.10279299717E+04  0.00000000000E+00 0. -1.
          1   -1    0    0  501    0 -0.00000000000E+00 -0.00000000000E+00 -0.35778822231E+02  0.35778822231E+02  0.00000000000E+00 0. -1.
          2    1    1    2  501    0 -0.26656249376E+02 -0.36233233089E+01  0.10226713180E+04  0.10230250773E+04  0.00000000000E+00 0. -1.
          1    1    1    2  502    0  0.26656249376E+02  0.36233233089E+01 -0.30520168602E+02  0.40683716572E+02  0.00000000000E+00 0. -1.
</event>
<event>
 4    1  0.3593938E+003  0.2127516E+02  0.7546771E-02  0.1515372E+00
          2   -1    0    0  502    0  0.00000000000E+00  0.00000000000E+00  0.77087236401E+02  0.77087236401E+02  0.00000000000E+00 0.  1.
          1   -1    0    0  501    0 -0.00000000000E+00 -0.00000000000E+00 -0.12785736049E+04  0.12785736049E+04  0.00000000000E+00 0. -1.
          2    1    1    2  501    0  0.65150020265E+01 -0.20253079246E+02  0.75529019083E+02  0.78468243220E+02  0.00000000000E+00 0.  1.
          1    1    1    2  502    0 -0.65150020265E+01  0.20253079246E+02 -0.12770153876E+04  0.12771925981E+04  0.00000000000E+00 0. -1.
</event>
<event>
 4    1  0.3593938E+003  0.7554969E+02  0.7546771E-02  0.1214574E+00
          2   -1    0    0  502    0  0.00000000000E+00  0.00000000000E+00  0.48177188280E+01  0.48177188280E+01  0.00000000000E+00 0. -1.
          1   -1    0    0  501    0 -0.00000000000E+00 -0.00000000000E+00 -0.19114016825E+04  0.19114016825E+04  0.00000000000E+00 0. -1.
          2    1    1    2  501    0 -0.37157277628E+02 -0.65780633130E+02 -0.36254063932E+03  0.37032886754E+03  0.00000000000E+00 0. -1.
          1    1    1    2  502    0  0.37157277628E+02  0.65780633130E+02 -0.15440433244E+04  0.15458905338E+04  0.00000000000E+00 0. -1.
</event>
<event>
 4    1  0.3593938E+003  0.3240241E+02  0.7546771E-02  0.1399806E+00
          2   -1    0    0  502    0  0.00000000000E+00  0.00000000000E+00  0.15621613556E+02  0.15621613556E+02  0.00000000000E+00 0. -1.
          1   -1    0    0  501    0 -0.00000000000E+00 -0.00000000000E+00 -0.10151456207E+03  0.10151456207E+03  0.00000000000E+00 0. -1.
          2    1    1    2  501    0  0.30877990655E+02  0.98216914323E+01 -0.88995436762E+01  0.33602348238E+02  0.00000000000E+00 0. -1.
          1    1    1    2  502    0 -0.30877990655E+02 -0.98216914323E+01 -0.76993404838E+02  0.83533827388E+02  0.00000000000E+00 0. -1.
</event>
<event>
 4    1  0.3593938E+003  0.2069956E+02  0.7546771E-02  0.1523598E+00
          2   -1    0    0  502    0  0.00000000000E+00  0.00000000000E+00  0.15369408712E+04  0.15369408712E+04  0.00000000000E+00 0.  1.
          1   -1    0    0  501    0 -0.00000000000E+00 -0.00000000000E+00 -0.37386597525E+00  0.37386597525E+00  0.00000000000E+00 0.  1.
          2    1    1    2  501    0  0.24694453394E+01  0.20551735422E+02  0.11559227016E+04  0.11561080244E+04  0.00000000000E+00 0.  1.
          1    1    1    2  502    0 -0.24694453394E+01 -0.20551735422E+02  0.38064430363E+03  0.38120671279E+03  0.00000000000E+00 0.  1.
</event>
<event>
 4    1  0.3593938E+003  0.2533274E+02  0.7546771E-02  0.1465115E+00
          2   -1    0    0  502    0  0.00000000000E+00  0.00000000000E+00  0.22468498185E+02  0.22468498185E+02  0.00000000000E+00 0.  1.
          1   -1    0    0  501    0 -0.00000000000E+00 -0.00000000000E+00 -0.44673027801E+03  0.44673027801E+03  0.00000000000E+00 0.  1.
          2    1    1    2  501    0  0.16656490419E+02 -0.19086882384E+02  0.14844967307E+02  0.29361893784E+02  0.00000000000E+00 0.  1.
          1    1    1    2  502    0 -0.16656490419E+02  0.19086882384E+02 -0.43910674713E+03  0.43983688241E+03  0.00000000000E+00 0.  1.
</event>
<event>
 4    1  0.3593938E+003  0.2078745E+02  0.7546771E-02  0.1522321E+00
          2   -1    0    0  502    0  0.00000000000E+00  0.00000000000E+00  0.19788069530E+01  0.19788069530E+01  0.00000000000E+00 0.  1.
          1   -1    0    0  501    0 -0.00000000000E+00 -0.00000000000E+00 -0.15097571006E+04  0.15097571006E+04  0.00000000000E+00 0. -1.
          2    1    1    2  501    0 -0.10117565447E+02 -0.18159096961E+02 -0.54820029363E+02  0.58628948075E+02  0.00000000000E+00 0.  1.
          1    1    1    2  502    0  0.10117565447E+02  0.18159096961E+02 -0.14529582643E+04  0.14531069595E+04  0.00000000000E+00 0. -1.
</event>
<event>
 4    1  0.3593938E+003  0.2098772E+02  0.7546771E-02  0.1519440E+00
          2   -1    0    0  502    0  0.00000000000E+00  0.00000000000E+00  0.30153550044E+02  0.30153550044E+02  0.00000000000E+00 0. -1.
          1   -1    0    0  501    0 -0.00000000000E+00 -0.00000000000E+00 -0.19687555499E+02  0.19687555499E+02  0.00000000000E+00 0.  1.
          2    1    1    2  501    0 -0.36258297814E+01 -0.20672149029E+02  0.17891220370E+02  0.27578617685E+02  0.00000000000E+00 0. -1.
          1    1    1    2  502    0  0.36258297814E+01  0.20672149029E+02 -0.74252258255E+01  0.22262487858E+02  0.00000000000E+00 0.  1.
</event>
<event>
 4    1  0.3593938E+003  0.2236237E+02  0.7546771E-02  0.1500664E+00
          2   -1    0    0  502    0  0.00000000000E+00  0.00000000000E+00  0.99546856804E+01  0.99546856804E+01  0.00000000000E+00 0.  1.
          1   -1    0    0  501    0 -0.00000000000E+00 -0.00000000000E+00 -0.25088877083E+03  0.25088877083E+03  0.00000000000E+00 0.  1.
          2    1    1    2  501    0  0.22222030191E+02 -0.25013846149E+01 -0.38309952102E+01  0.22688148340E+02  0.00000000000E+00 0.  1.
          1    1    1    2  502    0 -0.22222030191E+02  0.25013846149E+01 -0.23710308993E+03  0.23815530817E+03  0.00000000000E+00 0.  1.
</event>
<event>
 4    1  0.3593938E+003  0.2488163E+02  0.7546771E-02  0.1470132E+00
          2   -1    0    0  502    0  0.00000000000E+00  0.00000000000E+00  0.32951406435E+03  0.32951406435E+03  0.00000000000E+00 0.  1.
          1   -1    0    0  501    0 -0.00000000000E+00 -0.00000000000E+00 -0.28551362797E+01  0.28551362797E+01  0.00000000000E+00 0. -1.
          2    1    1    2  501    0 -0.11125404893E+02 -0.22255810833E+02  0.26050878937E+03  0.26169433523E+03  0.00000000000E+00 0.  1.
          1    1    1    2  502    0  0.11125404893E+02  0.22255810833E+02  0.66150138698E+02  0.70674865402E+02  0.00000000000E+00 0. -1.
</event>
<event>
 4    1  0.3593938E+003  0.2159060E+02  0.7546771E-02  0.1510997E+00
          2   -1    0    0  502    0  0.00000000000E+00  0.00000000000E+00  0.95931768081E+03  0.95931768081E+03  0.00000000000E+00 0. -1.
          1   -1    0    0  501    0 -0.00000000000E+00 -0.00000000000E+00 -0.61117453930E+01  0.61117453930E+01  0.00000000000E+00 0.  1.
          2    1    1    2  501    0 -0.17556158421E+02 -0.12567225044E+02  0.93973086845E+03  0.93997886091E+03  0.00000000000E+00 0. -1.
          1    1    1    2  502    0  0.17556158421E+02  0.12567225044E+02  0.13475066965E+02  0.25450565289E+02  0.00000000000E+00 0.  1.
</event>
<event>
 4    1  0.3593938E+003  0.2158297E+02  0.7546771E-02  0.1511102E+00
          2   -1    0    0  502    0  0.00000000000E+00  0.00000000000E+00  0.19123367241E+04  0.19123367241E+04  0.00000000000E+00 0.  1.
          1   -1    0    0  501    0 -0.00000000000E+00 -0.00000000000E+00 -0.29123715916E+00  0.29123715916E+00  0.00000000000E+00 0.  1.
          2    1    1    2  501    0  0.20510276362E+02  0.67195964573E+01  0.13428344815E+04  0.13430079185E+04  0.00000000000E+00 0.  1.
          1    1    1    2  502    0 -0.20510276362E+02 -0.67195964573E+01  0.56921100545E+03  0.56962004278E+03  0.00000000000E+00 0.  1.
</event>
<event>
 4    1  0.3593938E+003  0.5695247E+02  0.7546771E-02  0.1270554E+00
          2   -1    0    0  502    0  0.00000000000E+00  0.00000000000E+00  0.50686908086E+01  0.50686908086E+01  0.00000000000E+00 0.  1.
          1   -1    0    0  501    0 -0.00000000000E+00 -0.00000000000E+00 -0.13159265263E+04  0.13159265263E+04  0.00000000000E+00 0. -1.
          2    1    1    2  501    0 -0.52499936397E+02  0.22075781115E+02 -0.18202791445E+03  0.19072950761E+03  0.00000000000E+00 0.  1.
          1    1    1    2  502    0  0.52499936397E+02 -0.22075781115E+02 -0.11288299211E+04  0.11302657095E+04  0.00000000000E+00 0. -1.
</event>
<event>
 4    1  0.3593938E+003  0.4443372E+02  0.7546771E-02  0.1324295E+00
          2   -1    0    0  502    0  0.00000000000E+00  0.00000000000E+00  0.18149336514E+03  0.18149336514E+03  0.00000000000E+00 0.  1.
          1   -1    0    0  501    0 -0.00000000000E+00 -0.00000000000E+00 -0.18033131425E+02  0.18033131425E+02  0.00000000000E+00 0. -1.
          2    1    1    2  501    0 -0.30004979910E+02  0.32772801257E+02  0.14456951644E+03  0.15124384419E+03  0.00000000000E+00 0.  1.
          1    1    1    2  502    0  0.30004979910E+02 -0.32772801257E+02  0.18890717281E+02  0.48282652382E+02  0.00000000000E+00 0. -1.
</event>
<event>
 4    1  0.3593938E+003  0.6410431E+02  0.7546771E-02  0.1246491E+00
          2   -1    0    0  502    0  0.00000000000E+00  0.00000000000E+00  0.28186254017E+01  0.28186254017E+01  0.00000000000E+00 0.  1.
          1   -1    0    0  501    0 -0.00000000000E+00 -0.00000000000E+00 -0.20965255948E+04  0.20965255948E+04  0.00000000000E+00 0.  1.
          2    1    1    2  501    0 -0.59980837931E+02  0.22619936086E+02 -0.46753676490E+03  0.47191099687E+03  0.00000000000E+00 0.  1.
          1    1    1    2  502    0  0.59980837931E+02 -0.22619936086E+02 -0.16261702045E+04  0.16274332233E+04  0.00000000000E+00 0.  1.
</event>
<event>
 4    1  0.3593938E+003  0.2000372E+02  0.7546771E-02  0.1533979E+00
          2   -1    0    0  502    0  0.00000000000E+00  0.00000000000E+00  0.69170801449E+03  0.69170801449E+03  0.00000000000E+00 0. -1.
          1   -1    0    0  501    0 -0.00000000000E+00 -0.00000000000E+00 -0.22405972164E+02  0.22405972164E+02  0.00000000000E+00 0.  1.
          2    1    1    2  501    0  0.19083428168E+02  0.59976406320E+01  0.68706849106E+03  0.68735962955E+03  0.00000000000E+00 0. -1.
          1    1    1    2  502    0 -0.19083428168E+02 -0.59976406320E+01 -0.17766448732E+02  0.26754357109E+02  0.00000000000E+00 0.  1.
</event>
<event>
 4    1  0.3593938E+003  0.2705381E+02  0.7546771E-02  0.1447068E+00
          2   -1    0    0  502    0  0.00000000000E+00  0.00000000000E+00  0.79063811010E+02  0.79063811010E+02  0.00000000000E+00 0. -1.
          1   -1    0    0  501    0 -0.00000000000E+00 -0.00000000000E+00 -0.28153709192E+02  0.28153709192E+02  0.00000000000E+00 0. -1.
          2    1    1    2  501    0 -0.26257439573E+02 -0.65158049951E+01  0.69374697874E+02  0.74463128814E+02  0.00000000000E+00 0. -1.
          1    1    1    2  502    0  0.26257439573E+02  0.65158049951E+01 -0.18464596056E+02  0.32754391388E+02  0.00000000000E+00 0. -1.
</event>
<event>
 4    1  0.3593938E+003  0.5946881E+02  0.7546771E-02  0.1261648E+00
          2   -1    0    0  502    0  0.00000000000E+00  0.00000000000E+00  0.74257915341E+02  0.74257915341E+02  0.00000000000E+00 0.  1.
          1   -1    0    0  501    0 -0.00000000000E+00 -0.00000000000E+00 -0.33862436062E+03  0.33862436062E+03  0.00000000000E+00 0. -1.
          2    1    1    2  501    0  0.78238829167E+01 -0.58951896416E+02  0.59190851365E+02  0.83905280646E+02  0.00000000000E+00 0.  1.
          1    1    1    2  502    0 -0.78238829167E+01  0.58951896416E+02 -0.32355729665E+03  0.32897699532E+03  0.00000000000E+00 0. -1.
</event>
<event>
 4    1  0.3593938E+003  0.2768325E+02  0.7546771E-02  0.1440863E+00
          2   -1    0    0  502    0  0.00000000000E+00  0.00000000000E+00  0.52104307065E+02  0.52104307065E+02  0.00000000000E+00 0. -1.
          1   -1    0    0  501    0 -0.00000000000E+00 -0.00000000000E+00 -0.72869525499E+03  0.72869525499E+03  0.00000000000E+00 0. -1.
          2    1    1    2  501    0  0.11967890929E+02 -0.24962606448E+02  0.48144242158E+02  0.55535845964E+02  0.00000000000E+00 0. -1.
          1    1    1    2  502    0 -0.11967890929E+02  0.24962606448E+02 -0.72473519009E+03  0.72526371609E+03  0.00000000000E+00 0. -1.
</event>
<event>
 4    1  0.3593938E+003  0.5176441E+02  0.7546771E-02  0.1290699E+00
          2   -1    0    0  502    0  0.00000000000E+00  0.00000000000E+00  0.20746289359E+02  0.20746289359E+02  0.00000000000E+00 0. -1.
          1   -1    0    0  501    0 -0.00000000000E+00 -0.00000000000E+00 -0.12322221436E+04  0.12322221436E+04  0.00000000000E+00 0.  1.
          2    1    1    2  501    0  0.51079706109E+02  0.83915384486E+01 -0.12995566689E+02  0.53370769596E+02  0.00000000000E+00 0. -1.
          1    1    1    2  502    0 -0.51079706109E+02 -0.83915384486E+01 -0.11984802876E+04  0.11995976634E+04  0.00000000000E+00 0.  1.
</event>
<event>
 4    1  0.3593938E+003  0.2292922E+02  0.7546771E-02  0.1493389E+00
          2   -1    0    0  502    0  0.00000000000E+00  0.00000000000E+00  0.35135122907E+02  0.35135122907E+02  0.00000000000E+00 0.  1.
          1   -1    0    0  501    0 -0.00000000000E+00 -0.00000000000E+00 -0.50722531477E+02  0.50722531477E+02  0.00000000000E+00 0.  1.
          2    1    1    2  501    0  0.21386079764E+02 -0.82695127399E+01  0.28250928170E+02  0.36384944566E+02  0.00000000000E+00 0.  1.
          1    1    1    2  502    0 -0.21386079764E+02  0.82695127399E+01 -0.43838336739E+02  0.49472709818E+02  0.00000000000E+00 0.  1.
</event>
<event>
 4    1  0.3593938E+003  0.2692217E+02  0.7546771E-02  0.1448391E+00
          2   -1    0    0  502    0  0.00000000000E+00  0.00000000000E+00  0.33189796830E+03  0.33189796830E+03  0.00000000000E+00 0.  1.
          1   -1    0    0  501    0 -0.00000000000E+00 -0.00000000000E+00 -0.21948529298E+01  0.21948529298E+01  0.00000000000E+00 0.  1.
          2    1    1    2  501    0  0.26035623747E+02 -0.68519841637E+01  0.17669833498E+03  0.17873753097E+03  0.00000000000E+00 0.  1.
          1    1    1    2  502    0 -0.26035623747E+02  0.68519841637E+01  0.15300478039E+03  0.15535529026E+03  0.00000000000E+00 0.  1.
</event>
<event>
 4    1  0.3593938E+003  0.3349107E+02  0.7546771E-02  0.1391493E+00
          2   -1    0    0  502    0  0.00000000000E+00  0.00000000000E+00  0.13030080503E+02  0.13030080503E+02  0.00000000000E+00 0. -1.
          1   -1    0    0  501    0 -0.00000000000E+00 -0.00000000000E+00 -0.88632046986E+02  0.88632046986E+02  0.00000000000E+00 0. -1.
          2    1    1    2  501    0  0.31824369855E+02  0.10433618858E+02 -0.46423560907E+02  0.57243322112E+02  0.00000000000E+00 0. -1.
          1    1    1    2  502    0 -0.31824369855E+02 -0.10433618858E+02 -0.29178405577E+02  0.44418805377E+02  0.00000000000E+00 0. -1.
</event>
<event>
 4    1  0.3593938E+003  0.4237143E+02  0.7546771E-02  0.1335123E+00
          2   -1    0    0  502    0  0.00000000000E+00  0.00000000000E+00  0.13448947937E+04  0.13448947937E+04  0.00000000000E+00 0.  1.
          1   -1    0    0  501    0 -0.00000000000E+00 -0.00000000000E+00 -0.65434982719E+02  0.65434982719E+02  0.00000000000E+00 0.  1.
          2    1    1    2  501    0 -0.24211929191E+02  0.34772413801E+02  0.13376647520E+04  0.13383356556E+04  0.00000000000E+00 0.  1.
          1    1    1    2  502    0  0.24211929191E+02 -0.34772413801E+02 -0.58204941012E+02  0.71994120836E+02  0.00000000000E+00 0.  1.
</event>
<event>
 4    1  0.3593938E+003  0.2533649E+02  0.7546771E-02  0.1465074E+00
          2   -1    0    0  502    0  0.00000000000E+00  0.00000000000E+00  0.17587136919E+02  0.17587136919E+02  0.00000000000E+00 0.  1.
          1   -1    0    0  501    0 -0.00000000000E+00 -0.00000000000E+00 -0.58623459092E+02  0.58623459092E+02  0.00000000000E+00 0. -1.
          2    1    1    2  501    0  0.22232444500E+02  0.12151387838E+02  0.28902574649E+01  0.25500811811E+02  0.00000000000E+00 0.  1.
          1    1    1    2  502    0 -0.22232444500E+02 -0.12151387838E+02 -0.43926579638E+02  0.50709784199E+02  0.00000000000E+00 0. -1.
</event>
<event>
 4    1  0.3593938E+003  0.2361527E+02  0.7546771E-02  0.1484913E+00
          2   -1    0    0  502    0  0.00000000000E+00  0.00000000000E+00  0.16877587840E+04  0.16877587840E+04  0.00000000000E+00 0. -1.
          1   -1    0    0  501    0 -0.00000000000E+00 -0.00000000000E+00 -0.14027214491E+02  0.14027214491E+02  0.00000000000E+00 0. -1.
          2    1    1    2  501    0  0.16297543579E+02  0.17090080462E+02  0.16776771882E+04  0.16778433862E+04  0.00000000000E+00 0. -1.
          1    1    1    2  502    0 -0.16297543579E+02 -0.17090080462E+02 -0.39456186909E+01  0.23942612300E+02  0.00000000000E+00 0. -1.
</event>
<event>
 4    1  0.3593938E+003  0.2232719E+02  0.7546771E-02  0.1501124E+00
          2   -1    0    0  502    0  0.00000000000E+00  0.00000000000E+00  0.10810571748E+04  0.10810571748E+04  0.00000000000E+00 0. -1.
          1   -1    0    0  501    0 -0.00000000000E+00 -0.00000000000E+00 -0.10315164842E+02  0.10315164842E+02  0.00000000000E+00 0. -1.
          2    1    1    2  501    0  0.11980292028E+02 -0.18840810447E+02  0.10687206327E+04  0.10689538317E+04  0.00000000000E+00 0. -1.
          1    1    1    2  502    0 -0.11980292028E+02  0.18840810447E+02  0.20213773256E+01  0.22418508016E+02  0.00000000000E+00 0. -1.
</event>
<event>
 4    1  0.3593938E+003  0.2655474E+02  0.7546771E-02  0.1452133E+00
          2   -1    0    0  502    0  0.00000000000E+00  0.00000000000E+00  0.46014809774E+02  0.46014809774E+02  0.00000000000E+00 0.  1.
          1   -1    0    0  501    0 -0.00000000000E+00 -0.00000000000E+00 -0.38930404461E+02  0.38930404461E+02  0.00000000000E+00 0.  1.
          2    1    1    2  501    0 -0.25935354416E+02  0.57019084790E+01  0.36615287250E+02  0.45230892423E+02  0.00000000000E+00 0.  1.
          1    1    1    2  502    0  0.25935354416E+02 -0.57019084790E+01 -0.29530881938E+02  0.39714321812E+02  0.00000000000E+00 0.  1.
</event>
<event>
 4    1  0.3593938E+003  0.2305671E+02  0.7546771E-02  0.1491787E+00
          2   -1    0    0  502    0  0.00000000000E+00  0.00000000000E+00  0.14335702654E+03  0.14335702654E+03  0.00000000000E+00 0. -1.
          1   -1    0    0  501    0 -0.00000000000E+00 -0.00000000000E+00 -0.39761859715E+01  0.39761859715E+01  0.00000000000E+00 0. -1.
          2    1    1    2  501    0 -0.19025703191E+00 -0.23055924768E+02  0.88811245515E+02  0.91755376924E+02  0.00000000000E+00 0. -1.
          1    1    1    2  502    0  0.19025703191E+00  0.23055924768E+02  0.50569595056E+02  0.55577835590E+02  0.00000000000E+00 0. -1.
</event>
<event>
 4    1  0.3593938E+003  0.2576920E+02  0.7546771E-02  0.1460379E+00
          2   -1    0    0  502    0  0.00000000000E+00  0.00000000000E+00  0.19853335334E+04  0.19853335334E+04  0.00000000000E+00 0.  1.
          1   -1    0    0  501    0 -0.00000000000E+00 -0.00000000000E+00 -0.56378445727E+00  0.56378445727E+00  0.00000000000E+00 0. -1.
          2    1    1    2  501    0 -0.25703874516E+02 -0.18336761888E+01  0.16256387274E+04  0.16258429578E+04  0.00000000000E+00 0.  1.
          1    1    1    2  502    0  0.25703874516E+02  0.18336761888E+01  0.35913102153E+03  0.36005436000E+03  0.00000000000E+00 0. -1.
</event>
<event>
 4    1  0.3593938E+003  0.1191425E+03  0.7546771E-02  0.1134237E+00
          2   -1    0    0  502    0  0.00000000000E+00  0.00000000000E+00  0.98704431265E+03  0.98704431265E+03  0.00000000000E+00 0. -1.
          1   -1    0    0  501    0 -0.00000000000E+00 -0.00000000000E+00 -0.51824879553E+02  0.51824879553E+02  0.00000000000E+00 0.  1.
          2    1    1    2  501    0  0.76177579146E+02  0.91607379618E+02  0.90913000450E+03  0.91690364850E+03  0.00000000000E+00 0. -1.
          1    1    1    2  502    0 -0.76177579146E+02 -0.91607379618E+02  0.26089428601E+02  0.12196554370E+03  0.00000000000E+00 0.  1.
</event>
<event>
 4    1  0.3593938E+003  0.3030229E+02  0.7546771E-02  0.1416987E+00
          2   -1    0    0  502    0  0.00000000000E+00  0.00000000000E+00  0.12053870057E+04  0.12053870057E+04  0.00000000000E+00 0. -1.
          1   -1    0    0  501    0 -0.00000000000E+00 -0.00000000000E+00 -0.44071898131E+01  0.44071898131E+01  0.00000000000E+00 0. -1.
          2    1    1    2  501    0 -0.28225590802E+02 -0.11024733717E+02  0.11506313291E+04  0.11510302708E+04  0.00000000000E+00 0. -1.
          1    1    1    2  502    0  0.28225590802E+02  0.11024733717E+02  0.50348486819E+02  0.58763924772E+02  0.00000000000E+00 0. -1.
</event>
<event>
 4    1  0.3593938E+003  0.2089444E+02  0.7546771E-02  0.1520777E+00
          2   -1    0    0  502    0  0.00000000000E+00  0.00000000000E+00  0.23841317093E+03  0.23841317093E+03  0.00000000000E+00 0. -1.
          1   -1    0    0  501    0 -0.00000000000E+00 -0.00000000000E+00 -0.72493461040E+01  0.72493461040E+01  0.00000000000E+00 0. -1.
          2    1    1    2  501    0  0.79273814726E+00 -0.20879399720E+02  0.22177239275E+03  0.22275451051E+03  0.00000000000E+00 0. -1.
          1    1    1    2  502    0 -0.79273814726E+00  0.20879399720E+02  0.93914320748E+01  0.22908006523E+02  0.00000000000E+00 0. -1.
</event>
<event>
 4    1  0.3593938E+003  0.2328543E+02  0.7546771E-02  0.1488945E+00
          2   -1    0    0  502    0  0.00000000000E+00  0.00000000000E+00  0.72291512043E+03  0.72291512043E+03  0.00000000000E+00 0. -1.
          1   -1    0    0  501    0 -0.00000000000E+00 -0.00000000000E+00 -0.20018437220E+01  0.20018437220E+01  0.00000000000E+00 0. -1.
          2    1    1    2  501    0  0.19825340582E+02  0.12213390466E+02  0.64708048111E+03  0.64749931279E+03  0.00000000000E+00 0. -1.
          1    1    1    2  502    0 -0.19825340582E+02 -0.12213390466E+02  0.73832795597E+02  0.77417651356E+02  0.00000000000E+00 0. -1.
</event>
<event>
 4    1  0.3593938E+003  0.2285006E+02  0.7546771E-02  0.1494390E+00
          2   -1    0    0  502    0  0.00000000000E+00  0.00000000000E+00  0.58504991500E+02  0.58504991500E+02  0.00000000000E+00 0.  1.
          1   -1    0    0  501    0 -0.00000000000E+00 -0.00000000000E+00 -0.34131088191E+02  0.34131088191E+02  0.00000000000E+00 0. -1.
          2    1    1    2  501    0 -0.20521357489E+02  0.10049831274E+02  0.51991483165E+02  0.56791192482E+02  0.00000000000E+00 0.  1.
          1    1    1    2  502    0  0.20521357489E+02 -0.10049831274E+02 -0.27617579856E+02  0.35844887208E+02  0.00000000000E+00 0. -1.
</event>
<event>
 4    1  0.3593938E+003  0.2118246E+02  0.7546771E-02  0.1516676E+00
          2   -1    0    0  502    0  0.00000000000E+00  0.00000000000E+00  0.36895329899E+03  0.36895329899E+03  0.00000000000E+00 0. -1.
          1   -1    0    0  501    0 -0.00000000000E+00 -0.00000000000E+00 -0.19954724611E+01  0.19954724611E+01  0.00000000000E+00 0. -1.
          2    1    1    2  501    0 -0.35596910856E+00  0.21179468790E+02  0.29938978084E+03  0.30013819730E+03  0.00000000000E+00 0. -1.
          1    1    1    2  502    0  0.35596910856E+00 -0.21179468790E+02  0.67568045694E+02  0.70810574148E+02  0.00000000000E+00 0. -1.
</event>
<event>
 4    1  0.3593938E+003  0.3922535E+02  0.7546771E-02  0.1353086E+00
          2   -1    0    0  502    0  0.00000000000E+00  0.00000000000E+00  0.13403146504E+02  0.13403146504E+02  0.00000000000E+00 0.  1.
          1   -1    0    0  501    0 -0.00000000000E+00 -0.00000000000E+00 -0.12402123416E+03  0.12402123416E+03  0.00000000000E+00 0.  1.
          2    1    1    2  501    0 -0.30370128417E+02  0.24825049935E+02 -0.36568848228E+02  0.53627497285E+02  0.00000000000E+00 0.  1.
          1    1    1    2  502    0  0.30370128417E+02 -0.24825049935E+02 -0.74049239427E+02  0.83796883379E+02  0.00000000000E+00 0.  1.
</event>
<event>
 4    1  0.3593938E+003  0.2116914E+02  0.7546771E-02  0.1516864E+00
          2   -1    0    0  502    0  0.00000000000E+00  0.00000000000E+00  0.90744890794E+03  0.90744890794E+03  0.00000000000E+00 0. -1.
          1   -1    0    0  501    0 -0.00000000000E+00 -0.00000000000E+00 -0.17841504222E+01  0.17841504222E+01  0.00000000000E+00 0. -1.
          2    1    1    2  501    0 -0.33079925638E-02 -0.21169144144E+02  0.83944581411E+03  0.83971269343E+03  0.00000000000E+00 0. -1.
          1    1    1    2  502    0  0.33079925638E-02  0.21169144144E+02  0.66218943406E+02  0.69520364934E+02  0.00000000000E+00 0. -1.
</event>
<event>
 4    1  0.3593938E+003  0.2266591E+02  0.7546771E-02  0.1496737E+00
          2   -1    0    0  502    0  0.00000000000E+00  0.00000000000E+00  0.10520262696E+03  0.10520262696E+03  0.00000000000E+00 0. -1.
          1   -1    0    0  501    0 -0.00000000000E+00 -0.00000000000E+00 -0.19001947782E+02  0.19001947782E+02  0.00000000000E+00 0.  1.
          2    1    1    2  501    0 -0.14736545667E+02  0.17221425878E+02  0.96631175018E+02  0.99253852685E+02  0.00000000000E+00 0. -1.
          1    1    1    2  502    0  0.14736545667E+02 -0.17221425878E+02 -0.10430495844E+02  0.24950722054E+02  0.00000000000E+00 0.  1.
</event>
<event>
 4    1  0.3593938E+003  0.2246131E+02  0.7546771E-02  0.1499376E+00
          2   -1    0    0  502    0  0.00000000000E+00  0.00000000000E+00  0.43653314149E+01  0.43653314149E+01  0.00000000000E+00 0.  1.
          1   -1    0    0  501    0 -0.00000000000E+00 -0.00000000000E+00 -0.12132942254E+04  0.12132942254E+04  0.00000000000E+00 0. -1.
          2    1    1    2  501    0 -0.10579957331E+01  0.22436374757E+02 -0.25357144982E+02  0.33874696587E+02  0.00000000000E+00 0.  1.
          1    1    1    2  502    0  0.10579957331E+01 -0.22436374757E+02 -0.11835717490E+04  0.11837848602E+04  0.00000000000E+00 0. -1.
</event>
<event>
 4    1  0.3593938E+003  0.2640286E+02  0.7546771E-02  0.1453700E+00
          2   -1    0    0  502    0  0.00000000000E+00  0.00000000000E+00  0.14851790633E+02  0.14851790633E+02  0.00000000000E+00 0.  1.
          1   -1    0    0  501    0 -0.00000000000E+00 -0.00000000000E+00 -0.47722932890E+02  0.47722932890E+02  0.00000000000E+00 0. -1.
          2    1    1    2  501    0  0.14242156739E+02 -0.22232234291E+02 -0.12422652452E+02  0.29179334538E+02  0.00000000000E+00 0.  1.
          1    1    1    2  502    0 -0.14242156739E+02  0.22232234291E+02 -0.20448489805E+02  0.33395388985E+02  0.00000000000E+00 0. -1.
</event>
<event>
 4    1  0.3593938E+003  0.3063055E+02  0.7546771E-02  0.1414195E+00
          2   -1    0    0  502    0  0.00000000000E+00  0.00000000000E+00  0.90368534564E+03  0.90368534564E+03  0.00000000000E+00 0.  1.
          1   -1    0    0  501    0 -0.00000000000E+00 -0.00000000000E+00 -0.10972034786E+01  0.10972034786E+01  0.00000000000E+00 0.  1.
          2    1    1    2  501    0  0.69623141993E+01 -0.29828789399E+02  0.55617829540E+03  0.55702111878E+03  0.00000000000E+00 0.  1.
          1    1    1    2  502    0 -0.69623141993E+01  0.29828789399E+02  0.34640984676E+03  0.34776143033E+03  0.00000000000E+00 0.  1.
</event>
<event>
 4    1  0.3593938E+003  0.4119340E+02  0.7546771E-02  0.1341631E+00
          2   -1    0    0  502    0  0.00000000000E+00  0.00000000000E+00  0.10804321157E+04  0.10804321157E+04  0.00000000000E+00 0.  1.
          1   -1    0    0  501    0 -0.00000000000E+00 -0.00000000000E+00 -0.21522956591E+02  0.21522956591E+02  0.00000000000E+00 0.  1.
          2    1    1    2  501    0  0.26643002122E+02  0.31417296812E+02  0.10599484067E+04  0.10607485663E+04  0.00000000000E+00 0.  1.
          1    1    1    2  502    0 -0.26643002122E+02 -0.31417296812E+02 -0.10392475559E+01  0.41206505997E+02  0.00000000000E+00 0.  1.
</event>
<event>
 4    1  0.3593938E+003  0.8861071E+02  0.7546771E-02  0.1185156E+00
          2   -1    0    0  502    0  0.00000000000E+00  0.00000000000E+00  0.14471217458E+04  0.14471217458E+04  0.00000000000E+00 0.  1.
          1   -1    0    0  501    0 -0.00000000000E+00 -0.00000000000E+00 -0.15238785051E+02  0.15238785051E+02  0.00000000000E+00 0. -1.
          2    1    1    2  501    0  0.53074246485E+02 -0.70957609998E+02  0.13026857625E+04  0.13056960036E+04  0.00000000000E+00 0.  1.
          1    1    1    2  502    0 -0.53074246485E+02  0.70957609998E+02  0.12919719825E+03  0.15666452723E+03  0.00000000000E+00 0. -1.
</event>
<event>
 4    1  0.3593938E+003  0.2463520E+02  0.7546771E-02  0.1472926E+00
          2   -1    0    0  502    0  0.00000000000E+00  0.00000000000E+00  0.16506765714E+02  0.16506765714E+02  0.00000000000E+00 0.  1.
          1   -1    0    0  501    0 -0.00000000000E+00 -0.00000000000E+00 -0.55799528589E+02  0.55799528589E+02  0.00000000000E+00 0.  1.
          2    1    1    2  501    0  0.70872371449E+01 -0.23593727888E+02  0.14684160091E+01  0.24678921605E+02  0.00000000000E+00 0.  1.
          1    1    1    2  502    0 -0.70872371449E+01  0.23593727888E+02 -0.40761178885E+02  0.47627372698E+02  0.00000000000E+00 0.  1.
</event>
<event>
 4    1  0.3593938E+003  0.2448387E+02  0.7546771E-02  0.1474661E+00
          2   -1    0    0  502    0  0.00000000000E+00  0.00000000000E+00  0.16756639308E+04  0.16756639308E+04  0.00000000000E+00 0. -1.
          1   -1    0    0  501    0 -0.00000000000E+00 -0.00000000000E+00 -0.39172446242E+00  0.39172446242E+00  0.00000000000E+00 0.  1.
          2    1    1    2  501    0  0.16688593371E+02  0.17915097192E+02  0.10844549919E+04  0.10847313443E+04  0.00000000000E+00 0. -1.
          1    1    1    2  502    0 -0.16688593371E+02 -0.17915097192E+02  0.59081721445E+03  0.59132431097E+03  0.00000000000E+00 0.  1.
</event>
<event>
 4    1  0.3593938E+003  0.3846151E+02  0.7546771E-02  0.1357745E+00
          2   -1    0    0  502    0  0.00000000000E+00  0.00000000000E+00  0.58600383403E+03  0.58600383403E+03  0.00000000000E+00 0. -1.
          1   -1    0    0  501    0 -0.00000000000E+00 -0.00000000000E+00 -0.58145957427E+01  0.58145957427E+01  0.00000000000E+00 0.  1.
          2    1    1    2  501    0 -0.20107065492E+01 -0.38408915038E+02  0.51268781785E+03  0.51412847253E+03  0.00000000000E+00 0. -1.
          1    1    1    2  502    0  0.20107065492E+01  0.38408915038E+02  0.67501420439E+02  0.77689957244E+02  0.00000000000E+00 0.  1.
</event>
<event>
 4    1  0.3593938E+003  0.2129405E+02  0.7546771E-02  0.1515108E+00
          2   -1    0    0  502    0  0.00000000000E+00  0.00000000000E+00  0.26192996128E+02  0.26192996128E+02  0.00000000000E+00 0. -1.
          1   -1    0    0  501    0 -0.00000000000E+00 -0.00000000000E+00 -0.59753423385E+02  0.59753423385E+02  0.00000000000E+00 0.  1.
          2    1    1    2  501    0  0.26707607557E+01 -0.21125899427E+02  0.19436963926E+02  0.28831097036E+02  0.00000000000E+00 0. -1.
          1    1    1    2  502    0 -0.26707607557E+01  0.21125899427E+02 -0.52997391183E+02  0.57115322478E+02  0.00000000000E+00 0.  1.
</event>
<event>
 4    1  0.3593938E+003  0.2078950E+02  0.7546771E-02  0.1522292E+00
          2   -1    0    0  502    0  0.00000000000E+00  0.00000000000E+00  0.34733357281E+02  0.34733357281E+02  0.00000000000E+00 0. -1.
          1   -1    0    0  501    0 -0.00000000000E+00 -0.00000000000E+00 -0.83115281336E+02  0.83115281336E+02  0.00000000000E+00 0. -1.
          2    1    1    2  501    0  0.11284423347E+01 -0.20758850959E+02  0.30143736887E+02  0.36617593433E+02  0.00000000000E+00 0. -1.
          1    1    1    2  502    0 -0.11284423347E+01  0.20758850959E+02 -0.78525660942E+02  0.81231045184E+02  0.00000000000E+00 0. -1.
</event>
<event>
 4    1  0.3593938E+003  0.3215434E+02  0.7546771E-02  0.1401755E+00
          2   -1    0    0  502    0  0.00000000000E+00  0.00000000000E+00  0.13053023768E+03  0.13053023768E+03  0.00000000000E+00 0. -1.
          1   -1    0    0  501    0 -0.00000000000E+00 -0.00000000000E+00 -0.25767432828E+02  0.25767432828E+02  0.00000000000E+00 0. -1.
          2    1    1    2  501    0 -0.21261531511E+02  0.24121546008E+02  0.11741911868E+03  0.12174215020E+03  0.00000000000E+00 0. -1.
          1    1    1    2  502    0  0.21261531511E+02 -0.24121546008E+02 -0.12656313828E+02  0.34555520308E+02  0.00000000000E+00 0. -1.
</event>
<event>
 4    1  0.3593938E+003  0.2111156E+02  0.7546771E-02  0.1517678E+00
          2   -1    0    0  502    0  0.00000000000E+00  0.00000000000E+00  0.44581515419E+03  0.44581515419E+03  0.00000000000E+00 0.  1.
          1   -1    0    0  501    0 -0.00000000000E+00 -0.00000000000E+00 -0.59829958043E+01  0.59829958043E+01  0.00000000000E+00 0.  1.
          2    1    1    2  501    0  0.11097584437E+02 -0.17959438146E+02  0.42607960608E+03  0.42660230721E+03  0.00000000000E+00 0.  1.
          1    1    1    2  502    0 -0.11097584437E+02  0.17959438146E+02  0.13752552310E+02  0.25195842790E+02  0.00000000000E+00 0.  1.
</event>
<event>
 4    1  0.3593938E+003  0.6156522E+02  0.7546771E-02  0.1254605E+00
          2   -1    0    0  502    0  0.00000000000E+00  0.00000000000E+00  0.24373881605E+04  0.24373881605E+04  0.00000000000E+00 0. -1.
          1   -1    0    0  501    0 -0.00000000000E+00 -0.00000000000E+00 -0.22692597322E+01  0.22692597322E+01  0.00000000000E+00 0. -1.
          2    1    1    2  501    0  0.41062295890E+02  0.45871166769E+02  0.19018927610E+04  0.19028889485E+04  0.00000000000E+00 0. -1.
          1    1    1    2  502    0 -0.41062295890E+02 -0.45871166769E+02  0.53322613978E+03  0.53676847172E+03  0.00000000000E+00 0. -1.
</event>
<event>
 4    1  0.3593938E+003  0.3854571E+02  0.7546771E-02  0.1357225E+00
          2   -1    0    0  502    0  0.00000000000E+00  0.00000000000E+00  0.79787760086E+03  0.79787760086E+03  0.00000000000E+00 0.  1.
          1   -1    0    0  501    0 -0.00000000000E+00 -0.00000000000E+00 -0.30984372192E+01  0.30984372192E+01  0.00000000000E+00 0.  1.
          2    1    1    2  501    0  0.36843025278E+02 -0.11329750870E+02  0.65036422315E+03  0.65150548311E+03  0.00000000000E+00 0.  1.
          1    1    1    2  502    0 -0.36843025278E+02  0.11329750870E+02  0.14441494049E+03  0.14947055497E+03  0.00000000000E+00 0.  1.
</event>
<event>
 4    1  0.3593938E+003  0.2095841E+02  0.7546771E-02  0.1519859E+00
          2   -1    0    0  502    0  0.00000000000E+00  0.00000000000E+00  0.48035658324E+00  0.48035658324E+00  0.00000000000E+00 0.  1.
          1   -1    0    0  501    0 -0.00000000000E+00 -0.00000000000E+00 -0.93384859783E+03  0.93384859783E+03  0.00000000000E+00 0.  1.
          2    1    1    2  501    0 -0.78136123262E+01  0.19447420492E+02 -0.53404202524E+03  0.53445312182E+03  0.00000000000E+00 0.  1.
          1    1    1    2  502    0  0.78136123262E+01 -0.19447420492E+02 -0.39932621600E+03  0.39987583259E+03  0.00000000000E+00 0.  1.
</event>
<event>
 4    1  0.3593938E+003  0.3376416E+02  0.7546771E-02  0.1389466E+00
          2   -1    0    0  502    0  0.00000000000E+00  0.00000000000E+00  0.75803186217E+03  0.75803186217E+03  0.00000000000E+00 0. -1.
          1   -1    0    0  501    0 -0.00000000000E+00 -0.00000000000E+00 -0.54620314179E+01  0.54620314179E+01  0.00000000000E+00 0.  1.
          2    1    1    2  501    0 -0.20226919968E+02 -0.27034977692E+02  0.70125437851E+03  0.70206675016E+03  0.00000000000E+00 0. -1.
          1    1    1    2  502    0  0.20226919968E+02  0.27034977692E+02  0.51315452250E+02  0.61427143429E+02  0.00000000000E+00 0.  1.
</event>
<event>
 4    1  0.3593938E+003  0.2460721E+02  0.7546771E-02  0.1473246E+00
          2   -1    0    0  502    0  0.00000000000E+00  0.00000000000E+00  0.47721343284E+03  0.47721343284E+03  0.00000000000E+00 0. -1.
          1   -1    0    0  501    0 -0.00000000000E+00 -0.00000000000E+00 -0.36236975247E+01  0.36236975247E+01  0.00000000000E+00 0. -1.
          2    1    1    2  501    0  0.15762259992E-01  0.24607201990E+02  0.43060343383E+03  0.43130596085E+03  0.00000000000E+00 0. -1.
          1    1    1    2  502    0 -0.15762259992E-01 -0.24607201990E+02  0.42986301490E+02  0.49531169520E+02  0.00000000000E+00 0. -1.
</event>
<event>
 4    1  0.3593938E+003  0.2049185E+02  0.7546771E-02  0.1526645E+00
          2   -1    0    0  502    0  0.00000000000E+00  0.00000000000E+00  0.10873948699E+03  0.10873948699E+03  0.00000000000E+00 0.  1.
          1   -1    0    0  501    0 -0.00000000000E+00 -0.00000000000E+00 -0.42157897175E+01  0.42157897175E+01  0.00000000000E+00 0.  1.
          2    1    1    2  501    0 -0.13052920188E+02  0.15796741721E+02  0.68630521442E+02  0.71624466824E+02  0.00000000000E+00 0.  1.
          1    1    1    2  502    0  0.13052920188E+02 -0.15796741721E+02  0.35893175833E+02  0.41330809886E+02  0.00000000000E+00 0.  1.
</event>
<event>
 4    1  0.3593938E+003  0.2238160E+02  0.7546771E-02  0.1500413E+00
          2   -1    0    0  502    0  0.00000000000E+00  0.00000000000E+00  0.85917986051E+01  0.85917986051E+01  0.00000000000E+00 0.  1.
          1   -1    0    0  501    0 -0.00000000000E+00 -0.00000000000E+00 -0.76933081705E+02  0.76933081705E+02  0.00000000000E+00 0.  1.
          2    1    1    2  501    0 -0.21243039160E+02 -0.70476328336E+01 -0.13127907797E+02  0.25947597277E+02  0.00000000000E+00 0.  1.
          1    1    1    2  502    0  0.21243039160E+02  0.70476328336E+01 -0.55213375303E+02  0.59577283033E+02  0.00000000000E+00 0.  1.
</event>
<event>
 4    1  0.3593938E+003  0.2020940E+02  0.7546771E-02  0.1530858E+00
          2   -1    0    0  502    0  0.00000000000E+00  0.00000000000E+00  0.47077979238E+03  0.47077979238E+03  0.00000000000E+00 0.  1.
          1   -1    0    0  501    0 -0.00000000000E+00 -0.00000000000E+00 -0.37681406460E+01  0.37681406460E+01  0.00000000000E+00 0. -1.
          2    1    1    2  501    0  0.10017646579E+02 -0.17551828285E+02  0.44168178228E+03  0.44214388690E+03  0.00000000000E+00 0.  1.
          1    1    1    2  502    0 -0.10017646579E+02  0.17551828285E+02  0.25329869449E+02  0.32404046128E+02  0.00000000000E+00 0. -1.
</event>
<event>
 4    1  0.3593938E+003  0.2015387E+02  0.7546771E-02  0.1531696E+00
          2   -1    0    0  502    0  0.00000000000E+00  0.00000000000E+00  0.20703359742E+03  0.20703359742E+03  0.00000000000E+00 0.  1.
          1   -1    0    0  501    0 -0.00000000000E+00 -0.00000000000E+00 -0.91564819672E+01  0.91564819672E+01  0.00000000000E+00 0.  1.
          2    1    1    2  501    0  0.10571974385E+02 -0.17158434354E+02  0.19475594579E+03  0.19579595739E+03  0.00000000000E+00 0.  1.
          1    1    1    2  502    0 -0.10571974385E+02  0.17158434354E+02  0.31211696663E+01  0.20394121995E+02  0.00000000000E+00 0.  1.
</event>
<event>
 4    1  0.3593938E+003  0.4687301E+02  0.7546771E-02  0.1312331E+00
          2   -1    0    0  502    0  0.00000000000E+00  0.00000000000E+00  0.10229463256E+04  0.10229463256E+04  0.00000000000E+00 0.  1.
          1   -1    0    0  501    0 -0.00000000000E+00 -0.00000000000E+00 -0.49148753859E+01  0.49148753859E+01  0.00000000000E+00 0.  1.
          2    1    1    2  501    0 -0.41712411007E+02  0.21381157532E+02  0.89463532534E+03  0.89586240265E+03  0.00000000000E+00 0.  1.
          1    1    1    2  502    0  0.41712411007E+02 -0.21381157532E+02  0.12339612489E+03  0.13199879836E+03  0.00000000000E+00 0.  1.
</event>
<event>
 4    1  0.3593938E+003  0.2931731E+02  0.7546771E-02  0.1425623E+00
          2   -1    0    0  502    0  0.00000000000E+00  0.00000000000E+00  0.17225977529E+02  0.17225977529E+02  0.00000000000E+00 0. -1.
          1   -1    0    0  501    0 -0.00000000000E+00 -0.00000000000E+00 -0.12269467670E+03  0.12269467670E+03  0.00000000000E+00 0. -1.
          2    1    1    2  501    0 -0.29308568680E+02 -0.71585575577E+00  0.11547821029E+01  0.29340043783E+02  0.00000000000E+00 0. -1.
          1    1    1    2  502    0  0.29308568680E+02  0.71585575577E+00 -0.10662348127E+03  0.11058061044E+03  0.00000000000E+00 0. -1.
</event>
<event>
 4    1  0.3593938E+003  0.2084723E+02  0.7546771E-02  0.1521457E+00
          2   -1    0    0  502    0  0.00000000000E+00  0.00000000000E+00  0.21795379896E+03  0.21795379896E+03  0.00000000000E+00 0. -1.
          1   -1    0    0  501    0 -0.00000000000E+00 -0.00000000000E+00 -0.33530744315E+02  0.33530744315E+02  0.00000000000E+00 0. -1.
          2    1    1    2  501    0  0.21962175773E+01  0.20731224379E+02  0.21415762500E+03  0.21516992211E+03  0.00000000000E+00 0. -1.
          1    1    1    2  502    0 -0.21962175773E+01 -0.20731224379E+02 -0.29734570356E+02  0.36314621162E+02  0.00000000000E+00 0. -1.
</event>
<event>
 4    1  0.3593938E+003  0.2012743E+02  0.7546771E-02  0.1532097E+00
          2   -1    0    0  502    0  0.00000000000E+00  0.00000000000E+00  0.57587173109E+03  0.57587173109E+03  0.00000000000E+00 0. -1.
          1   -1    0    0  501    0 -0.00000000000E+00 -0.00000000000E+00 -0.65813046088E+01  0.65813046088E+01  0.00000000000E+00 0.  1.
          2    1    1    2  501    0  0.20016562949E+02 -0.21096304050E+01  0.55986730504E+03  0.56022898228E+03  0.00000000000E+00 0. -1.
          1    1    1    2  502    0 -0.20016562949E+02  0.21096304050E+01  0.94231214426E+01  0.22224053421E+02  0.00000000000E+00 0.  1.
</event>
<event>
 4    1  0.3593938E+003  0.2108394E+02  0.7546771E-02  0.1518070E+00
          2   -1    0    0  502    0  0.00000000000E+00  0.00000000000E+00  0.71271324138E+03  0.71271324138E+03  0.00000000000E+00 0. -1.
          1   -1    0    0  501    0 -0.00000000000E+00 -0.00000000000E+00 -0.25046338052E+01  0.25046338052E+01  0.00000000000E+00 0.  1.
          2    1    1    2  501    0 -0.17319991344E+02 -0.12022906382E+02  0.66500380316E+03  0.66533795216E+03  0.00000000000E+00 0. -1.
          1    1    1    2  502    0  0.17319991344E+02  0.12022906382E+02  0.45204804418E+02  0.49879923020E+02  0.00000000000E+00 0.  1.
</event>
<event>
 4    1  0.3593938E+003  0.7658952E+02  0.7546771E-02  0.1211994E+00
          2   -1    0    0  502    0  0.00000000000E+00  0.00000000000E+00  0.18249492026E+04  0.18249492026E+04  0.00000000000E+00 0. -1.
          1   -1    0    0  501    0 -0.00000000000E+00 -0.00000000000E+00 -0.10626370702E+02  0.10626370702E+02  0.00000000000E+00 0. -1.
          2    1    1    2  501    0 -0.32493072860E+02 -0.69355282659E+02  0.16736739058E+04  0.16754254080E+04  0.00000000000E+00 0. -1.
          1    1    1    2  502    0  0.32493072860E+02  0.69355282659E+02  0.14064892616E+03  0.16015016530E+03  0.00000000000E+00 0. -1.
</event>
<event>
 4    1  0.3593938E+003  0.2038792E+02  0.7546771E-02  0.1528186E+00
          2   -1    0    0  502    0  0.00000000000E+00  0.00000000000E+00  0.39960933215E+03  0.39960933215E+03  0.00000000000E+00 0. -1.
          1   -1    0    0  501    0 -0.00000000000E+00 -0.00000000000E+00 -0.93181950551E+02  0.93181950551E+02  0.00000000000E+00 0.  1.
          2    1    1    2  501    0 -0.98340250827E+01  0.17859435477E+02  0.39823022260E+03  0.39875177451E+03  0.00000000000E+00 0. -1.
          1    1    1    2  502    0  0.98340250827E+01 -0.17859435477E+02 -0.91802841000E+02  0.94039508190E+02  0.00000000000E+00 0.  1.
</event>
<event>
 4    1  0.3593938E+003  0.2492366E+02  0.7546771E-02  0.1469659E+00
          2   -1    0    0  502    0  0.00000000000E+00  0.00000000000E+00  0.22456836302E+03  0.22456836302E+03  0.00000000000E+00 0. -1.
          1   -1    0    0  501    0 -0.00000000000E+00 -0.00000000000E+00 -0.60402770897E+01  0.60402770897E+01  0.00000000000E+00 0. -1.
          2    1    1    2  501    0  0.21418194041E+02  0.12745580959E+02  0.19415573361E+03  0.19574891511E+03  0.00000000000E+00 0. -1.
          1    1    1    2  502    0 -0.21418194041E+02 -0.12745580959E+02  0.24372352318E+02  0.34859725005E+02  0.00000000000E+00 0. -1.
</event>
<event>
 4    1  0.3593938E+003  0.2162986E+02  0.7546771E-02  0.1510459E+00
          2   -1    0    0  502    0  0.00000000000E+00  0.00000000000E+00  0.25951003337E+02  0.25951003337E+02  0.00000000000E+00 0. -1.
          1   -1    0    0  501    0 -0.00000000000E+00 -0.00000000000E+00 -0.63157633424E+02  0.63157633424E+02  0.00000000000E+00 0. -1.
          2    1    1    2  501    0  0.21533138338E+02 -0.20431998210E+01  0.19058969990E+02  0.28828719175E+02  0.00000000000E+00 0. -1.
          1    1    1    2  502    0 -0.21533138338E+02  0.20431998210E+01 -0.56265600076E+02  0.60279917586E+02  0.00000000000E+00 0. -1.
</event>
<event>
 4    1  0.3593938E+003  0.2405115E+02  0.7546771E-02  0.1479704E+00
          2   -1    0    0  502    0  0.00000000000E+00  0.00000000000E+00  0.32705144297E+03  0.32705144297E+03  0.00000000000E+00 0.  1.
          1   -1    0    0  501    0 -0.00000000000E+00 -0.00000000000E+00 -0.17451068180E+03  0.17451068180E+03  0.00000000000E+00 0.  1.
          2    1    1    2  501    0  0.22991447850E+02  0.70605222687E+01  0.32577734493E+03  0.32666394983E+03  0.00000000000E+00 0.  1.
          1    1    1    2  502    0 -0.22991447850E+02 -0.70605222687E+01 -0.17323658375E+03  0.17489817494E+03  0.00000000000E+00 0.  1.
</event>
<event>
 4    1  0.3593938E+003  0.2717738E+02  0.7546771E-02  0.1445834E+00
          2   -1    0    0  502    0  0.00000000000E+00  0.00000000000E+00  0.92679399394E+02  0.92679399394E+02  0.00000000000E+00 0.  1.
          1   -1    0    0  501    0 -0.00000000000E+00 -0.00000000000E+00 -0.77116923142E+03  0.77116923142E+03  0.00000000000E+00 0.  1.
          2    1    1    2  501    0 -0.22906707090E+01  0.27080670422E+02  0.90441779695E+02  0.94436885787E+02  0.00000000000E+00 0.  1.
          1    1    1    2  502    0  0.22906707090E+01 -0.27080670422E+02 -0.76893161172E+03  0.76941174502E+03  0.00000000000E+00 0.  1.
</event>
<event>
 4    1  0.3593938E+003  0.2064254E+02  0.7546771E-02  0.1524430E+00
          2   -1    0    0  502    0  0.00000000000E+00  0.00000000000E+00  0.91295576764E+02  0.91295576764E+02  0.00000000000E+00 0.  1.
          1   -1    0    0  501    0 -0.00000000000E+00 -0.00000000000E+00 -0.37233830322E+03  0.37233830322E+03  0.00000000000E+00 0.  1.
          2    1    1    2  501    0 -0.77609794598E+01 -0.19128033339E+02  0.89838033505E+02  0.92179101349E+02  0.00000000000E+00 0.  1.
          1    1    1    2  502    0  0.77609794598E+01  0.19128033339E+02 -0.37088075996E+03  0.37145477863E+03  0.00000000000E+00 0.  1.
</event>
<event>
 4    1  0.3593938E+003  0.2887247E+02  0.7546771E-02  0.1429654E+00
          2   -1    0    0  502    0  0.00000000000E+00  0.00000000000E+00  0.12866554973E+02  0.12866554973E+02  0.00000000000E+00 0. -1.
          1   -1    0    0  501    0 -0.00000000000E+00 -0.00000000000E+00 -0.53069950617E+03  0.53069950617E+03  0.00000000000E+00 0.  1.
          2    1    1    2  501    0 -0.15772541510E+00  0.28872040521E+02 -0.42633893518E+01  0.29185545907E+02  0.00000000000E+00 0. -1.
          1    1    1    2  502    0  0.15772541510E+00 -0.28872040521E+02 -0.51356956184E+03  0.51438051523E+03  0.00000000000E+00 0.  1.
</event>
<event>
 4    1  0.3593938E+003  0.2822801E+02  0.7546771E-02  0.1435648E+00
          2   -1    0    0  502    0  0.00000000000E+00  0.00000000000E+00  0.17859312774E+01  0.17859312774E+01  0.00000000000E+00 0.  1.
          1   -1    0    0  501    0 -0.00000000000E+00 -0.00000000000E+00 -0.57510007556E+03  0.57510007556E+03  0.00000000000E+00 0.  1.
          2    1    1    2  501    0 -0.27347868631E+02  0.69939171000E+01 -0.15008147336E+03  0.15271302971E+03  0.00000000000E+00 0.  1.
          1    1    1    2  502    0  0.27347868631E+02 -0.69939171000E+01 -0.42323267092E+03  0.42417297713E+03  0.00000000000E+00 0.  1.
</event>
<event>
 4    1  0.3593938E+003  0.2530428E+02  0.7546771E-02  0.1465428E+00
          2   -1    0    0  502    0  0.00000000000E+00  0.00000000000E+00  0.11606819124E+04  0.11606819124E+04  0.00000000000E+00 0.  1.
          1   -1    0    0  501    0 -0.00000000000E+00 -0.00000000000E+00 -0.18126348769E+01  0.18126348769E+01  0.00000000000E+00 0. -1.
          2    1    1    2  501    0  0.67547918371E+01  0.24386051448E+02  0.10642297679E+04  0.10645305565E+04  0.00000000000E+00 0.  1.
          1    1    1    2  502    0 -0.67547918371E+01 -0.24386051448E+02  0.94639509584E+02  0.97963990794E+02  0.00000000000E+00 0. -1.
</event>
<event>
 4    1  0.3593938E+003  0.3162709E+02  0.7546771E-02  0.1405965E+00
          2   -1    0    0  502    0  0.00000000000E+00  0.00000000000E+00  0.95278457130E+00  0.95278457130E+00  0.00000000000E+00 0.  1.
          1   -1    0    0  501    0 -0.00000000000E+00 -0.00000000000E+00 -0.12623879063E+04  0.12623879063E+04  0.00000000000E+00 0. -1.
          2    1    1    2  501    0 -0.49111948982E+01 -0.31243448420E+02 -0.37152601635E+03  0.37286975438E+03  0.00000000000E+00 0.  1.
          1    1    1    2  502    0  0.49111948982E+01  0.31243448420E+02 -0.88990910535E+03  0.89047093646E+03  0.00000000000E+00 0. -1.
</event>
<event>
 4    1  0.3593938E+003  0.2522588E+02  0.7546771E-02  0.1466292E+00
          2   -1    0    0  502    0  0.00000000000E+00  0.00000000000E+00  0.15351972199E+02  0.15351972199E+02  0.00000000000E+00 0.  1.
          1   -1    0    0  501    0 -0.00000000000E+00 -0.00000000000E+00 -0.60809717147E+02  0.60809717147E+02  0.00000000000E+00 0.  1.
          2    1    1    2  501    0 -0.12353754288E+02  0.21993859445E+02 -0.12423906396E+01  0.25256457249E+02  0.00000000000E+00 0.  1.
          1    1    1    2  502    0  0.12353754288E+02 -0.21993859445E+02 -0.44215354309E+02  0.50905232098E+02  0.00000000000E+00 0.  1.
</event>
<event>
 4    1  0.3593938E+003  0.3732371E+02  0.7546771E-02  0.1364925E+00
          2   -1    0    0  502    0  0.00000000000E+00  0.00000000000E+00  0.22516845904E+02  0.22516845904E+02  0.00000000000E+00 0. -1.
          1   -1    0    0  501    0 -0.00000000000E+00 -0.00000000000E+00 -0.69796004571E+02  0.69796004571E+02  0.00000000000E+00 0.  1.
          2    1    1    2  501    0  0.12975158142E+02 -0.34995780302E+02 -0.80829871576E+01  0.38188925740E+02  0.00000000000E+00 0. -1.
          1    1    1    2  502    0 -0.12975158142E+02  0.34995780302E+02 -0.39196171509E+02  0.54123924735E+02  0.00000000000E+00 0.  1.
</event>
<event>
 4    1  0.3593938E+003  0.5456994E+02  0.7546771E-02  0.1279488E+00
          2   -1    0    0  502    0  0.00000000000E+00  0.00000000000E+00  0.33893851762E+04  0.33893851762E+04  0.00000000000E+00 0.  1.
          1   -1    0    0  501    0 -0.00000000000E+00 -0.00000000000E+00 -0.10896438776E+01  0.10896438776E+01  0.00000000000E+00 0.  1.
          2    1    1    2  501    0 -0.46847159170E+02  0.27986103890E+02  0.24402277459E+04  0.24408378337E+04  0.00000000000E+00 0.  1.
          1    1    1    2  502    0  0.46847159170E+02 -0.27986103890E+02  0.94806778642E+03  0.94963698642E+03  0.00000000000E+00 0.  1.
</event>
<event>
 4    1  0.3593938E+003  0.2736287E+02  0.7546771E-02  0.1443997E+00
          2   -1    0    0  502    0  0.00000000000E+00  0.00000000000E+00  0.13117485865E+03  0.13117485865E+03  0.00000000000E+00 0. -1.
          1   -1    0    0  501    0 -0.00000000000E+00 -0.00000000000E+00 -0.10770243185E+02  0.10770243185E+02  0.00000000000E+00 0. -1.
          2    1    1    2  501    0  0.81196121523E+01 -0.26130413416E+02  0.10886045120E+03  0.11224671239E+03  0.00000000000E+00 0. -1.
          1    1    1    2  502    0 -0.81196121523E+01  0.26130413416E+02  0.11544164259E+02  0.29698389439E+02  0.00000000000E+00 0. -1.
</event>
<event>
 4    1  0.3593938E+003  0.3541543E+02  0.7546771E-02  0.1377666E+00
          2   -1    0    0  502    0  0.00000000000E+00  0.00000000000E+00  0.27354705863E+01  0.27354705863E+01  0.00000000000E+00 0. -1.
          1   -1    0    0  501    0 -0.00000000000E+00 -0.00000000000E+00 -0.13570563336E+04  0.13570563336E+04  0.00000000000E+00 0. -1.
          2    1    1    2  501    0 -0.17503733970E+02 -0.30787526669E+02 -0.12392157645E+03  0.12888292986E+03  0.00000000000E+00 0. -1.
          1    1    1    2  502    0  0.17503733970E+02  0.30787526669E+02 -0.12303992866E+04  0.12309088744E+04  0.00000000000E+00 0. -1.
</event>
<event>
 4    1  0.3593938E+003  0.3275509E+02  0.7546771E-02  0.1397072E+00
          2   -1    0    0  502    0  0.00000000000E+00  0.00000000000E+00  0.12765521271E+02  0.12765521271E+02  0.00000000000E+00 0.  1.
          1   -1    0    0  501    0 -0.00000000000E+00 -0.00000000000E+00 -0.23922468382E+03  0.23922468382E+03  0.00000000000E+00 0. -1.
          2    1    1    2  501    0  0.80695571202E+01 -0.31745525024E+02 -0.11752926632E+02  0.34799818902E+02  0.00000000000E+00 0.  1.
          1    1    1    2  502    0 -0.80695571202E+01  0.31745525024E+02 -0.21470623592E+03  0.21719038619E+03  0.00000000000E+00 0. -1.
</event>
<event>
 4    1  0.3593938E+003  0.4014750E+02  0.7546771E-02  0.1347624E+00
          2   -1    0    0  502    0  0.00000000000E+00  0.00000000000E+00  0.18949572393E+02  0.18949572393E+02  0.00000000000E+00 0.  1.
          1   -1    0    0  501    0 -0.00000000000E+00 -0.00000000000E+00 -0.51005694424E+03  0.51005694424E+03  0.00000000000E+00 0.  1.
          2    1    1    2  501    0  0.34078142710E+02 -0.21225023367E+02 -0.41102598962E+01  0.40357349565E+02  0.00000000000E+00 0.  1.
          1    1    1    2  502    0 -0.34078142710E+02  0.21225023367E+02 -0.48699711195E+03  0.48864916707E+03  0.00000000000E+00 0.  1.
</event>
<event>
 4    1  0.3593938E+003  0.9527844E+02  0.7546771E-02  0.1172251E+00
          2   -1    0    0  502    0  0.00000000000E+00  0.00000000000E+00  0.42763290898E+03  0.42763290898E+03  0.00000000000E+00 0.  1.
          1   -1    0    0  501    0 -0.00000000000E+00 -0.00000000000E+00 -0.13140160173E+03  0.13140160173E+03  0.00000000000E+00 0.  1.
          2    1    1    2  501    0 -0.36154541147E+02 -0.88152310128E+02  0.40406038567E+03  0.41514187442E+03  0.00000000000E+00 0.  1.
          1    1    1    2  502    0  0.36154541147E+02  0.88152310128E+02 -0.10782907842E+03  0.14389263629E+03  0.00000000000E+00 0.  1.
</event>
<event>
 4    1  0.3593938E+003  0.4146416E+02  0.7546771E-02  0.1340113E+00
          2   -1    0    0  502    0  0.00000000000E+00  0.00000000000E+00  0.17462574561E+04  0.17462574561E+04  0.00000000000E+00 0.  1.
          1   -1    0    0  501    0 -0.00000000000E+00 -0.00000000000E+00 -0.99002447727E+00  0.99002447727E+00  0.00000000000E+00 0.  1.
          2    1    1    2  501    0  0.12934760438E+02  0.39395036432E+02  0.93760062683E+03  0.93851702827E+03  0.00000000000E+00 0.  1.
          1    1    1    2  502    0 -0.12934760438E+02 -0.39395036432E+02  0.80766680478E+03  0.80873045229E+03  0.00000000000E+00 0.  1.
</event>
<event>
 4    1  0.3593938E+003  0.2347446E+02  0.7546771E-02  0.1486625E+00
          2   -1    0    0  502    0  0.00000000000E+00  0.00000000000E+00  0.74434308633E+02  0.74434308633E+02  0.00000000000E+00 0.  1.
          1   -1    0    0  501    0 -0.00000000000E+00 -0.00000000000E+00 -0.26896486156E+02  0.26896486156E+02  0.00000000000E+00 0.  1.
          2    1    1    2  501    0 -0.22823250017E+02  0.54908768398E+01  0.66901591843E+02  0.70900447537E+02  0.00000000000E+00 0.  1.
          1    1    1    2  502    0  0.22823250017E+02 -0.54908768398E+01 -0.19363769366E+02  0.30430347252E+02  0.00000000000E+00 0.  1.
</event>
<event>
 4    1  0.3593938E+003  0.3949239E+02  0.7546771E-02  0.1351486E+00
          2   -1    0    0  502    0  0.00000000000E+00  0.00000000000E+00  0.21703998043E+03  0.21703998043E+03  0.00000000000E+00 0.  1.
          1   -1    0    0  501    0 -0.00000000000E+00 -0.00000000000E+00 -0.12914973335E+02  0.12914973335E+02  0.00000000000E+00 0. -1.
          2    1    1    2  501    0  0.61920158001E+01  0.39003946879E+02  0.17864058504E+03  0.18295383995E+03  0.00000000000E+00 0.  1.
          1    1    1    2  502    0 -0.61920158001E+01 -0.39003946879E+02  0.25484422059E+02  0.47001113811E+02  0.00000000000E+00 0. -1.
</event>
<event>
 4    1  0.3593938E+003  0.4090954E+02  0.7546771E-02  0.1343237E+00
          2   -1    0    0  502    0  0.00000000000E+00  0.00000000000E+00  0.20714418235E+03  0.20714418235E+03  0.00000000000E+00 0.  1.
          1   -1    0    0  501    0 -0.00000000000E+00 -0.00000000000E+00 -0.65280270141E+03  0.65280270141E+03  0.00000000000E+00 0.  1.
          2    1    1    2  501    0  0.40869725776E+02 -0.18044954777E+01  0.20447513527E+03  0.20852738821E+03  0.00000000000E+00 0.  1.
          1    1    1    2  502    0 -0.40869725776E+02  0.18044954777E+01 -0.65013365434E+03  0.65141949555E+03  0.00000000000E+00 0.  1.
</event>
<event>
 4    1  0.3593938E+003  0.2066730E+02  0.7546771E-02  0.1524068E+00
          2   -1    0    0  502    0  0.00000000000E+00  0.00000000000E+00  0.18621299604E+02  0.18621299604E+02  0.00000000000E+00 0. -1.
          1   -1    0    0  501    0 -0.00000000000E+00 -0.00000000000E+00 -0.68375577641E+02  0.68375577641E+02  0.00000000000E+00 0. -1.
          2    1    1    2  501    0 -0.14909429785E+02 -0.14312455779E+02  0.10582164904E+02  0.23218951333E+02  0.00000000000E+00 0. -1.
          1    1    1    2  502    0  0.14909429785E+02  0.14312455779E+02 -0.60336442941E+02  0.63777925912E+02  0.00000000000E+00 0. -1.
</event>
<event>
 4    1  0.3593938E+003  0.3506346E+02  0.7546771E-02  0.1380118E+00
          2   -1    0    0  502    0  0.00000000000E+00  0.00000000000E+00  0.34245844683E+02  0.34245844683E+02  0.00000000000E+00 0.  1.
          1   -1    0    0  501    0 -0.00000000000E+00 -0.00000000000E+00 -0.11724063189E+03  0.11724063189E+03  0.00000000000E+00 0.  1.
          2    1    1    2  501    0  0.33343058379E+02  0.10848356902E+02  0.21592088352E+02  0.41178449084E+02  0.00000000000E+00 0.  1.
          1    1    1    2  502    0 -0.33343058379E+02 -0.10848356902E+02 -0.10458687556E+03  0.11030802749E+03  0.00000000000E+00 0.  1.
</event>
<event>
 4    1  0.3593938E+003  0.2420281E+02  0.7546771E-02  0.1477923E+00
          2   -1    0    0  502    0  0.00000000000E+00  0.00000000000E+00  0.73237913815E+03  0.73237913815E+03  0.00000000000E+00 0. -1.
          1   -1    0    0  501    0 -0.00000000000E+00 -0.00000000000E+00 -0.17322335053E+01  0.17322335053E+01  0.00000000000E+00 0.  1.
          2    1    1    2  501    0  0.18420872474E+02  0.15698649726E+02  0.63462046341E+03  0.63508181262E+03  0.00000000000E+00 0. -1.
          1    1    1    2  502    0 -0.18420872474E+02 -0.15698649726E+02  0.96026441232E+02  0.99029559030E+02  0.00000000000E+00 0.  1.
</event>
<event>
 4    1  0.3593938E+003  0.2625109E+02  0.7546771E-02  0.1455280E+00
          2   -1    0    0  502    0  0.00000000000E+00  0.00000000000E+00  0.41825123706E+01  0.41825123706E+01  0.00000000000E+00 0. -1.
          1   -1    0    0  501    0 -0.00000000000E+00 -0.00000000000E+00 -0.23660895291E+03  0.23660895291E+03  0.00000000000E+00 0.  1.
          2    1    1    2  501    0 -0.24148105604E+02 -0.10295093496E+02 -0.49869614904E+02  0.56356884629E+02  0.00000000000E+00 0. -1.
          1    1    1    2  502    0  0.24148105604E+02  0.10295093496E+02 -0.18255682564E+03  0.18443458065E+03  0.00000000000E+00 0.  1.
</event>
<event>
 4    1  0.3593938E+003  0.2358792E+02  0.7546771E-02  0.1485245E+00
          2   -1    0    0  502    0  0.00000000000E+00  0.00000000000E+00  0.26187559463E+03  0.26187559463E+03  0.00000000000E+00 0. -1.
          1   -1    0    0  501    0 -0.00000000000E+00 -0.00000000000E+00 -0.58281324964E+01  0.58281324964E+01  0.00000000000E+00 0.  1.
          2    1    1    2  501    0  0.13814529142E+02  0.19119326653E+02  0.23472406618E+03  0.23590628883E+03  0.00000000000E+00 0. -1.
          1    1    1    2  502    0 -0.13814529142E+02 -0.19119326653E+02  0.21323395957E+02  0.31797438297E+02  0.00000000000E+00 0.  1.
</event>
<event>
 4    1  0.3593938E+003  0.2738601E+02  0.7546771E-02  0.1443769E+00
          2   -1    0    0  502    0  0.00000000000E+00  0.00000000000E+00  0.11262352009E+03  0.11262352009E+03  0.00000000000E+00 0. -1.
          1   -1    0    0  501    0 -0.00000000000E+00 -0.00000000000E+00 -0.12492044677E+02  0.12492044677E+02  0.00000000000E+00 0. -1.
          2    1    1    2  501    0  0.25718150820E+02  0.94111704685E+01  0.92812300031E+02  0.96768364914E+02  0.00000000000E+00 0. -1.
          1    1    1    2  502    0 -0.25718150820E+02 -0.94111704685E+01  0.73191753818E+01  0.28347199852E+02  0.00000000000E+00 0. -1.
</event>
<event>
 4    1  0.3593938E+003  0.3005846E+02  0.7546771E-02  0.1419089E+00
          2   -1    0    0  502    0  0.00000000000E+00  0.00000000000E+00  0.44457641844E+01  0.44457641844E+01  0.00000000000E+00 0. -1.
          1   -1    0    0  501    0 -0.00000000000E+00 -0.00000000000E+00 -0.21066255151E+03  0.21066255151E+03  0.00000000000E+00 0. -1.
          2    1    1    2  501    0  0.28998895646E+02  0.79103811069E+01 -0.12331155974E+03  0.12692222359E+03  0.00000000000E+00 0. -1.
          1    1    1    2  502    0 -0.28998895646E+02 -0.79103811069E+01 -0.82905227589E+02  0.88186092098E+02  0.00000000000E+00 0. -1.
</event>
<event>
 4    1  0.3593938E+003  0.8000377E+02  0.7546771E-02  0.1203839E+00
          2   -1    0    0  502    0  0.00000000000E+00  0.00000000000E+00  0.34291094335E+03  0.34291094335E+03  0.00000000000E+00 0. -1.
          1   -1    0    0  501    0 -0.00000000000E+00 -0.00000000000E+00 -0.24779405229E+02  0.24779405229E+02  0.00000000000E+00 0. -1.
          2    1    1    2  501    0 -0.38405915946E+02 -0.70182534443E+02  0.25038585725E+03  0.26285676714E+03  0.00000000000E+00 0. -1.
          1    1    1    2  502    0  0.38405915946E+02  0.70182534443E+02  0.67745680868E+02  0.10483358144E+03  0.00000000000E+00 0. -1.
</event>
<event>
 4    1  0.3593938E+003  0.2166067E+02  0.7546771E-02  0.1510038E+00
          2   -1    0    0  502    0  0.00000000000E+00  0.00000000000E+00  0.11039975726E+01  0.11039975726E+01  0.00000000000E+00 0.  1.
          1   -1    0    0  501    0 -0.00000000000E+00 -0.00000000000E+00 -0.85766114442E+03  0.85766114442E+03  0.00000000000E+00 0.  1.
          2    1    1    2  501    0 -0.21653008381E+02  0.57614639335E+00 -0.12330165583E+03  0.12518978811E+03  0.00000000000E+00 0.  1.
          1    1    1    2  502    0  0.21653008381E+02 -0.57614639335E+00 -0.73325549102E+03  0.73357535388E+03  0.00000000000E+00 0.  1.
</event>
<event>
 4    1  0.3593938E+003  0.2396879E+02  0.7546771E-02  0.1480679E+00
          2   -1    0    0  502    0  0.00000000000E+00  0.00000000000E+00  0.40112769803E+03  0.40112769803E+03  0.00000000000E+00 0. -1.
          1   -1    0    0  501    0 -0.00000000000E+00 -0.00000000000E+00 -0.46921324975E+02  0.46921324975E+02  0.00000000000E+00 0. -1.
          2    1    1    2  501    0  0.23962010999E+02  0.57009112037E+00  0.39768215575E+03  0.39840381521E+03  0.00000000000E+00 0. -1.
          1    1    1    2  502    0 -0.23962010999E+02 -0.57009112037E+00 -0.43475782699E+02  0.49645207788E+02  0.00000000000E+00 0. -1.
</event>
<event>
 4    1  0.3593938E+003  0.2909998E+02  0.7546771E-02  0.1427582E+00
          2   -1    0    0  502    0  0.00000000000E+00  0.00000000000E+00  0.38628049314E+02  0.38628049314E+02  0.00000000000E+00 0. -1.
          1   -1    0    0  501    0 -0.00000000000E+00 -0.00000000000E+00 -0.82427509708E+02  0.82427509708E+02  0.00000000000E+00 0. -1.
          2    1    1    2  501    0  0.55547690583E+01  0.28564899158E+02  0.29958258158E+02  0.41764891417E+02  0.00000000000E+00 0. -1.
          1    1    1    2  502    0 -0.55547690583E+01 -0.28564899158E+02 -0.73757718553E+02  0.79290667605E+02  0.00000000000E+00 0. -1.
</event>
<event>
 4    1  0.3593938E+003  0.2498847E+02  0.7546771E-02  0.1468932E+00
          2   -1    0    0  502    0  0.00000000000E+00  0.00000000000E+00  0.80894033518E+01  0.80894033518E+01  0.00000000000E+00 0. -1.
          1   -1    0    0  501    0 -0.00000000000E+00 -0.00000000000E+00 -0.51464997302E+03  0.51464997302E+03  0.00000000000E+00 0.  1.
          2    1    1    2  501    0 -0.24869785480E+02 -0.24325738565E+01 -0.12307362812E+02  0.27854888705E+02  0.00000000000E+00 0. -1.
          1    1    1    2  502    0  0.24869785480E+02  0.24325738565E+01 -0.49425320686E+03  0.49488448767E+03  0.00000000000E+00 0.  1.
</event>
<event>
 4    1  0.3593938E+003  0.4771790E+02  0.7546771E-02  0.1308382E+00
          2   -1    0    0  502    0  0.00000000000E+00  0.00000000000E+00  0.11212664337E+03  0.11212664337E+03  0.00000000000E+00 0.  1.
          1   -1    0    0  501    0 -0.00000000000E+00 -0.00000000000E+00 -0.20661115555E+02  0.20661115555E+02  0.00000000000E+00 0.  1.
          2    1    1    2  501    0  0.25202797542E+02  0.40519317434E+02  0.37045101744E+02  0.60409731439E+02  0.00000000000E+00 0.  1.
          1    1    1    2  502    0 -0.25202797542E+02 -0.40519317434E+02  0.54420426075E+02  0.72378027491E+02  0.00000000000E+00 0.  1.
</event>
<event>
 4    1  0.3593938E+003  0.3355197E+02  0.7546771E-02  0.1391039E+00
          2   -1    0    0  502    0  0.00000000000E+00  0.00000000000E+00  0.15132014257E+03  0.15132014257E+03  0.00000000000E+00 0.  1.
          1   -1    0    0  501    0 -0.00000000000E+00 -0.00000000000E+00 -0.17189251121E+03  0.17189251121E+03  0.00000000000E+00 0.  1.
          2    1    1    2  501    0  0.32855054474E+02  0.68029610433E+01  0.14778434043E+03  0.15154519510E+03  0.00000000000E+00 0.  1.
          1    1    1    2  502    0 -0.32855054474E+02 -0.68029610433E+01 -0.16835670906E+03  0.17166745868E+03  0.00000000000E+00 0.  1.
</event>
<event>
 4    1  0.3593938E+003  0.3653358E+02  0.7546771E-02  0.1370091E+00
          2   -1    0    0  502    0  0.00000000000E+00  0.00000000000E+00  0.21323720888E+04  0.21323720888E+04  0.00000000000E+00 0.  1.
          1   -1    0    0  501    0 -0.00000000000E+00 -0.00000000000E+00 -0.17898051936E+01  0.17898051936E+01  0.00000000000E+00 0. -1.
          2    1    1    2  501    0  0.28719639789E+02 -0.22580620020E+02  0.19257871800E+04  0.19261336830E+04  0.00000000000E+00 0.  1.
          1    1    1    2  502    0 -0.28719639789E+02  0.22580620020E+02  0.20479510352E+03  0.20802821091E+03  0.00000000000E+00 0. -1.
</event>
<event>
 4    1  0.3593938E+003  0.3018439E+02  0.7546771E-02  0.1418001E+00
          2   -1    0    0  502    0  0.00000000000E+00  0.00000000000E+00  0.40522200325E+01  0.40522200325E+01  0.00000000000E+00 0. -1.
          1   -1    0    0  501    0 -0.00000000000E+00 -0.00000000000E+00 -0.27351081621E+03  0.27351081621E+03  0.00000000000E+00 0.  1.
          2    1    1    2  501    0 -0.20223565902E+01 -0.30116563802E+02 -0.76185230785E+02  0.81946853089E+02  0.00000000000E+00 0. -1.
          1    1    1    2  502    0  0.20223565902E+01  0.30116563802E+02 -0.19327336540E+03  0.19561618316E+03  0.00000000000E+00 0.  1.
</event>
<event>
 4    1  0.3593938E+003  0.4121301E+02  0.7546771E-02  0.1341521E+00
          2   -1    0    0  502    0  0.00000000000E+00  0.00000000000E+00  0.35267314208E+02  0.35267314208E+02  0.00000000000E+00 0. -1.
          1   -1    0    0  501    0 -0.00000000000E+00 -0.00000000000E+00 -0.96413587820E+02  0.96413587820E+02  0.00000000000E+00 0. -1.
          2    1    1    2  501    0  0.32643838605E+02  0.25157343582E+02  0.16005159046E+02  0.44211732052E+02  0.00000000000E+00 0. -1.
          1    1    1    2  502    0 -0.32643838605E+02 -0.25157343582E+02 -0.77151432659E+02  0.87469169976E+02  0.00000000000E+00 0. -1.
</event>
<event>
 4    1  0.3593938E+003  0.3387933E+02  0.7546771E-02  0.1388618E+00
          2   -1    0    0  502    0  0.00000000000E+00  0.00000000000E+00  0.11674507074E+03  0.11674507074E+03  0.00000000000E+00 0. -1.
          1   -1    0    0  501    0 -0.00000000000E+00 -0.00000000000E+00 -0.14671832088E+02  0.14671832088E+02  0.00000000000E+00 0. -1.
          2    1    1    2  501    0  0.24172593278E+02  0.23738042506E+02  0.88776906402E+02  0.95021829272E+02  0.00000000000E+00 0. -1.
          1    1    1    2  502    0 -0.24172593278E+02 -0.23738042506E+02  0.13296332247E+02  0.36395073555E+02  0.00000000000E+00 0. -1.
</event>
<event>
 4    1  0.3593938E+003  0.2402466E+02  0.7546771E-02  0.1480017E+00
          2   -1    0    0  502    0  0.00000000000E+00  0.00000000000E+00  0.19308018403E+04  0.19308018403E+04  0.00000000000E+00 0.  1.
          1   -1    0    0  501    0 -0.00000000000E+00 -0.00000000000E+00 -0.32675312771E+00  0.32675312771E+00  0.00000000000E+00 0.  1.
          2    1    1    2  501    0  0.22801899565E+02  0.75668884679E+01  0.12469684910E+04  0.12471999046E+04  0.00000000000E+00 0.  1.
          1    1    1    2  502    0 -0.22801899565E+02 -0.75668884679E+01  0.68350659618E+03  0.68392868886E+03  0.00000000000E+00 0.  1.
</event>
<event>
 4    1  0.3593938E+003  0.2164231E+02  0.7546771E-02  0.1510289E+00
          2   -1    0    0  502    0  0.00000000000E+00  0.00000000000E+00  0.39280412616E+03  0.39280412616E+03  0.00000000000E+00 0. -1.
          1   -1    0    0  501    0 -0.00000000000E+00 -0.00000000000E+00 -0.32145169502E+02  0.32145169502E+02  0.00000000000E+00 0.  1.
          2    1    1    2  501    0  0.18947217362E+02 -0.10459079035E+02  0.38882601287E+03  0.38942785938E+03  0.00000000000E+00 0. -1.
          1    1    1    2  502    0 -0.18947217362E+02  0.10459079035E+02 -0.28167056208E+02  0.35521436281E+02  0.00000000000E+00 0.  1.
</event>
<event>
 4    1  0.3593938E+003  0.2209414E+02  0.7546771E-02  0.1504197E+00
          2   -1    0    0  502    0  0.00000000000E+00  0.00000000000E+00  0.20046305118E+04  0.20046305118E+04  0.00000000000E+00 0.  1.
          1   -1    0    0  501    0 -0.00000000000E+00 -0.00000000000E+00 -0.33983653529E+00  0.33983653529E+00  0.00000000000E+00 0.  1.
          2    1    1    2  501    0 -0.18985344607E+02 -0.11300783830E+02  0.15358635418E+04  0.15360224510E+04  0.00000000000E+00 0.  1.
          1    1    1    2  502    0  0.18985344607E+02  0.11300783830E+02  0.46842713348E+03  0.46894789732E+03  0.00000000000E+00 0.  1.
</event>
<event>
 4    1  0.3593938E+003  0.2502233E+02  0.7546771E-02  0.1468554E+00
          2   -1    0    0  502    0  0.00000000000E+00  0.00000000000E+00  0.12729217047E+01  0.12729217047E+01  0.00000000000E+00 0. -1.
          1   -1    0    0  501    0 -0.00000000000E+00 -0.00000000000E+00 -0.51232212279E+03  0.51232212279E+03  0.00000000000E+00 0. -1.
          2    1    1    2  501    0  0.22416448437E+02  0.11118450944E+02 -0.20422123949E+03  0.20574846723E+03  0.00000000000E+00 0. -1.
          1    1    1    2  502    0 -0.22416448437E+02 -0.11118450944E+02 -0.30682796160E+03  0.30784657726E+03  0.00000000000E+00 0. -1.
</event>
<event>
 4    1  0.3593938E+003  0.3839495E+02  0.7546771E-02  0.1358157E+00
          2   -1    0    0  502    0  0.00000000000E+00  0.00000000000E+00  0.15507173010E+02  0.15507173010E+02  0.00000000000E+00 0.  1.
          1   -1    0    0  501    0 -0.00000000000E+00 -0.00000000000E+00 -0.14566719270E+03  0.14566719270E+03  0.00000000000E+00 0. -1.
          2    1    1    2  501    0 -0.27235234365E+02 -0.27063151934E+02 -0.17582096407E+02  0.42229164065E+02  0.00000000000E+00 0.  1.
          1    1    1    2  502    0  0.27235234365E+02  0.27063151934E+02 -0.11257792328E+03  0.11894520165E+03  0.00000000000E+00 0. -1.
</event>
<event>
 4    1  0.3593938E+003  0.2587542E+02  0.7546771E-02  0.1459244E+00
          2   -1    0    0  502    0  0.00000000000E+00  0.00000000000E+00  0.13636881474E+01  0.13636881474E+01  0.00000000000E+00 0.  1.
          1   -1    0    0  501    0 -0.00000000000E+00 -0.00000000000E+00 -0.16933523738E+04  0.16933523738E+04  0.00000000000E+00 0. -1.
          2    1    1    2  501    0  0.60006136993E+01  0.25170021041E+02 -0.13196903345E+03  0.13448183191E+03  0.00000000000E+00 0.  1.
          1    1    1    2  502    0 -0.60006136993E+01 -0.25170021041E+02 -0.15600196522E+04  0.15602342300E+04  0.00000000000E+00 0. -1.
</event>
<event>
 4    1  0.3593938E+003  0.2064430E+02  0.7546771E-02  0.1524404E+00
          2   -1    0    0  502    0  0.00000000000E+00  0.00000000000E+00  0.59489806366E+03  0.59489806366E+03  0.00000000000E+00 0.  1.
          1   -1    0    0  501    0 -0.00000000000E+00 -0.00000000000E+00 -0.72379822942E+00  0.72379822942E+00  0.00000000000E+00 0.  1.
          2    1    1    2  501    0  0.19533042889E+02 -0.66818364668E+01  0.26698409051E+03  0.26778105103E+03  0.00000000000E+00 0.  1.
          1    1    1    2  502    0 -0.19533042889E+02  0.66818364668E+01  0.32719017491E+03  0.32784081086E+03  0.00000000000E+00 0.  1.
</event>
<event>
 4    1  0.3593938E+003  0.2213952E+02  0.7546771E-02  0.1503595E+00
          2   -1    0    0  502    0  0.00000000000E+00  0.00000000000E+00  0.79447931313E+00  0.79447931313E+00  0.00000000000E+00 0. -1.
          1   -1    0    0  501    0 -0.00000000000E+00 -0.00000000000E+00 -0.61921916967E+03  0.61921916967E+03  0.00000000000E+00 0. -1.
          2    1    1    2  501    0  0.87875874869E+01 -0.20320828545E+02 -0.32795926231E+03  0.32870569740E+03  0.00000000000E+00 0. -1.
          1    1    1    2  502    0 -0.87875874869E+01  0.20320828545E+02 -0.29046542805E+03  0.29130795159E+03  0.00000000000E+00 0. -1.
</event>
<event>
 4    1  0.3593938E+003  0.2893872E+02  0.7546771E-02  0.1429049E+00
          2   -1    0    0  502    0  0.00000000000E+00  0.00000000000E+00  0.16665794185E+03  0.16665794185E+03  0.00000000000E+00 0. -1.
          1   -1    0    0  501    0 -0.00000000000E+00 -0.00000000000E+00 -0.28890197055E+02  0.28890197055E+02  0.00000000000E+00 0. -1.
          2    1    1    2  501    0 -0.22594627414E+02  0.18081267073E+02  0.15774899005E+03  0.16038139938E+03  0.00000000000E+00 0. -1.
          1    1    1    2  502    0  0.22594627414E+02 -0.18081267073E+02 -0.19981245252E+02  0.35166739524E+02  0.00000000000E+00 0. -1.
</event>
<event>
 4    1  0.3593938E+003  0.2387073E+02  0.7546771E-02  0.1481845E+00
          2   -1    0    0  502    0  0.00000000000E+00  0.00000000000E+00  0.27551498233E+03  0.27551498233E+03  0.00000000000E+00 0. -1.
          1   -1    0    0  501    0 -0.00000000000E+00 -0.00000000000E+00 -0.29636400065E+01  0.29636400065E+01  0.00000000000E+00 0.  1.
          2    1    1    2  501    0 -0.22817402269E+02 -0.70126875779E+01  0.21281326922E+03  0.21414784423E+03  0.00000000000E+00 0. -1.
          1    1    1    2  502    0  0.22817402269E+02  0.70126875779E+01  0.59738073108E+02  0.64330778108E+02  0.00000000000E+00 0.  1.
</event>
<event>
 4    1  0.3593938E+003  0.2508884E+02  0.7546771E-02  0.1467812E+00
          2   -1    0    0  502    0  0.00000000000E+00  0.00000000000E+00  0.75849730750E+01  0.75849730750E+01  0.00000000000E+00 0. -1.
          1   -1    0    0  501    0 -0.00000000000E+00 -0.00000000000E+00 -0.43437692294E+03  0.43437692294E+03  0.00000000000E+00 0.  1.
          2    1    1    2  501    0  0.52523383565E+01 -0.24532893481E+02 -0.14641709881E+02  0.29048745050E+02  0.00000000000E+00 0. -1.
          1    1    1    2  502    0 -0.52523383565E+01  0.24532893481E+02 -0.41215023998E+03  0.41291315096E+03  0.00000000000E+00 0.  1.
</event>
<event>
 4    1  0.3593938E+003  0.2271560E+02  0.7546771E-02  0.1496101E+00
          2   -1    0    0  502    0  0.00000000000E+00  0.00000000000E+00  0.13319643059E+01  0.13319643059E+01  0.00000000000E+00 0. -1.
          1   -1    0    0  501    0 -0.00000000000E+00 -0.00000000000E+00 -0.53972331164E+03  0.53972331164E+03  0.00000000000E+00 0.  1.
          2    1    1    2  501    0 -0.13402560820E+02 -0.18340377954E+02 -0.41291476190E+03  0.41353911387E+03  0.00000000000E+00 0. -1.
          1    1    1    2  502    0  0.13402560820E+02  0.18340377954E+02 -0.12547658543E+03  0.12751616208E+03  0.00000000000E+00 0.  1.
</event>
<event>
 4    1  0.3593938E+003  0.2590125E+02  0.7546771E-02  0.1458969E+00
          2   -1    0    0  502    0  0.00000000000E+00  0.00000000000E+00  0.14759437353E+02  0.14759437353E+02  0.00000000000E+00 0.  1.
          1   -1    0    0  501    0 -0.00000000000E+00 -0.00000000000E+00 -0.84013759290E+02  0.84013759290E+02  0.00000000000E+00 0.  1.
          2    1    1    2  501    0  0.25161793635E+02 -0.61448417118E+01 -0.11690619099E+01  0.25927623191E+02  0.00000000000E+00 0.  1.
          1    1    1    2  502    0 -0.25161793635E+02  0.61448417118E+01 -0.68085260027E+02  0.72845573452E+02  0.00000000000E+00 0.  1.
</event>
<event>
 4    1  0.3593938E+003  0.2399359E+02  0.7546771E-02  0.1480385E+00
          2   -1    0    0  502    0  0.00000000000E+00  0.00000000000E+00  0.11865786621E+03  0.11865786621E+03  0.00000000000E+00 0. -1.
          1   -1    0    0  501    0 -0.00000000000E+00 -0.00000000000E+00 -0.78494043854E+01  0.78494043854E+01  0.00000000000E+00 0. -1.
          2    1    1    2  501    0  0.19914990981E+02  0.13382274293E+02  0.94493872253E+02  0.97492481887E+02  0.00000000000E+00 0. -1.
          1    1    1    2  502    0 -0.19914990981E+02 -0.13382274293E+02  0.16314589574E+02  0.29014788712E+02  0.00000000000E+00 0. -1.
</event>
<event>
 4    1  0.3593938E+003  0.2259310E+02  0.7546771E-02  0.1497672E+00
          2   -1    0    0  502    0  0.00000000000E+00  0.00000000000E+00  0.22751761877E+02  0.22751761877E+02  0.00000000000E+00 0.  1.
          1   -1    0    0  501    0 -0.00000000000E+00 -0.00000000000E+00 -0.48482351037E+02  0.48482351037E+02  0.00000000000E+00 0.  1.
          2    1    1    2  501    0 -0.17078045242E+02 -0.14791509267E+02  0.13240886986E+02  0.26187200382E+02  0.00000000000E+00 0.  1.
          1    1    1    2  502    0  0.17078045242E+02  0.14791509267E+02 -0.38971476146E+02  0.45046912532E+02  0.00000000000E+00 0.  1.
</event>
<event>
 4    1  0.3593938E+003  0.2022842E+02  0.7546771E-02  0.1530572E+00
          2   -1    0    0  502    0  0.00000000000E+00  0.00000000000E+00  0.83736892575E+03  0.83736892575E+03  0.00000000000E+00 0. -1.
          1   -1    0    0  501    0 -0.00000000000E+00 -0.00000000000E+00 -0.16260372462E+03  0.16260372462E+03  0.00000000000E+00 0.  1.
          2    1    1    2  501    0  0.14323866052E+02 -0.14283413493E+02  0.83661707533E+03  0.83686158937E+03  0.00000000000E+00 0. -1.
          1    1    1    2  502    0 -0.14323866052E+02  0.14283413493E+02 -0.16185187419E+03  0.16311106100E+03  0.00000000000E+00 0.  1.
</event>
<event>
 4    1  0.3593938E+003  0.2561199E+02  0.7546771E-02  0.1462072E+00
          2   -1    0    0  502    0  0.00000000000E+00  0.00000000000E+00  0.98806719905E+02  0.98806719905E+02  0.00000000000E+00 0.  1.
          1   -1    0    0  501    0 -0.00000000000E+00 -0.00000000000E+00 -0.19720024282E+02  0.19720024282E+02  0.00000000000E+00 0.  1.
          2    1    1    2  501    0 -0.24559055536E+02 -0.72682052723E+01  0.87810775028E+02  0.91469701146E+02  0.00000000000E+00 0.  1.
          1    1    1    2  502    0  0.24559055536E+02  0.72682052723E+01 -0.87240794046E+01  0.27057043041E+02  0.00000000000E+00 0.  1.
</event>
<event>
 4    1  0.3593938E+003  0.2422706E+02  0.7546771E-02  0.1477639E+00
          2   -1    0    0  502    0  0.00000000000E+00  0.00000000000E+00  0.49762983816E+02  0.49762983816E+02  0.00000000000E+00 0. -1.
          1   -1    0    0  501    0 -0.00000000000E+00 -0.00000000000E+00 -0.32717090343E+02  0.32717090343E+02  0.00000000000E+00 0. -1.
          2    1    1    2  501    0 -0.19642759125E+02 -0.14181405853E+02  0.41501766537E+02  0.48055664429E+02  0.00000000000E+00 0. -1.
          1    1    1    2  502    0  0.19642759125E+02  0.14181405853E+02 -0.24455873064E+02  0.34424409730E+02  0.00000000000E+00 0. -1.
</event>
<event>
 4    1  0.3593938E+003  0.2428536E+02  0.7546771E-02  0.1476959E+00
          2   -1    0    0  502    0  0.00000000000E+00  0.00000000000E+00  0.16441457270E+04  0.16441457270E+04  0.00000000000E+00 0.  1.
          1   -1    0    0  501    0 -0.00000000000E+00 -0.00000000000E+00 -0.77882055992E+00  0.77882055992E+00  0.00000000000E+00 0. -1.
          2    1    1    2  501    0  0.97871663753E+01 -0.22225891355E+02  0.14257388488E+04  0.14259456665E+04  0.00000000000E+00 0.  1.
          1    1    1    2  502    0 -0.97871663753E+01  0.22225891355E+02  0.21762805771E+03  0.21897888112E+03  0.00000000000E+00 0. -1.
</event>
<event>
 4    1  0.3593938E+003  0.2693784E+02  0.7546771E-02  0.1448234E+00
          2   -1    0    0  502    0  0.00000000000E+00  0.00000000000E+00  0.18816658482E+04  0.18816658482E+04  0.00000000000E+00 0.  1.
          1   -1    0    0  501    0 -0.00000000000E+00 -0.00000000000E+00 -0.39594550639E+01  0.39594550639E+01  0.00000000000E+00 0.  1.
          2    1    1    2  501    0  0.26132170923E+02  0.65388781866E+01  0.18345760938E+04  0.18347738529E+04  0.00000000000E+00 0.  1.
          1    1    1    2  502    0 -0.26132170923E+02 -0.65388781866E+01  0.43130299347E+02  0.50851450390E+02  0.00000000000E+00 0.  1.
</event>
<event>
 4    1  0.3593938E+003  0.2217479E+02  0.7546771E-02  0.1503129E+00
          2   -1    0    0  502    0  0.00000000000E+00  0.00000000000E+00  0.50943739784E+03  0.50943739784E+03  0.00000000000E+00 0. -1.
          1   -1    0    0  501    0 -0.00000000000E+00 -0.00000000000E+00 -0.17739510414E+03  0.17739510414E+03  0.00000000000E+00 0.  1.
          2    1    1    2  501    0 -0.20699315771E+02 -0.79535828598E+01  0.50850184299E+03  0.50898511322E+03  0.00000000000E+00 0. -1.
          1    1    1    2  502    0  0.20699315771E+02  0.79535828598E+01 -0.17645954929E+03  0.17784738877E+03  0.00000000000E+00 0.  1.
</event>
<event>
 4    1  0.3593938E+003  0.4382820E+02  0.7546771E-02  0.1327404E+00
          2   -1    0    0  502    0  0.00000000000E+00  0.00000000000E+00  0.65651833452E+02  0.65651833452E+02  0.00000000000E+00 0.  1.
          1   -1    0    0  501    0 -0.00000000000E+00 -0.00000000000E+00 -0.10316235050E+03  0.10316235050E+03  0.00000000000E+00 0. -1.
          2    1    1    2  501    0  0.12886647881E+02  0.41890872600E+02  0.52686183642E+02  0.68532801252E+02  0.00000000000E+00 0.  1.
          1    1    1    2  502    0 -0.12886647881E+02 -0.41890872600E+02 -0.90196700689E+02  0.10028138270E+03  0.00000000000E+00 0. -1.
</event>
<event>
 4    1  0.3593938E+003  0.3089401E+02  0.7546771E-02  0.1411983E+00
          2   -1    0    0  502    0  0.00000000000E+00  0.00000000000E+00  0.19265568098E+02  0.19265568098E+02  0.00000000000E+00 0. -1.
          1   -1    0    0  501    0 -0.00000000000E+00 -0.00000000000E+00 -0.50177146074E+02  0.50177146074E+02  0.00000000000E+00 0. -1.
          2    1    1    2  501    0 -0.28707187018E+02 -0.11416502143E+02 -0.19364723287E+02  0.36461371554E+02  0.00000000000E+00 0. -1.
          1    1    1    2  502    0  0.28707187018E+02  0.11416502143E+02 -0.11546854689E+02  0.32981342618E+02  0.00000000000E+00 0. -1.
</event>
<event>
 4    1  0.3593938E+003  0.3094645E+02  0.7546771E-02  0.1411546E+00
          2   -1    0    0  502    0  0.00000000000E+00  0.00000000000E+00  0.11422462742E+01  0.11422462742E+01  0.00000000000E+00 0. -1.
          1   -1    0    0  501    0 -0.00000000000E+00 -0.00000000000E+00 -0.11645630877E+04  0.11645630877E+04  0.00000000000E+00 0.  1.
          2    1    1    2  501    0  0.90624257527E+01  0.29589782553E+02 -0.27326311857E+03  0.27500984485E+03  0.00000000000E+00 0. -1.
          1    1    1    2  502    0 -0.90624257527E+01 -0.29589782553E+02 -0.89015772284E+03  0.89069548911E+03  0.00000000000E+00 0.  1.
</event>
<event>
 4    1  0.3593938E+003  0.2159373E+02  0.7546771E-02  0.1510954E+00
          2   -1    0    0  502    0  0.00000000000E+00  0.00000000000E+00  0.12539785995E+04  0.12539785995E+04  0.00000000000E+00 0.  1.
          1   -1    0    0  501    0 -0.00000000000E+00 -0.00000000000E+00 -0.59956461830E+00  0.59956461830E+00  0.00000000000E+00 0.  1.
          2    1    1    2  501    0  0.11506876326E+02  0.18272415123E+02  0.10132764341E+04  0.10135064979E+04  0.00000000000E+00 0.  1.
          1    1    1    2  502    0 -0.11506876326E+02 -0.18272415123E+02  0.24010260075E+03  0.24107166620E+03  0.00000000000E+00 0.  1.
</event>
<event>
 4    1  0.3593938E+003  0.2658924E+02  0.7546771E-02  0.1451778E+00
          2   -1    0    0  502    0  0.00000000000E+00  0.00000000000E+00  0.66163013469E+02  0.66163013469E+02  0.00000000000E+00 0.  1.
          1   -1    0    0  501    0 -0.00000000000E+00 -0.00000000000E+00 -0.46757503804E+02  0.46757503804E+02  0.00000000000E+00 0.  1.
          2    1    1    2  501    0  0.20052167293E+02 -0.17461343200E+02  0.59293663022E+02  0.64982508370E+02  0.00000000000E+00 0.  1.
          1    1    1    2  502    0 -0.20052167293E+02  0.17461343200E+02 -0.39888153357E+02  0.47938008904E+02  0.00000000000E+00 0.  1.
</event>
<event>
 4    1  0.3593938E+003  0.2567261E+02  0.7546771E-02  0.1461418E+00
          2   -1    0    0  502    0  0.00000000000E+00  0.00000000000E+00  0.57448149475E+03  0.57448149475E+03  0.00000000000E+00 0.  1.
          1   -1    0    0  501    0 -0.00000000000E+00 -0.00000000000E+00 -0.88666956333E+01  0.88666956333E+01  0.00000000000E+00 0. -1.
          2    1    1    2  501    0 -0.14118813229E+02  0.21441595838E+02  0.55495817339E+03  0.55555166918E+03  0.00000000000E+00 0.  1.
          1    1    1    2  502    0  0.14118813229E+02 -0.21441595838E+02  0.10656625729E+02  0.27796521203E+02  0.00000000000E+00 0. -1.
</event>
<event>
 4    1  0.3593938E+003  0.2437637E+02  0.7546771E-02  0.1475902E+00
          2   -1    0    0  502    0  0.00000000000E+00  0.00000000000E+00  0.73908856430E+01  0.73908856430E+01  0.00000000000E+00 0. -1.
          1   -1    0    0  501    0 -0.00000000000E+00 -0.00000000000E+00 -0.40070284264E+03  0.40070284264E+03  0.00000000000E+00 0. -1.
          2    1    1    2  501    0  0.21368733685E+02 -0.11729644480E+02 -0.14224015227E+02  0.28222862153E+02  0.00000000000E+00 0. -1.
          1    1    1    2  502    0 -0.21368733685E+02  0.11729644480E+02 -0.37908794177E+03  0.37987086613E+03  0.00000000000E+00 0. -1.
</event>
<event>
 4    1  0.3593938E+003  0.3994221E+02  0.7546771E-02  0.1348825E+00
          2   -1    0    0  502    0  0.00000000000E+00  0.00000000000E+00  0.24002685768E+04  0.24002685768E+04  0.00000000000E+00 0.  1.
          1   -1    0    0  501    0 -0.00000000000E+00 -0.00000000000E+00 -0.97425638427E+00  0.97425638427E+00  0.00000000000E+00 0.  1.
          2    1    1    2  501    0 -0.75649557245E+01  0.39219277813E+02  0.18764500366E+04  0.18768750945E+04  0.00000000000E+00 0.  1.
          1    1    1    2  502    0  0.75649557245E+01 -0.39219277813E+02  0.52284428378E+03  0.52436773870E+03  0.00000000000E+00 0.  1.
</event>
<event>
 4    1  0.3593938E+003  0.4401010E+02  0.7546771E-02  0.1326464E+00
          2   -1    0    0  502    0  0.00000000000E+00  0.00000000000E+00  0.99391731507E+03  0.99391731507E+03  0.00000000000E+00 0.  1.
          1   -1    0    0  501    0 -0.00000000000E+00 -0.00000000000E+00 -0.60892534825E+01  0.60892534825E+01  0.00000000000E+00 0. -1.
          2    1    1    2  501    0 -0.52829402340E+01  0.43691870200E+02  0.90621826743E+03  0.90728630388E+03  0.00000000000E+00 0.  1.
          1    1    1    2  502    0  0.52829402340E+01 -0.43691870200E+02  0.81609794158E+02  0.92720264676E+02  0.00000000000E+00 0. -1.
</event>
<event>
 4    1  0.3593938E+003  0.2374294E+02  0.7546771E-02  0.1483374E+00
          2   -1    0    0  502    0  0.00000000000E+00  0.00000000000E+00  0.39681676794E+03  0.39681676794E+03  0.00000000000E+00 0. -1.
          1   -1    0    0  501    0 -0.00000000000E+00 -0.00000000000E+00 -0.79695870300E+01  0.79695870300E+01  0.00000000000E+00 0.  1.
          2    1    1    2  501    0 -0.23185468871E+02  0.51148039626E+01  0.37789324750E+03  0.37863839437E+03  0.00000000000E+00 0. -1.
          1    1    1    2  502    0  0.23185468871E+02 -0.51148039626E+01  0.10953933411E+02  0.26147960599E+02  0.00000000000E+00 0.  1.
</event>
<event>
 4    1  0.3593938E+003  0.2296391E+02  0.7546771E-02  0.1492952E+00
          2   -1    0    0  502    0  0.00000000000E+00  0.00000000000E+00  0.51331637189E+03  0.51331637189E+03  0.00000000000E+00 0. -1.
          1   -1    0    0  501    0 -0.00000000000E+00 -0.00000000000E+00 -0.44258916329E+02  0.44258916329E+02  0.00000000000E+00 0. -1.
          2    1    1    2  501    0 -0.22828073998E+02  0.24940454600E+01  0.51006181585E+03  0.51057849270E+03  0.00000000000E+00 0. -1.
          1    1    1    2  502    0  0.22828073998E+02 -0.24940454600E+01 -0.41004360292E+02  0.46996795510E+02  0.00000000000E+00 0. -1.
</event>
<event>
 4    1  0.3593938E+003  0.2160321E+02  0.7546771E-02  0.1510824E+00
          2   -1    0    0  502    0  0.00000000000E+00  0.00000000000E+00  0.11671488676E+02  0.11671488676E+02  0.00000000000E+00 0.  1.
          1   -1    0    0  501    0 -0.00000000000E+00 -0.00000000000E+00 -0.76271375711E+03  0.76271375711E+03  0.00000000000E+00 0. -1.
          2    1    1    2  501    0  0.20258765460E+02  0.75020793154E+01  0.13853282397E+01  0.21647584308E+02  0.00000000000E+00 0.  1.
          1    1    1    2  502    0 -0.20258765460E+02 -0.75020793154E+01 -0.75242759667E+03  0.75273766148E+03  0.00000000000E+00 0. -1.
</event>
<event>
 4    1  0.3593938E+003  0.2372983E+02  0.7546771E-02  0.1483531E+00
          2   -1    0    0  502    0  0.00000000000E+00  0.00000000000E+00  0.55311175969E+03  0.55311175969E+03  0.00000000000E+00 0.  1.
          1   -1    0    0  501    0 -0.00000000000E+00 -0.00000000000E+00 -0.43340233140E+02  0.43340233140E+02  0.00000000000E+00 0.  1.
          2    1    1    2  501    0 -0.21502625813E+02  0.10037029072E+02  0.54958826338E+03  0.55010032187E+03  0.00000000000E+00 0.  1.
          1    1    1    2  502    0  0.21502625813E+02 -0.10037029072E+02 -0.39816736830E+02  0.46351670965E+02  0.00000000000E+00 0.  1.
</event>
<event>
 4    1  0.3593938E+003  0.2369793E+02  0.7546771E-02  0.1483915E+00
          2   -1    0    0  502    0  0.00000000000E+00  0.00000000000E+00  0.17063890881E+04  0.17063890881E+04  0.00000000000E+00 0. -1.
          1   -1    0    0  501    0 -0.00000000000E+00 -0.00000000000E+00 -0.31785065572E+02  0.31785065572E+02  0.00000000000E+00 0.  1.
          2    1    1    2  501    0 -0.23663937871E+02  0.12688073740E+01  0.17018779981E+04  0.17020429819E+04  0.00000000000E+00 0. -1.
          1    1    1    2  502    0  0.23663937871E+02 -0.12688073740E+01 -0.27273975590E+02  0.36131171752E+02  0.00000000000E+00 0.  1.
</event>
<event>
 4    1  0.3593938E+003  0.2016664E+02  0.7546771E-02  0.1531503E+00
          2   -1    0    0  502    0  0.00000000000E+00  0.00000000000E+00  0.32566876366E+02  0.32566876366E+02  0.00000000000E+00 0.  1.
          1   -1    0    0  501    0 -0.00000000000E+00 -0.00000000000E+00 -0.21648506137E+03  0.21648506137E+03  0.00000000000E+00 0. -1.
          2    1    1    2  501    0  0.20117520181E+02 -0.14067436933E+01  0.28921887168E+02  0.35258603254E+02  0.00000000000E+00 0.  1.
          1    1    1    2  502    0 -0.20117520181E+02  0.14067436933E+01 -0.21284007217E+03  0.21379333448E+03  0.00000000000E+00 0. -1.
</event>
<event>
 4    1  0.3593938E+003  0.2011563E+02  0.7546771E-02  0.1532275E+00
          2   -1    0    0  502    0  0.00000000000E+00  0.00000000000E+00  0.22350913119E+03  0.22350913119E+03  0.00000000000E+00 0. -1.
          1   -1    0    0  501    0 -0.00000000000E+00 -0.00000000000E+00 -0.22251974883E+01  0.22251974883E+01  0.00000000000E+00 0.  1.
          2    1    1    2  501    0 -0.11004358075E+02 -0.16838721426E+02  0.15937318152E+03  0.16063763389E+03  0.00000000000E+00 0. -1.
          1    1    1    2  502    0  0.11004358075E+02  0.16838721426E+02  0.61910752188E+02  0.65096694788E+02  0.00000000000E+00 0.  1.
</event>
<event>
 4    1  0.3593938E+003  0.4681646E+02  0.7546771E-02  0.1312598E+00
          2   -1    0    0  502    0  0.00000000000E+00  0.00000000000E+00  0.86945552162E+01  0.86945552162E+01  0.00000000000E+00 0. -1.
          1   -1    0    0  501    0 -0.00000000000E+00 -0.00000000000E+00 -0.17299703933E+04  0.17299703933E+04  0.00000000000E+00 0. -1.
          2    1    1    2  501    0 -0.30645699574E-01  0.46816450729E+02 -0.57136387580E+02  0.73867095406E+02  0.00000000000E+00 0. -1.
          1    1    1    2  502    0  0.30645699574E-01 -0.46816450729E+02 -0.16641394505E+04  0.16647978531E+04  0.00000000000E+00 0. -1.
</event>
<event>
 4    1  0.3593938E+003  0.2584935E+02  0.7546771E-02  0.1459522E+00
          2   -1    0    0  502    0  0.00000000000E+00  0.00000000000E+00  0.31557533130E+03  0.31557533130E+03  0.00000000000E+00 0. -1.
          1   -1    0    0  501    0 -0.00000000000E+00 -0.00000000000E+00 -0.39271683429E+01  0.39271683429E+01  0.00000000000E+00 0. -1.
          2    1    1    2  501    0  0.13020363827E+02 -0.22330669708E+02  0.26427169510E+03  0.26553289347E+03  0.00000000000E+00 0. -1.
          1    1    1    2  502    0 -0.13020363827E+02  0.22330669708E+02  0.47376467858E+02  0.53969606174E+02  0.00000000000E+00 0. -1.
</event>
<event>
 4    1  0.3593938E+003  0.2036873E+02  0.7546771E-02  0.1528472E+00
          2   -1    0    0  502    0  0.00000000000E+00  0.00000000000E+00  0.22249020015E+04  0.22249020015E+04  0.00000000000E+00 0.  1.
          1   -1    0    0  501    0 -0.00000000000E+00 -0.00000000000E+00 -0.20403060356E+00  0.20403060356E+00  0.00000000000E+00 0. -1.
          2    1    1    2  501    0 -0.18621629908E+02  0.82534876646E+01  0.14387113519E+04  0.14388555311E+04  0.00000000000E+00 0.  1.
          1    1    1    2  502    0  0.18621629908E+02 -0.82534876646E+01  0.78598661897E+03  0.78625050103E+03  0.00000000000E+00 0. -1.
</event>
<event>
 4    1  0.3593938E+003  0.2841172E+02  0.7546771E-02  0.1433920E+00
          2   -1    0    0  502    0  0.00000000000E+00  0.00000000000E+00  0.12594736300E+04  0.12594736300E+04  0.00000000000E+00 0.  1.
          1   -1    0    0  501    0 -0.00000000000E+00 -0.00000000000E+00 -0.17711540440E+01  0.17711540440E+01  0.00000000000E+00 0. -1.
          2    1    1    2  501    0  0.62066075288E+00 -0.28404940319E+02  0.11326125366E+04  0.11329688362E+04  0.00000000000E+00 0.  1.
          1    1    1    2  502    0 -0.62066075288E+00  0.28404940319E+02  0.12508993942E+03  0.12827594786E+03  0.00000000000E+00 0. -1.
</event>
<event>
 4    1  0.3593938E+003  0.2119163E+02  0.7546771E-02  0.1516546E+00
          2   -1    0    0  502    0  0.00000000000E+00  0.00000000000E+00  0.12081573963E+04  0.12081573963E+04  0.00000000000E+00 0.  1.
          1   -1    0    0  501    0 -0.00000000000E+00 -0.00000000000E+00 -0.50982525978E+01  0.50982525978E+01  0.00000000000E+00 0. -1.
          2    1    1    2  501    0 -0.12672522840E+02  0.16985057656E+02  0.11856244638E+04  0.11858138362E+04  0.00000000000E+00 0.  1.
          1    1    1    2  502    0  0.12672522840E+02 -0.16985057656E+02  0.17434679861E+02  0.27441812632E+02  0.00000000000E+00 0. -1.
</event>
<event>
 4    1  0.3593938E+003  0.2721125E+02  0.7546771E-02  0.1445497E+00
          2   -1    0    0  502    0  0.00000000000E+00  0.00000000000E+00  0.17208570552E+04  0.17208570552E+04  0.00000000000E+00 0. -1.
          1   -1    0    0  501    0 -0.00000000000E+00 -0.00000000000E+00 -0.43111890763E+00  0.43111890763E+00  0.00000000000E+00 0. -1.
          2    1    1    2  501    0 -0.72909190381E+01  0.26216295588E+02  0.82226492853E+03  0.82271505659E+03  0.00000000000E+00 0. -1.
          1    1    1    2  502    0  0.72909190381E+01 -0.26216295588E+02  0.89816100775E+03  0.89857311751E+03  0.00000000000E+00 0. -1.
</event>
<event>
 4    1  0.3593938E+003  0.2347361E+02  0.7546771E-02  0.1486635E+00
          2   -1    0    0  502    0  0.00000000000E+00  0.00000000000E+00  0.12561539567E+03  0.12561539567E+03  0.00000000000E+00 0.  1.
          1   -1    0    0  501    0 -0.00000000000E+00 -0.00000000000E+00 -0.65783770110E+01  0.65783770110E+01  0.00000000000E+00 0. -1.
          2    1    1    2  501    0  0.19407288757E+02 -0.13204834383E+02  0.97671697677E+02  0.10045282990E+03  0.00000000000E+00 0.  1.
          1    1    1    2  502    0 -0.19407288757E+02  0.13204834383E+02  0.21365320986E+02  0.31740942784E+02  0.00000000000E+00 0. -1.
</event>
<event>
 4    1  0.3593938E+003  0.3859383E+02  0.7546771E-02  0.1356929E+00
          2   -1    0    0  502    0  0.00000000000E+00  0.00000000000E+00  0.19925582568E+02  0.19925582568E+02  0.00000000000E+00 0. -1.
          1   -1    0    0  501    0 -0.00000000000E+00 -0.00000000000E+00 -0.10747065007E+03  0.10747065007E+03  0.00000000000E+00 0.  1.
          2    1    1    2  501    0 -0.37619669524E+02 -0.86165247288E+01 -0.86264413306E+01  0.39546169518E+02  0.00000000000E+00 0. -1.
          1    1    1    2  502    0  0.37619669524E+02  0.86165247288E+01 -0.78918626176E+02  0.87850063125E+02  0.00000000000E+00 0.  1.
</event>
<event>
 4    1  0.3593938E+003  0.4670409E+02  0.7546771E-02  0.1313132E+00
          2   -1    0    0  502    0  0.00000000000E+00  0.00000000000E+00  0.47855577643E+03  0.47855577643E+03  0.00000000000E+00 0. -1.
          1   -1    0    0  501    0 -0.00000000000E+00 -0.00000000000E+00 -0.73231411139E+01  0.73231411139E+01  0.00000000000E+00 0.  1.
          2    1    1    2  501    0 -0.41641735701E+02 -0.21147993757E+02  0.38489768976E+03  0.38772090913E+03  0.00000000000E+00 0. -1.
          1    1    1    2  502    0  0.41641735701E+02  0.21147993757E+02  0.86334945557E+02  0.98158008417E+02  0.00000000000E+00 0.  1.
</event>
<event>
 4    1  0.3593938E+003  0.3614827E+02  0.7546771E-02  0.1372665E+00
          2   -1    0    0  502    0  0.00000000000E+00  0.00000000000E+00  0.24989091844E+02  0.24989091844E+02  0.00000000000E+00 0.  1.
          1   -1    0    0  501    0 -0.00000000000E+00 -0.00000000000E+00 -0.63509404075E+03  0.63509404075E+03  0.00000000000E+00 0.  1.
          2    1    1    2  501    0 -0.23401740166E+02  0.27550966181E+02  0.11110228516E+02  0.37817117261E+02  0.00000000000E+00 0.  1.
          1    1    1    2  502    0  0.23401740166E+02 -0.27550966181E+02 -0.62121517742E+03  0.62226601533E+03  0.00000000000E+00 0.  1.
</event>
<event>
 4    1  0.3593938E+003  0.2678028E+02  0.7546771E-02  0.1449828E+00
          2   -1    0    0  502    0  0.00000000000E+00  0.00000000000E+00  0.61734124454E+02  0.61734124454E+02  0.00000000000E+00 0. -1.
          1   -1    0    0  501    0 -0.00000000000E+00 -0.00000000000E+00 -0.20907195244E+02  0.20907195244E+02  0.00000000000E+00 0.  1.
          2    1    1    2  501    0 -0.18321759882E+02 -0.19531941137E+02  0.47957328123E+02  0.54928034104E+02  0.00000000000E+00 0. -1.
          1    1    1    2  502    0  0.18321759882E+02  0.19531941137E+02 -0.71303989133E+01  0.27713285594E+02  0.00000000000E+00 0.  1.
</event>
<event>
 4    1  0.3593938E+003  0.2107388E+02  0.7546771E-02  0.1518213E+00
          2   -1    0    0  502    0  0.00000000000E+00  0.00000000000E+00  0.99406183943E+02  0.99406183943E+02  0.00000000000E+00 0.  1.
          1   -1    0    0  501    0 -0.00000000000E+00 -0.00000000000E+00 -0.60140650468E+02  0.60140650468E+02  0.00000000000E+00 0.  1.
          2    1    1    2  501    0  0.17310916808E+02  0.12018346654E+02  0.96385983936E+02  0.98662892702E+02  0.00000000000E+00 0.  1.
          1    1    1    2  502    0 -0.17310916808E+02 -0.12018346654E+02 -0.57120450462E+02  0.60883941709E+02  0.00000000000E+00 0.  1.
</event>
<event>
 4    1  0.3593938E+003  0.2513858E+02  0.7546771E-02  0.1467259E+00
          2   -1    0    0  502    0  0.00000000000E+00  0.00000000000E+00  0.54119728719E+03  0.54119728719E+03  0.00000000000E+00 0.  1.
          1   -1    0    0  501    0 -0.00000000000E+00 -0.00000000000E+00 -0.37126563852E+01  0.37126563852E+01  0.00000000000E+00 0.  1.
          2    1    1    2  501    0 -0.24883323770E+02 -0.35733095392E+01  0.49431876133E+03  0.49495755995E+03  0.00000000000E+00 0.  1.
          1    1    1    2  502    0  0.24883323770E+02  0.35733095392E+01  0.43165869473E+02  0.49952383629E+02  0.00000000000E+00 0.  1.
</event>
<event>
 4    1  0.3593938E+003  0.2155718E+02  0.7546771E-02  0.1511456E+00
          2   -1    0    0  502    0  0.00000000000E+00  0.00000000000E+00  0.84744887879E+02  0.84744887879E+02  0.00000000000E+00 0. -1.
          1   -1    0    0  501    0 -0.00000000000E+00 -0.00000000000E+00 -0.13833133555E+03  0.13833133555E+03  0.00000000000E+00 0.  1.
          2    1    1    2  501    0 -0.11364073396E+02  0.18318564106E+02  0.82511765600E+02  0.85281319276E+02  0.00000000000E+00 0. -1.
          1    1    1    2  502    0  0.11364073396E+02 -0.18318564106E+02 -0.13609821327E+03  0.13779490415E+03  0.00000000000E+00 0.  1.
</event>
<event>
 4    1  0.3593938E+003  0.2617554E+02  0.7546771E-02  0.1456070E+00
          2   -1    0    0  502    0  0.00000000000E+00  0.00000000000E+00  0.51753927409E+03  0.51753927409E+03  0.00000000000E+00 0. -1.
          1   -1    0    0  501    0 -0.00000000000E+00 -0.00000000000E+00 -0.88380496198E+01  0.88380496198E+01  0.00000000000E+00 0. -1.
          2    1    1    2  501    0 -0.25053222717E+02  0.75825320553E+01  0.49702811579E+03  0.49771689407E+03  0.00000000000E+00 0. -1.
          1    1    1    2  502    0  0.25053222717E+02 -0.75825320553E+01  0.11673108688E+02  0.28660429643E+02  0.00000000000E+00 0. -1.
</event>
<event>
 4    1  0.3593938E+003  0.3473758E+02  0.7546771E-02  0.1382417E+00
          2   -1    0    0  502    0  0.00000000000E+00  0.00000000000E+00  0.26336637639E+04  0.26336637639E+04  0.00000000000E+00 0.  1.
          1   -1    0    0  501    0 -0.00000000000E+00 -0.00000000000E+00 -0.46387546613E+01  0.46387546613E+01  0.00000000000E+00 0.  1.
          2    1    1    2  501    0  0.30822464855E+01  0.34600568879E+02  0.25668221848E+04  0.25670572312E+04  0.00000000000E+00 0.  1.
          1    1    1    2  502    0 -0.30822464855E+01 -0.34600568879E+02  0.62202824427E+02  0.71245287401E+02  0.00000000000E+00 0.  1.
</event>
<event>
 4    1  0.3593938E+003  0.2478113E+02  0.7546771E-02  0.1471267E+00
          2   -1    0    0  502    0  0.00000000000E+00  0.00000000000E+00  0.29947643858E+02  0.29947643858E+02  0.00000000000E+00 0. -1.
          1   -1    0    0  501    0 -0.00000000000E+00 -0.00000000000E+00 -0.21888744695E+03  0.21888744695E+03  0.00000000000E+00 0.  1.
          2    1    1    2  501    0  0.10014162500E+01  0.24760892240E+02  0.23976478528E+02  0.34481533342E+02  0.00000000000E+00 0. -1.
          1    1    1    2  502    0 -0.10014162500E+01 -0.24760892240E+02 -0.21291628162E+03  0.21435355747E+03  0.00000000000E+00 0.  1.
</event>
<event>
 4    1  0.3593938E+003  0.2950829E+02  0.7546771E-02  0.1423918E+00
          2   -1    0    0  502    0  0.00000000000E+00  0.00000000000E+00  0.13420828298E+02  0.13420828298E+02  0.00000000000E+00 0.  1.
          1   -1    0    0  501    0 -0.00000000000E+00 -0.00000000000E+00 -0.68208694777E+03  0.68208694777E+03  0.00000000000E+00 0.  1.
          2    1    1    2  501    0 -0.22326008845E+02  0.19294779708E+02 -0.35314330390E+01  0.29718852842E+02  0.00000000000E+00 0.  1.
          1    1    1    2  502    0  0.22326008845E+02 -0.19294779708E+02 -0.66513468643E+03  0.66578892322E+03  0.00000000000E+00 0.  1.
</event>
<event>
 4    1  0.3593938E+003  0.2122221E+02  0.7546771E-02  0.1516116E+00
          2   -1    0    0  502    0  0.00000000000E+00  0.00000000000E+00  0.55784022888E+02  0.55784022888E+02  0.00000000000E+00 0. -1.
          1   -1    0    0  501    0 -0.00000000000E+00 -0.00000000000E+00 -0.83549403801E+02  0.83549403801E+02  0.00000000000E+00 0. -1.
          2    1    1    2  501    0  0.10294957970E+02  0.18557904892E+02  0.52332450278E+02  0.56471827894E+02  0.00000000000E+00 0. -1.
          1    1    1    2  502    0 -0.10294957970E+02 -0.18557904892E+02 -0.80097831191E+02  0.82861598796E+02  0.00000000000E+00 0. -1.
</event>
<event>
 4    1  0.3593938E+003  0.2295699E+02  0.7546771E-02  0.1493039E+00
          2   -1    0    0  502    0  0.00000000000E+00  0.00000000000E+00  0.21678922297E+03  0.21678922297E+03  0.00000000000E+00 0. -1.
          1   -1    0    0  501    0 -0.00000000000E+00 -0.00000000000E+00 -0.70107428649E+03  0.70107428649E+03  0.00000000000E+00 0. -1.
          2    1    1    2  501    0 -0.22575507444E+02 -0.41676978147E+01  0.21599283786E+03  0.21720941335E+03  0.00000000000E+00 0. -1.
          1    1    1    2  502    0  0.22575507444E+02  0.41676978147E+01 -0.70027790138E+03  0.70065409611E+03  0.00000000000E+00 0. -1.
</event>
<event>
 4    1  0.3593938E+003  0.2529863E+02  0.7546771E-02  0.1465490E+00
          2   -1    0    0  502    0  0.00000000000E+00  0.00000000000E+00  0.18606266449E+02  0.18606266449E+02  0.00000000000E+00 0. -1.
          1   -1    0    0  501    0 -0.00000000000E+00 -0.00000000000E+00 -0.62306423467E+02  0.62306423467E+02  0.00000000000E+00 0. -1.
          2    1    1    2  501    0 -0.10232952278E+02 -0.23136708863E+02  0.52260733444E+01  0.25832778633E+02  0.00000000000E+00 0. -1.
          1    1    1    2  502    0  0.10232952278E+02  0.23136708863E+02 -0.48926230362E+02  0.55079911282E+02  0.00000000000E+00 0. -1.
</event>
<event>
 4    1  0.3593938E+003  0.2084990E+02  0.7546771E-02  0.1521419E+00
          2   -1    0    0  502    0  0.00000000000E+00  0.00000000000E+00  0.10862011381E+02  0.10862011381E+02  0.00000000000E+00 0. -1.
          1   -1    0    0  501    0 -0.00000000000E+00 -0.00000000000E+00 -0.40691482907E+02  0.40691482907E+02  0.00000000000E+00 0. -1.
          2    1    1    2  501    0 -0.20831879087E+02 -0.86632588401E+00 -0.18221454343E+02  0.27690054265E+02  0.00000000000E+00 0. -1.
          1    1    1    2  502    0  0.20831879087E+02  0.86632588401E+00 -0.11608017183E+02  0.23863440023E+02  0.00000000000E+00 0. -1.
</event>
<event>
 4    1  0.3593938E+003  0.8665131E+02  0.7546771E-02  0.1189194E+00
          2   -1    0    0  502    0  0.00000000000E+00  0.00000000000E+00  0.18511480682E+02  0.18511480682E+02  0.00000000000E+00 0.  1.
          1   -1    0    0  501    0 -0.00000000000E+00 -0.00000000000E+00 -0.59100725432E+03  0.59100725432E+03  0.00000000000E+00 0.  1.
          2    1    1    2  501    0  0.65379271360E+02  0.56868276725E+02 -0.11555643238E+03  0.14443593419E+03  0.00000000000E+00 0.  1.
          1    1    1    2  502    0 -0.65379271360E+02 -0.56868276725E+02 -0.45693934125E+03  0.46508280081E+03  0.00000000000E+00 0.  1.
</event>
<event>
 4    1  0.3593938E+003  0.3763503E+02  0.7546771E-02  0.1362931E+00
          2   -1    0    0  502    0  0.00000000000E+00  0.00000000000E+00  0.51940047960E+01  0.51940047960E+01  0.00000000000E+00 0.  1.
          1   -1    0    0  501    0 -0.00000000000E+00 -0.00000000000E+00 -0.32257393121E+03  0.32257393121E+03  0.00000000000E+00 0.  1.
          2    1    1    2  501    0 -0.36484740627E+02  0.92335729663E+01 -0.94248266011E+02  0.10148463339E+03  0.00000000000E+00 0.  1.
          1    1    1    2  502    0  0.36484740627E+02 -0.92335729663E+01 -0.22313166041E+03  0.22628330262E+03  0.00000000000E+00 0.  1.
</event>
<event>
 4    1  0.3593938E+003  0.5401479E+02  0.7546771E-02  0.1281645E+00
          2   -1    0    0  502    0  0.00000000000E+00  0.00000000000E+00  0.33689450529E+01  0.33689450529E+01  0.00000000000E+00 0.  1.
          1   -1    0    0  501    0 -0.00000000000E+00 -0.00000000000E+00 -0.87043950666E+03  0.87043950666E+03  0.00000000000E+00 0.  1.
          2    1    1    2  501    0  0.31116241717E+02 -0.44151719252E+02 -0.46464507316E+03  0.46777413227E+03  0.00000000000E+00 0.  1.
          1    1    1    2  502    0 -0.31116241717E+02  0.44151719252E+02 -0.40242548845E+03  0.40603431944E+03  0.00000000000E+00 0.  1.
</event>
<event>
 4    1  0.3593938E+003  0.2363318E+02  0.7546771E-02  0.1484697E+00
          2   -1    0    0  502    0  0.00000000000E+00  0.00000000000E+00  0.67693538972E+01  0.67693538972E+01  0.00000000000E+00 0. -1.
          1   -1    0    0  501    0 -0.00000000000E+00 -0.00000000000E+00 -0.10657066729E+04  0.10657066729E+04  0.00000000000E+00 0. -1.
          2    1    1    2  501    0  0.13628061673E+02  0.19308113197E+02 -0.14406849755E+02  0.27678233688E+02  0.00000000000E+00 0. -1.
          1    1    1    2  502    0 -0.13628061673E+02 -0.19308113197E+02 -0.10445304693E+04  0.10447977931E+04  0.00000000000E+00 0. -1.
</event>
<event>
 4    1  0.3593938E+003  0.2357528E+02  0.7546771E-02  0.1485398E+00
          2   -1    0    0  502    0  0.00000000000E+00  0.00000000000E+00  0.46339323910E+03  0.46339323910E+03  0.00000000000E+00 0.  1.
          1   -1    0    0  501    0 -0.00000000000E+00 -0.00000000000E+00 -0.94943552124E+01  0.94943552124E+01  0.00000000000E+00 0.  1.
          2    1    1    2  501    0  0.43982021635E+01  0.23161382638E+02  0.44795449897E+03  0.44857443861E+03  0.00000000000E+00 0.  1.
          1    1    1    2  502    0 -0.43982021635E+01 -0.23161382638E+02  0.59443849143E+01  0.24313155698E+02  0.00000000000E+00 0.  1.
</event>
<event>
 4    1  0.3593938E+003  0.3357846E+02  0.7546771E-02  0.1390842E+00
          2   -1    0    0  502    0  0.00000000000E+00  0.00000000000E+00  0.18603549468E+01  0.18603549468E+01  0.00000000000E+00 0.  1.
          1   -1    0    0  501    0 -0.00000000000E+00 -0.00000000000E+00 -0.75843861550E+03  0.75843861550E+03  0.00000000000E+00 0.  1.
          2    1    1    2  501    0 -0.32370370743E+02  0.89259249274E+01 -0.20790229417E+03  0.21059647898E+03  0.00000000000E+00 0.  1.
          1    1    1    2  502    0  0.32370370743E+02 -0.89259249274E+01 -0.54867596639E+03  0.54970249147E+03  0.00000000000E+00 0.  1.
</event>
<event>
 4    1  0.3593938E+003  0.2503409E+02  0.7546771E-02  0.1468422E+00
          2   -1    0    0  502    0  0.00000000000E+00  0.00000000000E+00  0.16671282827E+02  0.16671282827E+02  0.00000000000E+00 0. -1.
          1   -1    0    0  501    0 -0.00000000000E+00 -0.00000000000E+00 -0.37632942717E+02  0.37632942717E+02  0.00000000000E+00 0. -1.
          2    1    1    2  501    0 -0.25736641054E+01 -0.24901439422E+02 -0.95843038980E+01  0.26806049940E+02  0.00000000000E+00 0. -1.
          1    1    1    2  502    0  0.25736641054E+01  0.24901439422E+02 -0.11377355991E+02  0.27498175604E+02  0.00000000000E+00 0. -1.
</event>
<event>
 4    1  0.3593938E+003  0.2070196E+02  0.7546771E-02  0.1523563E+00
          2   -1    0    0  502    0  0.00000000000E+00  0.00000000000E+00  0.89898995071E+03  0.89898995071E+03  0.00000000000E+00 0.  1.
          1   -1    0    0  501    0 -0.00000000000E+00 -0.00000000000E+00 -0.18128402982E+01  0.18128402982E+01  0.00000000000E+00 0. -1.
          2    1    1    2  501    0 -0.19967379336E+02  0.54657949020E+01  0.83525981393E+03  0.83551632415E+03  0.00000000000E+00 0.  1.
          1    1    1    2  502    0  0.19967379336E+02 -0.54657949020E+01  0.61917296480E+02  0.65286466859E+02  0.00000000000E+00 0. -1.
</event>
<event>
 4    1  0.3593938E+003  0.2644225E+02  0.7546771E-02  0.1453293E+00
          2   -1    0    0  502    0  0.00000000000E+00  0.00000000000E+00  0.20419526114E+04  0.20419526114E+04  0.00000000000E+00 0. -1.
          1   -1    0    0  501    0 -0.00000000000E+00 -0.00000000000E+00 -0.48301842129E+00  0.48301842129E+00  0.00000000000E+00 0.  1.
          2    1    1    2  501    0 -0.20516364136E+02 -0.16681466042E+02  0.15717156649E+04  0.15719380788E+04  0.00000000000E+00 0. -1.
          1    1    1    2  502    0  0.20516364136E+02  0.16681466042E+02  0.46975392812E+03  0.47049755099E+03  0.00000000000E+00 0.  1.
</event>
<event>
 4    1  0.3593938E+003  0.2287517E+02  0.7546771E-02  0.1494072E+00
          2   -1    0    0  502    0  0.00000000000E+00  0.00000000000E+00  0.11105382210E+02  0.11105382210E+02  0.00000000000E+00 0.  1.
          1   -1    0    0  501    0 -0.00000000000E+00 -0.00000000000E+00 -0.90509575780E+03  0.90509575780E+03  0.00000000000E+00 0. -1.
          2    1    1    2  501    0  0.16192374469E+02 -0.16157976595E+02 -0.97824263211E+00  0.22896072965E+02  0.00000000000E+00 0.  1.
          1    1    1    2  502    0 -0.16192374469E+02  0.16157976595E+02 -0.89301213296E+03  0.89330506705E+03  0.00000000000E+00 0. -1.
</event>
<event>
 4    1  0.3593938E+003  0.3304880E+02  0.7546771E-02  0.1394825E+00
          2   -1    0    0  502    0  0.00000000000E+00  0.00000000000E+00  0.12104955120E+01  0.12104955120E+01  0.00000000000E+00 0.  1.
          1   -1    0    0  501    0 -0.00000000000E+00 -0.00000000000E+00 -0.91747460340E+03  0.91747460340E+03  0.00000000000E+00 0.  1.
          2    1    1    2  501    0  0.31495978492E+02  0.10011308274E+02 -0.39904629950E+03  0.40041250243E+03  0.00000000000E+00 0.  1.
          1    1    1    2  502    0 -0.31495978492E+02 -0.10011308274E+02 -0.51721780839E+03  0.51827259649E+03  0.00000000000E+00 0.  1.
</event>
<event>
 4    1  0.3593938E+003  0.2874039E+02  0.7546771E-02  0.1430868E+00
          2   -1    0    0  502    0  0.00000000000E+00  0.00000000000E+00  0.16784078312E+02  0.16784078312E+02  0.00000000000E+00 0.  1.
          1   -1    0    0  501    0 -0.00000000000E+00 -0.00000000000E+00 -0.13404579655E+04  0.13404579655E+04  0.00000000000E+00 0.  1.
          2    1    1    2  501    0 -0.27843607582E+02 -0.71234661396E+01  0.42100543806E+01  0.29047113641E+02  0.00000000000E+00 0.  1.
          1    1    1    2  502    0  0.27843607582E+02  0.71234661396E+01 -0.13278839416E+04  0.13281949302E+04  0.00000000000E+00 0.  1.
</event>
<event>
 4    1  0.3593938E+003  0.2829882E+02  0.7546771E-02  0.1434980E+00
          2   -1    0    0  502    0  0.00000000000E+00  0.00000000000E+00  0.21654706894E+03  0.21654706894E+03  0.00000000000E+00 0.  1.
          1   -1    0    0  501    0 -0.00000000000E+00 -0.00000000000E+00 -0.28667993565E+03  0.28667993565E+03  0.00000000000E+00 0. -1.
          2    1    1    2  501    0 -0.44329508092E+01  0.27949455298E+02  0.21491890419E+03  0.21677398017E+03  0.00000000000E+00 0.  1.
          1    1    1    2  502    0  0.44329508092E+01 -0.27949455298E+02 -0.28505177090E+03  0.28645302442E+03  0.00000000000E+00 0. -1.
</event>
<event>
 4    1  0.3593938E+003  0.2553245E+02  0.7546771E-02  0.1462934E+00
          2   -1    0    0  502    0  0.00000000000E+00  0.00000000000E+00  0.20426247467E+04  0.20426247467E+04  0.00000000000E+00 0.  1.
          1   -1    0    0  501    0 -0.00000000000E+00 -0.00000000000E+00 -0.60243208814E+00  0.60243208814E+00  0.00000000000E+00 0.  1.
          2    1    1    2  501    0  0.18151320451E+02 -0.17956484083E+02  0.17215647991E+04  0.17217541239E+04  0.00000000000E+00 0.  1.
          1    1    1    2  502    0 -0.18151320451E+02  0.17956484083E+02  0.32045751557E+03  0.32147305492E+03  0.00000000000E+00 0.  1.
</event>
<event>
 4    1  0.3593938E+003  0.2665590E+02  0.7546771E-02  0.1451096E+00
          2   -1    0    0  502    0  0.00000000000E+00  0.00000000000E+00  0.45950559157E+03  0.45950559157E+03  0.00000000000E+00 0.  1.
          1   -1    0    0  501    0 -0.00000000000E+00 -0.00000000000E+00 -0.18574291373E+02  0.18574291373E+02  0.00000000000E+00 0. -1.
          2    1    1    2  501    0 -0.87572733339E+01 -0.25176316458E+02  0.44933939057E+03  0.45012934215E+03  0.00000000000E+00 0.  1.
          1    1    1    2  502    0  0.87572733339E+01  0.25176316458E+02 -0.84080903759E+01  0.27950540789E+02  0.00000000000E+00 0. -1.
</event>
<event>
 4    1  0.3593938E+003  0.2185554E+02  0.7546771E-02  0.1507392E+00
          2   -1    0    0  502    0  0.00000000000E+00  0.00000000000E+00  0.19871541111E+04  0.19871541111E+04  0.00000000000E+00 0.  1.
          1   -1    0    0  501    0 -0.00000000000E+00 -0.00000000000E+00 -0.27480956011E+00  0.27480956011E+00  0.00000000000E+00 0. -1.
          2    1    1    2  501    0 -0.20582665990E+02 -0.73497322575E+01  0.13451903093E+04  0.13453678430E+04  0.00000000000E+00 0.  1.
          1    1    1    2  502    0  0.20582665990E+02  0.73497322575E+01  0.64168899228E+03  0.64206107772E+03  0.00000000000E+00 0. -1.
</event>
<event>
 4    1  0.3593938E+003  0.2124617E+02  0.7546771E-02  0.1515779E+00
          2   -1    0    0  502    0  0.00000000000E+00  0.00000000000E+00  0.19582985317E+03  0.19582985317E+03  0.00000000000E+00 0.  1.
          1   -1    0    0  501    0 -0.00000000000E+00 -0.00000000000E+00 -0.24513130198E+02  0.24513130198E+02  0.00000000000E+00 0. -1.
          2    1    1    2  501    0  0.20946197076E+02  0.35575949364E+01  0.19052207902E+03  0.19170305748E+03  0.00000000000E+00 0.  1.
          1    1    1    2  502    0 -0.20946197076E+02 -0.35575949364E+01 -0.19205356050E+02  0.28639925885E+02  0.00000000000E+00 0. -1.
</event>
<event>
 4    1  0.3593938E+003  0.4365264E+02  0.7546771E-02  0.1328316E+00
          2   -1    0    0  502    0  0.00000000000E+00  0.00000000000E+00  0.69084760329E+03  0.69084760329E+03  0.00000000000E+00 0. -1.
          1   -1    0    0  501    0 -0.00000000000E+00 -0.00000000000E+00 -0.32082979970E+01  0.32082979970E+01  0.00000000000E+00 0. -1.
          2    1    1    2  501    0 -0.38761697388E+02 -0.20076936189E+02  0.47378903410E+03  0.47579575595E+03  0.00000000000E+00 0. -1.
          1    1    1    2  502    0  0.38761697388E+02  0.20076936189E+02  0.21385027120E+03  0.21826014534E+03  0.00000000000E+00 0. -1.
</event>
<event>
 4    1  0.3593938E+003  0.2052941E+02  0.7546771E-02  0.1526091E+00
          2   -1    0    0  502    0  0.00000000000E+00  0.00000000000E+00  0.64392182006E+03  0.64392182006E+03  0.00000000000E+00 0. -1.
          1   -1    0    0  501    0 -0.00000000000E+00 -0.00000000000E+00 -0.47355588685E+01  0.47355588685E+01  0.00000000000E+00 0.  1.
          2    1    1    2  501    0  0.15997612103E+02  0.12865973388E+02  0.62067551585E+03  0.62101493769E+03  0.00000000000E+00 0. -1.
          1    1    1    2  502    0 -0.15997612103E+02 -0.12865973388E+02  0.18510745340E+02  0.27642441232E+02  0.00000000000E+00 0.  1.
</event>
<event>
 4    1  0.3593938E+003  0.2612744E+02  0.7546771E-02  0.1456576E+00
          2   -1    0    0  502    0  0.00000000000E+00  0.00000000000E+00  0.66178071390E+03  0.66178071390E+03  0.00000000000E+00 0. -1.
          1   -1    0    0  501    0 -0.00000000000E+00 -0.00000000000E+00 -0.28391051161E+02  0.28391051161E+02  0.00000000000E+00 0.  1.
          2    1    1    2  501    0 -0.26031110482E+02  0.22414870247E+01  0.65545375696E+03  0.65597429102E+03  0.00000000000E+00 0. -1.
          1    1    1    2  502    0  0.26031110482E+02 -0.22414870247E+01 -0.22064094216E+02  0.34197474038E+02  0.00000000000E+00 0.  1.
</event>
<event>
 4    1  0.3593938E+003  0.2392579E+02  0.7546771E-02  0.1481189E+00
          2   -1    0    0  502    0  0.00000000000E+00  0.00000000000E+00  0.13939207135E+04  0.13939207135E+04  0.00000000000E+00 0.  1.
          1   -1    0    0  501    0 -0.00000000000E+00 -0.00000000000E+00 -0.15934627879E+01  0.15934627879E+01  0.00000000000E+00 0. -1.
          2    1    1    2  501    0 -0.14671132021E+02 -0.18899773803E+02  0.12973198459E+04  0.12975404526E+04  0.00000000000E+00 0.  1.
          1    1    1    2  502    0  0.14671132021E+02  0.18899773803E+02  0.95007404855E+02  0.97973723732E+02  0.00000000000E+00 0. -1.
</event>
<event>
 4    1  0.3593938E+003  0.2435817E+02  0.7546771E-02  0.1476113E+00
          2   -1    0    0  502    0  0.00000000000E+00  0.00000000000E+00  0.22052666848E+03  0.22052666848E+03  0.00000000000E+00 0. -1.
          1   -1    0    0  501    0 -0.00000000000E+00 -0.00000000000E+00 -0.72980079826E+03  0.72980079826E+03  0.00000000000E+00 0. -1.
          2    1    1    2  501    0 -0.10027785539E+02 -0.22198289562E+02  0.21964999465E+03  0.22099647212E+03  0.00000000000E+00 0. -1.
          1    1    1    2  502    0  0.10027785539E+02  0.22198289562E+02 -0.72892412443E+03  0.72933099462E+03  0.00000000000E+00 0. -1.
</event>
<event>
 4    1  0.3593938E+003  0.2301860E+02  0.7546771E-02  0.1492265E+00
          2   -1    0    0  502    0  0.00000000000E+00  0.00000000000E+00  0.86896512987E+03  0.86896512987E+03  0.00000000000E+00 0.  1.
          1   -1    0    0  501    0 -0.00000000000E+00 -0.00000000000E+00 -0.37299260437E+02  0.37299260437E+02  0.00000000000E+00 0. -1.
          2    1    1    2  501    0 -0.51129980641E+01 -0.22443554807E+02  0.86524604547E+03  0.86555217931E+03  0.00000000000E+00 0.  1.
          1    1    1    2  502    0  0.51129980641E+01  0.22443554807E+02 -0.33580176038E+02  0.40712210998E+02  0.00000000000E+00 0. -1.
</event>
<event>
 4    1  0.3593938E+003  0.2085889E+02  0.7546771E-02  0.1521289E+00
          2   -1    0    0  502    0  0.00000000000E+00  0.00000000000E+00  0.27510303113E+02  0.27510303113E+02  0.00000000000E+00 0.  1.
          1   -1    0    0  501    0 -0.00000000000E+00 -0.00000000000E+00 -0.31161758030E+02  0.31161758030E+02  0.00000000000E+00 0. -1.
          2    1    1    2  501    0  0.20425624583E+02  0.42293029240E+01  0.18761108006E+02  0.28054809150E+02  0.00000000000E+00 0.  1.
          1    1    1    2  502    0 -0.20425624583E+02 -0.42293029240E+01 -0.22412562922E+02  0.30617251993E+02  0.00000000000E+00 0. -1.
</event>
<event>
 4    1  0.3593938E+003  0.2700180E+02  0.7546771E-02  0.1447590E+00
          2   -1    0    0  502    0  0.00000000000E+00  0.00000000000E+00  0.67215419305E+03  0.67215419305E+03  0.00000000000E+00 0.  1.
          1   -1    0    0  501    0 -0.00000000000E+00 -0.00000000000E+00 -0.17340796055E+02  0.17340796055E+02  0.00000000000E+00 0.  1.
          2    1    1    2  501    0 -0.17717990057E+02  0.20375727483E+02  0.66119760231E+03  0.66174871873E+03  0.00000000000E+00 0.  1.
          1    1    1    2  502    0  0.17717990057E+02 -0.20375727483E+02 -0.63842053157E+01  0.27746270373E+02  0.00000000000E+00 0.  1.
</event>
<event>
 4    1  0.3593938E+003  0.2318115E+02  0.7546771E-02  0.1490236E+00
          2   -1    0    0  502    0  0.00000000000E+00  0.00000000000E+00  0.10312990898E+03  0.10312990898E+03  0.00000000000E+00 0. -1.
          1   -1    0    0  501    0 -0.00000000000E+00 -0.00000000000E+00 -0.10333298987E+02  0.10333298987E+02  0.00000000000E+00 0. -1.
          2    1    1    2  501    0  0.19452939301E+02 -0.12607468569E+02  0.64538536709E+01  0.24062779107E+02  0.00000000000E+00 0. -1.
          1    1    1    2  502    0 -0.19452939301E+02  0.12607468569E+02  0.86342756327E+02  0.89400428865E+02  0.00000000000E+00 0. -1.
</event>
<event>
 4    1  0.3593938E+003  0.4184655E+02  0.7546771E-02  0.1337992E+00
          2   -1    0    0  502    0  0.00000000000E+00  0.00000000000E+00  0.50180515402E+03  0.50180515402E+03  0.00000000000E+00 0.  1.
          1   -1    0    0  501    0 -0.00000000000E+00 -0.00000000000E+00 -0.33698609518E+03  0.33698609518E+03  0.00000000000E+00 0.  1.
          2    1    1    2  501    0  0.10410366510E+02  0.40530953441E+02  0.49962797125E+03  0.50137734649E+03  0.00000000000E+00 0.  1.
          1    1    1    2  502    0 -0.10410366510E+02 -0.40530953441E+02 -0.33480891240E+03  0.33741390271E+03  0.00000000000E+00 0.  1.
</event>
<event>
 4    1  0.3593938E+003  0.2652028E+02  0.7546771E-02  0.1452487E+00
          2   -1    0    0  502    0  0.00000000000E+00  0.00000000000E+00  0.10113187614E+02  0.10113187614E+02  0.00000000000E+00 0.  1.
          1   -1    0    0  501    0 -0.00000000000E+00 -0.00000000000E+00 -0.88707577606E+03  0.88707577606E+03  0.00000000000E+00 0.  1.
          2    1    1    2  501    0 -0.87561956925E+01  0.25033061997E+02 -0.78302249087E+01  0.27652080900E+02  0.00000000000E+00 0.  1.
          1    1    1    2  502    0  0.87561956925E+01 -0.25033061997E+02 -0.86913236353E+03  0.86953688277E+03  0.00000000000E+00 0.  1.
</event>
<event>
 4    1  0.3593938E+003  0.2214013E+02  0.7546771E-02  0.1503587E+00
          2   -1    0    0  502    0  0.00000000000E+00  0.00000000000E+00  0.30958035056E+03  0.30958035056E+03  0.00000000000E+00 0.  1.
          1   -1    0    0  501    0 -0.00000000000E+00 -0.00000000000E+00 -0.57065832606E+03  0.57065832606E+03  0.00000000000E+00 0. -1.
          2    1    1    2  501    0 -0.15198758498E+02  0.16099159917E+02  0.30896933442E+03  0.30976157738E+03  0.00000000000E+00 0.  1.
          1    1    1    2  502    0  0.15198758498E+02 -0.16099159917E+02 -0.57004730992E+03  0.57047709924E+03  0.00000000000E+00 0. -1.
</event>
<event>
 4    1  0.3593938E+003  0.2522878E+02  0.7546771E-02  0.1466260E+00
          2   -1    0    0  502    0  0.00000000000E+00  0.00000000000E+00  0.32966801222E+03  0.32966801222E+03  0.00000000000E+00 0. -1.
          1   -1    0    0  501    0 -0.00000000000E+00 -0.00000000000E+00 -0.31345190162E+01  0.31345190162E+01  0.00000000000E+00 0. -1.
          2    1    1    2  501    0  0.24071649825E+02  0.75529350345E+01  0.26638870606E+03  0.26758070534E+03  0.00000000000E+00 0. -1.
          1    1    1    2  502    0 -0.24071649825E+02 -0.75529350345E+01  0.60144787145E+02  0.65221825900E+02  0.00000000000E+00 0. -1.
</event>
<event>
 4    1  0.3688135E+003  0.2156649E+02  0.7546771E-02  0.1511328E+00
          2   -1    0    0  502    0  0.00000000000E+00  0.00000000000E+00  0.58694706390E+03  0.58694706390E+03  0.00000000000E+00 0. -1.
          1   -1    0    0  501    0 -0.00000000000E+00 -0.00000000000E+00 -0.10783279343E+04  0.10783279343E+04  0.00000000000E+00 0.  1.
          2    1    1    2  501    0  0.20448696656E+02  0.68530481605E+01  0.58664106850E+03  0.58703735547E+03  0.00000000000E+00 0. -1.
          1    1    1    2  502    0 -0.20448696656E+02 -0.68530481605E+01 -0.10780219389E+04  0.10782376428E+04  0.00000000000E+00 0.  1.
</event>
<event>
 4    1  0.3593938E+003  0.2076467E+02  0.7546771E-02  0.1522651E+00
          2   -1    0    0  502    0  0.00000000000E+00  0.00000000000E+00  0.19883803005E+03  0.19883803005E+03  0.00000000000E+00 0.  1.
          1   -1    0    0  501    0 -0.00000000000E+00 -0.00000000000E+00 -0.36958299217E+01  0.36958299217E+01  0.00000000000E+00 0.  1.
          2    1    1    2  501    0  0.10560446808E+02 -0.17878702778E+02  0.32470547207E+02  0.38542281792E+02  0.00000000000E+00 0.  1.
          1    1    1    2  502    0 -0.10560446808E+02  0.17878702778E+02  0.16267165292E+03  0.16399157818E+03  0.00000000000E+00 0.  1.
</event>
<event>
 4    1  0.3593938E+003  0.3301063E+02  0.7546771E-02  0.1395116E+00
          2   -1    0    0  502    0  0.00000000000E+00  0.00000000000E+00  0.26755448563E+01  0.26755448563E+01  0.00000000000E+00 0. -1.
          1   -1    0    0  501    0 -0.00000000000E+00 -0.00000000000E+00 -0.65281994387E+03  0.65281994387E+03  0.00000000000E+00 0.  1.
          2    1    1    2  501    0 -0.10498114790E+02 -0.31296824045E+02 -0.12406935821E+03  0.12838577513E+03  0.00000000000E+00 0. -1.
          1    1    1    2  502    0  0.10498114790E+02  0.31296824045E+02 -0.52607504081E+03  0.52710971360E+03  0.00000000000E+00 0.  1.
</event>
<event>
 4    1  0.3593938E+003  0.2300622E+02  0.7546771E-02  0.1492420E+00
          2   -1    0    0  502    0  0.00000000000E+00  0.00000000000E+00  0.29148111145E+02  0.29148111145E+02  0.00000000000E+00 0.  1.
          1   -1    0    0  501    0 -0.00000000000E+00 -0.00000000000E+00 -0.28052399747E+03  0.28052399747E+03  0.00000000000E+00 0.  1.
          2    1    1    2  501    0 -0.13426021782E+02  0.18682298272E+02  0.24052956218E+02  0.33284095788E+02  0.00000000000E+00 0.  1.
          1    1    1    2  502    0  0.13426021782E+02 -0.18682298272E+02 -0.27542884255E+03  0.27638801283E+03  0.00000000000E+00 0.  1.
</event>
<event>
 4    1  0.3593938E+003  0.2369331E+02  0.7546771E-02  0.1483971E+00
          2   -1    0    0  502    0  0.00000000000E+00  0.00000000000E+00  0.14303574851E+02  0.14303574851E+02  0.00000000000E+00 0.  1.
          1   -1    0    0  501    0 -0.00000000000E+00 -0.00000000000E+00 -0.23700715573E+03  0.23700715573E+03  0.00000000000E+00 0.  1.
          2    1    1    2  501    0  0.23691072905E+02  0.32552312910E+00  0.34291205280E+01  0.23940170599E+02  0.00000000000E+00 0.  1.
          1    1    1    2  502    0 -0.23691072905E+02 -0.32552312910E+00 -0.22613270141E+03  0.22737055998E+03  0.00000000000E+00 0.  1.
</event>
<event>
 4    1  0.3593938E+003  0.3205837E+02  0.7546771E-02  0.1402514E+00
          2   -1    0    0  502    0  0.00000000000E+00  0.00000000000E+00  0.62873306585E+02  0.62873306585E+02  0.00000000000E+00 0.  1.
          1   -1    0    0  501    0 -0.00000000000E+00 -0.00000000000E+00 -0.15692367097E+03  0.15692367097E+03  0.00000000000E+00 0. -1.
          2    1    1    2  501    0  0.28517158870E+02  0.14646178494E+02  0.56992068889E+02  0.65389867798E+02  0.00000000000E+00 0.  1.
          1    1    1    2  502    0 -0.28517158870E+02 -0.14646178494E+02 -0.15104243328E+03  0.15440710976E+03  0.00000000000E+00 0. -1.
</event>
<event>
 4    1  0.3593938E+003  0.2214987E+02  0.7546771E-02  0.1503458E+00
          2   -1    0    0  502    0  0.00000000000E+00  0.00000000000E+00  0.38547795049E+03  0.38547795049E+03  0.00000000000E+00 0. -1.
          1   -1    0    0  501    0 -0.00000000000E+00 -0.00000000000E+00 -0.17013767324E+02  0.17013767324E+02  0.00000000000E+00 0.  1.
          2    1    1    2  501    0 -0.19336570376E+02 -0.10803406302E+02  0.37780435354E+03  0.37845309630E+03  0.00000000000E+00 0. -1.
          1    1    1    2  502    0  0.19336570376E+02  0.10803406302E+02 -0.93401703787E+01  0.24038621515E+02  0.00000000000E+00 0.  1.
</event>
<event>
 4    1  0.3593938E+003  0.2302391E+02  0.7546771E-02  0.1492198E+00
          2   -1    0    0  502    0  0.00000000000E+00  0.00000000000E+00  0.42534689714E+03  0.42534689714E+03  0.00000000000E+00 0. -1.
          1   -1    0    0  501    0 -0.00000000000E+00 -0.00000000000E+00 -0.60718131259E+01  0.60718131259E+01  0.00000000000E+00 0.  1.
          2    1    1    2  501    0 -0.16904949752E+02 -0.15630840627E+02  0.40193897485E+03  0.40259786389E+03  0.00000000000E+00 0. -1.
          1    1    1    2  502    0  0.16904949752E+02  0.15630840627E+02  0.17336109161E+02  0.28820846373E+02  0.00000000000E+00 0.  1.
</event>
<event>
 4    1  0.3593938E+003  0.2254555E+02  0.7546771E-02  0.1498285E+00
          2   -1    0    0  502    0  0.00000000000E+00  0.00000000000E+00  0.53875864457E+03  0.53875864457E+03  0.00000000000E+00 0.  1.
          1   -1    0    0  501    0 -0.00000000000E+00 -0.00000000000E+00 -0.61385114481E+02  0.61385114481E+02  0.00000000000E+00 0. -1.
          2    1    1    2  501    0  0.21001434990E+02  0.82000918583E+01  0.53644371357E+03  0.53691727445E+03  0.00000000000E+00 0.  1.
          1    1    1    2  502    0 -0.21001434990E+02 -0.82000918583E+01 -0.59070183481E+02  0.63226484598E+02  0.00000000000E+00 0. -1.
</event>
<event>
 4    1  0.3593938E+003  0.4201345E+02  0.7546771E-02  0.1337074E+00
          2   -1    0    0  502    0  0.00000000000E+00  0.00000000000E+00  0.96850799230E+03  0.96850799230E+03  0.00000000000E+00 0. -1.
          1   -1    0    0  501    0 -0.00000000000E+00 -0.00000000000E+00 -0.28158694230E+01  0.28158694230E+01  0.00000000000E+00 0. -1.
          2    1    1    2  501    0 -0.26448186427E+02 -0.32643890502E+02  0.77130081961E+03  0.77244422742E+03  0.00000000000E+00 0. -1.
          1    1    1    2  502    0  0.26448186427E+02  0.32643890502E+02  0.19439130327E+03  0.19887963430E+03  0.00000000000E+00 0. -1.
</event>
<event>
 4    1  0.3593938E+003  0.4317974E+02  0.7546771E-02  0.1330797E+00
          2   -1    0    0  502    0  0.00000000000E+00  0.00000000000E+00  0.27300220894E+03  0.27300220894E+03  0.00000000000E+00 0. -1.
          1   -1    0    0  501    0 -0.00000000000E+00 -0.00000000000E+00 -0.10966764757E+02  0.10966764757E+02  0.00000000000E+00 0.  1.
          2    1    1    2  501    0  0.12765345630E+02  0.41249677605E+02  0.21822529135E+03  0.22245621532E+03  0.00000000000E+00 0. -1.
          1    1    1    2  502    0 -0.12765345630E+02 -0.41249677605E+02  0.43810152837E+02  0.61512758377E+02  0.00000000000E+00 0.  1.
</event>
<event>
 4    1  0.3593938E+003  0.2487976E+02  0.7546771E-02  0.1470153E+00
          2   -1    0    0  502    0  0.00000000000E+00  0.00000000000E+00  0.13115958091E+02  0.13115958091E+02  0.00000000000E+00 0.  1.
          1   -1    0    0  501    0 -0.00000000000E+00 -0.00000000000E+00 -0.95271257273E+02  0.95271257273E+02  0.00000000000E+00 0. -1.
          2    1    1    2  501    0  0.14659284132E+01  0.24836538114E+02 -0.25800025714E+01  0.25013176226E+02  0.00000000000E+00 0.  1.
          1    1    1    2  502    0 -0.14659284132E+01 -0.24836538114E+02 -0.79575296610E+02  0.83374039138E+02  0.00000000000E+00 0. -1.
</event>
<event>
 4    1  0.3593938E+003  0.2102999E+02  0.7546771E-02  0.1518837E+00
          2   -1    0    0  502    0  0.00000000000E+00  0.00000000000E+00  0.68305119551E+03  0.68305119551E+03  0.00000000000E+00 0.  1.
          1   -1    0    0  501    0 -0.00000000000E+00 -0.00000000000E+00 -0.56812188537E+01  0.56812188537E+01  0.00000000000E+00 0. -1.
          2    1    1    2  501    0  0.11724371433E+02 -0.17458515199E+02  0.66283436683E+03  0.66316789615E+03  0.00000000000E+00 0.  1.
          1    1    1    2  502    0 -0.11724371433E+02  0.17458515199E+02  0.14535609834E+02  0.25564518218E+02  0.00000000000E+00 0. -1.
</event>
<event>
 4    1  0.3593938E+003  0.2028592E+02  0.7546771E-02  0.1529709E+00
          2   -1    0    0  502    0  0.00000000000E+00  0.00000000000E+00  0.36886362720E+01  0.36886362720E+01  0.00000000000E+00 0. -1.
          1   -1    0    0  501    0 -0.00000000000E+00 -0.00000000000E+00 -0.15784311189E+03  0.15784311189E+03  0.00000000000E+00 0. -1.
          2    1    1    2  501    0  0.50312055460E+01  0.19652107261E+02 -0.33344321594E+02  0.39030271990E+02  0.00000000000E+00 0. -1.
          1    1    1    2  502    0 -0.50312055460E+01 -0.19652107261E+02 -0.12081015403E+03  0.12250147617E+03  0.00000000000E+00 0. -1.
</event>
<event>
 4    1  0.3593938E+003  0.2230821E+02  0.7546771E-02  0.1501373E+00
          2   -1    0    0  502    0  0.00000000000E+00  0.00000000000E+00  0.31701876372E+02  0.31701876372E+02  0.00000000000E+00 0.  1.
          1   -1    0    0  501    0 -0.00000000000E+00 -0.00000000000E+00 -0.15876743772E+02  0.15876743772E+02  0.00000000000E+00 0.  1.
          2    1    1    2  501    0  0.14809417383E+02 -0.16683443350E+02  0.10436709028E+02  0.24628865596E+02  0.00000000000E+00 0.  1.
          1    1    1    2  502    0 -0.14809417383E+02  0.16683443350E+02  0.53884235717E+01  0.22949754548E+02  0.00000000000E+00 0.  1.
</event>
<event>
 4    1  0.3593938E+003  0.2331852E+02  0.7546771E-02  0.1488537E+00
          2   -1    0    0  502    0  0.00000000000E+00  0.00000000000E+00  0.11378549106E+02  0.11378549106E+02  0.00000000000E+00 0. -1.
          1   -1    0    0  501    0 -0.00000000000E+00 -0.00000000000E+00 -0.51061518036E+02  0.51061518036E+02  0.00000000000E+00 0. -1.
          2    1    1    2  501    0  0.22632198437E+02  0.56157854654E+01 -0.11936136453E+02  0.26195892921E+02  0.00000000000E+00 0. -1.
          1    1    1    2  502    0 -0.22632198437E+02 -0.56157854654E+01 -0.27746832477E+02  0.36244174221E+02  0.00000000000E+00 0. -1.
</event>
<event>
 4    1  0.3593938E+003  0.3416813E+02  0.7546771E-02  0.1386508E+00
          2   -1    0    0  502    0  0.00000000000E+00  0.00000000000E+00  0.10441267461E+04  0.10441267461E+04  0.00000000000E+00 0.  1.
          1   -1    0    0  501    0 -0.00000000000E+00 -0.00000000000E+00 -0.26980939010E+02  0.26980939010E+02  0.00000000000E+00 0.  1.
          2    1    1    2  501    0  0.25069311677E+02 -0.23216169369E+02  0.10329123419E+04  0.10334773180E+04  0.00000000000E+00 0.  1.
          1    1    1    2  502    0 -0.25069311677E+02  0.23216169369E+02 -0.15766534770E+02  0.37630367083E+02  0.00000000000E+00 0.  1.
</event>
<event>
 4    1  0.3593938E+003  0.2377996E+02  0.7546771E-02  0.1482930E+00
          2   -1    0    0  502    0  0.00000000000E+00  0.00000000000E+00  0.99587559388E+02  0.99587559388E+02  0.00000000000E+00 0.  1.
          1   -1    0    0  501    0 -0.00000000000E+00 -0.00000000000E+00 -0.49604318529E+02  0.49604318529E+02  0.00000000000E+00 0. -1.
          2    1    1    2  501    0  0.23654453371E+02 -0.24399677129E+01  0.95188277804E+02  0.98113683235E+02  0.00000000000E+00 0.  1.
          1    1    1    2  502    0 -0.23654453371E+02  0.24399677129E+01 -0.45205036945E+02  0.51078194682E+02  0.00000000000E+00 0. -1.
</event>
<event>
 4    1  0.3593938E+003  0.2175249E+02  0.7546771E-02  0.1508787E+00
          2   -1    0    0  502    0  0.00000000000E+00  0.00000000000E+00  0.77953135940E+03  0.77953135940E+03  0.00000000000E+00 0. -1.
          1   -1    0    0  501    0 -0.00000000000E+00 -0.00000000000E+00 -0.10435778173E+02  0.10435778173E+02  0.00000000000E+00 0.  1.
          2    1    1    2  501    0 -0.17483912148E+02  0.12941553009E+02  0.76787222708E+03  0.76818027057E+03  0.00000000000E+00 0. -1.
          1    1    1    2  502    0  0.17483912148E+02 -0.12941553009E+02  0.12233541469E+01  0.21786866999E+02  0.00000000000E+00 0.  1.
</event>
<event>
 4    1  0.3593938E+003  0.2000155E+02  0.7546771E-02  0.1534012E+00
          2   -1    0    0  502    0  0.00000000000E+00  0.00000000000E+00  0.89598854913E+02  0.89598854913E+02  0.00000000000E+00 0. -1.
          1   -1    0    0  501    0 -0.00000000000E+00 -0.00000000000E+00 -0.85961280124E+01  0.85961280124E+01  0.00000000000E+00 0. -1.
          2    1    1    2  501    0 -0.15761466607E+02 -0.12314139392E+02  0.74537515047E+02  0.77174497134E+02  0.00000000000E+00 0. -1.
          1    1    1    2  502    0  0.15761466607E+02  0.12314139392E+02  0.64652118533E+01  0.21020485791E+02  0.00000000000E+00 0. -1.
</event>
<event>
 4    1  0.3593938E+003  0.2739478E+02  0.7546771E-02  0.1443682E+00
          2   -1    0    0  502    0  0.00000000000E+00  0.00000000000E+00  0.10736308484E+04  0.10736308484E+04  0.00000000000E+00 0.  1.
          1   -1    0    0  501    0 -0.00000000000E+00 -0.00000000000E+00 -0.43329674792E+01  0.43329674792E+01  0.00000000000E+00 0.  1.
          2    1    1    2  501    0 -0.17728757566E+02 -0.20884562626E+02  0.10282449795E+04  0.10286098443E+04  0.00000000000E+00 0.  1.
          1    1    1    2  502    0  0.17728757566E+02  0.20884562626E+02  0.41052901387E+02  0.49353971605E+02  0.00000000000E+00 0.  1.
</event>
<event>
 4    1  0.3593938E+003  0.2472336E+02  0.7546771E-02  0.1471922E+00
          2   -1    0    0  502    0  0.00000000000E+00  0.00000000000E+00  0.32258723867E+02  0.32258723867E+02  0.00000000000E+00 0. -1.
          1   -1    0    0  501    0 -0.00000000000E+00 -0.00000000000E+00 -0.67474141738E+03  0.67474141738E+03  0.00000000000E+00 0. -1.
          2    1    1    2  501    0 -0.16572710342E+02  0.18346389220E+02  0.27259855710E+02  0.36801419250E+02  0.00000000000E+00 0. -1.
          1    1    1    2  502    0  0.16572710342E+02 -0.18346389220E+02 -0.66974254922E+03  0.67019872199E+03  0.00000000000E+00 0. -1.
</event>
<event>
 4    1  0.3593938E+003  0.4870852E+02  0.7546771E-02  0.1303871E+00
          2   -1    0    0  502    0  0.00000000000E+00  0.00000000000E+00  0.69009756177E+03  0.69009756177E+03  0.00000000000E+00 0.  1.
          1   -1    0    0  501    0 -0.00000000000E+00 -0.00000000000E+00 -0.32262356018E+03  0.32262356018E+03  0.00000000000E+00 0. -1.
          2    1    1    2  501    0 -0.15979427821E+02 -0.46012803598E+02  0.68739238992E+03  0.68911596842E+03  0.00000000000E+00 0.  1.
          1    1    1    2  502    0  0.15979427821E+02  0.46012803598E+02 -0.31991838832E+03  0.32360515354E+03  0.00000000000E+00 0. -1.
</event>
<event>
 4    1  0.3593938E+003  0.2236021E+02  0.7546771E-02  0.1500692E+00
          2   -1    0    0  502    0  0.00000000000E+00  0.00000000000E+00  0.38710645983E+02  0.38710645983E+02  0.00000000000E+00 0.  1.
          1   -1    0    0  501    0 -0.00000000000E+00 -0.00000000000E+00 -0.58832423704E+02  0.58832423704E+02  0.00000000000E+00 0.  1.
          2    1    1    2  501    0  0.21841389239E+02 -0.47888301201E+01  0.33025788011E+02  0.39883353063E+02  0.00000000000E+00 0.  1.
          1    1    1    2  502    0 -0.21841389239E+02  0.47888301201E+01 -0.53147565733E+02  0.57659716623E+02  0.00000000000E+00 0.  1.
</event>
<event>
 4    1  0.3593938E+003  0.3288103E+02  0.7546771E-02  0.1396105E+00
          2   -1    0    0  502    0  0.00000000000E+00  0.00000000000E+00  0.58886974126E+01  0.58886974126E+01  0.00000000000E+00 0.  1.
          1   -1    0    0  501    0 -0.00000000000E+00 -0.00000000000E+00 -0.26907088832E+03  0.26907088832E+03  0.00000000000E+00 0.  1.
          2    1    1    2  501    0  0.23950940366E+02 -0.22528082443E+02 -0.54106417811E+02  0.63314030762E+02  0.00000000000E+00 0.  1.
          1    1    1    2  502    0 -0.23950940366E+02  0.22528082443E+02 -0.20907577310E+03  0.21164555497E+03  0.00000000000E+00 0.  1.
</event>
<event>
 4    1  0.3593938E+003  0.2410769E+02  0.7546771E-02  0.1479038E+00
          2   -1    0    0  502    0  0.00000000000E+00  0.00000000000E+00  0.30678814047E+02  0.30678814047E+02  0.00000000000E+00 0. -1.
          1   -1    0    0  501    0 -0.00000000000E+00 -0.00000000000E+00 -0.26811190539E+03  0.26811190539E+03  0.00000000000E+00 0.  1.
          2    1    1    2  501    0 -0.12237782691E+02  0.20770585315E+02  0.25304207776E+02  0.34949727762E+02  0.00000000000E+00 0. -1.
          1    1    1    2  502    0  0.12237782691E+02 -0.20770585315E+02 -0.26273729912E+03  0.26384099168E+03  0.00000000000E+00 0.  1.
</event>
<event>
 4    1  0.3593938E+003  0.2175039E+02  0.7546771E-02  0.1508815E+00
          2   -1    0    0  502    0  0.00000000000E+00  0.00000000000E+00  0.28437343404E+01  0.28437343404E+01  0.00000000000E+00 0.  1.
          1   -1    0    0  501    0 -0.00000000000E+00 -0.00000000000E+00 -0.43731137567E+03  0.43731137567E+03  0.00000000000E+00 0.  1.
          2    1    1    2  501    0 -0.13265004417E+02  0.17237144637E+02 -0.44002181744E+02  0.49084330449E+02  0.00000000000E+00 0.  1.
          1    1    1    2  502    0  0.13265004417E+02 -0.17237144637E+02 -0.39046545959E+03  0.39107077957E+03  0.00000000000E+00 0.  1.
</event>
<event>
 4    1  0.3593938E+003  0.3243416E+02  0.7546771E-02  0.1399559E+00
          2   -1    0    0  502    0  0.00000000000E+00  0.00000000000E+00  0.48846887792E+02  0.48846887792E+02  0.00000000000E+00 0.  1.
          1   -1    0    0  501    0 -0.00000000000E+00 -0.00000000000E+00 -0.37851115566E+02  0.37851115566E+02  0.00000000000E+00 0.  1.
          2    1    1    2  501    0 -0.56665810883E+01 -0.31935321211E+02  0.33957733845E+02  0.46958519674E+02  0.00000000000E+00 0.  1.
          1    1    1    2  502    0  0.56665810883E+01  0.31935321211E+02 -0.22961961619E+02  0.39739483684E+02  0.00000000000E+00 0.  1.
</event>
<event>
 4    1  0.3593938E+003  0.3631635E+02  0.7546771E-02  0.1371538E+00
          2   -1    0    0  502    0  0.00000000000E+00  0.00000000000E+00  0.98672270628E+03  0.98672270628E+03  0.00000000000E+00 0. -1.
          1   -1    0    0  501    0 -0.00000000000E+00 -0.00000000000E+00 -0.24850932963E+01  0.24850932963E+01  0.00000000000E+00 0.  1.
          2    1    1    2  501    0  0.35538305908E+02  0.74770361798E+01  0.82835609961E+03  0.82915179854E+03  0.00000000000E+00 0. -1.
          1    1    1    2  502    0 -0.35538305908E+02 -0.74770361798E+01  0.15588151337E+03  0.16005600104E+03  0.00000000000E+00 0.  1.
</event>
<event>
 4    1  0.3593938E+003  0.2067483E+02  0.7546771E-02  0.1523958E+00
          2   -1    0    0  502    0  0.00000000000E+00  0.00000000000E+00  0.19923277907E+02  0.19923277907E+02  0.00000000000E+00 0. -1.
          1   -1    0    0  501    0 -0.00000000000E+00 -0.00000000000E+00 -0.30289853554E+02  0.30289853554E+02  0.00000000000E+00 0.  1.
          2    1    1    2  501    0 -0.47186365902E+01 -0.20129158277E+02  0.83762548544E+01  0.22307177984E+02  0.00000000000E+00 0. -1.
          1    1    1    2  502    0  0.47186365902E+01  0.20129158277E+02 -0.18742830501E+02  0.27905953476E+02  0.00000000000E+00 0.  1.
</event>
<event>
 4    1  0.3593938E+003  0.2239002E+02  0.7546771E-02  0.1500303E+00
          2   -1    0    0  502    0  0.00000000000E+00  0.00000000000E+00  0.45027501164E+03  0.45027501164E+03  0.00000000000E+00 0. -1.
          1   -1    0    0  501    0 -0.00000000000E+00 -0.00000000000E+00 -0.18703615286E+01  0.18703615286E+01  0.00000000000E+00 0.  1.
          2    1    1    2  501    0 -0.51346408163E+00  0.22384126665E+02  0.36802823912E+03  0.36870868930E+03  0.00000000000E+00 0. -1.
          1    1    1    2  502    0  0.51346408163E+00 -0.22384126665E+02  0.80376410990E+02  0.83436683872E+02  0.00000000000E+00 0.  1.
</event>
<event>
 4    1  0.3593938E+003  0.2013249E+02  0.7546771E-02  0.1532020E+00
          2   -1    0    0  502    0  0.00000000000E+00  0.00000000000E+00  0.51220709731E+03  0.51220709731E+03  0.00000000000E+00 0.  1.
          1   -1    0    0  501    0 -0.00000000000E+00 -0.00000000000E+00 -0.29545175331E+03  0.29545175331E+03  0.00000000000E+00 0.  1.
          2    1    1    2  501    0  0.18525308148E+02  0.78822655313E+01  0.51166594206E+03  0.51206186484E+03  0.00000000000E+00 0.  1.
          1    1    1    2  502    0 -0.18525308148E+02 -0.78822655313E+01 -0.29491059806E+03  0.29559698578E+03  0.00000000000E+00 0.  1.
</event>
<event>
 4    1  0.3593938E+003  0.3286144E+02  0.7546771E-02  0.1396255E+00
          2   -1    0    0  502    0  0.00000000000E+00  0.00000000000E+00  0.35398259750E+03  0.35398259750E+03  0.00000000000E+00 0. -1.
          1   -1    0    0  501    0 -0.00000000000E+00 -0.00000000000E+00 -0.34769153932E+01  0.34769153932E+01  0.00000000000E+00 0. -1.
          2    1    1    2  501    0  0.22464810018E+02  0.23983461706E+02  0.23783405652E+03  0.24009354962E+03  0.00000000000E+00 0. -1.
          1    1    1    2  502    0 -0.22464810018E+02 -0.23983461706E+02  0.11267162559E+03  0.11736596328E+03  0.00000000000E+00 0. -1.
</event>
<event>
 4    1  0.3593938E+003  0.2011098E+02  0.7546771E-02  0.1532346E+00
          2   -1    0    0  502    0  0.00000000000E+00  0.00000000000E+00  0.94588990481E+03  0.94588990481E+03  0.00000000000E+00 0.  1.
          1   -1    0    0  501    0 -0.00000000000E+00 -0.00000000000E+00 -0.55657142953E+00  0.55657142953E+00  0.00000000000E+00 0.  1.
          2    1    1    2  501    0 -0.20076598869E+02 -0.11753974771E+01  0.70047635877E+03  0.70076499669E+03  0.00000000000E+00 0.  1.
          1    1    1    2  502    0  0.20076598869E+02  0.11753974771E+01  0.24485697461E+03  0.24568147956E+03  0.00000000000E+00 0.  1.
</event>
<event>
 4    1  0.3593938E+003  0.2121248E+02  0.7546771E-02  0.1516253E+00
          2   -1    0    0  502    0  0.00000000000E+00  0.00000000000E+00  0.36709349415E+03  0.36709349415E+03  0.00000000000E+00 0.  1.
          1   -1    0    0  501    0 -0.00000000000E+00 -0.00000000000E+00 -0.73934282295E+01  0.73934282295E+01  0.00000000000E+00 0.  1.
          2    1    1    2  501    0 -0.53544338985E-01  0.21212411738E+02  0.35086895284E+03  0.35150958927E+03  0.00000000000E+00 0.  1.
          1    1    1    2  502    0  0.53544338985E-01 -0.21212411738E+02  0.88311130792E+01  0.22977333112E+02  0.00000000000E+00 0.  1.
</event>
<event>
 4    1  0.3593938E+003  0.2390273E+02  0.7546771E-02  0.1481463E+00
          2   -1    0    0  502    0  0.00000000000E+00  0.00000000000E+00  0.98238278928E+02  0.98238278928E+02  0.00000000000E+00 0. -1.
          1   -1    0    0  501    0 -0.00000000000E+00 -0.00000000000E+00 -0.28698381732E+02  0.28698381732E+02  0.00000000000E+00 0. -1.
          2    1    1    2  501    0  0.66614306120E+01  0.22955735688E+02  0.91443479908E+02  0.94515874204E+02  0.00000000000E+00 0. -1.
          1    1    1    2  502    0 -0.66614306120E+01 -0.22955735688E+02 -0.21903582713E+02  0.32420786456E+02  0.00000000000E+00 0. -1.
</event>
<event>
 4    1  0.3593938E+003  0.2330896E+02  0.7546771E-02  0.1488655E+00
          2   -1    0    0  502    0  0.00000000000E+00  0.00000000000E+00  0.47499544229E+02  0.47499544229E+02  0.00000000000E+00 0. -1.
          1   -1    0    0  501    0 -0.00000000000E+00 -0.00000000000E+00 -0.15505674822E+02  0.15505674822E+02  0.00000000000E+00 0.  1.
          2    1    1    2  501    0  0.54904240299E+01  0.22653093160E+02  0.32131815733E+02  0.39695855805E+02  0.00000000000E+00 0. -1.
          1    1    1    2  502    0 -0.54904240299E+01 -0.22653093160E+02 -0.13794632578E+00  0.23309363246E+02  0.00000000000E+00 0.  1.
</event>
<event>
 4    1  0.5291201E+003  0.2544571E+02  0.7546771E-02  0.1463878E+00
          2   -1    0    0  502    0  0.00000000000E+00  0.00000000000E+00  0.66435760270E+03  0.66435760270E+03  0.00000000000E+00 0.  1.
          1   -1    0    0  501    0 -0.00000000000E+00 -0.00000000000E+00 -0.13866280636E+04  0.13866280636E+04  0.00000000000E+00 0. -1.
          2    1    1    2  501    0 -0.18962218312E+02  0.16968161123E+02  0.66399715168E+03  0.66448453832E+03  0.00000000000E+00 0.  1.
          1    1    1    2  502    0  0.18962218312E+02 -0.16968161123E+02 -0.13862676126E+04  0.13865011280E+04  0.00000000000E+00 0. -1.
</event>
<event>
 4    1  0.3593938E+003  0.2231440E+02  0.7546771E-02  0.1501291E+00
          2   -1    0    0  502    0  0.00000000000E+00  0.00000000000E+00  0.35885804994E+01  0.35885804994E+01  0.00000000000E+00 0. -1.
          1   -1    0    0  501    0 -0.00000000000E+00 -0.00000000000E+00 -0.36850532551E+03  0.36850532551E+03  0.00000000000E+00 0.  1.
          2    1    1    2  501    0 -0.12611333073E+02  0.18408876999E+02 -0.35555931621E+02  0.41978050784E+02  0.00000000000E+00 0. -1.
          1    1    1    2  502    0  0.12611333073E+02 -0.18408876999E+02 -0.32936081339E+03  0.33011585522E+03  0.00000000000E+00 0.  1.
</event>
<event>
 4    1  0.3593938E+003  0.2146889E+02  0.7546771E-02  0.1512675E+00
          2   -1    0    0  502    0  0.00000000000E+00  0.00000000000E+00  0.10870788222E+04  0.10870788222E+04  0.00000000000E+00 0. -1.
          1   -1    0    0  501    0 -0.00000000000E+00 -0.00000000000E+00 -0.72800981206E+02  0.72800981206E+02  0.00000000000E+00 0. -1.
          2    1    1    2  501    0 -0.68182363292E+01  0.20357425911E+02  0.10853875733E+04  0.10855998791E+04  0.00000000000E+00 0. -1.
          1    1    1    2  502    0  0.68182363292E+01 -0.20357425911E+02 -0.71109732292E+02  0.74279924361E+02  0.00000000000E+00 0. -1.
</event>
<event>
 4    1  0.3593938E+003  0.2075491E+02  0.7546771E-02  0.1522793E+00
          2   -1    0    0  502    0  0.00000000000E+00  0.00000000000E+00  0.12413844487E+02  0.12413844487E+02  0.00000000000E+00 0. -1.
          1   -1    0    0  501    0 -0.00000000000E+00 -0.00000000000E+00 -0.38557905599E+02  0.38557905599E+02  0.00000000000E+00 0.  1.
          2    1    1    2  501    0 -0.84470884351E+01 -0.18958190028E+02 -0.50109730450E+01  0.21351255772E+02  0.00000000000E+00 0. -1.
          1    1    1    2  502    0  0.84470884351E+01  0.18958190028E+02 -0.21133088066E+02  0.29620494314E+02  0.00000000000E+00 0.  1.
</event>
<event>
 4    1  0.3593938E+003  0.2215044E+02  0.7546771E-02  0.1503451E+00
          2   -1    0    0  502    0  0.00000000000E+00  0.00000000000E+00  0.22001115351E+03  0.22001115351E+03  0.00000000000E+00 0. -1.
          1   -1    0    0  501    0 -0.00000000000E+00 -0.00000000000E+00 -0.11337815043E+03  0.11337815043E+03  0.00000000000E+00 0.  1.
          2    1    1    2  501    0  0.62296959980E+01 -0.21256365824E+02  0.21836362095E+03  0.21948419796E+03  0.00000000000E+00 0. -1.
          1    1    1    2  502    0 -0.62296959980E+01  0.21256365824E+02 -0.11173061787E+03  0.11390510599E+03  0.00000000000E+00 0.  1.
</event>
<event>
 4    1  0.3593938E+003  0.2066218E+02  0.7546771E-02  0.1524143E+00
          2   -1    0    0  502    0  0.00000000000E+00  0.00000000000E+00  0.11500359941E+04  0.11500359941E+04  0.00000000000E+00 0. -1.
          1   -1    0    0  501    0 -0.00000000000E+00 -0.00000000000E+00 -0.41733933505E+00  0.41733933505E+00  0.00000000000E+00 0.  1.
          2    1    1    2  501    0 -0.17476307132E+02 -0.11022896047E+02  0.76601389192E+03  0.76629250823E+03  0.00000000000E+00 0. -1.
          1    1    1    2  502    0  0.17476307132E+02  0.11022896047E+02  0.38360476281E+03  0.38416082518E+03  0.00000000000E+00 0.  1.
</event>
<event>
 4    1  0.3593938E+003  0.2065949E+02  0.7546771E-02  0.1524182E+00
          2   -1    0    0  502    0  0.00000000000E+00  0.00000000000E+00  0.37403988348E+03  0.37403988348E+03  0.00000000000E+00 0.  1.
          1   -1    0    0  501    0 -0.00000000000E+00 -0.00000000000E+00 -0.45976318918E+03  0.45976318918E+03  0.00000000000E+00 0.  1.
          2    1    1    2  501    0 -0.14150139623E+02 -0.15052846950E+02  0.37352220462E+03  0.37409310606E+03  0.00000000000E+00 0.  1.
          1    1    1    2  502    0  0.14150139623E+02  0.15052846950E+02 -0.45924551032E+03  0.45970996661E+03  0.00000000000E+00 0.  1.
</event>
<event>
 4    1  0.3593938E+003  0.2518415E+02  0.7546771E-02  0.1466754E+00
          2   -1    0    0  502    0  0.00000000000E+00  0.00000000000E+00  0.10765560481E+04  0.10765560481E+04  0.00000000000E+00 0. -1.
          1   -1    0    0  501    0 -0.00000000000E+00 -0.00000000000E+00 -0.59037860755E+00  0.59037860755E+00  0.00000000000E+00 0. -1.
          2    1    1    2  501    0  0.23835180249E+02  0.81317583302E+01  0.56266003783E+03  0.56322336554E+03  0.00000000000E+00 0. -1.
          1    1    1    2  502    0 -0.23835180249E+02 -0.81317583302E+01  0.51330563170E+03  0.51392306121E+03  0.00000000000E+00 0. -1.
</event>
<event>
 4    1  0.3593938E+003  0.2459394E+02  0.7546771E-02  0.1473398E+00
          2   -1    0    0  502    0  0.00000000000E+00  0.00000000000E+00  0.88144752875E+00  0.88144752875E+00  0.00000000000E+00 0. -1.
          1   -1    0    0  501    0 -0.00000000000E+00 -0.00000000000E+00 -0.13692702793E+04  0.13692702793E+04  0.00000000000E+00 0. -1.
          2    1    1    2  501    0  0.20618592754E+02 -0.13406550426E+02 -0.20033165182E+03  0.20183565761E+03  0.00000000000E+00 0. -1.
          1    1    1    2  502    0 -0.20618592754E+02  0.13406550426E+02 -0.11680571800E+04  0.11683160692E+04  0.00000000000E+00 0. -1.
</event>
<event>
 4    1  0.3593938E+003  0.2846555E+02  0.7546771E-02  0.1433417E+00
          2   -1    0    0  502    0  0.00000000000E+00  0.00000000000E+00  0.11238546476E+04  0.11238546476E+04  0.00000000000E+00 0.  1.
          1   -1    0    0  501    0 -0.00000000000E+00 -0.00000000000E+00 -0.54052381595E+02  0.54052381595E+02  0.00000000000E+00 0.  1.
          2    1    1    2  501    0  0.12184383731E+02 -0.25726026615E+02  0.11199135173E+04  0.11202752224E+04  0.00000000000E+00 0.  1.
          1    1    1    2  502    0 -0.12184383731E+02  0.25726026615E+02 -0.50111251285E+02  0.57631806823E+02  0.00000000000E+00 0.  1.
</event>
<event>
 4    1  0.3593938E+003  0.2076530E+02  0.7546771E-02  0.1522642E+00
          2   -1    0    0  502    0  0.00000000000E+00  0.00000000000E+00  0.42114150299E+02  0.42114150299E+02  0.00000000000E+00 0.  1.
          1   -1    0    0  501    0 -0.00000000000E+00 -0.00000000000E+00 -0.13918715726E+04  0.13918715726E+04  0.00000000000E+00 0. -1.
          2    1    1    2  501    0 -0.12184397720E+02  0.16814815605E+02  0.39472138042E+02  0.44600978164E+02  0.00000000000E+00 0.  1.
          1    1    1    2  502    0  0.12184397720E+02 -0.16814815605E+02 -0.13892295603E+04  0.13893847447E+04  0.00000000000E+00 0. -1.
</event>
<event>
 4    1  0.3593938E+003  0.4054262E+02  0.7546771E-02  0.1345335E+00
          2   -1    0    0  502    0  0.00000000000E+00  0.00000000000E+00  0.42436108675E+01  0.42436108675E+01  0.00000000000E+00 0. -1.
          1   -1    0    0  501    0 -0.00000000000E+00 -0.00000000000E+00 -0.38940788581E+03  0.38940788581E+03  0.00000000000E+00 0. -1.
          2    1    1    2  501    0 -0.63818580696E+01  0.40037179657E+02 -0.17822567553E+03  0.18277881520E+03  0.00000000000E+00 0. -1.
          1    1    1    2  502    0  0.63818580696E+01 -0.40037179657E+02 -0.20693859941E+03  0.21087268148E+03  0.00000000000E+00 0. -1.
</event>
<event>
 4    1  0.3593938E+003  0.4702661E+02  0.7546771E-02  0.1311606E+00
          2   -1    0    0  502    0  0.00000000000E+00  0.00000000000E+00  0.26936497723E+02  0.26936497723E+02  0.00000000000E+00 0. -1.
          1   -1    0    0  501    0 -0.00000000000E+00 -0.00000000000E+00 -0.47724192313E+03  0.47724192313E+03  0.00000000000E+00 0.  1.
          2    1    1    2  501    0 -0.12122263754E+02  0.45437346578E+02  0.42302761736E+01  0.47216490541E+02  0.00000000000E+00 0. -1.
          1    1    1    2  502    0  0.12122263754E+02 -0.45437346578E+02 -0.45453570158E+03  0.45696193031E+03  0.00000000000E+00 0.  1.
</event>
<event>
 4    1  0.3593938E+003  0.2213281E+02  0.7546771E-02  0.1503684E+00
          2   -1    0    0  502    0  0.00000000000E+00  0.00000000000E+00  0.46781747611E+02  0.46781747611E+02  0.00000000000E+00 0. -1.
          1   -1    0    0  501    0 -0.00000000000E+00 -0.00000000000E+00 -0.28987420841E+02  0.28987420841E+02  0.00000000000E+00 0. -1.
          2    1    1    2  501    0  0.20117240005E+02  0.92280961845E+01  0.39175631300E+02  0.44995457464E+02  0.00000000000E+00 0. -1.
          1    1    1    2  502    0 -0.20117240005E+02 -0.92280961845E+01 -0.21381304531E+02  0.30773710989E+02  0.00000000000E+00 0. -1.
</event>
<event>
 4    1  0.3593938E+003  0.2174425E+02  0.7546771E-02  0.1508899E+00
          2   -1    0    0  502    0  0.00000000000E+00  0.00000000000E+00  0.45382735672E+03  0.45382735672E+03  0.00000000000E+00 0. -1.
          1   -1    0    0  501    0 -0.00000000000E+00 -0.00000000000E+00 -0.33999078544E+03  0.33999078544E+03  0.00000000000E+00 0. -1.
          2    1    1    2  501    0  0.16533005267E+02  0.14123463267E+02  0.45321876614E+03  0.45374008249E+03  0.00000000000E+00 0. -1.
          1    1    1    2  502    0 -0.16533005267E+02 -0.14123463267E+02 -0.33938219486E+03  0.34007805967E+03  0.00000000000E+00 0. -1.
</event>
<event>
 4    1  0.3593938E+003  0.2406014E+02  0.7546771E-02  0.1479598E+00
          2   -1    0    0  502    0  0.00000000000E+00  0.00000000000E+00  0.10964300624E+02  0.10964300624E+02  0.00000000000E+00 0. -1.
          1   -1    0    0  501    0 -0.00000000000E+00 -0.00000000000E+00 -0.85454174863E+02  0.85454174863E+02  0.00000000000E+00 0. -1.
          2    1    1    2  501    0 -0.23068533887E+02  0.68361076461E+01 -0.67047143230E+02  0.71233482568E+02  0.00000000000E+00 0. -1.
          1    1    1    2  502    0  0.23068533887E+02 -0.68361076461E+01 -0.74427310102E+01  0.25184992919E+02  0.00000000000E+00 0. -1.
</event>
<event>
 4    1  0.3593938E+003  0.2704734E+02  0.7546771E-02  0.1447133E+00
          2   -1    0    0  502    0  0.00000000000E+00  0.00000000000E+00  0.10052313255E+04  0.10052313255E+04  0.00000000000E+00 0. -1.
          1   -1    0    0  501    0 -0.00000000000E+00 -0.00000000000E+00 -0.10045813324E+01  0.10045813324E+01  0.00000000000E+00 0. -1.
          2    1    1    2  501    0 -0.26511475441E+02 -0.53572700700E+01  0.76622264848E+03  0.76669987982E+03  0.00000000000E+00 0. -1.
          1    1    1    2  502    0  0.26511475441E+02  0.53572700700E+01  0.23800409568E+03  0.23953602700E+03  0.00000000000E+00 0. -1.
</event>
<event>
 4    1  0.3593938E+003  0.2329700E+02  0.7546771E-02  0.1488802E+00
          2   -1    0    0  502    0  0.00000000000E+00  0.00000000000E+00  0.37708834101E+03  0.37708834101E+03  0.00000000000E+00 0.  1.
          1   -1    0    0  501    0 -0.00000000000E+00 -0.00000000000E+00 -0.37932365720E+01  0.37932365720E+01  0.00000000000E+00 0.  1.
          2    1    1    2  501    0  0.13373287125E+02  0.19076301825E+02  0.33666808704E+03  0.33747318550E+03  0.00000000000E+00 0.  1.
          1    1    1    2  502    0 -0.13373287125E+02 -0.19076301825E+02  0.36627017406E+02  0.43408392090E+02  0.00000000000E+00 0.  1.
</event>
<event>
 4    1  0.3593938E+003  0.2134972E+02  0.7546771E-02  0.1514330E+00
          2   -1    0    0  502    0  0.00000000000E+00  0.00000000000E+00  0.21245890740E+03  0.21245890740E+03  0.00000000000E+00 0.  1.
          1   -1    0    0  501    0 -0.00000000000E+00 -0.00000000000E+00 -0.24308864180E+01  0.24308864180E+01  0.00000000000E+00 0.  1.
          2    1    1    2  501    0  0.11546932133E+01  0.21318466785E+02  0.14183475763E+03  0.14343259327E+03  0.00000000000E+00 0.  1.
          1    1    1    2  502    0 -0.11546932133E+01 -0.21318466785E+02  0.68193263356E+02  0.71457200544E+02  0.00000000000E+00 0.  1.
</event>
<event>
 4    1  0.3593938E+003  0.2014966E+02  0.7546771E-02  0.1531760E+00
          2   -1    0    0  502    0  0.00000000000E+00  0.00000000000E+00  0.17700786193E+03  0.17700786193E+03  0.00000000000E+00 0. -1.
          1   -1    0    0  501    0 -0.00000000000E+00 -0.00000000000E+00 -0.32022760230E+01  0.32022760230E+01  0.00000000000E+00 0. -1.
          2    1    1    2  501    0  0.55651274095E+00 -0.20141977209E+02  0.13489739002E+03  0.13639396902E+03  0.00000000000E+00 0. -1.
          1    1    1    2  502    0 -0.55651274095E+00  0.20141977209E+02  0.38908195891E+02  0.43816168931E+02  0.00000000000E+00 0. -1.
</event>
<event>
 4    1  0.3593938E+003  0.2085434E+02  0.7546771E-02  0.1521355E+00
          2   -1    0    0  502    0  0.00000000000E+00  0.00000000000E+00  0.95823884520E+03  0.95823884520E+03  0.00000000000E+00 0. -1.
          1   -1    0    0  501    0 -0.00000000000E+00 -0.00000000000E+00 -0.19256262742E+02  0.19256262742E+02  0.00000000000E+00 0. -1.
          2    1    1    2  501    0  0.67666575774E+01  0.19726019525E+02  0.95244477630E+03  0.95267305798E+03  0.00000000000E+00 0. -1.
          1    1    1    2  502    0 -0.67666575774E+01 -0.19726019525E+02 -0.13462193845E+02  0.24822049959E+02  0.00000000000E+00 0. -1.
</event>
<event>
 4    1  0.3593938E+003  0.3134171E+02  0.7546771E-02  0.1408285E+00
          2   -1    0    0  502    0  0.00000000000E+00  0.00000000000E+00  0.46296440569E+02  0.46296440569E+02  0.00000000000E+00 0.  1.
          1   -1    0    0  501    0 -0.00000000000E+00 -0.00000000000E+00 -0.23303846240E+02  0.23303846240E+02  0.00000000000E+00 0. -1.
          2    1    1    2  501    0 -0.12758497742E-01  0.31341704783E+02  0.21908501335E+02  0.38239835934E+02  0.00000000000E+00 0.  1.
          1    1    1    2  502    0  0.12758497742E-01 -0.31341704783E+02  0.10840929942E+01  0.31360450876E+02  0.00000000000E+00 0. -1.
</event>
<event>
 4    1  0.3593938E+003  0.3983448E+02  0.7546771E-02  0.1349458E+00
          2   -1    0    0  502    0  0.00000000000E+00  0.00000000000E+00  0.37863699288E+02  0.37863699288E+02  0.00000000000E+00 0. -1.
          1   -1    0    0  501    0 -0.00000000000E+00 -0.00000000000E+00 -0.12646796246E+03  0.12646796246E+03  0.00000000000E+00 0. -1.
          2    1    1    2  501    0 -0.23845626158E+02 -0.31908805558E+02  0.22884643895E+02  0.45940098881E+02  0.00000000000E+00 0. -1.
          1    1    1    2  502    0  0.23845626158E+02  0.31908805558E+02 -0.11148890707E+03  0.11839156287E+03  0.00000000000E+00 0. -1.
</event>
<event>
 4    1  0.3593938E+003  0.2052681E+02  0.7546771E-02  0.1526129E+00
          2   -1    0    0  502    0  0.00000000000E+00  0.00000000000E+00  0.12626552202E+04  0.12626552202E+04  0.00000000000E+00 0. -1.
          1   -1    0    0  501    0 -0.00000000000E+00 -0.00000000000E+00 -0.25962937216E+01  0.25962937216E+01  0.00000000000E+00 0. -1.
          2    1    1    2  501    0  0.20258510717E+02 -0.33079432021E+01  0.12206018245E+04  0.12207744115E+04  0.00000000000E+00 0. -1.
          1    1    1    2  502    0 -0.20258510717E+02  0.33079432021E+01  0.39457101918E+02  0.44477102384E+02  0.00000000000E+00 0. -1.
</event>
<event>
 4    1  0.3593938E+003  0.4297027E+02  0.7546771E-02  0.1331907E+00
          2   -1    0    0  502    0  0.00000000000E+00  0.00000000000E+00  0.46319918871E+03  0.46319918871E+03  0.00000000000E+00 0. -1.
          1   -1    0    0  501    0 -0.00000000000E+00 -0.00000000000E+00 -0.26335635801E+02  0.26335635801E+02  0.00000000000E+00 0. -1.
          2    1    1    2  501    0  0.40621540017E+02 -0.14011951371E+02  0.44391495181E+03  0.44598983030E+03  0.00000000000E+00 0. -1.
          1    1    1    2  502    0 -0.40621540017E+02  0.14011951371E+02 -0.70513988951E+01  0.43544994212E+02  0.00000000000E+00 0. -1.
</event>
<event>
 4    1  0.3593938E+003  0.2465419E+02  0.7546771E-02  0.1472709E+00
          2   -1    0    0  502    0  0.00000000000E+00  0.00000000000E+00  0.91440758522E+03  0.91440758522E+03  0.00000000000E+00 0.  1.
          1   -1    0    0  501    0 -0.00000000000E+00 -0.00000000000E+00 -0.67929083876E+01  0.67929083876E+01  0.00000000000E+00 0. -1.
          2    1    1    2  501    0 -0.19873394654E+01  0.24573956351E+02  0.89129135684E+03  0.89163227377E+03  0.00000000000E+00 0.  1.
          1    1    1    2  502    0  0.19873394654E+01 -0.24573956351E+02  0.16323319994E+02  0.29568219840E+02  0.00000000000E+00 0. -1.
</event>
<event>
 4    1  0.3593938E+003  0.7059700E+02  0.7546771E-02  0.1227540E+00
          2   -1    0    0  502    0  0.00000000000E+00  0.00000000000E+00  0.53933791697E+03  0.53933791697E+03  0.00000000000E+00 0. -1.
          1   -1    0    0  501    0 -0.00000000000E+00 -0.00000000000E+00 -0.32540202255E+04  0.32540202255E+04  0.00000000000E+00 0. -1.
          2    1    1    2  501    0  0.44664944126E+02 -0.54671552374E+02  0.53664288601E+03  0.54126659141E+03  0.00000000000E+00 0. -1.
          1    1    1    2  502    0 -0.44664944126E+02  0.54671552374E+02 -0.32513251946E+04  0.32520915511E+04  0.00000000000E+00 0. -1.
</event>
<event>
 4    1  0.3593938E+003  0.2132343E+02  0.7546771E-02  0.1514697E+00
          2   -1    0    0  502    0  0.00000000000E+00  0.00000000000E+00  0.30414842559E+00  0.30414842559E+00  0.00000000000E+00 0. -1.
          1   -1    0    0  501    0 -0.00000000000E+00 -0.00000000000E+00 -0.16034692670E+04  0.16034692670E+04  0.00000000000E+00 0. -1.
          2    1    1    2  501    0  0.20914125679E+02 -0.41579065686E+01 -0.59297887836E+03  0.59336214829E+03  0.00000000000E+00 0. -1.
          1    1    1    2  502    0 -0.20914125679E+02  0.41579065686E+01 -0.10101862402E+04  0.10104112671E+04  0.00000000000E+00 0. -1.
</event>
<event>
 4    1  0.3593938E+003  0.3631919E+02  0.7546771E-02  0.1371519E+00
          2   -1    0    0  502    0  0.00000000000E+00  0.00000000000E+00  0.41031412182E+01  0.41031412182E+01  0.00000000000E+00 0.  1.
          1   -1    0    0  501    0 -0.00000000000E+00 -0.00000000000E+00 -0.37713441936E+03  0.37713441936E+03  0.00000000000E+00 0.  1.
          2    1    1    2  501    0  0.33017176552E+02 -0.15131092710E+02 -0.11329025603E+03  0.11896960127E+03  0.00000000000E+00 0.  1.
          1    1    1    2  502    0 -0.33017176552E+02  0.15131092710E+02 -0.25974102212E+03  0.26226795932E+03  0.00000000000E+00 0.  1.
</event>
<event>
 4    1  0.3593938E+003  0.2303595E+02  0.7546771E-02  0.1492047E+00
          2   -1    0    0  502    0  0.00000000000E+00  0.00000000000E+00  0.59175531929E+03  0.59175531929E+03  0.00000000000E+00 0.  1.
          1   -1    0    0  501    0 -0.00000000000E+00 -0.00000000000E+00 -0.24772092511E+01  0.24772092511E+01  0.00000000000E+00 0. -1.
          2    1    1    2  501    0 -0.14562593639E+02 -0.17848979592E+02  0.53196053630E+03  0.53245907579E+03  0.00000000000E+00 0.  1.
          1    1    1    2  502    0  0.14562593639E+02  0.17848979592E+02  0.57317573736E+02  0.61773452752E+02  0.00000000000E+00 0. -1.
</event>
<event>
 4    1  0.3593938E+003  0.2026857E+02  0.7546771E-02  0.1529969E+00
          2   -1    0    0  502    0  0.00000000000E+00  0.00000000000E+00  0.11699460959E+04  0.11699460959E+04  0.00000000000E+00 0.  1.
          1   -1    0    0  501    0 -0.00000000000E+00 -0.00000000000E+00 -0.27406328978E+03  0.27406328978E+03  0.00000000000E+00 0. -1.
          2    1    1    2  501    0 -0.33630860628E+01 -0.19987612676E+02  0.11694834180E+04  0.11696590443E+04  0.00000000000E+00 0.  1.
          1    1    1    2  502    0  0.33630860628E+01  0.19987612676E+02 -0.27360061185E+03  0.27435034138E+03  0.00000000000E+00 0. -1.
</event>
<event>
 4    1  0.3593938E+003  0.2394350E+02  0.7546771E-02  0.1480979E+00
          2   -1    0    0  502    0  0.00000000000E+00  0.00000000000E+00  0.76661689233E+03  0.76661689233E+03  0.00000000000E+00 0. -1.
          1   -1    0    0  501    0 -0.00000000000E+00 -0.00000000000E+00 -0.30820883897E+03  0.30820883897E+03  0.00000000000E+00 0.  1.
          2    1    1    2  501    0 -0.14400580529E+02 -0.19128896291E+02  0.76596452277E+03  0.76633865982E+03  0.00000000000E+00 0. -1.
          1    1    1    2  502    0  0.14400580529E+02  0.19128896291E+02 -0.30755646941E+03  0.30848707148E+03  0.00000000000E+00 0.  1.
</event>
<event>
 4    1  0.3593938E+003  0.3877982E+02  0.7546771E-02  0.1355788E+00
          2   -1    0    0  502    0  0.00000000000E+00  0.00000000000E+00  0.42755486068E+03  0.42755486068E+03  0.00000000000E+00 0. -1.
          1   -1    0    0  501    0 -0.00000000000E+00 -0.00000000000E+00 -0.43288619990E+01  0.43288619990E+01  0.00000000000E+00 0.  1.
          2    1    1    2  501    0 -0.49950889883E+01 -0.38456775524E+02  0.30510800778E+03  0.30756262924E+03  0.00000000000E+00 0. -1.
          1    1    1    2  502    0  0.49950889883E+01  0.38456775524E+02  0.11811799091E+03  0.12432109344E+03  0.00000000000E+00 0.  1.
</event>
<event>
 4    1  0.3593938E+003  0.5623708E+02  0.7546771E-02  0.1273183E+00
          2   -1    0    0  502    0  0.00000000000E+00  0.00000000000E+00  0.43911258284E+03  0.43911258284E+03  0.00000000000E+00 0. -1.
          1   -1    0    0  501    0 -0.00000000000E+00 -0.00000000000E+00 -0.22766416135E+02  0.22766416135E+02  0.00000000000E+00 0.  1.
          2    1    1    2  501    0  0.56009535121E+02  0.50538070373E+01  0.39912036679E+03  0.40306286877E+03  0.00000000000E+00 0. -1.
          1    1    1    2  502    0 -0.56009535121E+02 -0.50538070373E+01  0.17225799913E+02  0.58816130208E+02  0.00000000000E+00 0.  1.
</event>
<event>
 4    1  0.3593938E+003  0.3941653E+02  0.7546771E-02  0.1351939E+00
          2   -1    0    0  502    0  0.00000000000E+00  0.00000000000E+00  0.66512712973E+01  0.66512712973E+01  0.00000000000E+00 0. -1.
          1   -1    0    0  501    0 -0.00000000000E+00 -0.00000000000E+00 -0.40655484696E+03  0.40655484696E+03  0.00000000000E+00 0.  1.
          2    1    1    2  501    0  0.29931979722E+02 -0.25646426062E+02 -0.65192847434E+02  0.76182477883E+02  0.00000000000E+00 0. -1.
          1    1    1    2  502    0 -0.29931979722E+02  0.25646426062E+02 -0.33471072823E+03  0.33702364037E+03  0.00000000000E+00 0.  1.
</event>
<event>
 4    1  0.3593938E+003  0.3066360E+02  0.7546771E-02  0.1413916E+00
          2   -1    0    0  502    0  0.00000000000E+00  0.00000000000E+00  0.32524428202E+03  0.32524428202E+03  0.00000000000E+00 0. -1.
          1   -1    0    0  501    0 -0.00000000000E+00 -0.00000000000E+00 -0.43251291032E+02  0.43251291032E+02  0.00000000000E+00 0.  1.
          2    1    1    2  501    0  0.11691990924E+02  0.28347023070E+02  0.31898022265E+03  0.32045068078E+03  0.00000000000E+00 0. -1.
          1    1    1    2  502    0 -0.11691990924E+02 -0.28347023070E+02 -0.36987231656E+02  0.48044892281E+02  0.00000000000E+00 0.  1.
</event>
<event>
 4    1  0.3593938E+003  0.4719636E+02  0.7546771E-02  0.1310808E+00
          2   -1    0    0  502    0  0.00000000000E+00  0.00000000000E+00  0.33054373941E+02  0.33054373941E+02  0.00000000000E+00 0.  1.
          1   -1    0    0  501    0 -0.00000000000E+00 -0.00000000000E+00 -0.46047207457E+03  0.46047207457E+03  0.00000000000E+00 0.  1.
          2    1    1    2  501    0  0.47183788032E+02 -0.10894002781E+01  0.14283899074E+02  0.49310510226E+02  0.00000000000E+00 0.  1.
          1    1    1    2  502    0 -0.47183788032E+02  0.10894002781E+01 -0.44170159970E+03  0.44421593828E+03  0.00000000000E+00 0.  1.
</event>
<event>
 4    1  0.3593938E+003  0.2213960E+02  0.7546771E-02  0.1503594E+00
          2   -1    0    0  502    0  0.00000000000E+00  0.00000000000E+00  0.19497199111E+04  0.19497199111E+04  0.00000000000E+00 0.  1.
          1   -1    0    0  501    0 -0.00000000000E+00 -0.00000000000E+00 -0.35833416906E+00  0.35833416906E+00  0.00000000000E+00 0.  1.
          2    1    1    2  501    0 -0.22037228679E+02  0.21265998121E+01  0.15073208109E+04  0.15074833959E+04  0.00000000000E+00 0.  1.
          1    1    1    2  502    0  0.22037228679E+02 -0.21265998121E+01  0.44204076606E+03  0.44259484942E+03  0.00000000000E+00 0.  1.
</event>
<event>
 4    1  0.3593938E+003  0.2890252E+02  0.7546771E-02  0.1429379E+00
          2   -1    0    0  502    0  0.00000000000E+00  0.00000000000E+00  0.97107975349E+01  0.97107975349E+01  0.00000000000E+00 0.  1.
          1   -1    0    0  501    0 -0.00000000000E+00 -0.00000000000E+00 -0.94403941252E+02  0.94403941252E+02  0.00000000000E+00 0.  1.
          2    1    1    2  501    0 -0.26323378579E+02 -0.11934635546E+02 -0.26836161671E+02  0.39440275844E+02  0.00000000000E+00 0.  1.
          1    1    1    2  502    0  0.26323378579E+02  0.11934635546E+02 -0.57856982046E+02  0.64674462943E+02  0.00000000000E+00 0.  1.
</event>
<event>
 4    1  0.3593938E+003  0.3117023E+02  0.7546771E-02  0.1409692E+00
          2   -1    0    0  502    0  0.00000000000E+00  0.00000000000E+00  0.41887725280E+01  0.41887725280E+01  0.00000000000E+00 0. -1.
          1   -1    0    0  501    0 -0.00000000000E+00 -0.00000000000E+00 -0.88293305617E+03  0.88293305617E+03  0.00000000000E+00 0.  1.
          2    1    1    2  501    0 -0.15555214727E+02 -0.27011451454E+02 -0.58504191226E+02  0.66289694567E+02  0.00000000000E+00 0. -1.
          1    1    1    2  502    0  0.15555214727E+02  0.27011451454E+02 -0.82024009242E+03  0.82083213413E+03  0.00000000000E+00 0.  1.
</event>
<event>
 4    1  0.3593938E+003  0.2255733E+02  0.7546771E-02  0.1498133E+00
          2   -1    0    0  502    0  0.00000000000E+00  0.00000000000E+00  0.25686658462E+03  0.25686658462E+03  0.00000000000E+00 0. -1.
          1   -1    0    0  501    0 -0.00000000000E+00 -0.00000000000E+00 -0.12398368286E+03  0.12398368286E+03  0.00000000000E+00 0. -1.
          2    1    1    2  501    0 -0.14098223364E+02  0.17608894493E+02  0.25533922025E+03  0.25633367017E+03  0.00000000000E+00 0. -1.
          1    1    1    2  502    0  0.14098223364E+02 -0.17608894493E+02 -0.12245631849E+03  0.12451659731E+03  0.00000000000E+00 0. -1.
</event>
<event>
 4    1  0.3593938E+003  0.2387614E+02  0.7546771E-02  0.1481780E+00
          2   -1    0    0  502    0  0.00000000000E+00  0.00000000000E+00  0.25054669300E+01  0.25054669300E+01  0.00000000000E+00 0. -1.
          1   -1    0    0  501    0 -0.00000000000E+00 -0.00000000000E+00 -0.23981412463E+03  0.23981412463E+03  0.00000000000E+00 0. -1.
          2    1    1    2  501    0  0.12729536718E+02 -0.20199730026E+02 -0.91233281768E+02  0.94305789326E+02  0.00000000000E+00 0. -1.
          1    1    1    2  502    0 -0.12729536718E+02  0.20199730026E+02 -0.14607537593E+03  0.14801380223E+03  0.00000000000E+00 0. -1.
</event>
<event>
 4    1  0.3593938E+003  0.2483847E+02  0.7546771E-02  0.1470619E+00
          2   -1    0    0  502    0  0.00000000000E+00  0.00000000000E+00  0.10846474498E+04  0.10846474498E+04  0.00000000000E+00 0.  1.
          1   -1    0    0  501    0 -0.00000000000E+00 -0.00000000000E+00 -0.11583503710E+01  0.11583503710E+01  0.00000000000E+00 0.  1.
          2    1    1    2  501    0  0.41136631332E+01  0.24495455210E+02  0.92905743223E+03  0.92938940275E+03  0.00000000000E+00 0.  1.
          1    1    1    2  502    0 -0.41136631332E+01 -0.24495455210E+02  0.15443166721E+03  0.15641639744E+03  0.00000000000E+00 0.  1.
</event>
<event>
 4    1  0.3593938E+003  0.3366304E+02  0.7546771E-02  0.1390214E+00
          2   -1    0    0  502    0  0.00000000000E+00  0.00000000000E+00  0.41476798715E+01  0.41476798715E+01  0.00000000000E+00 0.  1.
          1   -1    0    0  501    0 -0.00000000000E+00 -0.00000000000E+00 -0.71040571166E+03  0.71040571166E+03  0.00000000000E+00 0. -1.
          2    1    1    2  501    0  0.29865900650E+02  0.15531531668E+02 -0.72851750638E+02  0.80253212201E+02  0.00000000000E+00 0.  1.
          1    1    1    2  502    0 -0.29865900650E+02 -0.15531531668E+02 -0.63340628115E+03  0.63430017933E+03  0.00000000000E+00 0. -1.
</event>
<event>
 4    1  0.3593938E+003  0.2234793E+02  0.7546771E-02  0.1500853E+00
          2   -1    0    0  502    0  0.00000000000E+00  0.00000000000E+00  0.16285139047E+01  0.16285139047E+01  0.00000000000E+00 0. -1.
          1   -1    0    0  501    0 -0.00000000000E+00 -0.00000000000E+00 -0.10248726374E+04  0.10248726374E+04  0.00000000000E+00 0. -1.
          2    1    1    2  501    0 -0.70461198528E+01 -0.21208070262E+02 -0.81971432554E+02  0.84963202648E+02  0.00000000000E+00 0. -1.
          1    1    1    2  502    0  0.70461198528E+01  0.21208070262E+02 -0.94127269094E+03  0.94153794866E+03  0.00000000000E+00 0. -1.
</event>
<event>
 4    1  0.3593938E+003  0.2299512E+02  0.7546771E-02  0.1492559E+00
          2   -1    0    0  502    0  0.00000000000E+00  0.00000000000E+00  0.72786056585E+02  0.72786056585E+02  0.00000000000E+00 0. -1.
          1   -1    0    0  501    0 -0.00000000000E+00 -0.00000000000E+00 -0.50564287820E+02  0.50564287820E+02  0.00000000000E+00 0. -1.
          2    1    1    2  501    0 -0.22767590874E+02  0.32267846603E+01  0.68183773640E+02  0.71956947693E+02  0.00000000000E+00 0. -1.
          1    1    1    2  502    0  0.22767590874E+02 -0.32267846603E+01 -0.45962004875E+02  0.51393396712E+02  0.00000000000E+00 0. -1.
</event>
<event>
 4    1  0.3593938E+003  0.2749292E+02  0.7546771E-02  0.1442719E+00
          2   -1    0    0  502    0  0.00000000000E+00  0.00000000000E+00  0.18882344036E+02  0.18882344036E+02  0.00000000000E+00 0. -1.
          1   -1    0    0  501    0 -0.00000000000E+00 -0.00000000000E+00 -0.40570264543E+02  0.40570264543E+02  0.00000000000E+00 0.  1.
          2    1    1    2  501    0  0.20742719104E+02 -0.18044393935E+02 -0.74136492653E+01  0.28474949407E+02  0.00000000000E+00 0. -1.
          1    1    1    2  502    0 -0.20742719104E+02  0.18044393935E+02 -0.14274271242E+02  0.30977659172E+02  0.00000000000E+00 0.  1.
</event>
<event>
 4    1  0.3593938E+003  0.2991736E+02  0.7546771E-02  0.1420316E+00
          2   -1    0    0  502    0  0.00000000000E+00  0.00000000000E+00  0.12457534165E+01  0.12457534165E+01  0.00000000000E+00 0. -1.
          1   -1    0    0  501    0 -0.00000000000E+00 -0.00000000000E+00 -0.13992192771E+04  0.13992192771E+04  0.00000000000E+00 0.  1.
          2    1    1    2  501    0  0.13921149191E+02  0.26481124893E+02 -0.21057071142E+03  0.21268538473E+03  0.00000000000E+00 0. -1.
          1    1    1    2  502    0 -0.13921149191E+02 -0.26481124893E+02 -0.11874028123E+04  0.11877796458E+04  0.00000000000E+00 0.  1.
</event>
<event>
 4    1  0.3593938E+003  0.2159619E+02  0.7546771E-02  0.1510920E+00
          2   -1    0    0  502    0  0.00000000000E+00  0.00000000000E+00  0.15075015408E+04  0.15075015408E+04  0.00000000000E+00 0. -1.
          1   -1    0    0  501    0 -0.00000000000E+00 -0.00000000000E+00 -0.35043331999E+00  0.35043331999E+00  0.00000000000E+00 0. -1.
          2    1    1    2  501    0 -0.11592945989E+02  0.18220845225E+02  0.10116134064E+04  0.10118439009E+04  0.00000000000E+00 0. -1.
          1    1    1    2  502    0  0.11592945989E+02 -0.18220845225E+02  0.49553770106E+03  0.49600807330E+03  0.00000000000E+00 0. -1.
</event>
<event>
 4    1  0.3593938E+003  0.3124499E+02  0.7546771E-02  0.1409077E+00
          2   -1    0    0  502    0  0.00000000000E+00  0.00000000000E+00  0.21741005239E+04  0.21741005239E+04  0.00000000000E+00 0. -1.
          1   -1    0    0  501    0 -0.00000000000E+00 -0.00000000000E+00 -0.12656344140E+01  0.12656344140E+01  0.00000000000E+00 0. -1.
          2    1    1    2  501    0  0.21100653065E+02 -0.23043688936E+02  0.19600977192E+04  0.19603467341E+04  0.00000000000E+00 0. -1.
          1    1    1    2  502    0 -0.21100653065E+02  0.23043688936E+02  0.21273717025E+03  0.21501942416E+03  0.00000000000E+00 0. -1.
</event>
<event>
 4    1  0.3593938E+003  0.4315049E+02  0.7546771E-02  0.1330951E+00
          2   -1    0    0  502    0  0.00000000000E+00  0.00000000000E+00  0.19761417748E+04  0.19761417748E+04  0.00000000000E+00 0.  1.
          1   -1    0    0  501    0 -0.00000000000E+00 -0.00000000000E+00 -0.31151776757E+01  0.31151776757E+01  0.00000000000E+00 0. -1.
          2    1    1    2  501    0  0.42516038814E+02  0.73723131637E+01  0.18130386730E+04  0.18135520931E+04  0.00000000000E+00 0.  1.
          1    1    1    2  502    0 -0.42516038814E+02 -0.73723131637E+01  0.15998792407E+03  0.16570485933E+03  0.00000000000E+00 0. -1.
</event>
<event>
 4    1  0.3593938E+003  0.2826406E+02  0.7546771E-02  0.1435307E+00
          2   -1    0    0  502    0  0.00000000000E+00  0.00000000000E+00  0.95015407354E+01  0.95015407354E+01  0.00000000000E+00 0.  1.
          1   -1    0    0  501    0 -0.00000000000E+00 -0.00000000000E+00 -0.17490416386E+04  0.17490416386E+04  0.00000000000E+00 0.  1.
          2    1    1    2  501    0  0.22441975172E+02 -0.17181823344E+02 -0.11892060321E+02  0.30663959329E+02  0.00000000000E+00 0.  1.
          1    1    1    2  502    0 -0.22441975172E+02  0.17181823344E+02 -0.17276480375E+04  0.17278792200E+04  0.00000000000E+00 0.  1.
</event>
<event>
 4    1  0.3593938E+003  0.2651535E+02  0.7546771E-02  0.1452538E+00
          2   -1    0    0  502    0  0.00000000000E+00  0.00000000000E+00  0.29133171070E+02  0.29133171070E+02  0.00000000000E+00 0. -1.
          1   -1    0    0  501    0 -0.00000000000E+00 -0.00000000000E+00 -0.53892352236E+02  0.53892352236E+02  0.00000000000E+00 0. -1.
          2    1    1    2  501    0 -0.26620998918E+01 -0.26381377133E+02  0.18468731156E+02  0.32313431662E+02  0.00000000000E+00 0. -1.
          1    1    1    2  502    0  0.26620998918E+01  0.26381377133E+02 -0.43227912321E+02  0.50712091644E+02  0.00000000000E+00 0. -1.
</event>
<event>
 4    1  0.3593938E+003  0.2242618E+02  0.7546771E-02  0.1499832E+00
          2   -1    0    0  502    0  0.00000000000E+00  0.00000000000E+00  0.16330324653E+04  0.16330324653E+04  0.00000000000E+00 0. -1.
          1   -1    0    0  501    0 -0.00000000000E+00 -0.00000000000E+00 -0.77245970799E+01  0.77245970799E+01  0.00000000000E+00 0.  1.
          2    1    1    2  501    0 -0.22308175061E+02  0.22975973981E+01  0.16165121142E+04  0.16166676681E+04  0.00000000000E+00 0. -1.
          1    1    1    2  502    0  0.22308175061E+02 -0.22975973981E+01  0.87957539849E+01  0.24089394274E+02  0.00000000000E+00 0.  1.
</event>
<event>
 4    1  0.3593938E+003  0.2396125E+02  0.7546771E-02  0.1480768E+00
          2   -1    0    0  502    0  0.00000000000E+00  0.00000000000E+00  0.11766137521E+01  0.11766137521E+01  0.00000000000E+00 0. -1.
          1   -1    0    0  501    0 -0.00000000000E+00 -0.00000000000E+00 -0.48954048526E+03  0.48954048526E+03  0.00000000000E+00 0. -1.
          2    1    1    2  501    0  0.15829520750E+01  0.23908909010E+02 -0.23024524990E+03  0.23148869685E+03  0.00000000000E+00 0. -1.
          1    1    1    2  502    0 -0.15829520750E+01 -0.23908909010E+02 -0.25811862160E+03  0.25922840216E+03  0.00000000000E+00 0. -1.
</event>
<event>
 4    1  0.3593938E+003  0.2246697E+02  0.7546771E-02  0.1499302E+00
          2   -1    0    0  502    0  0.00000000000E+00  0.00000000000E+00  0.56932730296E+03  0.56932730296E+03  0.00000000000E+00 0. -1.
          1   -1    0    0  501    0 -0.00000000000E+00 -0.00000000000E+00 -0.67432496591E+01  0.67432496591E+01  0.00000000000E+00 0. -1.
          2    1    1    2  501    0  0.21741500263E+02  0.56632108573E+01  0.54972492159E+03  0.55018383674E+03  0.00000000000E+00 0. -1.
          1    1    1    2  502    0 -0.21741500263E+02 -0.56632108573E+01  0.12859131717E+02  0.25886715887E+02  0.00000000000E+00 0. -1.
</event>
<event>
 4    1  0.3593938E+003  0.2935201E+02  0.7546771E-02  0.1425312E+00
          2   -1    0    0  502    0  0.00000000000E+00  0.00000000000E+00  0.18825140482E+03  0.18825140482E+03  0.00000000000E+00 0.  1.
          1   -1    0    0  501    0 -0.00000000000E+00 -0.00000000000E+00 -0.58097707281E+01  0.58097707281E+01  0.00000000000E+00 0. -1.
          2    1    1    2  501    0  0.28867307838E+02  0.53121416168E+01  0.13592530474E+03  0.13905836465E+03  0.00000000000E+00 0.  1.
          1    1    1    2  502    0 -0.28867307838E+02 -0.53121416168E+01  0.46516329353E+02  0.55002810899E+02  0.00000000000E+00 0. -1.
</event>
<event>
 4    1  0.3593938E+003  0.2003507E+02  0.7546771E-02  0.1533500E+00
          2   -1    0    0  502    0  0.00000000000E+00  0.00000000000E+00  0.65883143407E+01  0.65883143407E+01  0.00000000000E+00 0.  1.
          1   -1    0    0  501    0 -0.00000000000E+00 -0.00000000000E+00 -0.24705908333E+03  0.24705908333E+03  0.00000000000E+00 0. -1.
          2    1    1    2  501    0  0.10531201922E+02 -0.17043998165E+02 -0.10154730608E+02  0.22461581447E+02  0.00000000000E+00 0.  1.
          1    1    1    2  502    0 -0.10531201922E+02  0.17043998165E+02 -0.23031603839E+03  0.23118581623E+03  0.00000000000E+00 0. -1.
</event>
<event>
 4    1  0.3593938E+003  0.3332199E+02  0.7546771E-02  0.1392760E+00
          2   -1    0    0  502    0  0.00000000000E+00  0.00000000000E+00  0.11879936528E+03  0.11879936528E+03  0.00000000000E+00 0.  1.
          1   -1    0    0  501    0 -0.00000000000E+00 -0.00000000000E+00 -0.12884514437E+03  0.12884514437E+03  0.00000000000E+00 0.  1.
          2    1    1    2  501    0  0.37575351190E+01 -0.33109457399E+02  0.11422376826E+03  0.11898497584E+03  0.00000000000E+00 0.  1.
          1    1    1    2  502    0 -0.37575351190E+01  0.33109457399E+02 -0.12426954736E+03  0.12865953381E+03  0.00000000000E+00 0.  1.
</event>
<event>
 4    1  0.3593938E+003  0.3406597E+02  0.7546771E-02  0.1387251E+00
          2   -1    0    0  502    0  0.00000000000E+00  0.00000000000E+00  0.43404494369E+03  0.43404494369E+03  0.00000000000E+00 0.  1.
          1   -1    0    0  501    0 -0.00000000000E+00 -0.00000000000E+00 -0.93576936198E+01  0.93576936198E+01  0.00000000000E+00 0. -1.
          2    1    1    2  501    0 -0.18370199237E+02  0.28688437008E+02  0.39971490604E+03  0.40116392752E+03  0.00000000000E+00 0.  1.
          1    1    1    2  502    0  0.18370199237E+02 -0.28688437008E+02  0.24972344035E+02  0.42238709788E+02  0.00000000000E+00 0. -1.
</event>
<event>
 4    1  0.3593938E+003  0.3753335E+02  0.7546771E-02  0.1363580E+00
          2   -1    0    0  502    0  0.00000000000E+00  0.00000000000E+00  0.10541294265E+04  0.10541294265E+04  0.00000000000E+00 0.  1.
          1   -1    0    0  501    0 -0.00000000000E+00 -0.00000000000E+00 -0.11164386945E+03  0.11164386945E+03  0.00000000000E+00 0.  1.
          2    1    1    2  501    0  0.30170610357E+02 -0.22326808877E+02  0.10506302535E+04  0.10513004717E+04  0.00000000000E+00 0.  1.
          1    1    1    2  502    0 -0.30170610357E+02  0.22326808877E+02 -0.10814469647E+03  0.11447282428E+03  0.00000000000E+00 0.  1.
</event>
<event>
 4    1  0.3593938E+003  0.3699887E+02  0.7546771E-02  0.1367030E+00
          2   -1    0    0  502    0  0.00000000000E+00  0.00000000000E+00  0.69093380589E+03  0.69093380589E+03  0.00000000000E+00 0. -1.
          1   -1    0    0  501    0 -0.00000000000E+00 -0.00000000000E+00 -0.19922048280E+01  0.19922048280E+01  0.00000000000E+00 0.  1.
          2    1    1    2  501    0 -0.27407722221E+02  0.24854235988E+02  0.37015624157E+03  0.37200075195E+03  0.00000000000E+00 0. -1.
          1    1    1    2  502    0  0.27407722221E+02 -0.24854235988E+02  0.31878535950E+03  0.32092525877E+03  0.00000000000E+00 0.  1.
</event>
<event>
 4    1  0.3593938E+003  0.4856459E+02  0.7546771E-02  0.1304519E+00
          2   -1    0    0  502    0  0.00000000000E+00  0.00000000000E+00  0.62824866192E+03  0.62824866192E+03  0.00000000000E+00 0. -1.
          1   -1    0    0  501    0 -0.00000000000E+00 -0.00000000000E+00 -0.10493551266E+02  0.10493551266E+02  0.00000000000E+00 0.  1.
          2    1    1    2  501    0  0.23754725389E+02  0.42358377866E+02  0.56482222590E+03  0.56690622331E+03  0.00000000000E+00 0. -1.
          1    1    1    2  502    0 -0.23754725389E+02 -0.42358377866E+02  0.52932884757E+02  0.71835989882E+02  0.00000000000E+00 0.  1.
</event>
<event>
 4    1  0.3593938E+003  0.3257900E+02  0.7546771E-02  0.1398432E+00
          2   -1    0    0  502    0  0.00000000000E+00  0.00000000000E+00  0.10830785441E+02  0.10830785441E+02  0.00000000000E+00 0. -1.
          1   -1    0    0  501    0 -0.00000000000E+00 -0.00000000000E+00 -0.83253269303E+03  0.83253269303E+03  0.00000000000E+00 0. -1.
          2    1    1    2  501    0 -0.32550991363E+02 -0.13505693603E+01 -0.14764109381E+02  0.35768282068E+02  0.00000000000E+00 0. -1.
          1    1    1    2  502    0  0.32550991363E+02  0.13505693603E+01 -0.80693779821E+03  0.80759519640E+03  0.00000000000E+00 0. -1.
</event>
<event>
 4    1  0.3593938E+003  0.2336511E+02  0.7546771E-02  0.1487964E+00
          2   -1    0    0  502    0  0.00000000000E+00  0.00000000000E+00  0.10014909783E+04  0.10014909783E+04  0.00000000000E+00 0. -1.
          1   -1    0    0  501    0 -0.00000000000E+00 -0.00000000000E+00 -0.42272976867E+01  0.42272976867E+01  0.00000000000E+00 0. -1.
          2    1    1    2  501    0 -0.16149153787E+02  0.16885886206E+02  0.96795022049E+03  0.96823218169E+03  0.00000000000E+00 0. -1.
          1    1    1    2  502    0  0.16149153787E+02 -0.16885886206E+02  0.29313460129E+02  0.37486094298E+02  0.00000000000E+00 0. -1.
</event>
<event>
 4    1  0.3593938E+003  0.2678609E+02  0.7546771E-02  0.1449769E+00
          2   -1    0    0  502    0  0.00000000000E+00  0.00000000000E+00  0.23486943405E+04  0.23486943405E+04  0.00000000000E+00 0. -1.
          1   -1    0    0  501    0 -0.00000000000E+00 -0.00000000000E+00 -0.30693089118E+00  0.30693089118E+00  0.00000000000E+00 0.  1.
          2    1    1    2  501    0 -0.18608945412E+02  0.19266576213E+02  0.10936161442E+04  0.10939441323E+04  0.00000000000E+00 0. -1.
          1    1    1    2  502    0  0.18608945412E+02 -0.19266576213E+02  0.12547712654E+04  0.12550571391E+04  0.00000000000E+00 0.  1.
</event>
<event>
 4    1  0.3593938E+003  0.2281218E+02  0.7546771E-02  0.1494870E+00
          2   -1    0    0  502    0  0.00000000000E+00  0.00000000000E+00  0.77946870653E+03  0.77946870653E+03  0.00000000000E+00 0.  1.
          1   -1    0    0  501    0 -0.00000000000E+00 -0.00000000000E+00 -0.14054764561E+02  0.14054764561E+02  0.00000000000E+00 0. -1.
          2    1    1    2  501    0  0.21551130721E+02 -0.74796027818E+01  0.76993058059E+03  0.77026845620E+03  0.00000000000E+00 0.  1.
          1    1    1    2  502    0 -0.21551130721E+02  0.74796027818E+01 -0.45166386190E+01  0.23255014890E+02  0.00000000000E+00 0. -1.
</event>
<event>
 4    1  0.3593938E+003  0.2809692E+02  0.7546771E-02  0.1436890E+00
          2   -1    0    0  502    0  0.00000000000E+00  0.00000000000E+00  0.87234846751E+02  0.87234846751E+02  0.00000000000E+00 0.  1.
          1   -1    0    0  501    0 -0.00000000000E+00 -0.00000000000E+00 -0.13286569505E+03  0.13286569505E+03  0.00000000000E+00 0.  1.
          2    1    1    2  501    0  0.28077212215E+02 -0.10522672298E+01  0.83420965475E+02  0.88025533755E+02  0.00000000000E+00 0.  1.
          1    1    1    2  502    0 -0.28077212215E+02  0.10522672298E+01 -0.12905181378E+03  0.13207500805E+03  0.00000000000E+00 0.  1.
</event>
<event>
 4    1  0.3593938E+003  0.2507849E+02  0.7546771E-02  0.1467927E+00
          2   -1    0    0  502    0  0.00000000000E+00  0.00000000000E+00  0.24811722788E+01  0.24811722788E+01  0.00000000000E+00 0. -1.
          1   -1    0    0  501    0 -0.00000000000E+00 -0.00000000000E+00 -0.67965955451E+03  0.67965955451E+03  0.00000000000E+00 0.  1.
          2    1    1    2  501    0  0.20057367037E+02 -0.15054324628E+02 -0.68508250855E+02  0.72954171215E+02  0.00000000000E+00 0. -1.
          1    1    1    2  502    0 -0.20057367037E+02  0.15054324628E+02 -0.60867013138E+03  0.60918655557E+03  0.00000000000E+00 0.  1.
</event>
<event>
 4    1  0.3593938E+003  0.2467116E+02  0.7546771E-02  0.1472516E+00
          2   -1    0    0  502    0  0.00000000000E+00  0.00000000000E+00  0.34057239591E+03  0.34057239591E+03  0.00000000000E+00 0. -1.
          1   -1    0    0  501    0 -0.00000000000E+00 -0.00000000000E+00 -0.21208067486E+01  0.21208067486E+01  0.00000000000E+00 0. -1.
          2    1    1    2  501    0 -0.13707934991E+02  0.20512384069E+02  0.10126584151E+03  0.10422780838E+03  0.00000000000E+00 0. -1.
          1    1    1    2  502    0  0.13707934991E+02 -0.20512384069E+02  0.23718574764E+03  0.23846539428E+03  0.00000000000E+00 0. -1.
</event>
<event>
 4    1  0.3593938E+003  0.2687887E+02  0.7546771E-02  0.1448829E+00
          2   -1    0    0  502    0  0.00000000000E+00  0.00000000000E+00  0.17753683668E+01  0.17753683668E+01  0.00000000000E+00 0.  1.
          1   -1    0    0  501    0 -0.00000000000E+00 -0.00000000000E+00 -0.92784303447E+03  0.92784303447E+03  0.00000000000E+00 0.  1.
          2    1    1    2  501    0  0.26066442737E+02  0.65585061059E+01 -0.11476491066E+03  0.11787051438E+03  0.00000000000E+00 0.  1.
          1    1    1    2  502    0 -0.26066442737E+02 -0.65585061059E+01 -0.81130275544E+03  0.81174788846E+03  0.00000000000E+00 0.  1.
</event>
<event>
 4    1  0.3593938E+003  0.2642087E+02  0.7546771E-02  0.1453514E+00
          2   -1    0    0  502    0  0.00000000000E+00  0.00000000000E+00  0.71941734506E+03  0.71941734506E+03  0.00000000000E+00 0. -1.
          1   -1    0    0  501    0 -0.00000000000E+00 -0.00000000000E+00 -0.22704682704E+01  0.22704682704E+01  0.00000000000E+00 0.  1.
          2    1    1    2  501    0 -0.10536077162E+02 -0.24229181638E+02  0.63163386595E+03  0.63218620894E+03  0.00000000000E+00 0. -1.
          1    1    1    2  502    0  0.10536077162E+02  0.24229181638E+02  0.85513010840E+02  0.89501604386E+02  0.00000000000E+00 0.  1.
</event>
<event>
 4    1  0.3593938E+003  0.2506897E+02  0.7546771E-02  0.1468033E+00
          2   -1    0    0  502    0  0.00000000000E+00  0.00000000000E+00  0.12184853318E+04  0.12184853318E+04  0.00000000000E+00 0.  1.
          1   -1    0    0  501    0 -0.00000000000E+00 -0.00000000000E+00 -0.14946194837E+03  0.14946194837E+03  0.00000000000E+00 0. -1.
          2    1    1    2  501    0 -0.11209394453E+02 -0.22423258392E+02  0.12173041781E+04  0.12175622838E+04  0.00000000000E+00 0.  1.
          1    1    1    2  502    0  0.11209394453E+02  0.22423258392E+02 -0.14828079468E+03  0.15038499630E+03  0.00000000000E+00 0. -1.
</event>
<event>
 4    1  0.3593938E+003  0.2318916E+02  0.7546771E-02  0.1490136E+00
          2   -1    0    0  502    0  0.00000000000E+00  0.00000000000E+00  0.19971796050E+02  0.19971796050E+02  0.00000000000E+00 0. -1.
          1   -1    0    0  501    0 -0.00000000000E+00 -0.00000000000E+00 -0.29257540296E+02  0.29257540296E+02  0.00000000000E+00 0. -1.
          2    1    1    2  501    0  0.19769269284E+02 -0.12120743910E+02 -0.11593260664E+02  0.25925665541E+02  0.00000000000E+00 0. -1.
          1    1    1    2  502    0 -0.19769269284E+02  0.12120743910E+02  0.23075164183E+01  0.23303670804E+02  0.00000000000E+00 0. -1.
</event>
<event>
 4    1  0.3593938E+003  0.2649095E+02  0.7546771E-02  0.1452790E+00
          2   -1    0    0  502    0  0.00000000000E+00  0.00000000000E+00  0.48936525261E+03  0.48936525261E+03  0.00000000000E+00 0. -1.
          1   -1    0    0  501    0 -0.00000000000E+00 -0.00000000000E+00 -0.13731908645E+02  0.13731908645E+02  0.00000000000E+00 0.  1.
          2    1    1    2  501    0  0.23557465454E+02 -0.12116779015E+02  0.47586837970E+03  0.47660516711E+03  0.00000000000E+00 0. -1.
          1    1    1    2  502    0 -0.23557465454E+02  0.12116779015E+02 -0.23503573529E+00  0.26491994151E+02  0.00000000000E+00 0.  1.
</event>
<event>
 4    1  0.3593938E+003  0.2131372E+02  0.7546771E-02  0.1514833E+00
          2   -1    0    0  502    0  0.00000000000E+00  0.00000000000E+00  0.68040361786E+02  0.68040361786E+02  0.00000000000E+00 0.  1.
          1   -1    0    0  501    0 -0.00000000000E+00 -0.00000000000E+00 -0.51945049124E+02  0.51945049124E+02  0.00000000000E+00 0.  1.
          2    1    1    2  501    0  0.91792555110E+01 -0.19235800454E+02  0.64052349680E+02  0.67505394232E+02  0.00000000000E+00 0.  1.
          1    1    1    2  502    0 -0.91792555110E+01  0.19235800454E+02 -0.47957037019E+02  0.52480016678E+02  0.00000000000E+00 0.  1.
</event>
<event>
 4    1  0.3593938E+003  0.3611092E+02  0.7546771E-02  0.1372917E+00
          2   -1    0    0  502    0  0.00000000000E+00  0.00000000000E+00  0.28444967054E+02  0.28444967054E+02  0.00000000000E+00 0.  1.
          1   -1    0    0  501    0 -0.00000000000E+00 -0.00000000000E+00 -0.46252961284E+02  0.46252961284E+02  0.00000000000E+00 0.  1.
          2    1    1    2  501    0  0.17440167804E+02  0.31620207872E+02 -0.12421098967E+02  0.38187441633E+02  0.00000000000E+00 0.  1.
          1    1    1    2  502    0 -0.17440167804E+02 -0.31620207872E+02 -0.53868952638E+01  0.36510486706E+02  0.00000000000E+00 0.  1.
</event>
<event>
 4    1  0.3593938E+003  0.2150136E+02  0.7546771E-02  0.1512226E+00
          2   -1    0    0  502    0  0.00000000000E+00  0.00000000000E+00  0.14669763258E+03  0.14669763258E+03  0.00000000000E+00 0. -1.
          1   -1    0    0  501    0 -0.00000000000E+00 -0.00000000000E+00 -0.14664009939E+04  0.14664009939E+04  0.00000000000E+00 0. -1.
          2    1    1    2  501    0 -0.93217334324E+01  0.19375592565E+02  0.14583049044E+03  0.14740705628E+03  0.00000000000E+00 0. -1.
          1    1    1    2  502    0  0.93217334324E+01 -0.19375592565E+02 -0.14655338518E+04  0.14656915702E+04  0.00000000000E+00 0. -1.
</event>
<event>
 4    1  0.3593938E+003  0.2239893E+02  0.7546771E-02  0.1500187E+00
          2   -1    0    0  502    0  0.00000000000E+00  0.00000000000E+00  0.11441653749E+02  0.11441653749E+02  0.00000000000E+00 0. -1.
          1   -1    0    0  501    0 -0.00000000000E+00 -0.00000000000E+00 -0.13001554482E+03  0.13001554482E+03  0.00000000000E+00 0.  1.
          2    1    1    2  501    0 -0.11879506104E+02  0.18989191783E+02 -0.17077999717E+01  0.22463941119E+02  0.00000000000E+00 0. -1.
          1    1    1    2  502    0  0.11879506104E+02 -0.18989191783E+02 -0.11686609110E+03  0.11899325745E+03  0.00000000000E+00 0.  1.
</event>
<event>
 4    1  0.3593938E+003  0.4335794E+02  0.7546771E-02  0.1329857E+00
          2   -1    0    0  502    0  0.00000000000E+00  0.00000000000E+00  0.15816128248E+03  0.15816128248E+03  0.00000000000E+00 0. -1.
          1   -1    0    0  501    0 -0.00000000000E+00 -0.00000000000E+00 -0.44362849207E+02  0.44362849207E+02  0.00000000000E+00 0. -1.
          2    1    1    2  501    0  0.31884004718E+02  0.29382326586E+02  0.14354027803E+03  0.14994573115E+03  0.00000000000E+00 0. -1.
          1    1    1    2  502    0 -0.31884004718E+02 -0.29382326586E+02 -0.29741844764E+02  0.52578400532E+02  0.00000000000E+00 0. -1.
</event>
<event>
 4    1  0.3593938E+003  0.3910826E+02  0.7546771E-02  0.1353792E+00
          2   -1    0    0  502    0  0.00000000000E+00  0.00000000000E+00  0.23542005551E+01  0.23542005551E+01  0.00000000000E+00 0. -1.
          1   -1    0    0  501    0 -0.00000000000E+00 -0.00000000000E+00 -0.11041989353E+04  0.11041989353E+04  0.00000000000E+00 0. -1.
          2    1    1    2  501    0  0.21676244693E+02 -0.32551445238E+02 -0.19594649416E+03  0.19981112268E+03  0.00000000000E+00 0. -1.
          1    1    1    2  502    0 -0.21676244693E+02  0.32551445238E+02 -0.90589824056E+03  0.90674201315E+03  0.00000000000E+00 0. -1.
</event>
<event>
 4    1  0.3593938E+003  0.2040302E+02  0.7546771E-02  0.1527961E+00
          2   -1    0    0  502    0  0.00000000000E+00  0.00000000000E+00  0.13497279234E+03  0.13497279234E+03  0.00000000000E+00 0. -1.
          1   -1    0    0  501    0 -0.00000000000E+00 -0.00000000000E+00 -0.17106998888E+03  0.17106998888E+03  0.00000000000E+00 0.  1.
          2    1    1    2  501    0  0.14034883782E+02 -0.14808961258E+02  0.13358711567E+03  0.13513623041E+03  0.00000000000E+00 0. -1.
          1    1    1    2  502    0 -0.14034883782E+02  0.14808961258E+02 -0.16968431221E+03  0.17090655080E+03  0.00000000000E+00 0.  1.
</event>
<event>
 4    1  0.3593938E+003  0.2783622E+02  0.7546771E-02  0.1439384E+00
          2   -1    0    0  502    0  0.00000000000E+00  0.00000000000E+00  0.10628745171E+03  0.10628745171E+03  0.00000000000E+00 0.  1.
          1   -1    0    0  501    0 -0.00000000000E+00 -0.00000000000E+00 -0.22752401848E+02  0.22752401848E+02  0.00000000000E+00 0. -1.
          2    1    1    2  501    0 -0.14283752508E+01 -0.27799550826E+02  0.94955824765E+02  0.98951826354E+02  0.00000000000E+00 0.  1.
          1    1    1    2  502    0  0.14283752508E+01  0.27799550826E+02 -0.11420774898E+02  0.30088027208E+02  0.00000000000E+00 0. -1.
</event>
<event>
 4    1  0.3593938E+003  0.2358513E+02  0.7546771E-02  0.1485278E+00
          2   -1    0    0  502    0  0.00000000000E+00  0.00000000000E+00  0.60700876433E+02  0.60700876433E+02  0.00000000000E+00 0. -1.
          1   -1    0    0  501    0 -0.00000000000E+00 -0.00000000000E+00 -0.91765790406E+01  0.91765790406E+01  0.00000000000E+00 0. -1.
          2    1    1    2  501    0  0.50298103931E+01  0.23042555742E+02  0.27059495922E+02  0.35895329602E+02  0.00000000000E+00 0. -1.
          1    1    1    2  502    0 -0.50298103931E+01 -0.23042555742E+02  0.24464801470E+02  0.33982125871E+02  0.00000000000E+00 0. -1.
</event>
<event>
 4    1  0.3593938E+003  0.2534906E+02  0.7546771E-02  0.1464936E+00
          2   -1    0    0  502    0  0.00000000000E+00  0.00000000000E+00  0.15237667622E+04  0.15237667622E+04  0.00000000000E+00 0.  1.
          1   -1    0    0  501    0 -0.00000000000E+00 -0.00000000000E+00 -0.10083055667E+01  0.10083055667E+01  0.00000000000E+00 0. -1.
          2    1    1    2  501    0  0.27592473401E+01 -0.25198436399E+02  0.13428826301E+04  0.13431218607E+04  0.00000000000E+00 0.  1.
          1    1    1    2  502    0 -0.27592473401E+01  0.25198436399E+02  0.17987582658E+03  0.18165320704E+03  0.00000000000E+00 0. -1.
</event>
<event>
 4    1  0.3593938E+003  0.3064583E+02  0.7546771E-02  0.1414066E+00
          2   -1    0    0  502    0  0.00000000000E+00  0.00000000000E+00  0.11596798112E+03  0.11596798112E+03  0.00000000000E+00 0.  1.
          1   -1    0    0  501    0 -0.00000000000E+00 -0.00000000000E+00 -0.49992830808E+02  0.49992830808E+02  0.00000000000E+00 0.  1.
          2    1    1    2  501    0 -0.68528319619E+01  0.29869809151E+02  0.10895008657E+03  0.11317812584E+03  0.00000000000E+00 0.  1.
          1    1    1    2  502    0  0.68528319619E+01 -0.29869809151E+02 -0.42974936257E+02  0.52782686090E+02  0.00000000000E+00 0.  1.
</event>
<event>
 4    1  0.3593938E+003  0.3672092E+02  0.7546771E-02  0.1368852E+00
          2   -1    0    0  502    0  0.00000000000E+00  0.00000000000E+00  0.23636111246E+04  0.23636111246E+04  0.00000000000E+00 0.  1.
          1   -1    0    0  501    0 -0.00000000000E+00 -0.00000000000E+00 -0.18761500887E+04  0.18761500887E+04  0.00000000000E+00 0.  1.
          2    1    1    2  501    0  0.31097439740E+02 -0.19528826576E+02  0.23632887967E+04  0.23635740653E+04  0.00000000000E+00 0.  1.
          1    1    1    2  502    0 -0.31097439740E+02  0.19528826576E+02 -0.18758277608E+04  0.18761871479E+04  0.00000000000E+00 0.  1.
</event>
<event>
 4    1  0.3593938E+003  0.2105449E+02  0.7546771E-02  0.1518488E+00
          2   -1    0    0  502    0  0.00000000000E+00  0.00000000000E+00  0.40374788462E+03  0.40374788462E+03  0.00000000000E+00 0.  1.
          1   -1    0    0  501    0 -0.00000000000E+00 -0.00000000000E+00 -0.20992048314E+01  0.20992048314E+01  0.00000000000E+00 0. -1.
          2    1    1    2  501    0  0.64071132897E+01  0.20055938044E+02  0.34096981601E+03  0.34161924299E+03  0.00000000000E+00 0.  1.
          1    1    1    2  502    0 -0.64071132897E+01 -0.20055938044E+02  0.60678863777E+02  0.64227846459E+02  0.00000000000E+00 0. -1.
</event>
<event>
 4    1  0.3593938E+003  0.2555033E+02  0.7546771E-02  0.1462740E+00
          2   -1    0    0  502    0  0.00000000000E+00  0.00000000000E+00  0.18015680646E+04  0.18015680646E+04  0.00000000000E+00 0.  1.
          1   -1    0    0  501    0 -0.00000000000E+00 -0.00000000000E+00 -0.21666566974E+01  0.21666566974E+01  0.00000000000E+00 0. -1.
          2    1    1    2  501    0  0.53588255293E+01 -0.24982036779E+02  0.17227036629E+04  0.17228931277E+04  0.00000000000E+00 0.  1.
          1    1    1    2  502    0 -0.53588255293E+01  0.24982036779E+02  0.76697744943E+02  0.80841593577E+02  0.00000000000E+00 0. -1.
</event>
<event>
 4    1  0.3593938E+003  0.2550572E+02  0.7546771E-02  0.1463225E+00
          2   -1    0    0  502    0  0.00000000000E+00  0.00000000000E+00  0.17692425915E+03  0.17692425915E+03  0.00000000000E+00 0.  1.
          1   -1    0    0  501    0 -0.00000000000E+00 -0.00000000000E+00 -0.75269230470E+01  0.75269230470E+01  0.00000000000E+00 0.  1.
          2    1    1    2  501    0  0.47233840867E+01  0.25064534742E+02  0.18740029911E+02  0.31650118169E+02  0.00000000000E+00 0.  1.
          1    1    1    2  502    0 -0.47233840867E+01 -0.25064534742E+02  0.15065730619E+03  0.15280106403E+03  0.00000000000E+00 0.  1.
</event>
<event>
 4    1  0.3593938E+003  0.2294748E+02  0.7546771E-02  0.1493159E+00
          2   -1    0    0  502    0  0.00000000000E+00  0.00000000000E+00  0.31505223721E+01  0.31505223721E+01  0.00000000000E+00 0.  1.
          1   -1    0    0  501    0 -0.00000000000E+00 -0.00000000000E+00 -0.84789128269E+03  0.84789128269E+03  0.00000000000E+00 0.  1.
          2    1    1    2  501    0  0.22934998990E+02  0.75676798084E+00 -0.41090244002E+02  0.47063733687E+02  0.00000000000E+00 0.  1.
          1    1    1    2  502    0 -0.22934998990E+02 -0.75676798084E+00 -0.80365051631E+03  0.80397807137E+03  0.00000000000E+00 0.  1.
</event>
<event>
 4    1  0.3593938E+003  0.2420229E+02  0.7546771E-02  0.1477929E+00
          2   -1    0    0  502    0  0.00000000000E+00  0.00000000000E+00  0.16217020481E+04  0.16217020481E+04  0.00000000000E+00 0.  1.
          1   -1    0    0  501    0 -0.00000000000E+00 -0.00000000000E+00 -0.32452207771E+03  0.32452207771E+03  0.00000000000E+00 0. -1.
          2    1    1    2  501    0  0.13759132812E+02 -0.19910731439E+02  0.16211603573E+04  0.16213410051E+04  0.00000000000E+00 0.  1.
          1    1    1    2  502    0 -0.13759132812E+02  0.19910731439E+02 -0.32398038692E+03  0.32488312063E+03  0.00000000000E+00 0. -1.
</event>
<event>
 4    1  0.3593938E+003  0.2277643E+02  0.7546771E-02  0.1495325E+00
          2   -1    0    0  502    0  0.00000000000E+00  0.00000000000E+00  0.30646675713E+02  0.30646675713E+02  0.00000000000E+00 0.  1.
          1   -1    0    0  501    0 -0.00000000000E+00 -0.00000000000E+00 -0.12855831342E+04  0.12855831342E+04  0.00000000000E+00 0.  1.
          2    1    1    2  501    0 -0.10138892332E+02 -0.20395306011E+02  0.26299611035E+02  0.34791309053E+02  0.00000000000E+00 0.  1.
          1    1    1    2  502    0  0.10138892332E+02  0.20395306011E+02 -0.12812360695E+04  0.12814385008E+04  0.00000000000E+00 0.  1.
</event>
<event>
 4    1  0.3593938E+003  0.3521165E+02  0.7546771E-02  0.1379081E+00
          2   -1    0    0  502    0  0.00000000000E+00  0.00000000000E+00  0.93557587699E+03  0.93557587699E+03  0.00000000000E+00 0. -1.
          1   -1    0    0  501    0 -0.00000000000E+00 -0.00000000000E+00 -0.21409281414E+01  0.21409281414E+01  0.00000000000E+00 0.  1.
          2    1    1    2  501    0 -0.24111785347E+02  0.25660901748E+02  0.75612075174E+03  0.75694019003E+03  0.00000000000E+00 0. -1.
          1    1    1    2  502    0  0.24111785347E+02 -0.25660901748E+02  0.17731419711E+03  0.18077661510E+03  0.00000000000E+00 0.  1.
</event>
<event>
 4    1  0.3593938E+003  0.2023648E+02  0.7546771E-02  0.1530451E+00
          2   -1    0    0  502    0  0.00000000000E+00  0.00000000000E+00  0.59747988518E+03  0.59747988518E+03  0.00000000000E+00 0.  1.
          1   -1    0    0  501    0 -0.00000000000E+00 -0.00000000000E+00 -0.81114666717E+01  0.81114666717E+01  0.00000000000E+00 0. -1.
          2    1    1    2  501    0  0.16934525826E+02  0.11078662986E+02  0.58440475059E+03  0.58475501490E+03  0.00000000000E+00 0.  1.
          1    1    1    2  502    0 -0.16934525826E+02 -0.11078662986E+02  0.49636679224E+01  0.20836336956E+02  0.00000000000E+00 0. -1.
</event>
<event>
 4    1  0.3593938E+003  0.2602535E+02  0.7546771E-02  0.1457652E+00
          2   -1    0    0  502    0  0.00000000000E+00  0.00000000000E+00  0.87652646001E+02  0.87652646001E+02  0.00000000000E+00 0.  1.
          1   -1    0    0  501    0 -0.00000000000E+00 -0.00000000000E+00 -0.10844943104E+02  0.10844943104E+02  0.00000000000E+00 0.  1.
          2    1    1    2  501    0  0.19812466541E+02  0.16875567989E+02  0.64809382077E+02  0.69839635097E+02  0.00000000000E+00 0.  1.
          1    1    1    2  502    0 -0.19812466541E+02 -0.16875567989E+02  0.11998320821E+02  0.28657954008E+02  0.00000000000E+00 0.  1.
</event>
<event>
 4    1  0.3593938E+003  0.2125539E+02  0.7546771E-02  0.1515650E+00
          2   -1    0    0  502    0  0.00000000000E+00  0.00000000000E+00  0.83133077878E+03  0.83133077878E+03  0.00000000000E+00 0. -1.
          1   -1    0    0  501    0 -0.00000000000E+00 -0.00000000000E+00 -0.89981542196E+00  0.89981542196E+00  0.00000000000E+00 0. -1.
          2    1    1    2  501    0  0.15383107816E+02 -0.14668047909E+02  0.67708270020E+03  0.67741624910E+03  0.00000000000E+00 0. -1.
          1    1    1    2  502    0 -0.15383107816E+02  0.14668047909E+02  0.15334826315E+03  0.15481434510E+03  0.00000000000E+00 0. -1.
</event>
<event>
 4    1  0.3593938E+003  0.2869177E+02  0.7546771E-02  0.1431316E+00
          2   -1    0    0  502    0  0.00000000000E+00  0.00000000000E+00  0.95992040971E+01  0.95992040971E+01  0.00000000000E+00 0.  1.
          1   -1    0    0  501    0 -0.00000000000E+00 -0.00000000000E+00 -0.14899960814E+04  0.14899960814E+04  0.00000000000E+00 0.  1.
          2    1    1    2  501    0 -0.57133735378E+01 -0.28117163649E+02 -0.12298410615E+02  0.31216476940E+02  0.00000000000E+00 0.  1.
          1    1    1    2  502    0  0.57133735378E+01  0.28117163649E+02 -0.14680984667E+04  0.14683788085E+04  0.00000000000E+00 0.  1.
</event>
<event>
 4    1  0.3593938E+003  0.2679552E+02  0.7546771E-02  0.1449673E+00
          2   -1    0    0  502    0  0.00000000000E+00  0.00000000000E+00  0.15921119263E+03  0.15921119263E+03  0.00000000000E+00 0. -1.
          1   -1    0    0  501    0 -0.00000000000E+00 -0.00000000000E+00 -0.15944665240E+02  0.15944665240E+02  0.00000000000E+00 0.  1.
          2    1    1    2  501    0  0.96248703198E+01  0.25007239337E+02  0.14579907371E+03  0.14824091892E+03  0.00000000000E+00 0. -1.
          1    1    1    2  502    0 -0.96248703198E+01 -0.25007239337E+02 -0.25325463167E+01  0.26914938952E+02  0.00000000000E+00 0.  1.
</event>
<event>
 4    1  0.3593938E+003  0.3094115E+02  0.7546771E-02  0.1411590E+00
          2   -1    0    0  502    0  0.00000000000E+00  0.00000000000E+00  0.93854567377E+03  0.93854567377E+03  0.00000000000E+00 0.  1.
          1   -1    0    0  501    0 -0.00000000000E+00 -0.00000000000E+00 -0.46477890977E+01  0.46477890977E+01  0.00000000000E+00 0. -1.
          2    1    1    2  501    0 -0.26157072980E+02  0.16527624521E+02  0.88359392475E+03  0.88413549792E+03  0.00000000000E+00 0.  1.
          1    1    1    2  502    0  0.26157072980E+02 -0.16527624521E+02  0.50303959930E+02  0.59057964948E+02  0.00000000000E+00 0. -1.
</event>
<event>
 4    1  0.3593938E+003  0.2306160E+02  0.7546771E-02  0.1491726E+00
          2   -1    0    0  502    0  0.00000000000E+00  0.00000000000E+00  0.15135538200E+02  0.15135538200E+02  0.00000000000E+00 0. -1.
          1   -1    0    0  501    0 -0.00000000000E+00 -0.00000000000E+00 -0.15960366300E+04  0.15960366300E+04  0.00000000000E+00 0. -1.
          2    1    1    2  501    0  0.27614837788E+01  0.22895671415E+02  0.62182956473E+01  0.23885241531E+02  0.00000000000E+00 0. -1.
          1    1    1    2  502    0 -0.27614837788E+01 -0.22895671415E+02 -0.15871193874E+04  0.15872869267E+04  0.00000000000E+00 0. -1.
</event>
<event>
 4    1  0.3593938E+003  0.2980156E+02  0.7546771E-02  0.1421329E+00
          2   -1    0    0  502    0  0.00000000000E+00  0.00000000000E+00  0.54186604866E+03  0.54186604866E+03  0.00000000000E+00 0.  1.
          1   -1    0    0  501    0 -0.00000000000E+00 -0.00000000000E+00 -0.23423460307E+01  0.23423460307E+01  0.00000000000E+00 0.  1.
          2    1    1    2  501    0 -0.20344755334E+02 -0.21776687515E+02  0.41886466514E+03  0.41992349409E+03  0.00000000000E+00 0.  1.
          1    1    1    2  502    0  0.20344755334E+02  0.21776687515E+02  0.12065903750E+03  0.12428490060E+03  0.00000000000E+00 0.  1.
</event>
<event>
 4    1  0.3593938E+003  0.2132328E+02  0.7546771E-02  0.1514699E+00
          2   -1    0    0  502    0  0.00000000000E+00  0.00000000000E+00  0.94540706490E+02  0.94540706490E+02  0.00000000000E+00 0.  1.
          1   -1    0    0  501    0 -0.00000000000E+00 -0.00000000000E+00 -0.10165836156E+03  0.10165836156E+03  0.00000000000E+00 0. -1.
          2    1    1    2  501    0 -0.14531193221E+02  0.15605342125E+02  0.92192084277E+02  0.94625909151E+02  0.00000000000E+00 0.  1.
          1    1    1    2  502    0  0.14531193221E+02 -0.15605342125E+02 -0.99309739349E+02  0.10157315890E+03  0.00000000000E+00 0. -1.
</event>
<event>
 4    1  0.3593938E+003  0.2603004E+02  0.7546771E-02  0.1457603E+00
          2   -1    0    0  502    0  0.00000000000E+00  0.00000000000E+00  0.22150527674E+03  0.22150527674E+03  0.00000000000E+00 0.  1.
          1   -1    0    0  501    0 -0.00000000000E+00 -0.00000000000E+00 -0.69932438648E+01  0.69932438648E+01  0.00000000000E+00 0. -1.
          2    1    1    2  501    0 -0.10082047490E+02 -0.23998229986E+02  0.19294996606E+03  0.19469784828E+03  0.00000000000E+00 0.  1.
          1    1    1    2  502    0  0.10082047490E+02  0.23998229986E+02  0.21562066818E+02  0.33800672323E+02  0.00000000000E+00 0. -1.
</event>
<event>
 4    1  0.3593938E+003  0.3305337E+02  0.7546771E-02  0.1394790E+00
          2   -1    0    0  502    0  0.00000000000E+00  0.00000000000E+00  0.59457411083E+03  0.59457411083E+03  0.00000000000E+00 0. -1.
          1   -1    0    0  501    0 -0.00000000000E+00 -0.00000000000E+00 -0.19639569594E+01  0.19639569594E+01  0.00000000000E+00 0.  1.
          2    1    1    2  501    0  0.32951079711E+02  0.25983926705E+01  0.37199305847E+03  0.37345864678E+03  0.00000000000E+00 0. -1.
          1    1    1    2  502    0 -0.32951079711E+02 -0.25983926705E+01  0.22061709539E+03  0.22307942101E+03  0.00000000000E+00 0.  1.
</event>
<event>
 4    1  0.3593938E+003  0.2210628E+02  0.7546771E-02  0.1504036E+00
          2   -1    0    0  502    0  0.00000000000E+00  0.00000000000E+00  0.13173912391E+02  0.13173912391E+02  0.00000000000E+00 0. -1.
          1   -1    0    0  501    0 -0.00000000000E+00 -0.00000000000E+00 -0.37095059525E+02  0.37095059525E+02  0.00000000000E+00 0. -1.
          2    1    1    2  501    0 -0.83906086446E+01 -0.20452010154E+02 -0.11966960375E+02  0.25137525204E+02  0.00000000000E+00 0. -1.
          1    1    1    2  502    0  0.83906086446E+01  0.20452010154E+02 -0.11954186758E+02  0.25131446711E+02  0.00000000000E+00 0. -1.
</event>
<event>
 4    1  0.3593938E+003  0.2186394E+02  0.7546771E-02  0.1507279E+00
          2   -1    0    0  502    0  0.00000000000E+00  0.00000000000E+00  0.74406594486E+02  0.74406594486E+02  0.00000000000E+00 0.  1.
          1   -1    0    0  501    0 -0.00000000000E+00 -0.00000000000E+00 -0.43439280897E+02  0.43439280897E+02  0.00000000000E+00 0. -1.
          2    1    1    2  501    0  0.21833350859E+02 -0.11560893361E+01  0.69875045811E+02  0.73215802798E+02  0.00000000000E+00 0.  1.
          1    1    1    2  502    0 -0.21833350859E+02  0.11560893361E+01 -0.38907732222E+02  0.44630072585E+02  0.00000000000E+00 0. -1.
</event>
<event>
 4    1  0.3593938E+003  0.3361016E+02  0.7546771E-02  0.1390606E+00
          2   -1    0    0  502    0  0.00000000000E+00  0.00000000000E+00  0.13599945148E+02  0.13599945148E+02  0.00000000000E+00 0.  1.
          1   -1    0    0  501    0 -0.00000000000E+00 -0.00000000000E+00 -0.25379987638E+03  0.25379987638E+03  0.00000000000E+00 0.  1.
          2    1    1    2  501    0 -0.25394629932E+02 -0.22017165240E+02 -0.10439530736E+02  0.35194127302E+02  0.00000000000E+00 0.  1.
          1    1    1    2  502    0  0.25394629932E+02  0.22017165240E+02 -0.22976040049E+03  0.23220569422E+03  0.00000000000E+00 0.  1.
</event>
<event>
 4    1  0.3593938E+003  0.2570042E+02  0.7546771E-02  0.1461118E+00
          2   -1    0    0  502    0  0.00000000000E+00  0.00000000000E+00  0.44795263019E+00  0.44795263019E+00  0.00000000000E+00 0.  1.
          1   -1    0    0  501    0 -0.00000000000E+00 -0.00000000000E+00 -0.22139992013E+04  0.22139992013E+04  0.00000000000E+00 0.  1.
          2    1    1    2  501    0 -0.20074756424E+02 -0.16047270895E+02 -0.17466761063E+04  0.17468651726E+04  0.00000000000E+00 0.  1.
          1    1    1    2  502    0  0.20074756424E+02  0.16047270895E+02 -0.46687514239E+03  0.46758198140E+03  0.00000000000E+00 0.  1.
</event>
<event>
 4    1  0.3593938E+003  0.7470631E+02  0.7546771E-02  0.1216701E+00
          2   -1    0    0  502    0  0.00000000000E+00  0.00000000000E+00  0.11285970152E+03  0.11285970152E+03  0.00000000000E+00 0. -1.
          1   -1    0    0  501    0 -0.00000000000E+00 -0.00000000000E+00 -0.18912696691E+03  0.18912696691E+03  0.00000000000E+00 0. -1.
          2    1    1    2  501    0 -0.72884200406E+02  0.16398978395E+02  0.91626648672E+02  0.11822214644E+03  0.00000000000E+00 0. -1.
          1    1    1    2  502    0  0.72884200406E+02 -0.16398978395E+02 -0.16789391406E+03  0.18376452199E+03  0.00000000000E+00 0. -1.
</event>
<event>
 4    1  0.3593938E+003  0.2462922E+02  0.7546771E-02  0.1472994E+00
          2   -1    0    0  502    0  0.00000000000E+00  0.00000000000E+00  0.49614731281E+03  0.49614731281E+03  0.00000000000E+00 0.  1.
          1   -1    0    0  501    0 -0.00000000000E+00 -0.00000000000E+00 -0.25586245404E+01  0.25586245404E+01  0.00000000000E+00 0. -1.
          2    1    1    2  501    0 -0.14388945750E+02 -0.19988914678E+02  0.42697808901E+03  0.42768783823E+03  0.00000000000E+00 0.  1.
          1    1    1    2  502    0  0.14388945750E+02  0.19988914678E+02  0.66610599253E+02  0.71018099120E+02  0.00000000000E+00 0. -1.
</event>
<event>
 4    1  0.3593938E+003  0.2490630E+02  0.7546771E-02  0.1469854E+00
          2   -1    0    0  502    0  0.00000000000E+00  0.00000000000E+00  0.52713543526E+02  0.52713543526E+02  0.00000000000E+00 0.  1.
          1   -1    0    0  501    0 -0.00000000000E+00 -0.00000000000E+00 -0.10402146291E+03  0.10402146291E+03  0.00000000000E+00 0.  1.
          2    1    1    2  501    0 -0.94249780580E+00  0.24888460808E+02  0.48147725912E+02  0.54208184751E+02  0.00000000000E+00 0.  1.
          1    1    1    2  502    0  0.94249780580E+00 -0.24888460808E+02 -0.99455645299E+02  0.10252682169E+03  0.00000000000E+00 0.  1.
</event>
<event>
 4    1  0.3593938E+003  0.2045940E+02  0.7546771E-02  0.1527125E+00
          2   -1    0    0  502    0  0.00000000000E+00  0.00000000000E+00  0.99179296934E+02  0.99179296934E+02  0.00000000000E+00 0.  1.
          1   -1    0    0  501    0 -0.00000000000E+00 -0.00000000000E+00 -0.17987834247E+02  0.17987834247E+02  0.00000000000E+00 0.  1.
          2    1    1    2  501    0 -0.20280426455E+02 -0.27002445385E+01  0.91847772243E+02  0.94098885667E+02  0.00000000000E+00 0.  1.
          1    1    1    2  502    0  0.20280426455E+02  0.27002445385E+01 -0.10656309557E+02  0.23068245514E+02  0.00000000000E+00 0.  1.
</event>
<event>
 4    1  0.3593938E+003  0.2488759E+02  0.7546771E-02  0.1470065E+00
          2   -1    0    0  502    0  0.00000000000E+00  0.00000000000E+00  0.36612206760E+03  0.36612206760E+03  0.00000000000E+00 0.  1.
          1   -1    0    0  501    0 -0.00000000000E+00 -0.00000000000E+00 -0.36040905556E+03  0.36040905556E+03  0.00000000000E+00 0.  1.
          2    1    1    2  501    0  0.24875900318E+02  0.76262074788E+00  0.36526847867E+03  0.36611535548E+03  0.00000000000E+00 0.  1.
          1    1    1    2  502    0 -0.24875900318E+02 -0.76262074788E+00 -0.35955546663E+03  0.36041576768E+03  0.00000000000E+00 0.  1.
</event>
<event>
 4    1  0.3593938E+003  0.4213201E+02  0.7546771E-02  0.1336426E+00
          2   -1    0    0  502    0  0.00000000000E+00  0.00000000000E+00  0.28673329030E+02  0.28673329030E+02  0.00000000000E+00 0. -1.
          1   -1    0    0  501    0 -0.00000000000E+00 -0.00000000000E+00 -0.92063086736E+02  0.92063086736E+02  0.00000000000E+00 0. -1.
          2    1    1    2  501    0  0.36165689859E+02  0.21613624039E+02  0.28549943552E+01  0.42228626071E+02  0.00000000000E+00 0. -1.
          1    1    1    2  502    0 -0.36165689859E+02 -0.21613624039E+02 -0.66244752062E+02  0.78507789695E+02  0.00000000000E+00 0. -1.
</event>
<event>
 4    1  0.3593938E+003  0.4420076E+02  0.7546771E-02  0.1325485E+00
          2   -1    0    0  502    0  0.00000000000E+00  0.00000000000E+00  0.18501767869E+04  0.18501767869E+04  0.00000000000E+00 0. -1.
          1   -1    0    0  501    0 -0.00000000000E+00 -0.00000000000E+00 -0.47435322977E+01  0.47435322977E+01  0.00000000000E+00 0.  1.
          2    1    1    2  501    0  0.39642188133E+02  0.19550029819E+02  0.17404557815E+04  0.17410169540E+04  0.00000000000E+00 0. -1.
          1    1    1    2  502    0 -0.39642188133E+02 -0.19550029819E+02  0.10497747314E+03  0.11390336524E+03  0.00000000000E+00 0.  1.
</event>
<event>
 4    1  0.3593938E+003  0.3010876E+02  0.7546771E-02  0.1418654E+00
          2   -1    0    0  502    0  0.00000000000E+00  0.00000000000E+00  0.41997663290E+01  0.41997663290E+01  0.00000000000E+00 0. -1.
          1   -1    0    0  501    0 -0.00000000000E+00 -0.00000000000E+00 -0.97743663120E+03  0.97743663120E+03  0.00000000000E+00 0. -1.
          2    1    1    2  501    0  0.41323064400E+01 -0.29823841843E+02 -0.53372204676E+02  0.61279113332E+02  0.00000000000E+00 0. -1.
          1    1    1    2  502    0 -0.41323064400E+01  0.29823841843E+02 -0.91986466019E+03  0.92035728419E+03  0.00000000000E+00 0. -1.
</event>
<event>
 4    1  0.3593938E+003  0.4971045E+02  0.7546771E-02  0.1299433E+00
          2   -1    0    0  502    0  0.00000000000E+00  0.00000000000E+00  0.21627313985E+03  0.21627313985E+03  0.00000000000E+00 0. -1.
          1   -1    0    0  501    0 -0.00000000000E+00 -0.00000000000E+00 -0.36151012185E+03  0.36151012185E+03  0.00000000000E+00 0. -1.
          2    1    1    2  501    0 -0.57851780948E+01 -0.49372671818E+02  0.21167110038E+03  0.21742995135E+03  0.00000000000E+00 0. -1.
          1    1    1    2  502    0  0.57851780948E+01  0.49372671818E+02 -0.35690808238E+03  0.36035331034E+03  0.00000000000E+00 0. -1.
</event>
<event>
 4    1  0.3593938E+003  0.2294379E+02  0.7546771E-02  0.1493205E+00
          2   -1    0    0  502    0  0.00000000000E+00  0.00000000000E+00  0.14593896034E+02  0.14593896034E+02  0.00000000000E+00 0. -1.
          1   -1    0    0  501    0 -0.00000000000E+00 -0.00000000000E+00 -0.11868256442E+03  0.11868256442E+03  0.00000000000E+00 0. -1.
          2    1    1    2  501    0 -0.14812751208E+01 -0.22895919919E+02  0.35525245906E+01  0.23217186649E+02  0.00000000000E+00 0. -1.
          1    1    1    2  502    0  0.14812751208E+01  0.22895919919E+02 -0.10764119298E+03  0.11005927381E+03  0.00000000000E+00 0. -1.
</event>
<event>
 4    1  0.3593938E+003  0.2356822E+02  0.7546771E-02  0.1485484E+00
          2   -1    0    0  502    0  0.00000000000E+00  0.00000000000E+00  0.52576409589E+03  0.52576409589E+03  0.00000000000E+00 0.  1.
          1   -1    0    0  501    0 -0.00000000000E+00 -0.00000000000E+00 -0.10895298916E+01  0.10895298916E+01  0.00000000000E+00 0.  1.
          2    1    1    2  501    0  0.17660501340E+02  0.15606652955E+02  0.30821528830E+03  0.30911506735E+03  0.00000000000E+00 0.  1.
          1    1    1    2  502    0 -0.17660501340E+02 -0.15606652955E+02  0.21645927771E+03  0.21773855843E+03  0.00000000000E+00 0.  1.
</event>
<event>
 4    1  0.3593938E+003  0.3779431E+02  0.7546771E-02  0.1361919E+00
          2   -1    0    0  502    0  0.00000000000E+00  0.00000000000E+00  0.95413807132E+03  0.95413807132E+03  0.00000000000E+00 0.  1.
          1   -1    0    0  501    0 -0.00000000000E+00 -0.00000000000E+00 -0.42483816482E+01  0.42483816482E+01  0.00000000000E+00 0.  1.
          2    1    1    2  501    0  0.33590300762E+02 -0.17323434896E+02  0.86057319043E+03  0.86140270825E+03  0.00000000000E+00 0.  1.
          1    1    1    2  502    0 -0.33590300762E+02  0.17323434896E+02  0.89316499245E+02  0.96983744717E+02  0.00000000000E+00 0.  1.
</event>
<event>
 4    1  0.3593938E+003  0.2124136E+02  0.7546771E-02  0.1515847E+00
          2   -1    0    0  502    0  0.00000000000E+00  0.00000000000E+00  0.27528939058E+02  0.27528939058E+02  0.00000000000E+00 0.  1.
          1   -1    0    0  501    0 -0.00000000000E+00 -0.00000000000E+00 -0.17549542788E+02  0.17549542788E+02  0.00000000000E+00 0.  1.
          2    1    1    2  501    0 -0.57355061474E+01 -0.20452358968E+02 -0.80430831310E+00  0.21256573806E+02  0.00000000000E+00 0.  1.
          1    1    1    2  502    0  0.57355061474E+01  0.20452358968E+02  0.10783704583E+02  0.23821908040E+02  0.00000000000E+00 0.  1.
</event>
<event>
 4    1  0.3593938E+003  0.2673764E+02  0.7546771E-02  0.1450262E+00
          2   -1    0    0  502    0  0.00000000000E+00  0.00000000000E+00  0.95335086675E+03  0.95335086675E+03  0.00000000000E+00 0.  1.
          1   -1    0    0  501    0 -0.00000000000E+00 -0.00000000000E+00 -0.13107254202E+01  0.13107254202E+01  0.00000000000E+00 0.  1.
          2    1    1    2  501    0 -0.26216032751E+02  0.52555459896E+01  0.78825696055E+03  0.78871029979E+03  0.00000000000E+00 0.  1.
          1    1    1    2  502    0  0.26216032751E+02 -0.52555459896E+01  0.16378318078E+03  0.16595129238E+03  0.00000000000E+00 0.  1.
</event>
<event>
 4    1  0.3593938E+003  0.5155918E+02  0.7546771E-02  0.1291550E+00
          2   -1    0    0  502    0  0.00000000000E+00  0.00000000000E+00  0.22083151480E+03  0.22083151480E+03  0.00000000000E+00 0.  1.
          1   -1    0    0  501    0 -0.00000000000E+00 -0.00000000000E+00 -0.92639808108E+03  0.92639808108E+03  0.00000000000E+00 0.  1.
          2    1    1    2  501    0  0.32714349630E+02 -0.39851222792E+02  0.21709246411E+03  0.22313109735E+03  0.00000000000E+00 0.  1.
          1    1    1    2  502    0 -0.32714349630E+02  0.39851222792E+02 -0.92265903039E+03  0.92409849853E+03  0.00000000000E+00 0.  1.
</event>
<event>
 4    1  0.3593938E+003  0.2381880E+02  0.7546771E-02  0.1482465E+00
          2   -1    0    0  502    0  0.00000000000E+00  0.00000000000E+00  0.13741621661E+04  0.13741621661E+04  0.00000000000E+00 0. -1.
          1   -1    0    0  501    0 -0.00000000000E+00 -0.00000000000E+00 -0.63601886976E+02  0.63601886976E+02  0.00000000000E+00 0.  1.
          2    1    1    2  501    0  0.71106206813E+01 -0.22732669960E+02  0.13718251275E+04  0.13720318931E+04  0.00000000000E+00 0. -1.
          1    1    1    2  502    0 -0.71106206813E+01  0.22732669960E+02 -0.61264848377E+02  0.65732159987E+02  0.00000000000E+00 0.  1.
</event>
<event>
 4    1  0.3593938E+003  0.2190934E+02  0.7546771E-02  0.1506667E+00
          2   -1    0    0  502    0  0.00000000000E+00  0.00000000000E+00  0.23427978836E+03  0.23427978836E+03  0.00000000000E+00 0. -1.
          1   -1    0    0  501    0 -0.00000000000E+00 -0.00000000000E+00 -0.27665325179E+02  0.27665325179E+02  0.00000000000E+00 0.  1.
          2    1    1    2  501    0 -0.13343925148E+01  0.21868666480E+02  0.22933654126E+03  0.23038070305E+03  0.00000000000E+00 0. -1.
          1    1    1    2  502    0  0.13343925148E+01 -0.21868666480E+02 -0.22722078087E+02  0.31564410490E+02  0.00000000000E+00 0.  1.
</event>
<event>
 4    1  0.3593938E+003  0.3727312E+02  0.7546771E-02  0.1365251E+00
          2   -1    0    0  502    0  0.00000000000E+00  0.00000000000E+00  0.51157874491E+03  0.51157874491E+03  0.00000000000E+00 0.  1.
          1   -1    0    0  501    0 -0.00000000000E+00 -0.00000000000E+00 -0.77908201188E+03  0.77908201188E+03  0.00000000000E+00 0. -1.
          2    1    1    2  501    0 -0.36896232681E+02 -0.52871364665E+01  0.51045303368E+03  0.51181206062E+03  0.00000000000E+00 0.  1.
          1    1    1    2  502    0  0.36896232681E+02  0.52871364665E+01 -0.77795630066E+03  0.77884869617E+03  0.00000000000E+00 0. -1.
</event>
<event>
 4    1  0.3593938E+003  0.2952514E+02  0.7546771E-02  0.1423768E+00
          2   -1    0    0  502    0  0.00000000000E+00  0.00000000000E+00  0.41496490733E+03  0.41496490733E+03  0.00000000000E+00 0.  1.
          1   -1    0    0  501    0 -0.00000000000E+00 -0.00000000000E+00 -0.45267444653E+01  0.45267444653E+01  0.00000000000E+00 0.  1.
          2    1    1    2  501    0 -0.52644575959E+01  0.29052014371E+02  0.35876772697E+03  0.35998057721E+03  0.00000000000E+00 0.  1.
          1    1    1    2  502    0  0.52644575959E+01 -0.29052014371E+02  0.51670435894E+02  0.59511074585E+02  0.00000000000E+00 0.  1.
</event>
<event>
 4    1  0.3593938E+003  0.3022862E+02  0.7546771E-02  0.1417620E+00
          2   -1    0    0  502    0  0.00000000000E+00  0.00000000000E+00  0.36826332238E+01  0.36826332238E+01  0.00000000000E+00 0. -1.
          1   -1    0    0  501    0 -0.00000000000E+00 -0.00000000000E+00 -0.36622700109E+03  0.36622700109E+03  0.00000000000E+00 0. -1.
          2    1    1    2  501    0 -0.16767353581E+02  0.25152043205E+02 -0.76242736921E+02  0.82016610248E+02  0.00000000000E+00 0. -1.
          1    1    1    2  502    0  0.16767353581E+02 -0.25152043205E+02 -0.28630163095E+03  0.28789302407E+03  0.00000000000E+00 0. -1.
</event>
<event>
 4    1  0.3593938E+003  0.2331359E+02  0.7546771E-02  0.1488597E+00
          2   -1    0    0  502    0  0.00000000000E+00  0.00000000000E+00  0.16060525338E+03  0.16060525338E+03  0.00000000000E+00 0. -1.
          1   -1    0    0  501    0 -0.00000000000E+00 -0.00000000000E+00 -0.43722768867E+01  0.43722768867E+01  0.00000000000E+00 0. -1.
          2    1    1    2  501    0  0.21697516785E+02  0.85288491554E+01  0.11732965890E+03  0.11962346074E+03  0.00000000000E+00 0. -1.
          1    1    1    2  502    0 -0.21697516785E+02 -0.85288491554E+01  0.38903317590E+02  0.45354069520E+02  0.00000000000E+00 0. -1.
</event>
<event>
 4    1  0.6037349E+003  0.2410118E+02  0.7546771E-02  0.1479115E+00
          2   -1    0    0  502    0  0.00000000000E+00  0.00000000000E+00  0.11000462996E+04  0.11000462996E+04  0.00000000000E+00 0. -1.
          1   -1    0    0  501    0 -0.00000000000E+00 -0.00000000000E+00 -0.98640141675E+03  0.98640141675E+03  0.00000000000E+00 0. -1.
          2    1    1    2  501    0  0.23341532237E+02  0.60032953178E+01  0.10997670340E+04  0.11000310885E+04  0.00000000000E+00 0. -1.
          1    1    1    2  502    0 -0.23341532237E+02 -0.60032953178E+01 -0.98612215114E+03  0.98641662783E+03  0.00000000000E+00 0. -1.
</event>
<event>
 4    1  0.3593938E+003  0.2493404E+02  0.7546771E-02  0.1469543E+00
          2   -1    0    0  502    0  0.00000000000E+00  0.00000000000E+00  0.16039997700E+04  0.16039997700E+04  0.00000000000E+00 0. -1.
          1   -1    0    0  501    0 -0.00000000000E+00 -0.00000000000E+00 -0.19354210347E+01  0.19354210347E+01  0.00000000000E+00 0.  1.
          2    1    1    2  501    0  0.23907548762E+02  0.70806370116E+01  0.15191091690E+04  0.15193137838E+04  0.00000000000E+00 0. -1.
          1    1    1    2  502    0 -0.23907548762E+02 -0.70806370116E+01  0.82955179995E+02  0.86621407263E+02  0.00000000000E+00 0.  1.
</event>
<event>
 4    1  0.3593938E+003  0.3268254E+02  0.7546771E-02  0.1397631E+00
          2   -1    0    0  502    0  0.00000000000E+00  0.00000000000E+00  0.51965696037E+01  0.51965696037E+01  0.00000000000E+00 0.  1.
          1   -1    0    0  501    0 -0.00000000000E+00 -0.00000000000E+00 -0.10186230043E+04  0.10186230043E+04  0.00000000000E+00 0.  1.
          2    1    1    2  501    0 -0.23212439460E+02 -0.23007199338E+02 -0.49359947746E+02  0.59199265270E+02  0.00000000000E+00 0.  1.
          1    1    1    2  502    0  0.23212439460E+02  0.23007199338E+02 -0.96406648700E+03  0.96462030868E+03  0.00000000000E+00 0.  1.
</event>
<event>
 4    1  0.3593938E+003  0.2345286E+02  0.7546771E-02  0.1486889E+00
          2   -1    0    0  502    0  0.00000000000E+00  0.00000000000E+00  0.59366010826E+03  0.59366010826E+03  0.00000000000E+00 0.  1.
          1   -1    0    0  501    0 -0.00000000000E+00 -0.00000000000E+00 -0.46521375396E+02  0.46521375396E+02  0.00000000000E+00 0.  1.
          2    1    1    2  501    0 -0.23052462067E+02  0.43151727839E+01  0.59045662049E+03  0.59092220927E+03  0.00000000000E+00 0.  1.
          1    1    1    2  502    0  0.23052462067E+02 -0.43151727839E+01 -0.43317887635E+02  0.49259274382E+02  0.00000000000E+00 0.  1.
</event>
<event>
 4    1  0.3593938E+003  0.2002470E+02  0.7546771E-02  0.1533658E+00
          2   -1    0    0  502    0  0.00000000000E+00  0.00000000000E+00  0.11487771087E+04  0.11487771087E+04  0.00000000000E+00 0. -1.
          1   -1    0    0  501    0 -0.00000000000E+00 -0.00000000000E+00 -0.10851266538E+01  0.10851266538E+01  0.00000000000E+00 0. -1.
          2    1    1    2  501    0 -0.16905126214E+02  0.10733377829E+02  0.10473624246E+04  0.10475538350E+04  0.00000000000E+00 0. -1.
          1    1    1    2  502    0  0.16905126214E+02 -0.10733377829E+02  0.10032955738E+03  0.10230840032E+03  0.00000000000E+00 0. -1.
</event>
<event>
 4    1  0.3593938E+003  0.3335515E+02  0.7546771E-02  0.1392511E+00
          2   -1    0    0  502    0  0.00000000000E+00  0.00000000000E+00  0.17954726365E+04  0.17954726365E+04  0.00000000000E+00 0. -1.
          1   -1    0    0  501    0 -0.00000000000E+00 -0.00000000000E+00 -0.14988935709E+01  0.14988935709E+01  0.00000000000E+00 0.  1.
          2    1    1    2  501    0 -0.23953135366E+02 -0.23212359105E+02  0.15851322075E+04  0.15854831066E+04  0.00000000000E+00 0. -1.
          1    1    1    2  502    0  0.23953135366E+02  0.23212359105E+02  0.20884153551E+03  0.21148842348E+03  0.00000000000E+00 0.  1.
</event>
<event>
 4    1  0.3593938E+003  0.3686746E+02  0.7546771E-02  0.1367889E+00
          2   -1    0    0  502    0  0.00000000000E+00  0.00000000000E+00  0.16603622059E+03  0.16603622059E+03  0.00000000000E+00 0. -1.
          1   -1    0    0  501    0 -0.00000000000E+00 -0.00000000000E+00 -0.24439328887E+02  0.24439328887E+02  0.00000000000E+00 0. -1.
          2    1    1    2  501    0 -0.32880672454E+02 -0.16675469724E+02  0.14846477036E+03  0.15297384727E+03  0.00000000000E+00 0. -1.
          1    1    1    2  502    0  0.32880672454E+02  0.16675469724E+02 -0.68678786508E+01  0.37501702211E+02  0.00000000000E+00 0. -1.
</event>
<event>
 4    1  0.3593938E+003  0.3976171E+02  0.7546771E-02  0.1349888E+00
          2   -1    0    0  502    0  0.00000000000E+00  0.00000000000E+00  0.54267898476E+02  0.54267898476E+02  0.00000000000E+00 0. -1.
          1   -1    0    0  501    0 -0.00000000000E+00 -0.00000000000E+00 -0.36345731368E+02  0.36345731368E+02  0.00000000000E+00 0.  1.
          2    1    1    2  501    0  0.38408650140E+02  0.10284429066E+02  0.29143943670E+02  0.49298715394E+02  0.00000000000E+00 0. -1.
          1    1    1    2  502    0 -0.38408650140E+02 -0.10284429066E+02 -0.11221776563E+02  0.41314914450E+02  0.00000000000E+00 0.  1.
</event>
<event>
 4    1  0.3593938E+003  0.3845707E+02  0.7546771E-02  0.1357772E+00
          2   -1    0    0  502    0  0.00000000000E+00  0.00000000000E+00  0.44017011221E+03  0.44017011221E+03  0.00000000000E+00 0. -1.
          1   -1    0    0  501    0 -0.00000000000E+00 -0.00000000000E+00 -0.12967141060E+02  0.12967141060E+02  0.00000000000E+00 0. -1.
          2    1    1    2  501    0 -0.24741928458E+02 -0.29441181408E+02  0.40862008900E+03  0.41042578297E+03  0.00000000000E+00 0. -1.
          1    1    1    2  502    0  0.24741928458E+02  0.29441181408E+02  0.18582882144E+02  0.42711470301E+02  0.00000000000E+00 0. -1.
</event>
<event>
 4    1  0.3593938E+003  0.2016580E+02  0.7546771E-02  0.1531516E+00
          2   -1    0    0  502    0  0.00000000000E+00  0.00000000000E+00  0.11250524819E+04  0.11250524819E+04  0.00000000000E+00 0.  1.
          1   -1    0    0  501    0 -0.00000000000E+00 -0.00000000000E+00 -0.96657668960E+00  0.96657668960E+00  0.00000000000E+00 0.  1.
          2    1    1    2  501    0 -0.16439259881E+02 -0.11679473265E+02  0.10075122995E+04  0.10077140929E+04  0.00000000000E+00 0.  1.
          1    1    1    2  502    0  0.16439259881E+02  0.11679473265E+02  0.11657360566E+03  0.11830496565E+03  0.00000000000E+00 0.  1.
</event>
<event>
 4    1  0.3593938E+003  0.2413395E+02  0.7546771E-02  0.1478730E+00
          2   -1    0    0  502    0  0.00000000000E+00  0.00000000000E+00  0.66792878223E+01  0.66792878223E+01  0.00000000000E+00 0.  1.
          1   -1    0    0  501    0 -0.00000000000E+00 -0.00000000000E+00 -0.39210450829E+03  0.39210450829E+03  0.00000000000E+00 0. -1.
          2    1    1    2  501    0  0.24129162300E+02  0.48053732744E+00 -0.16884999730E+02  0.29454212013E+02  0.00000000000E+00 0.  1.
          1    1    1    2  502    0 -0.24129162300E+02 -0.48053732744E+00 -0.36854022074E+03  0.36932958410E+03  0.00000000000E+00 0. -1.
</event>
<event>
 4    1  0.3593938E+003  0.2257170E+02  0.7546771E-02  0.1497948E+00
          2   -1    0    0  502    0  0.00000000000E+00  0.00000000000E+00  0.26847631163E+01  0.26847631163E+01  0.00000000000E+00 0. -1.
          1   -1    0    0  501    0 -0.00000000000E+00 -0.00000000000E+00 -0.15869974821E+04  0.15869974821E+04  0.00000000000E+00 0. -1.
          2    1    1    2  501    0 -0.22538315098E+02 -0.12271615275E+01 -0.46349949438E+02  0.51553849379E+02  0.00000000000E+00 0. -1.
          1    1    1    2  502    0  0.22538315098E+02  0.12271615275E+01 -0.15379627696E+04  0.15381283959E+04  0.00000000000E+00 0. -1.
</event>
<event>
 4    1  0.3593938E+003  0.3173886E+02  0.7546771E-02  0.1405064E+00
          2   -1    0    0  502    0  0.00000000000E+00  0.00000000000E+00  0.15413333408E+02  0.15413333408E+02  0.00000000000E+00 0.  1.
          1   -1    0    0  501    0 -0.00000000000E+00 -0.00000000000E+00 -0.60274956023E+03  0.60274956023E+03  0.00000000000E+00 0. -1.
          2    1    1    2  501    0 -0.29756446181E+02 -0.11041254888E+02 -0.18241780586E+01  0.31791241316E+02  0.00000000000E+00 0.  1.
          1    1    1    2  502    0  0.29756446181E+02  0.11041254888E+02 -0.58551204876E+03  0.58637165232E+03  0.00000000000E+00 0. -1.
</event>
<event>
 4    1  0.3593938E+003  0.3860505E+02  0.7546771E-02  0.1356860E+00
          2   -1    0    0  502    0  0.00000000000E+00  0.00000000000E+00  0.64523817558E+02  0.64523817558E+02  0.00000000000E+00 0.  1.
          1   -1    0    0  501    0 -0.00000000000E+00 -0.00000000000E+00 -0.43256149675E+03  0.43256149675E+03  0.00000000000E+00 0. -1.
          2    1    1    2  501    0  0.38061628829E+02 -0.64546246814E+01  0.57797018677E+02  0.69504281429E+02  0.00000000000E+00 0.  1.
          1    1    1    2  502    0 -0.38061628829E+02  0.64546246814E+01 -0.42583469787E+03  0.42758103288E+03  0.00000000000E+00 0. -1.
</event>
<event>
 4    1  0.3593938E+003  0.2281304E+02  0.7546771E-02  0.1494859E+00
          2   -1    0    0  502    0  0.00000000000E+00  0.00000000000E+00  0.11928080962E+04  0.11928080962E+04  0.00000000000E+00 0. -1.
          1   -1    0    0  501    0 -0.00000000000E+00 -0.00000000000E+00 -0.69236900416E+01  0.69236900416E+01  0.00000000000E+00 0.  1.
          2    1    1    2  501    0  0.22782837233E+02  0.11734570473E+01  0.11735996700E+04  0.11738213749E+04  0.00000000000E+00 0. -1.
          1    1    1    2  502    0 -0.22782837233E+02 -0.11734570473E+01  0.12284736114E+02  0.25910411329E+02  0.00000000000E+00 0.  1.
</event>
<event>
 4    1  0.3593938E+003  0.2507856E+02  0.7546771E-02  0.1467926E+00
          2   -1    0    0  502    0  0.00000000000E+00  0.00000000000E+00  0.28471532338E+01  0.28471532338E+01  0.00000000000E+00 0.  1.
          1   -1    0    0  501    0 -0.00000000000E+00 -0.00000000000E+00 -0.36181428947E+03  0.36181428947E+03  0.00000000000E+00 0. -1.
          2    1    1    2  501    0 -0.75434241568E+01  0.23917164480E+02 -0.65695775905E+02  0.70319762347E+02  0.00000000000E+00 0.  1.
          1    1    1    2  502    0  0.75434241568E+01 -0.23917164480E+02 -0.29327136033E+03  0.29434168035E+03  0.00000000000E+00 0. -1.
</event>
<event>
 4    1  0.3593938E+003  0.2988013E+02  0.7546771E-02  0.1420641E+00
          2   -1    0    0  502    0  0.00000000000E+00  0.00000000000E+00  0.45218166981E+02  0.45218166981E+02  0.00000000000E+00 0.  1.
          1   -1    0    0  501    0 -0.00000000000E+00 -0.00000000000E+00 -0.51202481190E+03  0.51202481190E+03  0.00000000000E+00 0. -1.
          2    1    1    2  501    0  0.23241820427E+02 -0.18778712139E+02  0.39793234179E+02  0.49762674092E+02  0.00000000000E+00 0.  1.
          1    1    1    2  502    0 -0.23241820427E+02  0.18778712139E+02 -0.50659987910E+03  0.50748030479E+03  0.00000000000E+00 0. -1.
</event>
<event>
 4    1  0.3593938E+003  0.8645180E+02  0.7546771E-02  0.1189612E+00
          2   -1    0    0  502    0  0.00000000000E+00  0.00000000000E+00  0.20594824163E+04  0.20594824163E+04  0.00000000000E+00 0. -1.
          1   -1    0    0  501    0 -0.00000000000E+00 -0.00000000000E+00 -0.54548925889E+01  0.54548925889E+01  0.00000000000E+00 0.  1.
          2    1    1    2  501    0  0.82565402512E+02 -0.25629425291E+02  0.16243493857E+04  0.16266483455E+04  0.00000000000E+00 0. -1.
          1    1    1    2  502    0 -0.82565402512E+02  0.25629425291E+02  0.42967813797E+03  0.43828896334E+03  0.00000000000E+00 0.  1.
</event>
<event>
 4    1  0.3593938E+003  0.2249940E+02  0.7546771E-02  0.1498882E+00
          2   -1    0    0  502    0  0.00000000000E+00  0.00000000000E+00  0.30417237335E+01  0.30417237335E+01  0.00000000000E+00 0. -1.
          1   -1    0    0  501    0 -0.00000000000E+00 -0.00000000000E+00 -0.27930867493E+03  0.27930867493E+03  0.00000000000E+00 0.  1.
          2    1    1    2  501    0  0.90155664623E+01  0.20614134041E+02 -0.48384565879E+02  0.53359996029E+02  0.00000000000E+00 0. -1.
          1    1    1    2  502    0 -0.90155664623E+01 -0.20614134041E+02 -0.22788238532E+03  0.22899040264E+03  0.00000000000E+00 0.  1.
</event>
<event>
 4    1  0.3593938E+003  0.2106433E+02  0.7546771E-02  0.1518348E+00
          2   -1    0    0  502    0  0.00000000000E+00  0.00000000000E+00  0.42861420942E+03  0.42861420942E+03  0.00000000000E+00 0. -1.
          1   -1    0    0  501    0 -0.00000000000E+00 -0.00000000000E+00 -0.25144349386E+01  0.25144349386E+01  0.00000000000E+00 0.  1.
          2    1    1    2  501    0 -0.19531086715E+02 -0.78893918222E+01  0.37838829273E+03  0.37897414942E+03  0.00000000000E+00 0. -1.
          1    1    1    2  502    0  0.19531086715E+02  0.78893918222E+01  0.47711481745E+02  0.52154494935E+02  0.00000000000E+00 0.  1.
</event>
<event>
 4    1  0.3593938E+003  0.2146775E+02  0.7546771E-02  0.1512690E+00
          2   -1    0    0  502    0  0.00000000000E+00  0.00000000000E+00  0.43383078974E+03  0.43383078974E+03  0.00000000000E+00 0.  1.
          1   -1    0    0  501    0 -0.00000000000E+00 -0.00000000000E+00 -0.97031297471E+01  0.97031297471E+01  0.00000000000E+00 0. -1.
          2    1    1    2  501    0 -0.70835428845E+01  0.20265435782E+02  0.42133928689E+03  0.42188583662E+03  0.00000000000E+00 0.  1.
          1    1    1    2  502    0  0.70835428845E+01 -0.20265435782E+02  0.27883731068E+01  0.21648082867E+02  0.00000000000E+00 0. -1.
</event>
<event>
 4    1  0.3593938E+003  0.3148824E+02  0.7546771E-02  0.1407090E+00
          2   -1    0    0  502    0  0.00000000000E+00  0.00000000000E+00  0.19587258727E+03  0.19587258727E+03  0.00000000000E+00 0.  1.
          1   -1    0    0  501    0 -0.00000000000E+00 -0.00000000000E+00 -0.15642030548E+02  0.15642030548E+02  0.00000000000E+00 0.  1.
          2    1    1    2  501    0 -0.14729319724E+02 -0.27830856853E+02  0.17709280110E+03  0.17987042462E+03  0.00000000000E+00 0.  1.
          1    1    1    2  502    0  0.14729319724E+02  0.27830856853E+02  0.31377556234E+01  0.31644193197E+02  0.00000000000E+00 0.  1.
</event>
<event>
 4    1  0.3593938E+003  0.2331645E+02  0.7546771E-02  0.1488562E+00
          2   -1    0    0  502    0  0.00000000000E+00  0.00000000000E+00  0.32509507018E+03  0.32509507018E+03  0.00000000000E+00 0. -1.
          1   -1    0    0  501    0 -0.00000000000E+00 -0.00000000000E+00 -0.90769448685E+03  0.90769448685E+03  0.00000000000E+00 0. -1.
          2    1    1    2  501    0 -0.18141174646E+02 -0.14647679521E+02  0.32452699761E+03  0.32536353347E+03  0.00000000000E+00 0. -1.
          1    1    1    2  502    0  0.18141174646E+02  0.14647679521E+02 -0.90712641428E+03  0.90742602355E+03  0.00000000000E+00 0. -1.
</event>
<event>
 4    1  0.3593938E+003  0.2014828E+02  0.7546771E-02  0.1531781E+00
          2   -1    0    0  502    0  0.00000000000E+00  0.00000000000E+00  0.21130853665E+03  0.21130853665E+03  0.00000000000E+00 0. -1.
          1   -1    0    0  501    0 -0.00000000000E+00 -0.00000000000E+00 -0.10973586399E+02  0.10973586399E+02  0.00000000000E+00 0. -1.
          2    1    1    2  501    0  0.18829293608E+02 -0.71701434241E+01  0.20111210754E+03  0.20211885873E+03  0.00000000000E+00 0. -1.
          1    1    1    2  502    0 -0.18829293608E+02  0.71701434241E+01 -0.77715729157E+00  0.20163264318E+02  0.00000000000E+00 0. -1.
</event>
<event>
 4    1  0.3593938E+003  0.2804138E+02  0.7546771E-02  0.1437419E+00
          2   -1    0    0  502    0  0.00000000000E+00  0.00000000000E+00  0.12382006066E+03  0.12382006066E+03  0.00000000000E+00 0. -1.
          1   -1    0    0  501    0 -0.00000000000E+00 -0.00000000000E+00 -0.11895102713E+02  0.11895102713E+02  0.00000000000E+00 0. -1.
          2    1    1    2  501    0 -0.16764064934E+02 -0.22478547177E+02  0.10229112454E+03  0.10606504191E+03  0.00000000000E+00 0. -1.
          1    1    1    2  502    0  0.16764064934E+02  0.22478547177E+02  0.96338334026E+01  0.29650121455E+02  0.00000000000E+00 0. -1.
</event>
<event>
 4    1  0.3593938E+003  0.1649616E+03  0.7546771E-02  0.1083199E+00
          2   -1    0    0  502    0  0.00000000000E+00  0.00000000000E+00  0.52892732303E+03  0.52892732303E+03  0.00000000000E+00 0. -1.
          1   -1    0    0  501    0 -0.00000000000E+00 -0.00000000000E+00 -0.46144996610E+03  0.46144996610E+03  0.00000000000E+00 0.  1.
          2    1    1    2  501    0 -0.67304775853E+02  0.15060681076E+03  0.50050686264E+03  0.52699095234E+03  0.00000000000E+00 0. -1.
          1    1    1    2  502    0  0.67304775853E+02 -0.15060681076E+03 -0.43302950571E+03  0.46338633678E+03  0.00000000000E+00 0.  1.
</event>
<event>
 4    1  0.3593938E+003  0.2446456E+02  0.7546771E-02  0.1474883E+00
          2   -1    0    0  502    0  0.00000000000E+00  0.00000000000E+00  0.12585220340E+03  0.12585220340E+03  0.00000000000E+00 0.  1.
          1   -1    0    0  501    0 -0.00000000000E+00 -0.00000000000E+00 -0.86637962643E+03  0.86637962643E+03  0.00000000000E+00 0. -1.
          2    1    1    2  501    0  0.16104178471E+02  0.18416570128E+02  0.12448870045E+03  0.12686981974E+03  0.00000000000E+00 0.  1.
          1    1    1    2  502    0 -0.16104178471E+02 -0.18416570128E+02 -0.86501612349E+03  0.86536201009E+03  0.00000000000E+00 0. -1.
</event>
<event>
 4    1  0.3593938E+003  0.2131200E+02  0.7546771E-02  0.1514857E+00
          2   -1    0    0  502    0  0.00000000000E+00  0.00000000000E+00  0.51161949121E+02  0.51161949121E+02  0.00000000000E+00 0. -1.
          1   -1    0    0  501    0 -0.00000000000E+00 -0.00000000000E+00 -0.76180786293E+03  0.76180786293E+03  0.00000000000E+00 0. -1.
          2    1    1    2  501    0 -0.19456194163E+02  0.86981520207E+01  0.48786525158E+02  0.53238391945E+02  0.00000000000E+00 0. -1.
          1    1    1    2  502    0  0.19456194163E+02 -0.86981520207E+01 -0.75943243896E+03  0.75973142010E+03  0.00000000000E+00 0. -1.
</event>
<event>
 4    1  0.3593938E+003  0.2112954E+02  0.7546771E-02  0.1517423E+00
          2   -1    0    0  502    0  0.00000000000E+00  0.00000000000E+00  0.14931486347E+04  0.14931486347E+04  0.00000000000E+00 0. -1.
          1   -1    0    0  501    0 -0.00000000000E+00 -0.00000000000E+00 -0.20691308722E+03  0.20691308722E+03  0.00000000000E+00 0. -1.
          2    1    1    2  501    0  0.81919294340E+01  0.19476899644E+02  0.14925342355E+04  0.14926837915E+04  0.00000000000E+00 0. -1.
          1    1    1    2  502    0 -0.81919294340E+01 -0.19476899644E+02 -0.20629868803E+03  0.20737793038E+03  0.00000000000E+00 0. -1.
</event>
<event>
 4    1  0.3593938E+003  0.3452433E+02  0.7546771E-02  0.1383938E+00
          2   -1    0    0  502    0  0.00000000000E+00  0.00000000000E+00  0.48084812641E+02  0.48084812641E+02  0.00000000000E+00 0. -1.
          1   -1    0    0  501    0 -0.00000000000E+00 -0.00000000000E+00 -0.28283950479E+02  0.28283950479E+02  0.00000000000E+00 0. -1.
          2    1    1    2  501    0 -0.58852920616E+01  0.34018988173E+02 -0.35240012609E+01  0.34703700146E+02  0.00000000000E+00 0. -1.
          1    1    1    2  502    0  0.58852920616E+01 -0.34018988173E+02  0.23324863422E+02  0.41665062974E+02  0.00000000000E+00 0. -1.
</event>
<event>
 4    1  0.3593938E+003  0.2042174E+02  0.7546771E-02  0.1527683E+00
          2   -1    0    0  502    0  0.00000000000E+00  0.00000000000E+00  0.79923668374E+03  0.79923668374E+03  0.00000000000E+00 0. -1.
          1   -1    0    0  501    0 -0.00000000000E+00 -0.00000000000E+00 -0.43579041653E+01  0.43579041653E+01  0.00000000000E+00 0. -1.
          2    1    1    2  501    0 -0.20336611706E+02 -0.18626575976E+01  0.77441475550E+03  0.77468397479E+03  0.00000000000E+00 0. -1.
          1    1    1    2  502    0  0.20336611706E+02  0.18626575976E+01  0.20464024073E+02  0.28910613108E+02  0.00000000000E+00 0. -1.
</event>
<event>
 4    1  0.3593938E+003  0.2204658E+02  0.7546771E-02  0.1504830E+00
          2   -1    0    0  502    0  0.00000000000E+00  0.00000000000E+00  0.69638989797E+03  0.69638989797E+03  0.00000000000E+00 0. -1.
          1   -1    0    0  501    0 -0.00000000000E+00 -0.00000000000E+00 -0.13804099157E+02  0.13804099157E+02  0.00000000000E+00 0. -1.
          2    1    1    2  501    0 -0.21336265073E+02  0.55511648119E+01  0.68729630176E+03  0.68764980772E+03  0.00000000000E+00 0. -1.
          1    1    1    2  502    0  0.21336265073E+02 -0.55511648119E+01 -0.47105029500E+01  0.22544189409E+02  0.00000000000E+00 0. -1.
</event>
<event>
 4    1  0.3593938E+003  0.2581389E+02  0.7546771E-02  0.1459901E+00
          2   -1    0    0  502    0  0.00000000000E+00  0.00000000000E+00  0.14667168016E+04  0.14667168016E+04  0.00000000000E+00 0. -1.
          1   -1    0    0  501    0 -0.00000000000E+00 -0.00000000000E+00 -0.13047289282E+01  0.13047289282E+01  0.00000000000E+00 0. -1.
          2    1    1    2  501    0 -0.25798090810E+02 -0.90286934796E+00  0.13252990914E+04  0.13255504661E+04  0.00000000000E+00 0. -1.
          1    1    1    2  502    0  0.25798090810E+02  0.90286934796E+00  0.14011298131E+03  0.14247106441E+03  0.00000000000E+00 0. -1.
</event>
<event>
 4    1  0.3593938E+003  0.2203608E+02  0.7546771E-02  0.1504970E+00
          2   -1    0    0  502    0  0.00000000000E+00  0.00000000000E+00  0.32776998726E+01  0.32776998726E+01  0.00000000000E+00 0.  1.
          1   -1    0    0  501    0 -0.00000000000E+00 -0.00000000000E+00 -0.22110826138E+03  0.22110826138E+03  0.00000000000E+00 0. -1.
          2    1    1    2  501    0  0.89569257322E+01 -0.20133612472E+02 -0.44468298225E+02  0.49628806320E+02  0.00000000000E+00 0.  1.
          1    1    1    2  502    0 -0.89569257322E+01  0.20133612472E+02 -0.17336226328E+03  0.17475715493E+03  0.00000000000E+00 0. -1.
</event>
<event>
 4    1  0.3593938E+003  0.2848343E+02  0.7546771E-02  0.1433250E+00
          2   -1    0    0  502    0  0.00000000000E+00  0.00000000000E+00  0.82855130717E+03  0.82855130717E+03  0.00000000000E+00 0. -1.
          1   -1    0    0  501    0 -0.00000000000E+00 -0.00000000000E+00 -0.22004797872E+01  0.22004797872E+01  0.00000000000E+00 0. -1.
          2    1    1    2  501    0 -0.19276042501E+02 -0.20969980712E+02  0.72262695955E+03  0.72318810041E+03  0.00000000000E+00 0. -1.
          1    1    1    2  502    0  0.19276042501E+02  0.20969980712E+02  0.10372386784E+03  0.10756368655E+03  0.00000000000E+00 0. -1.
</event>
<event>
 4    1  0.3593938E+003  0.3140805E+02  0.7546771E-02  0.1407743E+00
          2   -1    0    0  502    0  0.00000000000E+00  0.00000000000E+00  0.76277565575E+03  0.76277565575E+03  0.00000000000E+00 0.  1.
          1   -1    0    0  501    0 -0.00000000000E+00 -0.00000000000E+00 -0.17992935738E+01  0.17992935738E+01  0.00000000000E+00 0. -1.
          2    1    1    2  501    0  0.18423499861E+02 -0.25436986589E+02  0.58322359898E+03  0.58406868778E+03  0.00000000000E+00 0.  1.
          1    1    1    2  502    0 -0.18423499861E+02  0.25436986589E+02  0.17775276320E+03  0.18050626155E+03  0.00000000000E+00 0. -1.
</event>
<event>
 4    1  0.3593938E+003  0.3742893E+02  0.7546771E-02  0.1364248E+00
          2   -1    0    0  502    0  0.00000000000E+00  0.00000000000E+00  0.11040496547E+03  0.11040496547E+03  0.00000000000E+00 0. -1.
          1   -1    0    0  501    0 -0.00000000000E+00 -0.00000000000E+00 -0.13742190009E+02  0.13742190009E+02  0.00000000000E+00 0.  1.
          2    1    1    2  501    0  0.17623848649E+02 -0.33020070656E+02  0.65515959085E+02  0.75453734183E+02  0.00000000000E+00 0. -1.
          1    1    1    2  502    0 -0.17623848649E+02  0.33020070656E+02  0.31146816379E+02  0.48693421300E+02  0.00000000000E+00 0.  1.
</event>
<event>
 4    1  0.3593938E+003  0.2888152E+02  0.7546771E-02  0.1429571E+00
          2   -1    0    0  502    0  0.00000000000E+00  0.00000000000E+00  0.17335955914E+01  0.17335955914E+01  0.00000000000E+00 0. -1.
          1   -1    0    0  501    0 -0.00000000000E+00 -0.00000000000E+00 -0.13383024090E+04  0.13383024090E+04  0.00000000000E+00 0. -1.
          2    1    1    2  501    0 -0.16715659116E+02 -0.23552680560E+02 -0.13207419758E+03  0.13519517628E+03  0.00000000000E+00 0. -1.
          1    1    1    2  502    0  0.16715659116E+02  0.23552680560E+02 -0.12044946158E+04  0.12048408283E+04  0.00000000000E+00 0. -1.
</event>
<event>
 4    1  0.3593938E+003  0.2758855E+02  0.7546771E-02  0.1441784E+00
          2   -1    0    0  502    0  0.00000000000E+00  0.00000000000E+00  0.13681431179E+02  0.13681431179E+02  0.00000000000E+00 0. -1.
          1   -1    0    0  501    0 -0.00000000000E+00 -0.00000000000E+00 -0.45938630526E+03  0.45938630526E+03  0.00000000000E+00 0. -1.
          2    1    1    2  501    0  0.11462542407E+02 -0.25094587183E+02 -0.11028677764E+01  0.27610586767E+02  0.00000000000E+00 0. -1.
          1    1    1    2  502    0 -0.11462542407E+02  0.25094587183E+02 -0.44460200630E+03  0.44545714967E+03  0.00000000000E+00 0. -1.
</event>
<event>
 4    1  0.3593938E+003  0.2355969E+02  0.7546771E-02  0.1485587E+00
          2   -1    0    0  502    0  0.00000000000E+00  0.00000000000E+00  0.93519270523E+03  0.93519270523E+03  0.00000000000E+00 0.  1.
          1   -1    0    0  501    0 -0.00000000000E+00 -0.00000000000E+00 -0.11994984804E+01  0.11994984804E+01  0.00000000000E+00 0.  1.
          2    1    1    2  501    0  0.13817663983E+02 -0.19082221611E+02  0.79977507529E+03  0.80012200950E+03  0.00000000000E+00 0.  1.
          1    1    1    2  502    0 -0.13817663983E+02  0.19082221611E+02  0.13421813145E+03  0.13627019421E+03  0.00000000000E+00 0.  1.
</event>
<event>
 4    1  0.3593938E+003  0.2281975E+02  0.7546771E-02  0.1494774E+00
          2   -1    0    0  502    0  0.00000000000E+00  0.00000000000E+00  0.12522189234E+04  0.12522189234E+04  0.00000000000E+00 0.  1.
          1   -1    0    0  501    0 -0.00000000000E+00 -0.00000000000E+00 -0.11025196756E+02  0.11025196756E+02  0.00000000000E+00 0. -1.
          2    1    1    2  501    0  0.21841711949E+02  0.66091230692E+01  0.12401924922E+04  0.12404024180E+04  0.00000000000E+00 0.  1.
          1    1    1    2  502    0 -0.21841711949E+02 -0.66091230692E+01  0.10012344876E+01  0.22841702193E+02  0.00000000000E+00 0. -1.
</event>
<event>
 4    1  0.3593938E+003  0.2104051E+02  0.7546771E-02  0.1518687E+00
          2   -1    0    0  502    0  0.00000000000E+00  0.00000000000E+00  0.60054586204E+02  0.60054586204E+02  0.00000000000E+00 0.  1.
          1   -1    0    0  501    0 -0.00000000000E+00 -0.00000000000E+00 -0.81531202330E+02  0.81531202330E+02  0.00000000000E+00 0.  1.
          2    1    1    2  501    0 -0.15214340303E+02  0.14533645166E+02  0.56778393365E+02  0.60551539582E+02  0.00000000000E+00 0.  1.
          1    1    1    2  502    0  0.15214340303E+02 -0.14533645166E+02 -0.78255009491E+02  0.81034248952E+02  0.00000000000E+00 0.  1.
</event>
<event>
 4    1  0.3593938E+003  0.4015287E+02  0.7546771E-02  0.1347592E+00
          2   -1    0    0  502    0  0.00000000000E+00  0.00000000000E+00  0.32112712313E+03  0.32112712313E+03  0.00000000000E+00 0. -1.
          1   -1    0    0  501    0 -0.00000000000E+00 -0.00000000000E+00 -0.70993460033E+01  0.70993460033E+01  0.00000000000E+00 0. -1.
          2    1    1    2  501    0  0.14434913442E+02 -0.37468467174E+02  0.24581829615E+03  0.24907606766E+03  0.00000000000E+00 0. -1.
          1    1    1    2  502    0 -0.14434913442E+02  0.37468467174E+02  0.68209480977E+02  0.79150401474E+02  0.00000000000E+00 0. -1.
</event>
<event>
 4    1  0.3593938E+003  0.2073365E+02  0.7546771E-02  0.1523102E+00
          2   -1    0    0  502    0  0.00000000000E+00  0.00000000000E+00  0.18857329068E+03  0.18857329068E+03  0.00000000000E+00 0. -1.
          1   -1    0    0  501    0 -0.00000000000E+00 -0.00000000000E+00 -0.34719585457E+02  0.34719585457E+02  0.00000000000E+00 0. -1.
          2    1    1    2  501    0 -0.15057353971E+02 -0.14253438840E+02  0.18484574495E+03  0.18600492964E+03  0.00000000000E+00 0. -1.
          1    1    1    2  502    0  0.15057353971E+02  0.14253438840E+02 -0.30992039723E+02  0.37287946492E+02  0.00000000000E+00 0. -1.
</event>
<event>
 4    1  0.3593938E+003  0.3589010E+02  0.7546771E-02  0.1374411E+00
          2   -1    0    0  502    0  0.00000000000E+00  0.00000000000E+00  0.14972842536E+01  0.14972842536E+01  0.00000000000E+00 0. -1.
          1   -1    0    0  501    0 -0.00000000000E+00 -0.00000000000E+00 -0.10404144385E+04  0.10404144385E+04  0.00000000000E+00 0.  1.
          2    1    1    2  501    0  0.31030056257E+02 -0.18034275252E+02 -0.30269644429E+03  0.30481672667E+03  0.00000000000E+00 0. -1.
          1    1    1    2  502    0 -0.31030056257E+02  0.18034275252E+02 -0.73622070996E+03  0.73709499609E+03  0.00000000000E+00 0.  1.
</event>
<event>
 4    1  0.3593938E+003  0.2126624E+02  0.7546771E-02  0.1515497E+00
          2   -1    0    0  502    0  0.00000000000E+00  0.00000000000E+00  0.31907341443E+03  0.31907341443E+03  0.00000000000E+00 0. -1.
          1   -1    0    0  501    0 -0.00000000000E+00 -0.00000000000E+00 -0.25651376936E+02  0.25651376936E+02  0.00000000000E+00 0. -1.
          2    1    1    2  501    0 -0.13383889466E+01  0.21224084793E+02  0.31424371209E+03  0.31496247975E+03  0.00000000000E+00 0. -1.
          1    1    1    2  502    0  0.13383889466E+01 -0.21224084793E+02 -0.20821674592E+02  0.29762311622E+02  0.00000000000E+00 0. -1.
</event>
<event>
 4    1  0.3593938E+003  0.2354951E+02  0.7546771E-02  0.1485711E+00
          2   -1    0    0  502    0  0.00000000000E+00  0.00000000000E+00  0.17612857194E+02  0.17612857194E+02  0.00000000000E+00 0.  1.
          1   -1    0    0  501    0 -0.00000000000E+00 -0.00000000000E+00 -0.22209815104E+03  0.22209815104E+03  0.00000000000E+00 0.  1.
          2    1    1    2  501    0  0.18620206457E+02 -0.14417606945E+02  0.87922364066E+01  0.25137281069E+02  0.00000000000E+00 0.  1.
          1    1    1    2  502    0 -0.18620206457E+02  0.14417606945E+02 -0.21327753025E+03  0.21457372716E+03  0.00000000000E+00 0.  1.
</event>
<event>
 4    1  0.3593938E+003  0.4328545E+02  0.7546771E-02  0.1330239E+00
          2   -1    0    0  502    0  0.00000000000E+00  0.00000000000E+00  0.20634284839E+02  0.20634284839E+02  0.00000000000E+00 0.  1.
          1   -1    0    0  501    0 -0.00000000000E+00 -0.00000000000E+00 -0.90804782786E+02  0.90804782786E+02  0.00000000000E+00 0.  1.
          2    1    1    2  501    0 -0.44266403350E+01  0.43058511829E+02 -0.34766889806E+02  0.55519070709E+02  0.00000000000E+00 0.  1.
          1    1    1    2  502    0  0.44266403350E+01 -0.43058511829E+02 -0.35403608141E+02  0.55919996916E+02  0.00000000000E+00 0.  1.
</event>
<event>
 4    1  0.3593938E+003  0.2563335E+02  0.7546771E-02  0.1461841E+00
          2   -1    0    0  502    0  0.00000000000E+00  0.00000000000E+00  0.17218839838E+04  0.17218839838E+04  0.00000000000E+00 0. -1.
          1   -1    0    0  501    0 -0.00000000000E+00 -0.00000000000E+00 -0.67314480570E+00  0.67314480570E+00  0.00000000000E+00 0.  1.
          2    1    1    2  501    0  0.20751044293E+02  0.15048674178E+02  0.14274227524E+04  0.14276528928E+04  0.00000000000E+00 0. -1.
          1    1    1    2  502    0 -0.20751044293E+02 -0.15048674178E+02  0.29378808665E+03  0.29490423579E+03  0.00000000000E+00 0.  1.
</event>
<event>
 4    1  0.3593938E+003  0.4975392E+02  0.7546771E-02  0.1299243E+00
          2   -1    0    0  502    0  0.00000000000E+00  0.00000000000E+00  0.14414528869E+03  0.14414528869E+03  0.00000000000E+00 0. -1.
          1   -1    0    0  501    0 -0.00000000000E+00 -0.00000000000E+00 -0.72153430119E+02  0.72153430119E+02  0.00000000000E+00 0.  1.
          2    1    1    2  501    0 -0.49297275238E+02 -0.67254192205E+01  0.13040164267E+03  0.13957091753E+03  0.00000000000E+00 0. -1.
          1    1    1    2  502    0  0.49297275238E+02  0.67254192205E+01 -0.58409784102E+02  0.76727801274E+02  0.00000000000E+00 0.  1.
</event>
<event>
 4    1  0.3593938E+003  0.2666415E+02  0.7546771E-02  0.1451011E+00
          2   -1    0    0  502    0  0.00000000000E+00  0.00000000000E+00  0.27130399518E+04  0.27130399518E+04  0.00000000000E+00 0.  1.
          1   -1    0    0  501    0 -0.00000000000E+00 -0.00000000000E+00 -0.33088912576E+00  0.33088912576E+00  0.00000000000E+00 0.  1.
          2    1    1    2  501    0 -0.28190841688E+01 -0.26514704199E+02  0.19751212063E+04  0.19753011812E+04  0.00000000000E+00 0.  1.
          1    1    1    2  502    0  0.28190841688E+01  0.26514704199E+02  0.73758785640E+03  0.73806965978E+03  0.00000000000E+00 0.  1.
</event>
<event>
 4    1  0.3593938E+003  0.2109853E+02  0.7546771E-02  0.1517863E+00
          2   -1    0    0  502    0  0.00000000000E+00  0.00000000000E+00  0.28127857691E+01  0.28127857691E+01  0.00000000000E+00 0. -1.
          1   -1    0    0  501    0 -0.00000000000E+00 -0.00000000000E+00 -0.14872821142E+04  0.14872821142E+04  0.00000000000E+00 0. -1.
          2    1    1    2  501    0  0.12444289724E+01 -0.21061795899E+02 -0.37941344081E+02  0.43413056108E+02  0.00000000000E+00 0. -1.
          1    1    1    2  502    0 -0.12444289724E+01  0.21061795899E+02 -0.14465279844E+04  0.14466818439E+04  0.00000000000E+00 0. -1.
</event>
<event>
 4    1  0.3593938E+003  0.6027060E+02  0.7546771E-02  0.1258916E+00
          2   -1    0    0  502    0  0.00000000000E+00  0.00000000000E+00  0.18055172067E+02  0.18055172067E+02  0.00000000000E+00 0.  1.
          1   -1    0    0  501    0 -0.00000000000E+00 -0.00000000000E+00 -0.23113306239E+03  0.23113306239E+03  0.00000000000E+00 0.  1.
          2    1    1    2  501    0 -0.47512544606E+02  0.37082378589E+02 -0.61694906767E+02  0.86248514293E+02  0.00000000000E+00 0.  1.
          1    1    1    2  502    0  0.47512544606E+02 -0.37082378589E+02 -0.15138298355E+03  0.16293972016E+03  0.00000000000E+00 0.  1.
</event>
<event>
 4    1  0.3593938E+003  0.2371374E+02  0.7546771E-02  0.1483725E+00
          2   -1    0    0  502    0  0.00000000000E+00  0.00000000000E+00  0.41312758695E+02  0.41312758695E+02  0.00000000000E+00 0.  1.
          1   -1    0    0  501    0 -0.00000000000E+00 -0.00000000000E+00 -0.56114871488E+02  0.56114871488E+02  0.00000000000E+00 0.  1.
          2    1    1    2  501    0 -0.16809037758E+02  0.16727148797E+02  0.34994787461E+02  0.42272643715E+02  0.00000000000E+00 0.  1.
          1    1    1    2  502    0  0.16809037758E+02 -0.16727148797E+02 -0.49796900254E+02  0.55154986467E+02  0.00000000000E+00 0.  1.
</event>
<event>
 4    1  0.3593938E+003  0.3045859E+02  0.7546771E-02  0.1415652E+00
          2   -1    0    0  502    0  0.00000000000E+00  0.00000000000E+00  0.53901372916E+01  0.53901372916E+01  0.00000000000E+00 0.  1.
          1   -1    0    0  501    0 -0.00000000000E+00 -0.00000000000E+00 -0.16172054841E+04  0.16172054841E+04  0.00000000000E+00 0.  1.
          2    1    1    2  501    0  0.23096775164E+02 -0.19856093512E+02 -0.38996321326E+02  0.49481699136E+02  0.00000000000E+00 0.  1.
          1    1    1    2  502    0 -0.23096775164E+02  0.19856093512E+02 -0.15728190255E+04  0.15731139222E+04  0.00000000000E+00 0.  1.
</event>
<event>
 4    1  0.3593938E+003  0.2257620E+02  0.7546771E-02  0.1497890E+00
          2   -1    0    0  502    0  0.00000000000E+00  0.00000000000E+00  0.88807780606E+01  0.88807780606E+01  0.00000000000E+00 0. -1.
          1   -1    0    0  501    0 -0.00000000000E+00 -0.00000000000E+00 -0.11437084166E+04  0.11437084166E+04  0.00000000000E+00 0.  1.
          2    1    1    2  501    0  0.32383405563E+01  0.22342735480E+02 -0.57647002107E+01  0.23300567521E+02  0.00000000000E+00 0. -1.
          1    1    1    2  502    0 -0.32383405563E+01 -0.22342735480E+02 -0.11290629384E+04  0.11292886272E+04  0.00000000000E+00 0.  1.
</event>
<event>
 4    1  0.3593938E+003  0.4231165E+02  0.7546771E-02  0.1335447E+00
          2   -1    0    0  502    0  0.00000000000E+00  0.00000000000E+00  0.26006482567E+04  0.26006482567E+04  0.00000000000E+00 0. -1.
          1   -1    0    0  501    0 -0.00000000000E+00 -0.00000000000E+00 -0.10459275836E+01  0.10459275836E+01  0.00000000000E+00 0. -1.
          2    1    1    2  501    0 -0.36618807630E+02  0.21197606321E+02  0.20603598178E+04  0.20607942290E+04  0.00000000000E+00 0. -1.
          1    1    1    2  502    0  0.36618807630E+02 -0.21197606321E+02  0.53924251132E+03  0.54089995527E+03  0.00000000000E+00 0. -1.
</event>
<event>
 4    1  0.3593938E+003  0.2023278E+02  0.7546771E-02  0.1530507E+00
          2   -1    0    0  502    0  0.00000000000E+00  0.00000000000E+00  0.13928465099E+04  0.13928465099E+04  0.00000000000E+00 0. -1.
          1   -1    0    0  501    0 -0.00000000000E+00 -0.00000000000E+00 -0.18127727909E+01  0.18127727909E+01  0.00000000000E+00 0. -1.
          2    1    1    2  501    0  0.20188109343E+02 -0.13437119859E+01  0.13338190764E+04  0.13339725237E+04  0.00000000000E+00 0. -1.
          1    1    1    2  502    0 -0.20188109343E+02  0.13437119859E+01  0.57214660644E+02  0.60686758963E+02  0.00000000000E+00 0. -1.
</event>
<event>
 4    1  0.3593938E+003  0.2387965E+02  0.7546771E-02  0.1481738E+00
          2   -1    0    0  502    0  0.00000000000E+00  0.00000000000E+00  0.37314638051E+03  0.37314638051E+03  0.00000000000E+00 0. -1.
          1   -1    0    0  501    0 -0.00000000000E+00 -0.00000000000E+00 -0.18598218129E+01  0.18598218129E+01  0.00000000000E+00 0. -1.
          2    1    1    2  501    0 -0.75234164068E+01 -0.22663525325E+02  0.10646549898E+03  0.10911067614E+03  0.00000000000E+00 0. -1.
          1    1    1    2  502    0  0.75234164068E+01  0.22663525325E+02  0.26482105972E+03  0.26589552619E+03  0.00000000000E+00 0. -1.
</event>
<event>
 4    1  0.3593938E+003  0.2115781E+02  0.7546771E-02  0.1517024E+00
          2   -1    0    0  502    0  0.00000000000E+00  0.00000000000E+00  0.32623355503E+00  0.32623355503E+00  0.00000000000E+00 0.  1.
          1   -1    0    0  501    0 -0.00000000000E+00 -0.00000000000E+00 -0.18699238343E+04  0.18699238343E+04  0.00000000000E+00 0. -1.
          2    1    1    2  501    0  0.14832521681E+02  0.15088042610E+02 -0.45234184673E+03  0.45283639323E+03  0.00000000000E+00 0.  1.
          1    1    1    2  502    0 -0.14832521681E+02 -0.15088042610E+02 -0.14172557540E+04  0.14174136746E+04  0.00000000000E+00 0. -1.
</event>
<event>
 4    1  0.3593938E+003  0.2055700E+02  0.7546771E-02  0.1525685E+00
          2   -1    0    0  502    0  0.00000000000E+00  0.00000000000E+00  0.16895297855E+03  0.16895297855E+03  0.00000000000E+00 0.  1.
          1   -1    0    0  501    0 -0.00000000000E+00 -0.00000000000E+00 -0.25184475131E+01  0.25184475131E+01  0.00000000000E+00 0.  1.
          2    1    1    2  501    0  0.20089643595E+02 -0.43584539983E+01  0.76127902617E+02  0.78854596936E+02  0.00000000000E+00 0.  1.
          1    1    1    2  502    0 -0.20089643595E+02  0.43584539983E+01  0.90306628423E+02  0.92616829131E+02  0.00000000000E+00 0.  1.
</event>
<event>
 4    1  0.3593938E+003  0.2628868E+02  0.7546771E-02  0.1454887E+00
          2   -1    0    0  502    0  0.00000000000E+00  0.00000000000E+00  0.29246621532E+02  0.29246621532E+02  0.00000000000E+00 0. -1.
          1   -1    0    0  501    0 -0.00000000000E+00 -0.00000000000E+00 -0.98344117583E+03  0.98344117583E+03  0.00000000000E+00 0. -1.
          2    1    1    2  501    0  0.24106545650E+02 -0.10486619948E+02  0.23126476866E+02  0.35013264249E+02  0.00000000000E+00 0. -1.
          1    1    1    2  502    0 -0.24106545650E+02  0.10486619948E+02 -0.97732103117E+03  0.97767453312E+03  0.00000000000E+00 0. -1.
</event>
<event>
 4    1  0.3593938E+003  0.2524807E+02  0.7546771E-02  0.1466047E+00
          2   -1    0    0  502    0  0.00000000000E+00  0.00000000000E+00  0.77301520469E+03  0.77301520469E+03  0.00000000000E+00 0.  1.
          1   -1    0    0  501    0 -0.00000000000E+00 -0.00000000000E+00 -0.17140922637E+03  0.17140922637E+03  0.00000000000E+00 0.  1.
          2    1    1    2  501    0 -0.20793835985E+02  0.14320659086E+02  0.77187793215E+03  0.77229075291E+03  0.00000000000E+00 0.  1.
          1    1    1    2  502    0  0.20793835985E+02 -0.14320659086E+02 -0.17027195383E+03  0.17213367815E+03  0.00000000000E+00 0.  1.
</event>
<event>
 4    1  0.3593938E+003  0.2141657E+02  0.7546771E-02  0.1513400E+00
          2   -1    0    0  502    0  0.00000000000E+00  0.00000000000E+00  0.86981646345E+03  0.86981646345E+03  0.00000000000E+00 0. -1.
          1   -1    0    0  501    0 -0.00000000000E+00 -0.00000000000E+00 -0.97849739261E+02  0.97849739261E+02  0.00000000000E+00 0. -1.
          2    1    1    2  501    0  0.84102659946E+01  0.19696109227E+02  0.86851100142E+03  0.86877501626E+03  0.00000000000E+00 0. -1.
          1    1    1    2  502    0 -0.84102659946E+01 -0.19696109227E+02 -0.96544277228E+02  0.98891186454E+02  0.00000000000E+00 0. -1.
</event>
<event>
 4    1  0.3593938E+003  0.3737162E+02  0.7546771E-02  0.1364617E+00
          2   -1    0    0  502    0  0.00000000000E+00  0.00000000000E+00  0.59016616065E+03  0.59016616065E+03  0.00000000000E+00 0. -1.
          1   -1    0    0  501    0 -0.00000000000E+00 -0.00000000000E+00 -0.56697040155E+01  0.56697040155E+01  0.00000000000E+00 0. -1.
          2    1    1    2  501    0  0.11093268774E+02 -0.35687219081E+02  0.51964434123E+03  0.52098644856E+03  0.00000000000E+00 0. -1.
          1    1    1    2  502    0 -0.11093268774E+02  0.35687219081E+02  0.64852115403E+02  0.74849416097E+02  0.00000000000E+00 0. -1.
</event>
<event>
 4    1  0.3593938E+003  0.2213697E+02  0.7546771E-02  0.1503629E+00
          2   -1    0    0  502    0  0.00000000000E+00  0.00000000000E+00  0.47063624675E+02  0.47063624675E+02  0.00000000000E+00 0.  1.
          1   -1    0    0  501    0 -0.00000000000E+00 -0.00000000000E+00 -0.25577132527E+02  0.25577132527E+02  0.00000000000E+00 0. -1.
          2    1    1    2  501    0  0.22125600855E+02 -0.70942083396E+00  0.38709980276E+02  0.44592690702E+02  0.00000000000E+00 0.  1.
          1    1    1    2  502    0 -0.22125600855E+02  0.70942083396E+00 -0.17223488128E+02  0.28048066500E+02  0.00000000000E+00 0. -1.
</event>
<event>
 4    1  0.3593938E+003  0.3134878E+02  0.7546771E-02  0.1408227E+00
          2   -1    0    0  502    0  0.00000000000E+00  0.00000000000E+00  0.14562783696E+02  0.14562783696E+02  0.00000000000E+00 0.  1.
          1   -1    0    0  501    0 -0.00000000000E+00 -0.00000000000E+00 -0.99549154019E+03  0.99549154019E+03  0.00000000000E+00 0.  1.
          2    1    1    2  501    0  0.31160243705E+02  0.34329640086E+01 -0.28552305340E+01  0.31478538261E+02  0.00000000000E+00 0.  1.
          1    1    1    2  502    0 -0.31160243705E+02 -0.34329640086E+01 -0.97807352596E+03  0.97857578563E+03  0.00000000000E+00 0.  1.
</event>
<event>
 4    1  0.3593938E+003  0.2345241E+02  0.7546771E-02  0.1486894E+00
          2   -1    0    0  502    0  0.00000000000E+00  0.00000000000E+00  0.66869160381E+02  0.66869160381E+02  0.00000000000E+00 0. -1.
          1   -1    0    0  501    0 -0.00000000000E+00 -0.00000000000E+00 -0.83811381952E+02  0.83811381952E+02  0.00000000000E+00 0. -1.
          2    1    1    2  501    0  0.13062704257E+02  0.19477717625E+02  0.63076762917E+02  0.67295570036E+02  0.00000000000E+00 0. -1.
          1    1    1    2  502    0 -0.13062704257E+02 -0.19477717625E+02 -0.80018984488E+02  0.83384972297E+02  0.00000000000E+00 0. -1.
</event>
<event>
 4    1  0.3593938E+003  0.2948516E+02  0.7546771E-02  0.1424124E+00
          2   -1    0    0  502    0  0.00000000000E+00  0.00000000000E+00  0.91328077857E+03  0.91328077857E+03  0.00000000000E+00 0. -1.
          1   -1    0    0  501    0 -0.00000000000E+00 -0.00000000000E+00 -0.89648579240E+01  0.89648579240E+01  0.00000000000E+00 0. -1.
          2    1    1    2  501    0 -0.71944789068E+01  0.28593950111E+02  0.88811196378E+03  0.88860127994E+03  0.00000000000E+00 0. -1.
          1    1    1    2  502    0  0.71944789068E+01 -0.28593950111E+02  0.16203956871E+02  0.33644356555E+02  0.00000000000E+00 0. -1.
</event>
<event>
 4    1  0.3593938E+003  0.2354106E+02  0.7546771E-02  0.1485814E+00
          2   -1    0    0  502    0  0.00000000000E+00  0.00000000000E+00  0.73543329637E+03  0.73543329637E+03  0.00000000000E+00 0. -1.
          1   -1    0    0  501    0 -0.00000000000E+00 -0.00000000000E+00 -0.76469035101E+00  0.76469035101E+00  0.00000000000E+00 0. -1.
          2    1    1    2  501    0  0.18045011099E+02 -0.15118166222E+02  0.41177567429E+03  0.41244804196E+03  0.00000000000E+00 0. -1.
          1    1    1    2  502    0 -0.18045011099E+02  0.15118166222E+02  0.32289293173E+03  0.32374994477E+03  0.00000000000E+00 0. -1.
</event>
<event>
 4    1  0.3593938E+003  0.3542407E+02  0.7546771E-02  0.1377606E+00
          2   -1    0    0  502    0  0.00000000000E+00  0.00000000000E+00  0.41585506600E+02  0.41585506600E+02  0.00000000000E+00 0.  1.
          1   -1    0    0  501    0 -0.00000000000E+00 -0.00000000000E+00 -0.39143508634E+03  0.39143508634E+03  0.00000000000E+00 0. -1.
          2    1    1    2  501    0  0.77285695376E+01 -0.34570709658E+02  0.33072822906E+02  0.48463144434E+02  0.00000000000E+00 0.  1.
          1    1    1    2  502    0 -0.77285695376E+01  0.34570709658E+02 -0.38292240265E+03  0.38455744851E+03  0.00000000000E+00 0. -1.
</event>
<event>
 4    1  0.3593938E+003  0.2235459E+02  0.7546771E-02  0.1500766E+00
          2   -1    0    0  502    0  0.00000000000E+00  0.00000000000E+00  0.24223685017E+03  0.24223685017E+03  0.00000000000E+00 0.  1.
          1   -1    0    0  501    0 -0.00000000000E+00 -0.00000000000E+00 -0.64906210877E+01  0.64906210877E+01  0.00000000000E+00 0.  1.
          2    1    1    2  501    0 -0.48433324252E+01 -0.21823606362E+02  0.22058891692E+03  0.22171873608E+03  0.00000000000E+00 0.  1.
          1    1    1    2  502    0  0.48433324252E+01  0.21823606362E+02  0.15157312165E+02  0.27008735174E+02  0.00000000000E+00 0.  1.
</event>
<event>
 4    1  0.3661109E+003  0.2240351E+02  0.7546771E-02  0.1500127E+00
          2   -1    0    0  502    0  0.00000000000E+00  0.00000000000E+00  0.76135664067E+03  0.76135664067E+03  0.00000000000E+00 0. -1.
          1   -1    0    0  501    0 -0.00000000000E+00 -0.00000000000E+00 -0.48589471836E+03  0.48589471836E+03  0.00000000000E+00 0. -1.
          2    1    1    2  501    0 -0.21065684071E+01 -0.22304248280E+02  0.76093344319E+03  0.76126317531E+03  0.00000000000E+00 0. -1.
          1    1    1    2  502    0  0.21065684071E+01  0.22304248280E+02 -0.48547152088E+03  0.48598818372E+03  0.00000000000E+00 0. -1.
</event>
<event>
 4    1  0.3593938E+003  0.2156010E+02  0.7546771E-02  0.1511416E+00
          2   -1    0    0  502    0  0.00000000000E+00  0.00000000000E+00  0.64423627933E+02  0.64423627933E+02  0.00000000000E+00 0. -1.
          1   -1    0    0  501    0 -0.00000000000E+00 -0.00000000000E+00 -0.19762738243E+02  0.19762738243E+02  0.00000000000E+00 0.  1.
          2    1    1    2  501    0 -0.18435392017E+02 -0.11179184815E+02  0.55870609633E+02  0.59886249446E+02  0.00000000000E+00 0. -1.
          1    1    1    2  502    0  0.18435392017E+02  0.11179184815E+02 -0.11209719942E+02  0.24300116731E+02  0.00000000000E+00 0.  1.
</event>
<event>
 4    1  0.3593938E+003  0.7759581E+02  0.7546771E-02  0.1209542E+00
          2   -1    0    0  502    0  0.00000000000E+00  0.00000000000E+00  0.48065897155E+02  0.48065897155E+02  0.00000000000E+00 0. -1.
          1   -1    0    0  501    0 -0.00000000000E+00 -0.00000000000E+00 -0.22000704377E+03  0.22000704377E+03  0.00000000000E+00 0.  1.
          2    1    1    2  501    0  0.72086648534E+02  0.28716291377E+02  0.19862620114E+01  0.77621231143E+02  0.00000000000E+00 0. -1.
          1    1    1    2  502    0 -0.72086648534E+02 -0.28716291377E+02 -0.17392740863E+03  0.19045170979E+03  0.00000000000E+00 0.  1.
</event>
<event>
 4    1  0.3593938E+003  0.2487659E+02  0.7546771E-02  0.1470189E+00
          2   -1    0    0  502    0  0.00000000000E+00  0.00000000000E+00  0.98407120477E+03  0.98407120477E+03  0.00000000000E+00 0.  1.
          1   -1    0    0  501    0 -0.00000000000E+00 -0.00000000000E+00 -0.51490594035E+01  0.51490594035E+01  0.00000000000E+00 0. -1.
          2    1    1    2  501    0  0.14329983850E+02 -0.20334610280E+02  0.95288426735E+03  0.95320893396E+03  0.00000000000E+00 0.  1.
          1    1    1    2  502    0 -0.14329983850E+02  0.20334610280E+02  0.26037878017E+02  0.36011330217E+02  0.00000000000E+00 0. -1.
</event>
<event>
 4    1  0.3593938E+003  0.2322900E+02  0.7546771E-02  0.1489642E+00
          2   -1    0    0  502    0  0.00000000000E+00  0.00000000000E+00  0.20450431161E+03  0.20450431161E+03  0.00000000000E+00 0. -1.
          1   -1    0    0  501    0 -0.00000000000E+00 -0.00000000000E+00 -0.18234612269E+03  0.18234612269E+03  0.00000000000E+00 0. -1.
          2    1    1    2  501    0 -0.20302493704E+02 -0.11286951709E+02  0.20309980164E+03  0.20442386347E+03  0.00000000000E+00 0. -1.
          1    1    1    2  502    0  0.20302493704E+02  0.11286951709E+02 -0.18094161272E+03  0.18242657082E+03  0.00000000000E+00 0. -1.
</event>
<event>
 4    1  0.3593938E+003  0.2082291E+02  0.7546771E-02  0.1521808E+00
          2   -1    0    0  502    0  0.00000000000E+00  0.00000000000E+00  0.17611143956E+02  0.17611143956E+02  0.00000000000E+00 0.  1.
          1   -1    0    0  501    0 -0.00000000000E+00 -0.00000000000E+00 -0.23270874700E+03  0.23270874700E+03  0.00000000000E+00 0.  1.
          2    1    1    2  501    0 -0.17966529939E+01 -0.20745259699E+02  0.10805179483E+02  0.23459447257E+02  0.00000000000E+00 0.  1.
          1    1    1    2  502    0  0.17966529939E+01  0.20745259699E+02 -0.22590278253E+03  0.22686044370E+03  0.00000000000E+00 0.  1.
</event>
<event>
 4    1  0.3593938E+003  0.2360977E+02  0.7546771E-02  0.1484980E+00
          2   -1    0    0  502    0  0.00000000000E+00  0.00000000000E+00  0.74307345154E+03  0.74307345154E+03  0.00000000000E+00 0. -1.
          1   -1    0    0  501    0 -0.00000000000E+00 -0.00000000000E+00 -0.93055836545E+00  0.93055836545E+00  0.00000000000E+00 0. -1.
          2    1    1    2  501    0  0.11300366879E+02  0.20729759779E+02  0.53486402621E+03  0.53538485949E+03  0.00000000000E+00 0. -1.
          1    1    1    2  502    0 -0.11300366879E+02 -0.20729759779E+02  0.20727886696E+03  0.20861915042E+03  0.00000000000E+00 0. -1.
</event>
<event>
 4    1  0.3593938E+003  0.2109929E+02  0.7546771E-02  0.1517852E+00
          2   -1    0    0  502    0  0.00000000000E+00  0.00000000000E+00  0.28408601480E+02  0.28408601480E+02  0.00000000000E+00 0. -1.
          1   -1    0    0  501    0 -0.00000000000E+00 -0.00000000000E+00 -0.24216427445E+02  0.24216427445E+02  0.00000000000E+00 0. -1.
          2    1    1    2  501    0 -0.16607185078E+02 -0.13014669659E+02  0.17726988430E+02  0.27557691147E+02  0.00000000000E+00 0. -1.
          1    1    1    2  502    0  0.16607185078E+02  0.13014669659E+02 -0.13534814396E+02  0.25067337778E+02  0.00000000000E+00 0. -1.
</event>
<event>
 4    1  0.3593938E+003  0.2879047E+02  0.7546771E-02  0.1430407E+00
          2   -1    0    0  502    0  0.00000000000E+00  0.00000000000E+00  0.24460132337E+03  0.24460132337E+03  0.00000000000E+00 0. -1.
          1   -1    0    0  501    0 -0.00000000000E+00 -0.00000000000E+00 -0.12036089256E+02  0.12036089256E+02  0.00000000000E+00 0.  1.
          2    1    1    2  501    0 -0.25974084741E+02  0.12419251872E+02  0.22504750340E+03  0.22688162041E+03  0.00000000000E+00 0. -1.
          1    1    1    2  502    0  0.25974084741E+02 -0.12419251872E+02  0.75177307167E+01  0.29755792215E+02  0.00000000000E+00 0.  1.
</event>
<event>
 4    1  0.3593938E+003  0.2433882E+02  0.7546771E-02  0.1476338E+00
          2   -1    0    0  502    0  0.00000000000E+00  0.00000000000E+00  0.65151658691E+00  0.65151658691E+00  0.00000000000E+00 0.  1.
          1   -1    0    0  501    0 -0.00000000000E+00 -0.00000000000E+00 -0.20294786614E+04  0.20294786614E+04  0.00000000000E+00 0. -1.
          2    1    1    2  501    0  0.17394871539E+02 -0.17023414119E+02 -0.26026148826E+03  0.26139705518E+03  0.00000000000E+00 0.  1.
          1    1    1    2  502    0 -0.17394871539E+02  0.17023414119E+02 -0.17685656566E+04  0.17687331228E+04  0.00000000000E+00 0. -1.
</event>
<event>
 4    1  0.3593938E+003  0.4341329E+02  0.7546771E-02  0.1329567E+00
          2   -1    0    0  502    0  0.00000000000E+00  0.00000000000E+00  0.18850226542E+02  0.18850226542E+02  0.00000000000E+00 0.  1.
          1   -1    0    0  501    0 -0.00000000000E+00 -0.00000000000E+00 -0.17316182893E+04  0.17316182893E+04  0.00000000000E+00 0.  1.
          2    1    1    2  501    0  0.43101332447E+02 -0.51950594806E+01 -0.67934459258E+01  0.43941602261E+02  0.00000000000E+00 0.  1.
          1    1    1    2  502    0 -0.43101332447E+02  0.51950594806E+01 -0.17059746169E+04  0.17065269136E+04  0.00000000000E+00 0.  1.
</event>
<event>
 4    1  0.3593938E+003  0.2614551E+02  0.7546771E-02  0.1456386E+00
          2   -1    0    0  502    0  0.00000000000E+00  0.00000000000E+00  0.88779083926E+03  0.88779083926E+03  0.00000000000E+00 0. -1.
          1   -1    0    0  501    0 -0.00000000000E+00 -0.00000000000E+00 -0.13112619901E+01  0.13112619901E+01  0.00000000000E+00 0. -1.
          2    1    1    2  501    0 -0.26113187528E+02 -0.12996427490E+01  0.72885792532E+03  0.72932671892E+03  0.00000000000E+00 0. -1.
          1    1    1    2  502    0  0.26113187528E+02  0.12996427490E+01  0.15762165195E+03  0.15977538233E+03  0.00000000000E+00 0. -1.
</event>
<event>
 4    1  0.3593938E+003  0.2081003E+02  0.7546771E-02  0.1521995E+00
          2   -1    0    0  502    0  0.00000000000E+00  0.00000000000E+00  0.66202973864E+03  0.66202973864E+03  0.00000000000E+00 0.  1.
          1   -1    0    0  501    0 -0.00000000000E+00 -0.00000000000E+00 -0.16163158370E+03  0.16163158370E+03  0.00000000000E+00 0. -1.
          2    1    1    2  501    0 -0.19465228667E+02  0.73594952161E+01  0.66119553825E+03  0.66152293769E+03  0.00000000000E+00 0.  1.
          1    1    1    2  502    0  0.19465228667E+02 -0.73594952161E+01 -0.16079738331E+03  0.16213838465E+03  0.00000000000E+00 0. -1.
</event>
<event>
 4    1  0.3593938E+003  0.2296913E+02  0.7546771E-02  0.1492886E+00
          2   -1    0    0  502    0  0.00000000000E+00  0.00000000000E+00  0.40008719050E+02  0.40008719050E+02  0.00000000000E+00 0. -1.
          1   -1    0    0  501    0 -0.00000000000E+00 -0.00000000000E+00 -0.97308728507E+02  0.97308728507E+02  0.00000000000E+00 0.  1.
          2    1    1    2  501    0 -0.21940822613E+02  0.67956692061E+01  0.35187343041E+02  0.42020589325E+02  0.00000000000E+00 0. -1.
          1    1    1    2  502    0  0.21940822613E+02 -0.67956692061E+01 -0.92487352498E+02  0.95296858233E+02  0.00000000000E+00 0.  1.
</event>
<event>
 4    1  0.3593938E+003  0.2116094E+02  0.7546771E-02  0.1516979E+00
          2   -1    0    0  502    0  0.00000000000E+00  0.00000000000E+00  0.98226393015E+00  0.98226393015E+00  0.00000000000E+00 0. -1.
          1   -1    0    0  501    0 -0.00000000000E+00 -0.00000000000E+00 -0.45616252368E+03  0.45616252368E+03  0.00000000000E+00 0. -1.
          2    1    1    2  501    0 -0.19499580869E+02  0.82189590562E+01 -0.23337547929E+03  0.23433288134E+03  0.00000000000E+00 0. -1.
          1    1    1    2  502    0  0.19499580869E+02 -0.82189590562E+01 -0.22180478046E+03  0.22281190627E+03  0.00000000000E+00 0. -1.
</event>
<event>
 4    1  0.3593938E+003  0.5621278E+02  0.7546771E-02  0.1273273E+00
          2   -1    0    0  502    0  0.00000000000E+00  0.00000000000E+00  0.30609458360E+02  0.30609458360E+02  0.00000000000E+00 0. -1.
          1   -1    0    0  501    0 -0.00000000000E+00 -0.00000000000E+00 -0.54075382951E+03  0.54075382951E+03  0.00000000000E+00 0. -1.
          2    1    1    2  501    0 -0.73659098001E+01  0.55728090187E+02  0.18977883796E+01  0.56244806550E+02  0.00000000000E+00 0. -1.
          1    1    1    2  502    0  0.73659098001E+01 -0.55728090187E+02 -0.51204215953E+03  0.51511848132E+03  0.00000000000E+00 0. -1.
</event>
<event>
 4    1  0.3593938E+003  0.2318127E+02  0.7546771E-02  0.1490234E+00
          2   -1    0    0  502    0  0.00000000000E+00  0.00000000000E+00  0.48830149793E+03  0.48830149793E+03  0.00000000000E+00 0. -1.
          1   -1    0    0  501    0 -0.00000000000E+00 -0.00000000000E+00 -0.25336047827E+01  0.25336047827E+01  0.00000000000E+00 0.  1.
          2    1    1    2  501    0  0.17043911415E+02 -0.15712292552E+02  0.42746054096E+03  0.42808864168E+03  0.00000000000E+00 0. -1.
          1    1    1    2  502    0 -0.17043911415E+02  0.15712292552E+02  0.58307352182E+02  0.62746461032E+02  0.00000000000E+00 0.  1.
</event>
<event>
 4    1  0.3593938E+003  0.2411195E+02  0.7546771E-02  0.1478988E+00
          2   -1    0    0  502    0  0.00000000000E+00  0.00000000000E+00  0.17452774076E+03  0.17452774076E+03  0.00000000000E+00 0.  1.
          1   -1    0    0  501    0 -0.00000000000E+00 -0.00000000000E+00 -0.97394818330E+02  0.97394818330E+02  0.00000000000E+00 0.  1.
          2    1    1    2  501    0  0.19028663665E+02 -0.14808647128E+02  0.17218236921E+03  0.17386245810E+03  0.00000000000E+00 0.  1.
          1    1    1    2  502    0 -0.19028663665E+02  0.14808647128E+02 -0.95049446785E+02  0.98060100983E+02  0.00000000000E+00 0.  1.
</event>
<event>
 4    1  0.3593938E+003  0.2667038E+02  0.7546771E-02  0.1450948E+00
          2   -1    0    0  502    0  0.00000000000E+00  0.00000000000E+00  0.15912653670E+04  0.15912653670E+04  0.00000000000E+00 0. -1.
          1   -1    0    0  501    0 -0.00000000000E+00 -0.00000000000E+00 -0.43203946154E+02  0.43203946154E+02  0.00000000000E+00 0. -1.
          2    1    1    2  501    0 -0.17255865264E+02 -0.20335785840E+02  0.15870266264E+04  0.15872507118E+04  0.00000000000E+00 0. -1.
          1    1    1    2  502    0  0.17255865264E+02  0.20335785840E+02 -0.38965205567E+02  0.47218601383E+02  0.00000000000E+00 0. -1.
</event>
<event>
 4    1  0.3593938E+003  0.2613529E+02  0.7546771E-02  0.1456493E+00
          2   -1    0    0  502    0  0.00000000000E+00  0.00000000000E+00  0.93666054424E+01  0.93666054424E+01  0.00000000000E+00 0.  1.
          1   -1    0    0  501    0 -0.00000000000E+00 -0.00000000000E+00 -0.82300963302E+02  0.82300963302E+02  0.00000000000E+00 0.  1.
          2    1    1    2  501    0 -0.24992450821E+02  0.76440175601E+01 -0.20996609886E+02  0.33524785297E+02  0.00000000000E+00 0.  1.
          1    1    1    2  502    0  0.24992450821E+02 -0.76440175601E+01 -0.51937747973E+02  0.58142783447E+02  0.00000000000E+00 0.  1.
</event>
<event>
 4    1  0.3593938E+003  0.3949674E+02  0.7546771E-02  0.1351460E+00
          2   -1    0    0  502    0  0.00000000000E+00  0.00000000000E+00  0.39290147510E+03  0.39290147510E+03  0.00000000000E+00 0. -1.
          1   -1    0    0  501    0 -0.00000000000E+00 -0.00000000000E+00 -0.12406027612E+03  0.12406027612E+03  0.00000000000E+00 0.  1.
          2    1    1    2  501    0  0.11657774435E+02  0.37737102873E+02  0.38873161166E+03  0.39073297601E+03  0.00000000000E+00 0. -1.
          1    1    1    2  502    0 -0.11657774435E+02 -0.37737102873E+02 -0.11989041268E+03  0.12622877521E+03  0.00000000000E+00 0.  1.
</event>
<event>
 4    1  0.3593938E+003  0.2452986E+02  0.7546771E-02  0.1474132E+00
          2   -1    0    0  502    0  0.00000000000E+00  0.00000000000E+00  0.52875418719E+03  0.52875418719E+03  0.00000000000E+00 0.  1.
          1   -1    0    0  501    0 -0.00000000000E+00 -0.00000000000E+00 -0.15307585157E+01  0.15307585157E+01  0.00000000000E+00 0.  1.
          2    1    1    2  501    0  0.19860748692E+02  0.14396691241E+02  0.39791831199E+03  0.39867367241E+03  0.00000000000E+00 0.  1.
          1    1    1    2  502    0 -0.19860748692E+02 -0.14396691241E+02  0.12930511669E+03  0.13161127329E+03  0.00000000000E+00 0.  1.
</event>
<event>
 4    1  0.3593938E+003  0.2968941E+02  0.7546771E-02  0.1422315E+00
          2   -1    0    0  502    0  0.00000000000E+00  0.00000000000E+00  0.19312757670E+02  0.19312757670E+02  0.00000000000E+00 0.  1.
          1   -1    0    0  501    0 -0.00000000000E+00 -0.00000000000E+00 -0.15139670948E+03  0.15139670948E+03  0.00000000000E+00 0. -1.
          2    1    1    2  501    0 -0.79257464940E+01 -0.28611947951E+02  0.52959555987E+01  0.30158053132E+02  0.00000000000E+00 0.  1.
          1    1    1    2  502    0  0.79257464940E+01  0.28611947951E+02 -0.13737990741E+03  0.14055141402E+03  0.00000000000E+00 0. -1.
</event>
<event>
 4    1  0.3593938E+003  0.3691470E+02  0.7546771E-02  0.1367580E+00
          2   -1    0    0  502    0  0.00000000000E+00  0.00000000000E+00  0.17269127758E+03  0.17269127758E+03  0.00000000000E+00 0. -1.
          1   -1    0    0  501    0 -0.00000000000E+00 -0.00000000000E+00 -0.20336808063E+03  0.20336808063E+03  0.00000000000E+00 0.  1.
          2    1    1    2  501    0  0.90667829800E+01 -0.35783913667E+02  0.16900729699E+03  0.17299179596E+03  0.00000000000E+00 0. -1.
          1    1    1    2  502    0 -0.90667829800E+01  0.35783913667E+02 -0.19968410004E+03  0.20306756225E+03  0.00000000000E+00 0.  1.
</event>
<event>
 4    1  0.3593938E+003  0.2382855E+02  0.7546771E-02  0.1482348E+00
          2   -1    0    0  502    0  0.00000000000E+00  0.00000000000E+00  0.33958670177E+01  0.33958670177E+01  0.00000000000E+00 0.  1.
          1   -1    0    0  501    0 -0.00000000000E+00 -0.00000000000E+00 -0.47270576424E+03  0.47270576424E+03  0.00000000000E+00 0. -1.
          2    1    1    2  501    0 -0.23690826373E+02 -0.25582453204E+01 -0.43281516318E+02  0.49407383336E+02  0.00000000000E+00 0.  1.
          1    1    1    2  502    0  0.23690826373E+02  0.25582453204E+01 -0.42602838091E+03  0.42669424792E+03  0.00000000000E+00 0. -1.
</event>
<event>
 4    1  0.3593938E+003  0.2259370E+02  0.7546771E-02  0.1497664E+00
          2   -1    0    0  502    0  0.00000000000E+00  0.00000000000E+00  0.40418962536E+03  0.40418962536E+03  0.00000000000E+00 0. -1.
          1   -1    0    0  501    0 -0.00000000000E+00 -0.00000000000E+00 -0.49094009258E+02  0.49094009258E+02  0.00000000000E+00 0.  1.
          2    1    1    2  501    0 -0.21023267510E+02  0.82763202709E+01  0.40125541322E+03  0.40189100748E+03  0.00000000000E+00 0. -1.
          1    1    1    2  502    0  0.21023267510E+02 -0.82763202709E+01 -0.46159797119E+02  0.51392627138E+02  0.00000000000E+00 0.  1.
</event>
<event>
 4    1  0.3593938E+003  0.2517479E+02  0.7546771E-02  0.1466857E+00
          2   -1    0    0  502    0  0.00000000000E+00  0.00000000000E+00  0.97124966198E+03  0.97124966198E+03  0.00000000000E+00 0. -1.
          1   -1    0    0  501    0 -0.00000000000E+00 -0.00000000000E+00 -0.68273424682E+00  0.68273424682E+00  0.00000000000E+00 0. -1.
          2    1    1    2  501    0 -0.22876700284E+02  0.10508406373E+02  0.58749753402E+03  0.58803666765E+03  0.00000000000E+00 0. -1.
          1    1    1    2  502    0  0.22876700284E+02 -0.10508406373E+02  0.38306939371E+03  0.38389572858E+03  0.00000000000E+00 0. -1.
</event>
<event>
 4    1  0.3593938E+003  0.2297349E+02  0.7546771E-02  0.1492831E+00
          2   -1    0    0  502    0  0.00000000000E+00  0.00000000000E+00  0.10211731040E+04  0.10211731040E+04  0.00000000000E+00 0. -1.
          1   -1    0    0  501    0 -0.00000000000E+00 -0.00000000000E+00 -0.37968757832E+01  0.37968757832E+01  0.00000000000E+00 0.  1.
          2    1    1    2  501    0  0.20711110439E+02 -0.99413809826E+01  0.98501749772E+03  0.98528536575E+03  0.00000000000E+00 0. -1.
          1    1    1    2  502    0 -0.20711110439E+02  0.99413809826E+01  0.32358730502E+02  0.39684614036E+02  0.00000000000E+00 0.  1.
</event>
<event>
 4    1  0.3593938E+003  0.2440633E+02  0.7546771E-02  0.1475556E+00
          2   -1    0    0  502    0  0.00000000000E+00  0.00000000000E+00  0.23429415537E+02  0.23429415537E+02  0.00000000000E+00 0. -1.
          1   -1    0    0  501    0 -0.00000000000E+00 -0.00000000000E+00 -0.67812840762E+02  0.67812840762E+02  0.00000000000E+00 0.  1.
          2    1    1    2  501    0  0.22193384638E+02 -0.10154920629E+02  0.13877443396E+02  0.28075828926E+02  0.00000000000E+00 0. -1.
          1    1    1    2  502    0 -0.22193384638E+02  0.10154920629E+02 -0.58260868621E+02  0.63166427373E+02  0.00000000000E+00 0.  1.
</event>
<event>
 4    1  0.3593938E+003  0.2015372E+02  0.7546771E-02  0.1531699E+00
          2   -1    0    0  502    0  0.00000000000E+00  0.00000000000E+00  0.82414898939E+01  0.82414898939E+01  0.00000000000E+00 0.  1.
          1   -1    0    0  501    0 -0.00000000000E+00 -0.00000000000E+00 -0.13706282982E+03  0.13706282982E+03  0.00000000000E+00 0.  1.
          2    1    1    2  501    0 -0.12501579776E+02  0.15807685594E+02 -0.62694785935E+01  0.21106368294E+02  0.00000000000E+00 0.  1.
          1    1    1    2  502    0  0.12501579776E+02 -0.15807685594E+02 -0.12255186133E+03  0.12419795142E+03  0.00000000000E+00 0.  1.
</event>
<event>
 4    1  0.3593938E+003  0.2829932E+02  0.7546771E-02  0.1434975E+00
          2   -1    0    0  502    0  0.00000000000E+00  0.00000000000E+00  0.67198201954E+01  0.67198201954E+01  0.00000000000E+00 0. -1.
          1   -1    0    0  501    0 -0.00000000000E+00 -0.00000000000E+00 -0.22040933616E+03  0.22040933616E+03  0.00000000000E+00 0.  1.
          2    1    1    2  501    0 -0.28059204277E+02 -0.36786564003E+01 -0.29880971084E+02  0.41154876874E+02  0.00000000000E+00 0. -1.
          1    1    1    2  502    0  0.28059204277E+02  0.36786564003E+01 -0.18380854489E+03  0.18597427949E+03  0.00000000000E+00 0.  1.
</event>
<event>
 4    1  0.3593938E+003  0.1122692E+03  0.7546771E-02  0.1144094E+00
          2   -1    0    0  502    0  0.00000000000E+00  0.00000000000E+00  0.14714926573E+04  0.14714926573E+04  0.00000000000E+00 0.  1.
          1   -1    0    0  501    0 -0.00000000000E+00 -0.00000000000E+00 -0.35668064662E+03  0.35668064662E+03  0.00000000000E+00 0.  1.
          2    1    1    2  501    0 -0.59947539039E+00 -0.11226764451E+03  0.14604500269E+04  0.14647589100E+04  0.00000000000E+00 0.  1.
          1    1    1    2  502    0  0.59947539039E+00  0.11226764451E+03 -0.34563801627E+03  0.36341439386E+03  0.00000000000E+00 0.  1.
</event>
<event>
 4    1  0.3593938E+003  0.2366026E+02  0.7546771E-02  0.1484370E+00
          2   -1    0    0  502    0  0.00000000000E+00  0.00000000000E+00  0.13074694291E+02  0.13074694291E+02  0.00000000000E+00 0.  1.
          1   -1    0    0  501    0 -0.00000000000E+00 -0.00000000000E+00 -0.16451787989E+03  0.16451787989E+03  0.00000000000E+00 0. -1.
          2    1    1    2  501    0 -0.21989791479E+02 -0.87325241680E+01  0.65084486521E+00  0.23669210098E+02  0.00000000000E+00 0.  1.
          1    1    1    2  502    0  0.21989791479E+02  0.87325241680E+01 -0.15209403047E+03  0.15392336409E+03  0.00000000000E+00 0. -1.
</event>
<event>
 4    1  0.3593938E+003  0.6663398E+02  0.7546771E-02  0.1238819E+00
          2   -1    0    0  502    0  0.00000000000E+00  0.00000000000E+00  0.94746527409E+03  0.94746527409E+03  0.00000000000E+00 0.  1.
          1   -1    0    0  501    0 -0.00000000000E+00 -0.00000000000E+00 -0.11472230105E+02  0.11472230105E+02  0.00000000000E+00 0. -1.
          2    1    1    2  501    0 -0.18575157058E+02  0.63992583028E+02  0.83675475839E+03  0.83940372457E+03  0.00000000000E+00 0.  1.
          1    1    1    2  502    0  0.18575157058E+02 -0.63992583028E+02  0.99238285592E+02  0.11953377962E+03  0.00000000000E+00 0. -1.
</event>
<event>
 4    1  0.3593938E+003  0.2257521E+02  0.7546771E-02  0.1497902E+00
          2   -1    0    0  502    0  0.00000000000E+00  0.00000000000E+00  0.12436263587E+04  0.12436263587E+04  0.00000000000E+00 0.  1.
          1   -1    0    0  501    0 -0.00000000000E+00 -0.00000000000E+00 -0.41056504647E+00  0.41056504647E+00  0.00000000000E+00 0.  1.
          2    1    1    2  501    0 -0.20180786719E+02  0.10118102313E+02  0.64842947575E+03  0.64882233714E+03  0.00000000000E+00 0.  1.
          1    1    1    2  502    0  0.20180786719E+02 -0.10118102313E+02  0.59478631790E+03  0.59521458661E+03  0.00000000000E+00 0.  1.
</event>
<event>
 4    1  0.3593938E+003  0.2412816E+02  0.7546771E-02  0.1478798E+00
          2   -1    0    0  502    0  0.00000000000E+00  0.00000000000E+00  0.51102117085E+00  0.51102117085E+00  0.00000000000E+00 0.  1.
          1   -1    0    0  501    0 -0.00000000000E+00 -0.00000000000E+00 -0.14781960273E+04  0.14781960273E+04  0.00000000000E+00 0. -1.
          2    1    1    2  501    0 -0.20563715870E+02  0.12621478260E+02 -0.38479023280E+03  0.38554596533E+03  0.00000000000E+00 0.  1.
          1    1    1    2  502    0  0.20563715870E+02 -0.12621478260E+02 -0.10928947733E+04  0.10931610831E+04  0.00000000000E+00 0. -1.
</event>
<event>
 4    1  0.3593938E+003  0.2393604E+02  0.7546771E-02  0.1481067E+00
          2   -1    0    0  502    0  0.00000000000E+00  0.00000000000E+00  0.16542170150E+03  0.16542170150E+03  0.00000000000E+00 0.  1.
          1   -1    0    0  501    0 -0.00000000000E+00 -0.00000000000E+00 -0.84045699286E+02  0.84045699286E+02  0.00000000000E+00 0. -1.
          2    1    1    2  501    0 -0.16836572764E+02  0.17013639092E+02  0.16282456049E+03  0.16457451685E+03  0.00000000000E+00 0.  1.
          1    1    1    2  502    0  0.16836572764E+02 -0.17013639092E+02 -0.81448558276E+02  0.84892883936E+02  0.00000000000E+00 0. -1.
</event>
<event>
 4    1  0.3593938E+003  0.4066387E+02  0.7546771E-02  0.1344639E+00
          2   -1    0    0  502    0  0.00000000000E+00  0.00000000000E+00  0.27245550046E+04  0.27245550046E+04  0.00000000000E+00 0.  1.
          1   -1    0    0  501    0 -0.00000000000E+00 -0.00000000000E+00 -0.65588868880E+00  0.65588868880E+00  0.00000000000E+00 0.  1.
          2    1    1    2  501    0  0.39921174852E+02  0.77361708051E+01  0.98957778726E+03  0.99041291671E+03  0.00000000000E+00 0.  1.
          1    1    1    2  502    0 -0.39921174852E+02 -0.77361708051E+01  0.17343213286E+04  0.17347979766E+04  0.00000000000E+00 0.  1.
</event>
<event>
 4    1  0.3593938E+003  0.3457893E+02  0.7546771E-02  0.1383548E+00
          2   -1    0    0  502    0  0.00000000000E+00  0.00000000000E+00  0.11596919510E+04  0.11596919510E+04  0.00000000000E+00 0.  1.
          1   -1    0    0  501    0 -0.00000000000E+00 -0.00000000000E+00 -0.10315748506E+01  0.10315748506E+01  0.00000000000E+00 0.  1.
          2    1    1    2  501    0  0.24472564397E+02  0.24429383676E+02  0.56624808675E+03  0.56730291462E+03  0.00000000000E+00 0.  1.
          1    1    1    2  502    0 -0.24472564397E+02 -0.24429383676E+02  0.59241228943E+03  0.59342061126E+03  0.00000000000E+00 0.  1.
</event>
<event>
 4    1  0.3593938E+003  0.2149752E+02  0.7546771E-02  0.1512279E+00
          2   -1    0    0  502    0  0.00000000000E+00  0.00000000000E+00  0.14287002677E+03  0.14287002677E+03  0.00000000000E+00 0. -1.
          1   -1    0    0  501    0 -0.00000000000E+00 -0.00000000000E+00 -0.34973310673E+01  0.34973310673E+01  0.00000000000E+00 0. -1.
          2    1    1    2  501    0 -0.57084203592E+01 -0.20725761903E+02  0.89740748629E+02  0.92279711930E+02  0.00000000000E+00 0. -1.
          1    1    1    2  502    0  0.57084203592E+01  0.20725761903E+02  0.49631947077E+02  0.54087645910E+02  0.00000000000E+00 0. -1.
</event>
<event>
 4    1  0.3593938E+003  0.6496888E+02  0.7546771E-02  0.1243824E+00
          2   -1    0    0  502    0  0.00000000000E+00  0.00000000000E+00  0.26470950728E+01  0.26470950728E+01  0.00000000000E+00 0.  1.
          1   -1    0    0  501    0 -0.00000000000E+00 -0.00000000000E+00 -0.16361211599E+04  0.16361211599E+04  0.00000000000E+00 0.  1.
          2    1    1    2  501    0 -0.42183247750E+02  0.49411833547E+02 -0.68614514084E+03  0.68921412492E+03  0.00000000000E+00 0.  1.
          1    1    1    2  502    0  0.42183247750E+02 -0.49411833547E+02 -0.94732892399E+03  0.94955413006E+03  0.00000000000E+00 0.  1.
</event>
<event>
 4    1  0.3593938E+003  0.2506184E+02  0.7546771E-02  0.1468113E+00
          2   -1    0    0  502    0  0.00000000000E+00  0.00000000000E+00  0.65135999657E+03  0.65135999657E+03  0.00000000000E+00 0.  1.
          1   -1    0    0  501    0 -0.00000000000E+00 -0.00000000000E+00 -0.84015581836E+01  0.84015581836E+01  0.00000000000E+00 0.  1.
          2    1    1    2  501    0  0.23869872584E+02  0.76370773216E+01  0.63185226445E+03  0.63234909651E+03  0.00000000000E+00 0.  1.
          1    1    1    2  502    0 -0.23869872584E+02 -0.76370773216E+01  0.11106173929E+02  0.27412458236E+02  0.00000000000E+00 0.  1.
</event>
<event>
 4    1  0.3593938E+003  0.2198826E+02  0.7546771E-02  0.1505609E+00
          2   -1    0    0  502    0  0.00000000000E+00  0.00000000000E+00  0.59026252118E+02  0.59026252118E+02  0.00000000000E+00 0. -1.
          1   -1    0    0  501    0 -0.00000000000E+00 -0.00000000000E+00 -0.71312697752E+03  0.71312697752E+03  0.00000000000E+00 0.  1.
          2    1    1    2  501    0 -0.21791734883E+02  0.29331997237E+01  0.56802607133E+02  0.60909929789E+02  0.00000000000E+00 0. -1.
          1    1    1    2  502    0  0.21791734883E+02 -0.29331997237E+01 -0.71090333254E+03  0.71124329985E+03  0.00000000000E+00 0.  1.
</event>
<event>
 4    1  0.3593938E+003  0.2620343E+02  0.7546771E-02  0.1455778E+00
          2   -1    0    0  502    0  0.00000000000E+00  0.00000000000E+00  0.55490195840E+01  0.55490195840E+01  0.00000000000E+00 0.  1.
          1   -1    0    0  501    0 -0.00000000000E+00 -0.00000000000E+00 -0.23483522424E+03  0.23483522424E+03  0.00000000000E+00 0. -1.
          2    1    1    2  501    0  0.19365845011E+02  0.17651742029E+02 -0.31973162879E+02  0.41338881142E+02  0.00000000000E+00 0.  1.
          1    1    1    2  502    0 -0.19365845011E+02 -0.17651742029E+02 -0.19731304178E+03  0.19904536269E+03  0.00000000000E+00 0. -1.
</event>
<event>
 4    1  0.3593938E+003  0.3174411E+02  0.7546771E-02  0.1405022E+00
          2   -1    0    0  502    0  0.00000000000E+00  0.00000000000E+00  0.24500757449E+04  0.24500757449E+04  0.00000000000E+00 0. -1.
          1   -1    0    0  501    0 -0.00000000000E+00 -0.00000000000E+00 -0.12932373642E+01  0.12932373642E+01  0.00000000000E+00 0.  1.
          2    1    1    2  501    0  0.95230549430E+01 -0.30282002493E+02  0.22365793937E+04  0.22368046568E+04  0.00000000000E+00 0. -1.
          1    1    1    2  502    0 -0.95230549430E+01  0.30282002493E+02  0.21220311377E+03  0.21456432543E+03  0.00000000000E+00 0.  1.
</event>
<event>
 4    1  0.3593938E+003  0.2049338E+02  0.7546771E-02  0.1526622E+00
          2   -1    0    0  502    0  0.00000000000E+00  0.00000000000E+00  0.66358370895E+01  0.66358370895E+01  0.00000000000E+00 0. -1.
          1   -1    0    0  501    0 -0.00000000000E+00 -0.00000000000E+00 -0.17547890310E+03  0.17547890310E+03  0.00000000000E+00 0. -1.
          2    1    1    2  501    0 -0.64496060887E+01 -0.19452021295E+02 -0.11613610010E+02  0.23555349470E+02  0.00000000000E+00 0. -1.
          1    1    1    2  502    0  0.64496060887E+01  0.19452021295E+02 -0.15722945600E+03  0.15855939072E+03  0.00000000000E+00 0. -1.
</event>
<event>
 4    1  0.3593938E+003  0.2468753E+02  0.7546771E-02  0.1472329E+00
          2   -1    0    0  502    0  0.00000000000E+00  0.00000000000E+00  0.67268200489E+03  0.67268200489E+03  0.00000000000E+00 0.  1.
          1   -1    0    0  501    0 -0.00000000000E+00 -0.00000000000E+00 -0.15826213531E+02  0.15826213531E+02  0.00000000000E+00 0. -1.
          2    1    1    2  501    0 -0.71742782081E+01 -0.23622108535E+02  0.66268266613E+03  0.66314236048E+03  0.00000000000E+00 0.  1.
          1    1    1    2  502    0  0.71742782081E+01  0.23622108535E+02 -0.58268747687E+01  0.25365857939E+02  0.00000000000E+00 0. -1.
</event>
<event>
 4    1  0.3593938E+003  0.2524350E+02  0.7546771E-02  0.1466098E+00
          2   -1    0    0  502    0  0.00000000000E+00  0.00000000000E+00  0.73691866888E+02  0.73691866888E+02  0.00000000000E+00 0.  1.
          1   -1    0    0  501    0 -0.00000000000E+00 -0.00000000000E+00 -0.99438764563E+01  0.99438764563E+01  0.00000000000E+00 0.  1.
          2    1    1    2  501    0 -0.12794387078E+02 -0.21760921477E+02  0.46974339528E+02  0.53327503395E+02  0.00000000000E+00 0.  1.
          1    1    1    2  502    0  0.12794387078E+02  0.21760921477E+02  0.16773650903E+02  0.30308239949E+02  0.00000000000E+00 0.  1.
</event>
<event>
 4    1  0.3593938E+003  0.3182185E+02  0.7546771E-02  0.1404399E+00
          2   -1    0    0  502    0  0.00000000000E+00  0.00000000000E+00  0.32171174077E+02  0.32171174077E+02  0.00000000000E+00 0.  1.
          1   -1    0    0  501    0 -0.00000000000E+00 -0.00000000000E+00 -0.39299120823E+03  0.39299120823E+03  0.00000000000E+00 0.  1.
          2    1    1    2  501    0  0.29893813969E+02  0.10908241340E+02  0.23480261248E+02  0.39546839457E+02  0.00000000000E+00 0.  1.
          1    1    1    2  502    0 -0.29893813969E+02 -0.10908241340E+02 -0.38430029540E+03  0.38561554285E+03  0.00000000000E+00 0.  1.
</event>
<event>
 4    1  0.3593938E+003  0.2241082E+02  0.7546771E-02  0.1500032E+00
          2   -1    0    0  502    0  0.00000000000E+00  0.00000000000E+00  0.33361317748E+01  0.33361317748E+01  0.00000000000E+00 0.  1.
          1   -1    0    0  501    0 -0.00000000000E+00 -0.00000000000E+00 -0.27005235564E+03  0.27005235564E+03  0.00000000000E+00 0.  1.
          2    1    1    2  501    0  0.20765662081E+02  0.84280454295E+01 -0.42425450250E+02  0.47980865982E+02  0.00000000000E+00 0.  1.
          1    1    1    2  502    0 -0.20765662081E+02 -0.84280454295E+01 -0.22429077362E+03  0.22540762144E+03  0.00000000000E+00 0.  1.
</event>
<event>
 4    1  0.3593938E+003  0.3030724E+02  0.7546771E-02  0.1416945E+00
          2   -1    0    0  502    0  0.00000000000E+00  0.00000000000E+00  0.27684321822E+02  0.27684321822E+02  0.00000000000E+00 0. -1.
          1   -1    0    0  501    0 -0.00000000000E+00 -0.00000000000E+00 -0.13597575285E+03  0.13597575285E+03  0.00000000000E+00 0.  1.
          2    1    1    2  501    0 -0.58585334128E+01 -0.29735603339E+02  0.17003881324E+02  0.34751410040E+02  0.00000000000E+00 0. -1.
          1    1    1    2  502    0  0.58585334128E+01  0.29735603339E+02 -0.12529531235E+03  0.12890866463E+03  0.00000000000E+00 0.  1.
</event>
<event>
 4    1  0.3593938E+003  0.2751568E+02  0.7546771E-02  0.1442496E+00
          2   -1    0    0  502    0  0.00000000000E+00  0.00000000000E+00  0.23863449676E+01  0.23863449676E+01  0.00000000000E+00 0.  1.
          1   -1    0    0  501    0 -0.00000000000E+00 -0.00000000000E+00 -0.35098338052E+03  0.35098338052E+03  0.00000000000E+00 0.  1.
          2    1    1    2  501    0  0.10242539918E+02 -0.25538260474E+02 -0.11953818054E+03  0.12266413077E+03  0.00000000000E+00 0.  1.
          1    1    1    2  502    0 -0.10242539918E+02  0.25538260474E+02 -0.22905885502E+03  0.23070559471E+03  0.00000000000E+00 0.  1.
</event>
<event>
 4    1  0.3593938E+003  0.2322940E+02  0.7546771E-02  0.1489638E+00
          2   -1    0    0  502    0  0.00000000000E+00  0.00000000000E+00  0.65687521998E+03  0.65687521998E+03  0.00000000000E+00 0. -1.
          1   -1    0    0  501    0 -0.00000000000E+00 -0.00000000000E+00 -0.34686736125E+01  0.34686736125E+01  0.00000000000E+00 0.  1.
          2    1    1    2  501    0 -0.46125437758E+01 -0.22766845213E+02  0.61514091521E+03  0.61557936155E+03  0.00000000000E+00 0. -1.
          1    1    1    2  502    0  0.46125437758E+01  0.22766845213E+02  0.38265631151E+02  0.44764532036E+02  0.00000000000E+00 0.  1.
</event>
<event>
 4    1  0.3593938E+003  0.2159606E+02  0.7546771E-02  0.1510922E+00
          2   -1    0    0  502    0  0.00000000000E+00  0.00000000000E+00  0.74439079820E+00  0.74439079820E+00  0.00000000000E+00 0. -1.
          1   -1    0    0  501    0 -0.00000000000E+00 -0.00000000000E+00 -0.68957641824E+03  0.68957641824E+03  0.00000000000E+00 0. -1.
          2    1    1    2  501    0 -0.21558975879E+02  0.12649995396E+01 -0.24005701339E+03  0.24102647022E+03  0.00000000000E+00 0. -1.
          1    1    1    2  502    0  0.21558975879E+02 -0.12649995396E+01 -0.44877501404E+03  0.44929433882E+03  0.00000000000E+00 0. -1.
</event>
<event>
 4    1  0.3593938E+003  0.2115893E+02  0.7546771E-02  0.1517008E+00
          2   -1    0    0  502    0  0.00000000000E+00  0.00000000000E+00  0.34241120791E+01  0.34241120791E+01  0.00000000000E+00 0. -1.
          1   -1    0    0  501    0 -0.00000000000E+00 -0.00000000000E+00 -0.69553872767E+03  0.69553872767E+03  0.00000000000E+00 0. -1.
          2    1    1    2  501    0 -0.20548552600E+02 -0.50455264893E+01 -0.31132624035E+02  0.37642271861E+02  0.00000000000E+00 0. -1.
          1    1    1    2  502    0  0.20548552600E+02  0.50455264893E+01 -0.66098199155E+03  0.66132056789E+03  0.00000000000E+00 0. -1.
</event>
<event>
 4    1  0.3593938E+003  0.3581762E+02  0.7546771E-02  0.1374904E+00
          2   -1    0    0  502    0  0.00000000000E+00  0.00000000000E+00  0.55182323979E+03  0.55182323979E+03  0.00000000000E+00 0.  1.
          1   -1    0    0  501    0 -0.00000000000E+00 -0.00000000000E+00 -0.48616694847E+01  0.48616694847E+01  0.00000000000E+00 0. -1.
          2    1    1    2  501    0  0.24851948604E+02 -0.25793072475E+02  0.47454380005E+03  0.47589360166E+03  0.00000000000E+00 0.  1.
          1    1    1    2  502    0 -0.24851948604E+02  0.25793072475E+02  0.72417770259E+02  0.80791307617E+02  0.00000000000E+00 0. -1.
</event>
<event>
 4    1  0.3593938E+003  0.2263383E+02  0.7546771E-02  0.1497148E+00
          2   -1    0    0  502    0  0.00000000000E+00  0.00000000000E+00  0.12661459466E+04  0.12661459466E+04  0.00000000000E+00 0.  1.
          1   -1    0    0  501    0 -0.00000000000E+00 -0.00000000000E+00 -0.29569308931E+02  0.29569308931E+02  0.00000000000E+00 0. -1.
          2    1    1    2  501    0 -0.19261523791E+02 -0.11886300532E+02  0.12616982596E+04  0.12619012595E+04  0.00000000000E+00 0.  1.
          1    1    1    2  502    0  0.19261523791E+02  0.11886300532E+02 -0.25121621934E+02  0.33813996033E+02  0.00000000000E+00 0. -1.
</event>
<event>
 4    1  0.3593938E+003  0.2733628E+02  0.7546771E-02  0.1444259E+00
          2   -1    0    0  502    0  0.00000000000E+00  0.00000000000E+00  0.70332094804E+03  0.70332094804E+03  0.00000000000E+00 0. -1.
          1   -1    0    0  501    0 -0.00000000000E+00 -0.00000000000E+00 -0.54876040311E+01  0.54876040311E+01  0.00000000000E+00 0. -1.
          2    1    1    2  501    0  0.25626468111E+02 -0.95161098163E+01  0.66716765344E+03  0.66772745189E+03  0.00000000000E+00 0. -1.
          1    1    1    2  502    0 -0.25626468111E+02  0.95161098163E+01  0.30665690570E+02  0.41081100180E+02  0.00000000000E+00 0. -1.
</event>
<event>
 4    1  0.3593938E+003  0.2103741E+02  0.7546771E-02  0.1518731E+00
          2   -1    0    0  502    0  0.00000000000E+00  0.00000000000E+00  0.13090253553E+04  0.13090253553E+04  0.00000000000E+00 0.  1.
          1   -1    0    0  501    0 -0.00000000000E+00 -0.00000000000E+00 -0.76258543898E+03  0.76258543898E+03  0.00000000000E+00 0.  1.
          2    1    1    2  501    0 -0.13660205989E+02  0.15999108204E+02  0.13087957170E+04  0.13089647824E+04  0.00000000000E+00 0.  1.
          1    1    1    2  502    0  0.13660205989E+02 -0.15999108204E+02 -0.76235580066E+03  0.76264601192E+03  0.00000000000E+00 0.  1.
</event>
<event>
 4    1  0.3593938E+003  0.2218960E+02  0.7546771E-02  0.1502933E+00
          2   -1    0    0  502    0  0.00000000000E+00  0.00000000000E+00  0.85520328871E+02  0.85520328871E+02  0.00000000000E+00 0. -1.
          1   -1    0    0  501    0 -0.00000000000E+00 -0.00000000000E+00 -0.21819820377E+02  0.21819820377E+02  0.00000000000E+00 0.  1.
          2    1    1    2  501    0 -0.14625446131E+02  0.16687560799E+02  0.77898335173E+02  0.80997092434E+02  0.00000000000E+00 0. -1.
          1    1    1    2  502    0  0.14625446131E+02 -0.16687560799E+02 -0.14197826679E+02  0.26343056815E+02  0.00000000000E+00 0.  1.
</event>
<event>
 4    1  0.3593938E+003  0.2842766E+02  0.7546771E-02  0.1433771E+00
          2   -1    0    0  502    0  0.00000000000E+00  0.00000000000E+00  0.34358209530E+03  0.34358209530E+03  0.00000000000E+00 0.  1.
          1   -1    0    0  501    0 -0.00000000000E+00 -0.00000000000E+00 -0.11148411609E+04  0.11148411609E+04  0.00000000000E+00 0.  1.
          2    1    1    2  501    0 -0.23133786845E+02 -0.16521494763E+02  0.34281244833E+03  0.34398910828E+03  0.00000000000E+00 0.  1.
          1    1    1    2  502    0  0.23133786845E+02  0.16521494763E+02 -0.11140715139E+04  0.11144341479E+04  0.00000000000E+00 0.  1.
</event>
<event>
 4    1  0.3593938E+003  0.2262034E+02  0.7546771E-02  0.1497321E+00
          2   -1    0    0  502    0  0.00000000000E+00  0.00000000000E+00  0.10922492332E+04  0.10922492332E+04  0.00000000000E+00 0. -1.
          1   -1    0    0  501    0 -0.00000000000E+00 -0.00000000000E+00 -0.81107739230E+00  0.81107739230E+00  0.00000000000E+00 0.  1.
          2    1    1    2  501    0 -0.22619568120E+02 -0.18635376889E+00  0.90092898069E+03  0.90121290927E+03  0.00000000000E+00 0. -1.
          1    1    1    2  502    0  0.22619568120E+02  0.18635376889E+00  0.19050917510E+03  0.19184740131E+03  0.00000000000E+00 0.  1.
</event>
<event>
 4    1  0.3593938E+003  0.2139314E+02  0.7546771E-02  0.1513725E+00
          2   -1    0    0  502    0  0.00000000000E+00  0.00000000000E+00  0.10695943473E+04  0.10695943473E+04  0.00000000000E+00 0. -1.
          1   -1    0    0  501    0 -0.00000000000E+00 -0.00000000000E+00 -0.19372925204E+02  0.19372925204E+02  0.00000000000E+00 0. -1.
          2    1    1    2  501    0  0.15975412659E+02 -0.14228592240E+02  0.10635477929E+04  0.10637629315E+04  0.00000000000E+00 0. -1.
          1    1    1    2  502    0 -0.15975412659E+02  0.14228592240E+02 -0.13326370803E+02  0.25204341006E+02  0.00000000000E+00 0. -1.
</event>
<event>
 4    1  0.3593938E+003  0.2610649E+02  0.7546771E-02  0.1456796E+00
          2   -1    0    0  502    0  0.00000000000E+00  0.00000000000E+00  0.93107783512E+03  0.93107783512E+03  0.00000000000E+00 0. -1.
          1   -1    0    0  501    0 -0.00000000000E+00 -0.00000000000E+00 -0.31410054178E+01  0.31410054178E+01  0.00000000000E+00 0.  1.
          2    1    1    2  501    0 -0.25726991568E+02 -0.44351471563E+01  0.87304366567E+03  0.87343390752E+03  0.00000000000E+00 0. -1.
          1    1    1    2  502    0  0.25726991568E+02  0.44351471563E+01  0.54893164028E+02  0.60784933022E+02  0.00000000000E+00 0.  1.
</event>
<event>
 4    1  0.3593938E+003  0.3304723E+02  0.7546771E-02  0.1394837E+00
          2   -1    0    0  502    0  0.00000000000E+00  0.00000000000E+00  0.75959403698E+03  0.75959403698E+03  0.00000000000E+00 0. -1.
          1   -1    0    0  501    0 -0.00000000000E+00 -0.00000000000E+00 -0.48379315935E+01  0.48379315935E+01  0.00000000000E+00 0.  1.
          2    1    1    2  501    0  0.12892449565E+02  0.30428677087E+02  0.69780491708E+03  0.69858701816E+03  0.00000000000E+00 0. -1.
          1    1    1    2  502    0 -0.12892449565E+02 -0.30428677087E+02  0.56951188309E+02  0.65844950413E+02  0.00000000000E+00 0.  1.
</event>
<event>
 4    1  0.3593938E+003  0.2254133E+02  0.7546771E-02  0.1498339E+00
          2   -1    0    0  502    0  0.00000000000E+00  0.00000000000E+00  0.26385174142E+02  0.26385174142E+02  0.00000000000E+00 0. -1.
          1   -1    0    0  501    0 -0.00000000000E+00 -0.00000000000E+00 -0.19059692905E+03  0.19059692905E+03  0.00000000000E+00 0.  1.
          2    1    1    2  501    0 -0.21970027106E+02  0.50427789047E+01  0.20758420068E+02  0.30643493825E+02  0.00000000000E+00 0. -1.
          1    1    1    2  502    0  0.21970027106E+02 -0.50427789047E+01 -0.18497017498E+03  0.18633860937E+03  0.00000000000E+00 0.  1.
</event>
<event>
 4    1  0.3593938E+003  0.3625707E+02  0.7546771E-02  0.1371935E+00
          2   -1    0    0  502    0  0.00000000000E+00  0.00000000000E+00  0.67786743900E+02  0.67786743900E+02  0.00000000000E+00 0. -1.
          1   -1    0    0  501    0 -0.00000000000E+00 -0.00000000000E+00 -0.84553084430E+02  0.84553084430E+02  0.00000000000E+00 0.  1.
          2    1    1    2  501    0 -0.23978531398E+02 -0.27195684054E+02  0.58483577880E+02  0.68810639300E+02  0.00000000000E+00 0. -1.
          1    1    1    2  502    0  0.23978531398E+02  0.27195684054E+02 -0.75249918410E+02  0.83529189029E+02  0.00000000000E+00 0.  1.
</event>
<event>
 4    1  0.3593938E+003  0.7616531E+02  0.7546771E-02  0.1213041E+00
          2   -1    0    0  502    0  0.00000000000E+00  0.00000000000E+00  0.28775768109E+02  0.28775768109E+02  0.00000000000E+00 0.  1.
          1   -1    0    0  501    0 -0.00000000000E+00 -0.00000000000E+00 -0.11432969261E+04  0.11432969261E+04  0.00000000000E+00 0.  1.
          2    1    1    2  501    0 -0.60249154137E+02  0.46596064595E+02 -0.25396157055E+02  0.80287723863E+02  0.00000000000E+00 0.  1.
          1    1    1    2  502    0  0.60249154137E+02 -0.46596064595E+02 -0.10891250009E+04  0.10917849704E+04  0.00000000000E+00 0.  1.
</event>
<event>
 4    1  0.3593938E+003  0.2002707E+02  0.7546771E-02  0.1533622E+00
          2   -1    0    0  502    0  0.00000000000E+00  0.00000000000E+00  0.10125448846E+04  0.10125448846E+04  0.00000000000E+00 0. -1.
          1   -1    0    0  501    0 -0.00000000000E+00 -0.00000000000E+00 -0.33827518378E+01  0.33827518378E+01  0.00000000000E+00 0.  1.
          2    1    1    2  501    0 -0.18213022856E+02  0.83288152580E+01  0.98187836856E+03  0.98208259022E+03  0.00000000000E+00 0. -1.
          1    1    1    2  502    0  0.18213022856E+02 -0.83288152580E+01  0.27283764252E+02  0.33845046269E+02  0.00000000000E+00 0.  1.
</event>
<event>
 4    1  0.3593938E+003  0.2440340E+02  0.7546771E-02  0.1475589E+00
          2   -1    0    0  502    0  0.00000000000E+00  0.00000000000E+00  0.12672196573E+03  0.12672196573E+03  0.00000000000E+00 0. -1.
          1   -1    0    0  501    0 -0.00000000000E+00 -0.00000000000E+00 -0.17044884323E+03  0.17044884323E+03  0.00000000000E+00 0.  1.
          2    1    1    2  501    0  0.24303722701E+02 -0.22034491865E+01  0.12465931380E+03  0.12702547242E+03  0.00000000000E+00 0. -1.
          1    1    1    2  502    0 -0.24303722701E+02  0.22034491865E+01 -0.16838619130E+03  0.17014533654E+03  0.00000000000E+00 0.  1.
</event>
<event>
 4    1  0.3593938E+003  0.4891201E+02  0.7546771E-02  0.1302960E+00
          2   -1    0    0  502    0  0.00000000000E+00  0.00000000000E+00  0.44385634363E+02  0.44385634363E+02  0.00000000000E+00 0.  1.
          1   -1    0    0  501    0 -0.00000000000E+00 -0.00000000000E+00 -0.28118954124E+03  0.28118954124E+03  0.00000000000E+00 0.  1.
          2    1    1    2  501    0  0.34655498606E+02 -0.34516383495E+02  0.27954360132E+02  0.56336760322E+02  0.00000000000E+00 0.  1.
          1    1    1    2  502    0 -0.34655498606E+02  0.34516383495E+02 -0.26475826701E+03  0.26923841528E+03  0.00000000000E+00 0.  1.
</event>
<event>
 4    1  0.3593938E+003  0.2205862E+02  0.7546771E-02  0.1504670E+00
          2   -1    0    0  502    0  0.00000000000E+00  0.00000000000E+00  0.44475792348E+03  0.44475792348E+03  0.00000000000E+00 0. -1.
          1   -1    0    0  501    0 -0.00000000000E+00 -0.00000000000E+00 -0.12927134493E+01  0.12927134493E+01  0.00000000000E+00 0. -1.
          2    1    1    2  501    0  0.68457578106E+01 -0.20969465639E+02  0.30916515022E+03  0.30995108163E+03  0.00000000000E+00 0. -1.
          1    1    1    2  502    0 -0.68457578106E+01  0.20969465639E+02  0.13430005981E+03  0.13609955530E+03  0.00000000000E+00 0. -1.
</event>
<event>
 4    1  0.3593938E+003  0.4204033E+02  0.7546771E-02  0.1336927E+00
          2   -1    0    0  502    0  0.00000000000E+00  0.00000000000E+00  0.33206206611E+04  0.33206206611E+04  0.00000000000E+00 0. -1.
          1   -1    0    0  501    0 -0.00000000000E+00 -0.00000000000E+00 -0.57066199626E+00  0.57066199626E+00  0.00000000000E+00 0. -1.
          2    1    1    2  501    0 -0.10109628252E+02 -0.40806675147E+02  0.20908755320E+04  0.20912981326E+04  0.00000000000E+00 0. -1.
          1    1    1    2  502    0  0.10109628252E+02  0.40806675147E+02  0.12291744671E+04  0.12298931904E+04  0.00000000000E+00 0. -1.
</event>
<event>
 4    1  0.3593938E+003  0.2155001E+02  0.7546771E-02  0.1511555E+00
          2   -1    0    0  502    0  0.00000000000E+00  0.00000000000E+00  0.52096515893E+01  0.52096515893E+01  0.00000000000E+00 0.  1.
          1   -1    0    0  501    0 -0.00000000000E+00 -0.00000000000E+00 -0.21949140256E+03  0.21949140256E+03  0.00000000000E+00 0.  1.
          2    1    1    2  501    0 -0.21453085147E+02 -0.20416040646E+01 -0.20560488704E+02  0.29784840192E+02  0.00000000000E+00 0.  1.
          1    1    1    2  502    0  0.21453085147E+02  0.20416040646E+01 -0.19372126227E+03  0.19491621396E+03  0.00000000000E+00 0.  1.
</event>
<event>
 4    1  0.3593938E+003  0.2069108E+02  0.7546771E-02  0.1523722E+00
          2   -1    0    0  502    0  0.00000000000E+00  0.00000000000E+00  0.51308195219E+03  0.51308195219E+03  0.00000000000E+00 0.  1.
          1   -1    0    0  501    0 -0.00000000000E+00 -0.00000000000E+00 -0.17279484925E+01  0.17279484925E+01  0.00000000000E+00 0. -1.
          2    1    1    2  501    0 -0.13672065210E+02  0.15530462516E+02  0.44077774776E+03  0.44126312281E+03  0.00000000000E+00 0.  1.
          1    1    1    2  502    0  0.13672065210E+02 -0.15530462516E+02  0.70576255938E+02  0.73546777872E+02  0.00000000000E+00 0. -1.
</event>
<event>
 4    1  0.3593938E+003  0.2425527E+02  0.7546771E-02  0.1477310E+00
          2   -1    0    0  502    0  0.00000000000E+00  0.00000000000E+00  0.76299578702E+03  0.76299578702E+03  0.00000000000E+00 0.  1.
          1   -1    0    0  501    0 -0.00000000000E+00 -0.00000000000E+00 -0.10372806709E+01  0.10372806709E+01  0.00000000000E+00 0. -1.
          2    1    1    2  501    0  0.86734154793E+01  0.22651486590E+02  0.57451103075E+03  0.57502281906E+03  0.00000000000E+00 0.  1.
          1    1    1    2  502    0 -0.86734154793E+01 -0.22651486590E+02  0.18744747559E+03  0.18901024863E+03  0.00000000000E+00 0. -1.
</event>
<event>
 4    1  0.3593938E+003  0.2305902E+02  0.7546771E-02  0.1491758E+00
          2   -1    0    0  502    0  0.00000000000E+00  0.00000000000E+00  0.13827574086E+03  0.13827574086E+03  0.00000000000E+00 0. -1.
          1   -1    0    0  501    0 -0.00000000000E+00 -0.00000000000E+00 -0.13706657542E+03  0.13706657542E+03  0.00000000000E+00 0. -1.
          2    1    1    2  501    0  0.20134263638E+02  0.11239657108E+02  0.13633084792E+03  0.13826719987E+03  0.00000000000E+00 0. -1.
          1    1    1    2  502    0 -0.20134263638E+02 -0.11239657108E+02 -0.13512168248E+03  0.13707511642E+03  0.00000000000E+00 0. -1.
</event>
<event>
 4    1  0.3593938E+003  0.4793435E+02  0.7546771E-02  0.1307386E+00
          2   -1    0    0  502    0  0.00000000000E+00  0.00000000000E+00  0.18204396817E+03  0.18204396817E+03  0.00000000000E+00 0. -1.
          1   -1    0    0  501    0 -0.00000000000E+00 -0.00000000000E+00 -0.27926438542E+03  0.27926438542E+03  0.00000000000E+00 0.  1.
          2    1    1    2  501    0 -0.37675310140E+02 -0.29635666372E+02  0.17677135921E+03  0.18315516687E+03  0.00000000000E+00 0. -1.
          1    1    1    2  502    0  0.37675310140E+02  0.29635666372E+02 -0.27399177646E+03  0.27815318672E+03  0.00000000000E+00 0.  1.
</event>
<event>
 4    1  0.3593938E+003  0.2341463E+02  0.7546771E-02  0.1487356E+00
          2   -1    0    0  502    0  0.00000000000E+00  0.00000000000E+00  0.16235181897E+04  0.16235181897E+04  0.00000000000E+00 0. -1.
          1   -1    0    0  501    0 -0.00000000000E+00 -0.00000000000E+00 -0.24304934685E+01  0.24304934685E+01  0.00000000000E+00 0. -1.
          2    1    1    2  501    0  0.79150376822E+01  0.22036266764E+02  0.15649303271E+04  0.15651054832E+04  0.00000000000E+00 0. -1.
          1    1    1    2  502    0 -0.79150376822E+01 -0.22036266764E+02  0.56157369145E+02  0.60843199979E+02  0.00000000000E+00 0. -1.
</event>
<event>
 4    1  0.3593938E+003  0.2191339E+02  0.7546771E-02  0.1506613E+00
          2   -1    0    0  502    0  0.00000000000E+00  0.00000000000E+00  0.13750137870E+03  0.13750137870E+03  0.00000000000E+00 0. -1.
          1   -1    0    0  501    0 -0.00000000000E+00 -0.00000000000E+00 -0.10084406811E+02  0.10084406811E+02  0.00000000000E+00 0.  1.
          2    1    1    2  501    0  0.13428285615E+02  0.17316974375E+02  0.12337097682E+03  0.12530201266E+03  0.00000000000E+00 0. -1.
          1    1    1    2  502    0 -0.13428285615E+02 -0.17316974375E+02  0.40459950649E+01  0.22283772843E+02  0.00000000000E+00 0.  1.
</event>
<event>
 4    1  0.3593938E+003  0.2556419E+02  0.7546771E-02  0.1462590E+00
          2   -1    0    0  502    0  0.00000000000E+00  0.00000000000E+00  0.48161659434E+03  0.48161659434E+03  0.00000000000E+00 0. -1.
          1   -1    0    0  501    0 -0.00000000000E+00 -0.00000000000E+00 -0.11680563394E+02  0.11680563394E+02  0.00000000000E+00 0. -1.
          2    1    1    2  501    0 -0.24731968628E+02  0.64697593399E+01  0.46684767674E+03  0.46754708997E+03  0.00000000000E+00 0. -1.
          1    1    1    2  502    0  0.24731968628E+02 -0.64697593399E+01  0.30883542007E+01  0.25750067763E+02  0.00000000000E+00 0. -1.
</event>
<event>
 4    1  0.3593938E+003  0.2095666E+02  0.7546771E-02  0.1519884E+00
          2   -1    0    0  502    0  0.00000000000E+00  0.00000000000E+00  0.23004715778E+03  0.23004715778E+03  0.00000000000E+00 0. -1.
          1   -1    0    0  501    0 -0.00000000000E+00 -0.00000000000E+00 -0.99175026554E+01  0.99175026554E+01  0.00000000000E+00 0. -1.
          2    1    1    2  501    0  0.13475745711E+02 -0.16049482653E+02  0.21788232485E+03  0.21888784594E+03  0.00000000000E+00 0. -1.
          1    1    1    2  502    0 -0.13475745711E+02  0.16049482653E+02  0.22473302680E+01  0.21076814494E+02  0.00000000000E+00 0. -1.
</event>
<event>
 4    1  0.3593938E+003  0.2119827E+02  0.7546771E-02  0.1516453E+00
          2   -1    0    0  502    0  0.00000000000E+00  0.00000000000E+00  0.85916904966E+01  0.85916904966E+01  0.00000000000E+00 0.  1.
          1   -1    0    0  501    0 -0.00000000000E+00 -0.00000000000E+00 -0.85204776941E+03  0.85204776941E+03  0.00000000000E+00 0. -1.
          2    1    1    2  501    0  0.20477978662E+02  0.54789778672E+01 -0.48249347244E+01  0.21740441662E+02  0.00000000000E+00 0.  1.
          1    1    1    2  502    0 -0.20477978662E+02 -0.54789778672E+01 -0.83863114419E+03  0.83889901825E+03  0.00000000000E+00 0. -1.
</event>
<event>
 4    1  0.3593938E+003  0.2343792E+02  0.7546771E-02  0.1487071E+00
          2   -1    0    0  502    0  0.00000000000E+00  0.00000000000E+00  0.19915563992E+03  0.19915563992E+03  0.00000000000E+00 0. -1.
          1   -1    0    0  501    0 -0.00000000000E+00 -0.00000000000E+00 -0.42085692457E+01  0.42085692457E+01  0.00000000000E+00 0. -1.
          2    1    1    2  501    0  0.23437659959E+02 -0.11098784672E+00  0.15716299965E+03  0.15890105312E+03  0.00000000000E+00 0. -1.
          1    1    1    2  502    0 -0.23437659959E+02  0.11098784672E+00  0.37784071023E+02  0.44463156048E+02  0.00000000000E+00 0. -1.
</event>
<event>
 4    1  0.3593938E+003  0.2648372E+02  0.7546771E-02  0.1452864E+00
          2   -1    0    0  502    0  0.00000000000E+00  0.00000000000E+00  0.83166702447E+02  0.83166702447E+02  0.00000000000E+00 0. -1.
          1   -1    0    0  501    0 -0.00000000000E+00 -0.00000000000E+00 -0.10023416518E+03  0.10023416518E+03  0.00000000000E+00 0.  1.
          2    1    1    2  501    0 -0.15145836572E+01  0.26440372207E+02  0.79224202723E+02  0.83533595297E+02  0.00000000000E+00 0. -1.
          1    1    1    2  502    0  0.15145836572E+01 -0.26440372207E+02 -0.96291665453E+02  0.99867272326E+02  0.00000000000E+00 0.  1.
</event>
<event>
 4    1  0.3593938E+003  0.3143961E+02  0.7546771E-02  0.1407486E+00
          2   -1    0    0  502    0  0.00000000000E+00  0.00000000000E+00  0.74759360904E+02  0.74759360904E+02  0.00000000000E+00 0. -1.
          1   -1    0    0  501    0 -0.00000000000E+00 -0.00000000000E+00 -0.72229275101E+02  0.72229275101E+02  0.00000000000E+00 0.  1.
          2    1    1    2  501    0  0.82906009851E+01  0.30326804922E+02  0.67692993887E+02  0.74637728951E+02  0.00000000000E+00 0. -1.
          1    1    1    2  502    0 -0.82906009851E+01 -0.30326804922E+02 -0.65162908085E+02  0.72350907054E+02  0.00000000000E+00 0.  1.
</event>
<event>
 4    1  0.3593938E+003  0.3344406E+02  0.7546771E-02  0.1391845E+00
          2   -1    0    0  502    0  0.00000000000E+00  0.00000000000E+00  0.89285908578E+03  0.89285908578E+03  0.00000000000E+00 0. -1.
          1   -1    0    0  501    0 -0.00000000000E+00 -0.00000000000E+00 -0.14933016986E+01  0.14933016986E+01  0.00000000000E+00 0. -1.
          2    1    1    2  501    0  0.33395293475E+02  0.18053392397E+01  0.62517019018E+03  0.62606411139E+03  0.00000000000E+00 0. -1.
          1    1    1    2  502    0 -0.33395293475E+02 -0.18053392397E+01  0.26619559389E+03  0.26828827609E+03  0.00000000000E+00 0. -1.
</event>
<event>
 4    1  0.3593938E+003  0.2019431E+02  0.7546771E-02  0.1531086E+00
          2   -1    0    0  502    0  0.00000000000E+00  0.00000000000E+00  0.23882363251E+04  0.23882363251E+04  0.00000000000E+00 0. -1.
          1   -1    0    0  501    0 -0.00000000000E+00 -0.00000000000E+00 -0.17310656881E+00  0.17310656881E+00  0.00000000000E+00 0. -1.
          2    1    1    2  501    0 -0.39439392883E+01  0.19805431950E+02  0.10549244581E+04  0.10551177290E+04  0.00000000000E+00 0. -1.
          1    1    1    2  502    0  0.39439392883E+01 -0.19805431950E+02  0.13331387604E+04  0.13332917026E+04  0.00000000000E+00 0. -1.
</event>
<event>
 4    1  0.3593938E+003  0.3788055E+02  0.7546771E-02  0.1361374E+00
          2   -1    0    0  502    0  0.00000000000E+00  0.00000000000E+00  0.21830480917E+03  0.21830480917E+03  0.00000000000E+00 0. -1.
          1   -1    0    0  501    0 -0.00000000000E+00 -0.00000000000E+00 -0.78524699796E+03  0.78524699796E+03  0.00000000000E+00 0. -1.
          2    1    1    2  501    0  0.32332565840E+02  0.19736797890E+02  0.21620028239E+03  0.21949373137E+03  0.00000000000E+00 0. -1.
          1    1    1    2  502    0 -0.32332565840E+02 -0.19736797890E+02 -0.78314247118E+03  0.78405807577E+03  0.00000000000E+00 0. -1.
</event>
<event>
 4    1  0.3593938E+003  0.2023327E+02  0.7546771E-02  0.1530499E+00
          2   -1    0    0  502    0  0.00000000000E+00  0.00000000000E+00  0.40487672481E+02  0.40487672481E+02  0.00000000000E+00 0. -1.
          1   -1    0    0  501    0 -0.00000000000E+00 -0.00000000000E+00 -0.11379042578E+02  0.11379042578E+02  0.00000000000E+00 0. -1.
          2    1    1    2  501    0 -0.18903027846E+02  0.72152967285E+01  0.58983974680E+01  0.21075484841E+02  0.00000000000E+00 0. -1.
          1    1    1    2  502    0  0.18903027846E+02 -0.72152967285E+01  0.23210232435E+02  0.30791230217E+02  0.00000000000E+00 0. -1.
</event>
<event>
 4    1  0.3593938E+003  0.2154905E+02  0.7546771E-02  0.1511568E+00
          2   -1    0    0  502    0  0.00000000000E+00  0.00000000000E+00  0.31061944361E+03  0.31061944361E+03  0.00000000000E+00 0.  1.
          1   -1    0    0  501    0 -0.00000000000E+00 -0.00000000000E+00 -0.55854403716E+03  0.55854403716E+03  0.00000000000E+00 0. -1.
          2    1    1    2  501    0 -0.15415523813E+02  0.15057334463E+02  0.31003747079E+03  0.31078544849E+03  0.00000000000E+00 0.  1.
          1    1    1    2  502    0  0.15415523813E+02 -0.15057334463E+02 -0.55796206434E+03  0.55837803228E+03  0.00000000000E+00 0. -1.
</event>
<event>
 4    1  0.3593938E+003  0.2483264E+02  0.7546771E-02  0.1470684E+00
          2   -1    0    0  502    0  0.00000000000E+00  0.00000000000E+00  0.43396791735E+01  0.43396791735E+01  0.00000000000E+00 0.  1.
          1   -1    0    0  501    0 -0.00000000000E+00 -0.00000000000E+00 -0.14218649105E+03  0.14218649105E+03  0.00000000000E+00 0.  1.
          2    1    1    2  501    0  0.22478933189E+02  0.10552584145E+02 -0.70751732099E+02  0.74983111861E+02  0.00000000000E+00 0.  1.
          1    1    1    2  502    0 -0.22478933189E+02 -0.10552584145E+02 -0.67095079781E+02  0.71543058365E+02  0.00000000000E+00 0.  1.
</event>
<event>
 4    1  0.3593938E+003  0.2140198E+02  0.7546771E-02  0.1513602E+00
          2   -1    0    0  502    0  0.00000000000E+00  0.00000000000E+00  0.39140449949E+02  0.39140449949E+02  0.00000000000E+00 0.  1.
          1   -1    0    0  501    0 -0.00000000000E+00 -0.00000000000E+00 -0.50212922212E+02  0.50212922212E+02  0.00000000000E+00 0.  1.
          2    1    1    2  501    0 -0.17808304150E+02  0.11870508217E+02  0.33589437909E+02  0.39828319084E+02  0.00000000000E+00 0.  1.
          1    1    1    2  502    0  0.17808304150E+02 -0.11870508217E+02 -0.44661910173E+02  0.49525053077E+02  0.00000000000E+00 0.  1.
</event>
<event>
 4    1  0.3593938E+003  0.2088245E+02  0.7546771E-02  0.1520950E+00
          2   -1    0    0  502    0  0.00000000000E+00  0.00000000000E+00  0.55016826450E+03  0.55016826450E+03  0.00000000000E+00 0.  1.
          1   -1    0    0  501    0 -0.00000000000E+00 -0.00000000000E+00 -0.42148322038E+01  0.42148322038E+01  0.00000000000E+00 0. -1.
          2    1    1    2  501    0 -0.11755734571E+02 -0.17259182041E+02  0.52274830889E+03  0.52316524264E+03  0.00000000000E+00 0.  1.
          1    1    1    2  502    0  0.11755734571E+02  0.17259182041E+02  0.23205123407E+02  0.31217854063E+02  0.00000000000E+00 0. -1.
</event>
<event>
 4    1  0.3593938E+003  0.2729806E+02  0.7546771E-02  0.1444637E+00
          2   -1    0    0  502    0  0.00000000000E+00  0.00000000000E+00  0.14444017271E+03  0.14444017271E+03  0.00000000000E+00 0.  1.
          1   -1    0    0  501    0 -0.00000000000E+00 -0.00000000000E+00 -0.20355859295E+02  0.20355859295E+02  0.00000000000E+00 0. -1.
          2    1    1    2  501    0  0.67176303349E+01 -0.26458601086E+02  0.13323678824E+03  0.13600450679E+03  0.00000000000E+00 0.  1.
          1    1    1    2  502    0 -0.67176303349E+01  0.26458601086E+02 -0.91524748198E+01  0.28791525213E+02  0.00000000000E+00 0. -1.
</event>
<event>
 4    1  0.3593938E+003  0.1624530E+03  0.7546771E-02  0.1085496E+00
          2   -1    0    0  502    0  0.00000000000E+00  0.00000000000E+00  0.19135769184E+04  0.19135769184E+04  0.00000000000E+00 0. -1.
          1   -1    0    0  501    0 -0.00000000000E+00 -0.00000000000E+00 -0.10304482059E+03  0.10304482059E+03  0.00000000000E+00 0. -1.
          2    1    1    2  501    0  0.91237912528E+02 -0.13441208210E+03  0.18436784185E+04  0.18508217297E+04  0.00000000000E+00 0. -1.
          1    1    1    2  502    0 -0.91237912528E+02  0.13441208210E+03 -0.33146320669E+02  0.16580000926E+03  0.00000000000E+00 0. -1.
</event>
<event>
 4    1  0.3593938E+003  0.2065838E+02  0.7546771E-02  0.1524199E+00
          2   -1    0    0  502    0  0.00000000000E+00  0.00000000000E+00  0.31423063518E+01  0.31423063518E+01  0.00000000000E+00 0. -1.
          1   -1    0    0  501    0 -0.00000000000E+00 -0.00000000000E+00 -0.38783706861E+03  0.38783706861E+03  0.00000000000E+00 0.  1.
          2    1    1    2  501    0  0.15109149664E+02 -0.14088375205E+02 -0.34760713301E+02  0.40436071875E+02  0.00000000000E+00 0. -1.
          1    1    1    2  502    0 -0.15109149664E+02  0.14088375205E+02 -0.34993404895E+03  0.35054330308E+03  0.00000000000E+00 0.  1.
</event>
<event>
 4    1  0.3593938E+003  0.2058484E+02  0.7546771E-02  0.1525276E+00
          2   -1    0    0  502    0  0.00000000000E+00  0.00000000000E+00  0.58423577609E+03  0.58423577609E+03  0.00000000000E+00 0.  1.
          1   -1    0    0  501    0 -0.00000000000E+00 -0.00000000000E+00 -0.81613712587E+02  0.81613712587E+02  0.00000000000E+00 0.  1.
          2    1    1    2  501    0 -0.36935729685E+01 -0.20250761762E+02  0.58275316212E+03  0.58311661251E+03  0.00000000000E+00 0.  1.
          1    1    1    2  502    0  0.36935729685E+01  0.20250761762E+02 -0.80131098613E+02  0.82732876163E+02  0.00000000000E+00 0.  1.
</event>
<event>
 4    1  0.3593938E+003  0.2071362E+02  0.7546771E-02  0.1523393E+00
          2   -1    0    0  502    0  0.00000000000E+00  0.00000000000E+00  0.52198947191E+03  0.52198947191E+03  0.00000000000E+00 0.  1.
          1   -1    0    0  501    0 -0.00000000000E+00 -0.00000000000E+00 -0.44043843367E+01  0.44043843367E+01  0.00000000000E+00 0.  1.
          2    1    1    2  501    0  0.14225395315E+02  0.15056302358E+02  0.49616305535E+03  0.49659523922E+03  0.00000000000E+00 0.  1.
          1    1    1    2  502    0 -0.14225395315E+02 -0.15056302358E+02  0.21422032217E+02  0.29798617029E+02  0.00000000000E+00 0.  1.
</event>
<event>
 4    1  0.3593938E+003  0.5837159E+02  0.7546771E-02  0.1265468E+00
          2   -1    0    0  502    0  0.00000000000E+00  0.00000000000E+00  0.25570096965E+04  0.25570096965E+04  0.00000000000E+00 0.  1.
          1   -1    0    0  501    0 -0.00000000000E+00 -0.00000000000E+00 -0.60136682056E+01  0.60136682056E+01  0.00000000000E+00 0.  1.
          2    1    1    2  501    0  0.55660972676E+02 -0.17581195491E+02  0.24061513634E+04  0.24068592867E+04  0.00000000000E+00 0.  1.
          1    1    1    2  502    0 -0.55660972676E+02  0.17581195491E+02  0.14484466484E+03  0.15616407796E+03  0.00000000000E+00 0.  1.
</event>
<event>
 4    1  0.3593938E+003  0.3189718E+02  0.7546771E-02  0.1403796E+00
          2   -1    0    0  502    0  0.00000000000E+00  0.00000000000E+00  0.63932814593E+03  0.63932814593E+03  0.00000000000E+00 0. -1.
          1   -1    0    0  501    0 -0.00000000000E+00 -0.00000000000E+00 -0.73383506161E+02  0.73383506161E+02  0.00000000000E+00 0.  1.
          2    1    1    2  501    0  0.31357892154E+02 -0.58406292817E+01  0.63544297438E+03  0.63624303850E+03  0.00000000000E+00 0. -1.
          1    1    1    2  502    0 -0.31357892154E+02  0.58406292817E+01 -0.69498334611E+02  0.76468613590E+02  0.00000000000E+00 0.  1.
</event>
<event>
 4    1  0.3593938E+003  0.3728956E+02  0.7546771E-02  0.1365145E+00
          2   -1    0    0  502    0  0.00000000000E+00  0.00000000000E+00  0.12720007917E+02  0.12720007917E+02  0.00000000000E+00 0. -1.
          1   -1    0    0  501    0 -0.00000000000E+00 -0.00000000000E+00 -0.62689241918E+03  0.62689241918E+03  0.00000000000E+00 0. -1.
          2    1    1    2  501    0 -0.24415943793E+02  0.28184627741E+02 -0.16498483302E+02  0.40776359615E+02  0.00000000000E+00 0. -1.
          1    1    1    2  502    0  0.24415943793E+02 -0.28184627741E+02 -0.59767392797E+03  0.59883606749E+03  0.00000000000E+00 0. -1.
</event>
<event>
 4    1  0.3593938E+003  0.3577998E+02  0.7546771E-02  0.1375161E+00
          2   -1    0    0  502    0  0.00000000000E+00  0.00000000000E+00  0.98505780853E+03  0.98505780853E+03  0.00000000000E+00 0.  1.
          1   -1    0    0  501    0 -0.00000000000E+00 -0.00000000000E+00 -0.68520402480E+01  0.68520402480E+01  0.00000000000E+00 0.  1.
          2    1    1    2  501    0  0.35380236336E+02  0.53334631807E+01  0.93555324225E+03  0.93623719005E+03  0.00000000000E+00 0.  1.
          1    1    1    2  502    0 -0.35380236336E+02 -0.53334631807E+01  0.42652526032E+02  0.55672658726E+02  0.00000000000E+00 0.  1.
</event>
<event>
 4    1  0.3593938E+003  0.2703134E+02  0.7546771E-02  0.1447294E+00
          2   -1    0    0  502    0  0.00000000000E+00  0.00000000000E+00  0.18198783657E+04  0.18198783657E+04  0.00000000000E+00 0. -1.
          1   -1    0    0  501    0 -0.00000000000E+00 -0.00000000000E+00 -0.13572431007E+01  0.13572431007E+01  0.00000000000E+00 0.  1.
          2    1    1    2  501    0 -0.10127481284E+02 -0.25062472446E+02  0.16734066139E+04  0.16736249248E+04  0.00000000000E+00 0. -1.
          1    1    1    2  502    0  0.10127481284E+02  0.25062472446E+02  0.14511450877E+03  0.14761068409E+03  0.00000000000E+00 0.  1.
</event>
<event>
 4    1  0.3593938E+003  0.2486789E+02  0.7546771E-02  0.1470287E+00
          2   -1    0    0  502    0  0.00000000000E+00  0.00000000000E+00  0.15058240087E+02  0.15058240087E+02  0.00000000000E+00 0.  1.
          1   -1    0    0  501    0 -0.00000000000E+00 -0.00000000000E+00 -0.33000026879E+03  0.33000026879E+03  0.00000000000E+00 0. -1.
          2    1    1    2  501    0 -0.24662649519E+02  0.31883729828E+01  0.39661842518E+01  0.25182188569E+02  0.00000000000E+00 0.  1.
          1    1    1    2  502    0  0.24662649519E+02 -0.31883729828E+01 -0.31890821295E+03  0.31987632030E+03  0.00000000000E+00 0. -1.
</event>
<event>
 4    1  0.3593938E+003  0.2220326E+02  0.7546771E-02  0.1502753E+00
          2   -1    0    0  502    0  0.00000000000E+00  0.00000000000E+00  0.63169128172E+02  0.63169128172E+02  0.00000000000E+00 0. -1.
          1   -1    0    0  501    0 -0.00000000000E+00 -0.00000000000E+00 -0.66928758758E+02  0.66928758758E+02  0.00000000000E+00 0. -1.
          2    1    1    2  501    0  0.23302156889E+01 -0.22080647285E+02  0.59259109376E+02  0.63282121754E+02  0.00000000000E+00 0. -1.
          1    1    1    2  502    0 -0.23302156889E+01  0.22080647285E+02 -0.63018739962E+02  0.66815765176E+02  0.00000000000E+00 0. -1.
</event>
<event>
 4    1  0.3593938E+003  0.2054216E+02  0.7546771E-02  0.1525903E+00
          2   -1    0    0  502    0  0.00000000000E+00  0.00000000000E+00  0.22673640585E+03  0.22673640585E+03  0.00000000000E+00 0. -1.
          1   -1    0    0  501    0 -0.00000000000E+00 -0.00000000000E+00 -0.57362824557E+02  0.57362824557E+02  0.00000000000E+00 0. -1.
          2    1    1    2  501    0 -0.20475363365E+02 -0.16551970548E+01  0.22441304540E+03  0.22535127052E+03  0.00000000000E+00 0. -1.
          1    1    1    2  502    0  0.20475363365E+02  0.16551970548E+01 -0.55039464101E+02  0.58747959886E+02  0.00000000000E+00 0. -1.
</event>
<event>
 4    1  0.3593938E+003  0.2052351E+02  0.7546771E-02  0.1526178E+00
          2   -1    0    0  502    0  0.00000000000E+00  0.00000000000E+00  0.12968269564E+04  0.12968269564E+04  0.00000000000E+00 0.  1.
          1   -1    0    0  501    0 -0.00000000000E+00 -0.00000000000E+00 -0.12189025594E+02  0.12189025594E+02  0.00000000000E+00 0.  1.
          2    1    1    2  501    0  0.18553982944E+02 -0.87729184512E+01  0.12880476610E+04  0.12882111595E+04  0.00000000000E+00 0.  1.
          1    1    1    2  502    0 -0.18553982944E+02  0.87729184512E+01 -0.34097301720E+01  0.20804822544E+02  0.00000000000E+00 0.  1.
</event>
<event>
 4    1  0.3593938E+003  0.2170059E+02  0.7546771E-02  0.1509493E+00
          2   -1    0    0  502    0  0.00000000000E+00  0.00000000000E+00  0.18109566173E+03  0.18109566173E+03  0.00000000000E+00 0. -1.
          1   -1    0    0  501    0 -0.00000000000E+00 -0.00000000000E+00 -0.23595081163E+02  0.23595081163E+02  0.00000000000E+00 0. -1.
          2    1    1    2  501    0 -0.21314130000E+02  0.40771654957E+01  0.17529143376E+03  0.17662956199E+03  0.00000000000E+00 0. -1.
          1    1    1    2  502    0  0.21314130000E+02 -0.40771654957E+01 -0.17790853200E+02  0.28061180904E+02  0.00000000000E+00 0. -1.
</event>
<event>
 4    1  0.3593938E+003  0.3588162E+02  0.7546771E-02  0.1374469E+00
          2   -1    0    0  502    0  0.00000000000E+00  0.00000000000E+00  0.58526408587E+01  0.58526408587E+01  0.00000000000E+00 0. -1.
          1   -1    0    0  501    0 -0.00000000000E+00 -0.00000000000E+00 -0.27791197388E+03  0.27791197388E+03  0.00000000000E+00 0. -1.
          2    1    1    2  501    0 -0.23961008707E+02 -0.26708807500E+02 -0.71253257629E+02  0.79777923381E+02  0.00000000000E+00 0. -1.
          1    1    1    2  502    0  0.23961008707E+02  0.26708807500E+02 -0.20080607539E+03  0.20398669135E+03  0.00000000000E+00 0. -1.
</event>
<event>
 4    1  0.3593938E+003  0.3262824E+02  0.7546771E-02  0.1398051E+00
          2   -1    0    0  502    0  0.00000000000E+00  0.00000000000E+00  0.80346407838E+03  0.80346407838E+03  0.00000000000E+00 0.  1.
          1   -1    0    0  501    0 -0.00000000000E+00 -0.00000000000E+00 -0.62312075362E+01  0.62312075362E+01  0.00000000000E+00 0. -1.
          2    1    1    2  501    0  0.32604525876E+02  0.12436711719E+01  0.75785074469E+03  0.75855280176E+03  0.00000000000E+00 0.  1.
          1    1    1    2  502    0 -0.32604525876E+02 -0.12436711719E+01  0.39382126152E+02  0.51142484158E+02  0.00000000000E+00 0. -1.
</event>
<event>
 4    1  0.3593938E+003  0.2783728E+02  0.7546771E-02  0.1439374E+00
          2   -1    0    0  502    0  0.00000000000E+00  0.00000000000E+00  0.11890880811E+03  0.11890880811E+03  0.00000000000E+00 0. -1.
          1   -1    0    0  501    0 -0.00000000000E+00 -0.00000000000E+00 -0.10602060841E+02  0.10602060841E+02  0.00000000000E+00 0. -1.
          2    1    1    2  501    0 -0.25135663479E+02  0.11962955553E+02  0.94349755586E+02  0.98370677863E+02  0.00000000000E+00 0. -1.
          1    1    1    2  502    0  0.25135663479E+02 -0.11962955553E+02  0.13956991682E+02  0.31140191087E+02  0.00000000000E+00 0. -1.
</event>
<event>
 4    1  0.3593938E+003  0.3289734E+02  0.7546771E-02  0.1395980E+00
          2   -1    0    0  502    0  0.00000000000E+00  0.00000000000E+00  0.95275612414E+02  0.95275612414E+02  0.00000000000E+00 0. -1.
          1   -1    0    0  501    0 -0.00000000000E+00 -0.00000000000E+00 -0.23112280370E+02  0.23112280370E+02  0.00000000000E+00 0.  1.
          2    1    1    2  501    0 -0.15855750140E+02  0.28824126183E+02  0.78293630532E+02  0.84924246506E+02  0.00000000000E+00 0. -1.
          1    1    1    2  502    0  0.15855750140E+02 -0.28824126183E+02 -0.61302984881E+01  0.33463646279E+02  0.00000000000E+00 0.  1.
</event>
<event>
 4    1  0.3593938E+003  0.2433054E+02  0.7546771E-02  0.1476434E+00
          2   -1    0    0  502    0  0.00000000000E+00  0.00000000000E+00  0.96620099166E+03  0.96620099166E+03  0.00000000000E+00 0. -1.
          1   -1    0    0  501    0 -0.00000000000E+00 -0.00000000000E+00 -0.14531314852E+02  0.14531314852E+02  0.00000000000E+00 0. -1.
          2    1    1    2  501    0  0.20117084912E+02  0.13684965428E+02  0.95575201745E+03  0.95606165818E+03  0.00000000000E+00 0. -1.
          1    1    1    2  502    0 -0.20117084912E+02 -0.13684965428E+02 -0.40823406391E+01  0.24670648333E+02  0.00000000000E+00 0. -1.
</event>
<event>
 4    1  0.3593938E+003  0.2290416E+02  0.7546771E-02  0.1493705E+00
          2   -1    0    0  502    0  0.00000000000E+00  0.00000000000E+00  0.27413450182E+01  0.27413450182E+01  0.00000000000E+00 0. -1.
          1   -1    0    0  501    0 -0.00000000000E+00 -0.00000000000E+00 -0.13749944852E+04  0.13749944852E+04  0.00000000000E+00 0.  1.
          2    1    1    2  501    0  0.17543003467E+02 -0.14725603377E+02 -0.46990725963E+02  0.52275507573E+02  0.00000000000E+00 0. -1.
          1    1    1    2  502    0 -0.17543003467E+02  0.14725603377E+02 -0.13252624143E+04  0.13254603227E+04  0.00000000000E+00 0.  1.
</event>
<event>
 4    1  0.3593938E+003  0.2259146E+02  0.7546771E-02  0.1497693E+00
          2   -1    0    0  502    0  0.00000000000E+00  0.00000000000E+00  0.66350007054E+03  0.66350007054E+03  0.00000000000E+00 0. -1.
          1   -1    0    0  501    0 -0.00000000000E+00 -0.00000000000E+00 -0.42834090161E+01  0.42834090161E+01  0.00000000000E+00 0.  1.
          2    1    1    2  501    0  0.21756255010E+02 -0.60860174477E+01  0.63203756245E+03  0.63244118667E+03  0.00000000000E+00 0. -1.
          1    1    1    2  502    0 -0.21756255010E+02  0.60860174477E+01  0.27179099074E+02  0.35342292893E+02  0.00000000000E+00 0.  1.
</event>
<event>
 4    1  0.3593938E+003  0.2439171E+02  0.7546771E-02  0.1475725E+00
          2   -1    0    0  502    0  0.00000000000E+00  0.00000000000E+00  0.23714070929E+01  0.23714070929E+01  0.00000000000E+00 0. -1.
          1   -1    0    0  501    0 -0.00000000000E+00 -0.00000000000E+00 -0.52742479332E+03  0.52742479332E+03  0.00000000000E+00 0.  1.
          2    1    1    2  501    0 -0.24384249781E+02  0.60302772738E+00 -0.70714682918E+02  0.74803219583E+02  0.00000000000E+00 0. -1.
          1    1    1    2  502    0  0.24384249781E+02 -0.60302772738E+00 -0.45433870331E+03  0.45499298083E+03  0.00000000000E+00 0.  1.
</event>
<event>
 4    1  0.3593938E+003  0.2106394E+02  0.7546771E-02  0.1518354E+00
          2   -1    0    0  502    0  0.00000000000E+00  0.00000000000E+00  0.29661477887E+03  0.29661477887E+03  0.00000000000E+00 0. -1.
          1   -1    0    0  501    0 -0.00000000000E+00 -0.00000000000E+00 -0.82136198260E+03  0.82136198260E+03  0.00000000000E+00 0.  1.
          2    1    1    2  501    0 -0.20489539211E+02 -0.48855038229E+01  0.29610553913E+03  0.29685380184E+03  0.00000000000E+00 0. -1.
          1    1    1    2  502    0  0.20489539211E+02  0.48855038229E+01 -0.82085274286E+03  0.82112295962E+03  0.00000000000E+00 0.  1.
</event>
<event>
 4    1  0.3593938E+003  0.2274577E+02  0.7546771E-02  0.1495715E+00
          2   -1    0    0  502    0  0.00000000000E+00  0.00000000000E+00  0.16814226833E+02  0.16814226833E+02  0.00000000000E+00 0.  1.
          1   -1    0    0  501    0 -0.00000000000E+00 -0.00000000000E+00 -0.15233353612E+03  0.15233353612E+03  0.00000000000E+00 0.  1.
          2    1    1    2  501    0  0.18356898512E+02 -0.13431097755E+02  0.77914034630E+01  0.24043212718E+02  0.00000000000E+00 0.  1.
          1    1    1    2  502    0 -0.18356898512E+02  0.13431097755E+02 -0.14331071275E+03  0.14510455024E+03  0.00000000000E+00 0.  1.
</event>
<event>
 4    1  0.3593938E+003  0.2353810E+02  0.7546771E-02  0.1485850E+00
          2   -1    0    0  502    0  0.00000000000E+00  0.00000000000E+00  0.36737909796E+02  0.36737909796E+02  0.00000000000E+00 0.  1.
          1   -1    0    0  501    0 -0.00000000000E+00 -0.00000000000E+00 -0.10313949478E+03  0.10313949478E+03  0.00000000000E+00 0.  1.
          2    1    1    2  501    0  0.20918193847E+01  0.23444961347E+02  0.31422765630E+02  0.39261076408E+02  0.00000000000E+00 0.  1.
          1    1    1    2  502    0 -0.20918193847E+01 -0.23444961347E+02 -0.97824350610E+02  0.10061632816E+03  0.00000000000E+00 0.  1.
</event>
<event>
 4    1  0.3593938E+003  0.3153977E+02  0.7546771E-02  0.1406672E+00
          2   -1    0    0  502    0  0.00000000000E+00  0.00000000000E+00  0.39855221996E+03  0.39855221996E+03  0.00000000000E+00 0. -1.
          1   -1    0    0  501    0 -0.00000000000E+00 -0.00000000000E+00 -0.12615233633E+03  0.12615233633E+03  0.00000000000E+00 0. -1.
          2    1    1    2  501    0  0.31352877305E+02 -0.34284550819E+01  0.39594393126E+03  0.39719812930E+03  0.00000000000E+00 0. -1.
          1    1    1    2  502    0 -0.31352877305E+02  0.34284550819E+01 -0.12354404763E+03  0.12750642699E+03  0.00000000000E+00 0. -1.
</event>
<event>
 4    1  0.3593938E+003  0.2997132E+02  0.7546771E-02  0.1419846E+00
          2   -1    0    0  502    0  0.00000000000E+00  0.00000000000E+00  0.45046591310E+02  0.45046591310E+02  0.00000000000E+00 0. -1.
          1   -1    0    0  501    0 -0.00000000000E+00 -0.00000000000E+00 -0.30636120455E+03  0.30636120455E+03  0.00000000000E+00 0.  1.
          2    1    1    2  501    0 -0.92455302749E+01 -0.28509647073E+02  0.39232077100E+02  0.49370392746E+02  0.00000000000E+00 0. -1.
          1    1    1    2  502    0  0.92455302749E+01  0.28509647073E+02 -0.30054669034E+03  0.30203740312E+03  0.00000000000E+00 0.  1.
</event>
<event>
 4    1  0.3593938E+003  0.2097512E+02  0.7546771E-02  0.1519620E+00
          2   -1    0    0  502    0  0.00000000000E+00  0.00000000000E+00  0.98271500059E+00  0.98271500059E+00  0.00000000000E+00 0. -1.
          1   -1    0    0  501    0 -0.00000000000E+00 -0.00000000000E+00 -0.11812934235E+04  0.11812934235E+04  0.00000000000E+00 0. -1.
          2    1    1    2  501    0 -0.20642585986E+02 -0.37201051767E+01 -0.12431238239E+03  0.12606952032E+03  0.00000000000E+00 0. -1.
          1    1    1    2  502    0  0.20642585986E+02  0.37201051767E+01 -0.10559983261E+04  0.10562066182E+04  0.00000000000E+00 0. -1.
</event>
<event>
 4    1  0.3593938E+003  0.4473501E+02  0.7546771E-02  0.1322770E+00
          2   -1    0    0  502    0  0.00000000000E+00  0.00000000000E+00  0.82270632980E+02  0.82270632980E+02  0.00000000000E+00 0. -1.
          1   -1    0    0  501    0 -0.00000000000E+00 -0.00000000000E+00 -0.25498650165E+03  0.25498650165E+03  0.00000000000E+00 0.  1.
          2    1    1    2  501    0 -0.26476211269E+02 -0.36058724664E+02  0.74025772581E+02  0.86492984650E+02  0.00000000000E+00 0. -1.
          1    1    1    2  502    0  0.26476211269E+02  0.36058724664E+02 -0.24674164125E+03  0.25076414998E+03  0.00000000000E+00 0.  1.
</event>
<event>
 4    1  0.3593938E+003  0.2407596E+02  0.7546771E-02  0.1479412E+00
          2   -1    0    0  502    0  0.00000000000E+00  0.00000000000E+00  0.24163797364E+03  0.24163797364E+03  0.00000000000E+00 0. -1.
          1   -1    0    0  501    0 -0.00000000000E+00 -0.00000000000E+00 -0.22848894839E+02  0.22848894839E+02  0.00000000000E+00 0.  1.
          2    1    1    2  501    0  0.63882008250E+01 -0.23212983399E+02  0.23450358749E+03  0.23573625995E+03  0.00000000000E+00 0. -1.
          1    1    1    2  502    0 -0.63882008250E+01  0.23212983399E+02 -0.15714508684E+02  0.28750608537E+02  0.00000000000E+00 0.  1.
</event>
<event>
 4    1  0.3593938E+003  0.2995926E+02  0.7546771E-02  0.1419951E+00
          2   -1    0    0  502    0  0.00000000000E+00  0.00000000000E+00  0.59817185810E+02  0.59817185810E+02  0.00000000000E+00 0. -1.
          1   -1    0    0  501    0 -0.00000000000E+00 -0.00000000000E+00 -0.63614190120E+02  0.63614190120E+02  0.00000000000E+00 0.  1.
          2    1    1    2  501    0  0.20100106050E+02 -0.22215831324E+02  0.52049792989E+02  0.60056126872E+02  0.00000000000E+00 0. -1.
          1    1    1    2  502    0 -0.20100106050E+02  0.22215831324E+02 -0.55846797299E+02  0.63375249058E+02  0.00000000000E+00 0.  1.
</event>
<event>
 4    1  0.3593938E+003  0.2087459E+02  0.7546771E-02  0.1521063E+00
          2   -1    0    0  502    0  0.00000000000E+00  0.00000000000E+00  0.24716223106E+02  0.24716223106E+02  0.00000000000E+00 0.  1.
          1   -1    0    0  501    0 -0.00000000000E+00 -0.00000000000E+00 -0.30339872725E+02  0.30339872725E+02  0.00000000000E+00 0. -1.
          2    1    1    2  501    0  0.16003820476E+02 -0.13402475956E+02  0.15005316338E+02  0.25708133926E+02  0.00000000000E+00 0.  1.
          1    1    1    2  502    0 -0.16003820476E+02  0.13402475956E+02 -0.20628965957E+02  0.29347961906E+02  0.00000000000E+00 0. -1.
</event>
<event>
 4    1  0.3593938E+003  0.2900135E+02  0.7546771E-02  0.1428478E+00
          2   -1    0    0  502    0  0.00000000000E+00  0.00000000000E+00  0.33141829014E+03  0.33141829014E+03  0.00000000000E+00 0.  1.
          1   -1    0    0  501    0 -0.00000000000E+00 -0.00000000000E+00 -0.31976591028E+03  0.31976591028E+03  0.00000000000E+00 0. -1.
          2    1    1    2  501    0  0.28928675091E+02  0.20517869120E+01  0.33012368953E+03  0.33139512438E+03  0.00000000000E+00 0.  1.
          1    1    1    2  502    0 -0.28928675091E+02 -0.20517869120E+01 -0.31847130967E+03  0.31978907604E+03  0.00000000000E+00 0. -1.
</event>
<event>
 4    1  0.3593938E+003  0.3062040E+02  0.7546771E-02  0.1414280E+00
          2   -1    0    0  502    0  0.00000000000E+00  0.00000000000E+00  0.19176007320E+01  0.19176007320E+01  0.00000000000E+00 0. -1.
          1   -1    0    0  501    0 -0.00000000000E+00 -0.00000000000E+00 -0.48901427561E+03  0.48901427561E+03  0.00000000000E+00 0. -1.
          2    1    1    2  501    0 -0.28811455397E+02 -0.10368607774E+02 -0.24639531449E+03  0.24829067440E+03  0.00000000000E+00 0. -1.
          1    1    1    2  502    0  0.28811455397E+02  0.10368607774E+02 -0.24070136039E+03  0.24264120195E+03  0.00000000000E+00 0. -1.
</event>
<event>
 4    1  0.3593938E+003  0.5494509E+02  0.7546771E-02  0.1278047E+00
          2   -1    0    0  502    0  0.00000000000E+00  0.00000000000E+00  0.27868985360E+04  0.27868985360E+04  0.00000000000E+00 0. -1.
          1   -1    0    0  501    0 -0.00000000000E+00 -0.00000000000E+00 -0.60569245385E+01  0.60569245385E+01  0.00000000000E+00 0. -1.
          2    1    1    2  501    0 -0.11555102571E+02  0.53716313450E+02  0.26558730330E+04  0.26564413282E+04  0.00000000000E+00 0. -1.
          1    1    1    2  502    0  0.11555102571E+02 -0.53716313450E+02  0.12496857843E+03  0.13651413231E+03  0.00000000000E+00 0. -1.
</event>
<event>
 4    1  0.3593938E+003  0.2601661E+02  0.7546771E-02  0.1457745E+00
          2   -1    0    0  502    0  0.00000000000E+00  0.00000000000E+00  0.50102319109E+03  0.50102319109E+03  0.00000000000E+00 0.  1.
          1   -1    0    0  501    0 -0.00000000000E+00 -0.00000000000E+00 -0.21558539731E+01  0.21558539731E+01  0.00000000000E+00 0.  1.
          2    1    1    2  501    0  0.15779550371E+02  0.20685009161E+02  0.40316110961E+03  0.40399968331E+03  0.00000000000E+00 0.  1.
          1    1    1    2  502    0 -0.15779550371E+02 -0.20685009161E+02  0.95706227511E+02  0.99179361756E+02  0.00000000000E+00 0.  1.
</event>
<event>
 4    1  0.3593938E+003  0.2415926E+02  0.7546771E-02  0.1478433E+00
          2   -1    0    0  502    0  0.00000000000E+00  0.00000000000E+00  0.52537498127E+03  0.52537498127E+03  0.00000000000E+00 0.  1.
          1   -1    0    0  501    0 -0.00000000000E+00 -0.00000000000E+00 -0.40571848852E+02  0.40571848852E+02  0.00000000000E+00 0. -1.
          2    1    1    2  501    0 -0.23769604190E+02  0.43215372358E+01  0.52147383108E+03  0.52203316587E+03  0.00000000000E+00 0.  1.
          1    1    1    2  502    0  0.23769604190E+02 -0.43215372358E+01 -0.36670698663E+02  0.43913664250E+02  0.00000000000E+00 0. -1.
</event>
<event>
 4    1  0.3593938E+003  0.2562316E+02  0.7546771E-02  0.1461951E+00
          2   -1    0    0  502    0  0.00000000000E+00  0.00000000000E+00  0.97965363172E+01  0.97965363172E+01  0.00000000000E+00 0. -1.
          1   -1    0    0  501    0 -0.00000000000E+00 -0.00000000000E+00 -0.14052378815E+03  0.14052378815E+03  0.00000000000E+00 0.  1.
          2    1    1    2  501    0  0.25380189348E+02  0.35202796602E+01 -0.11004443303E+02  0.27886271759E+02  0.00000000000E+00 0. -1.
          1    1    1    2  502    0 -0.25380189348E+02 -0.35202796602E+01 -0.11972280853E+03  0.12243405271E+03  0.00000000000E+00 0.  1.
</event>
<event>
 4    1  0.3593938E+003  0.2319114E+02  0.7546771E-02  0.1490112E+00
          2   -1    0    0  502    0  0.00000000000E+00  0.00000000000E+00  0.20920384078E+03  0.20920384078E+03  0.00000000000E+00 0.  1.
          1   -1    0    0  501    0 -0.00000000000E+00 -0.00000000000E+00 -0.88016827866E+01  0.88016827866E+01  0.00000000000E+00 0.  1.
          2    1    1    2  501    0 -0.22494722999E+02  0.56406198463E+01  0.19191349127E+03  0.19330964096E+03  0.00000000000E+00 0.  1.
          1    1    1    2  502    0  0.22494722999E+02 -0.56406198463E+01  0.84886667191E+01  0.24695882607E+02  0.00000000000E+00 0.  1.
</event>
<event>
 4    1  0.3593938E+003  0.3034774E+02  0.7546771E-02  0.1416598E+00
          2   -1    0    0  502    0  0.00000000000E+00  0.00000000000E+00  0.20191855746E+01  0.20191855746E+01  0.00000000000E+00 0.  1.
          1   -1    0    0  501    0 -0.00000000000E+00 -0.00000000000E+00 -0.78025948376E+03  0.78025948376E+03  0.00000000000E+00 0. -1.
          2    1    1    2  501    0 -0.18509556886E+02  0.24049566420E+02 -0.13701612087E+03  0.14033674757E+03  0.00000000000E+00 0.  1.
          1    1    1    2  502    0  0.18509556886E+02 -0.24049566420E+02 -0.64122417732E+03  0.64194192177E+03  0.00000000000E+00 0. -1.
</event>
<event>
 4    1  0.3593938E+003  0.3730997E+02  0.7546771E-02  0.1365014E+00
          2   -1    0    0  502    0  0.00000000000E+00  0.00000000000E+00  0.48369926716E+03  0.48369926716E+03  0.00000000000E+00 0. -1.
          1   -1    0    0  501    0 -0.00000000000E+00 -0.00000000000E+00 -0.24462241109E+03  0.24462241109E+03  0.00000000000E+00 0. -1.
          2    1    1    2  501    0 -0.36288981421E+02  0.86685379703E+01  0.48155082172E+03  0.48299402442E+03  0.00000000000E+00 0. -1.
          1    1    1    2  502    0  0.36288981421E+02 -0.86685379703E+01 -0.24247396564E+03  0.24532765384E+03  0.00000000000E+00 0. -1.
</event>
<event>
 4    1  0.3593938E+003  0.2326606E+02  0.7546771E-02  0.1489184E+00
          2   -1    0    0  502    0  0.00000000000E+00  0.00000000000E+00  0.54528294450E+03  0.54528294450E+03  0.00000000000E+00 0.  1.
          1   -1    0    0  501    0 -0.00000000000E+00 -0.00000000000E+00 -0.94812999511E+01  0.94812999511E+01  0.00000000000E+00 0. -1.
          2    1    1    2  501    0  0.21143366130E+02  0.97091428032E+01  0.53036028059E+03  0.53087035764E+03  0.00000000000E+00 0.  1.
          1    1    1    2  502    0 -0.21143366130E+02 -0.97091428032E+01  0.54413639508E+01  0.23893886810E+02  0.00000000000E+00 0. -1.
</event>
<event>
 4    1  0.3593938E+003  0.2105689E+02  0.7546771E-02  0.1518454E+00
          2   -1    0    0  502    0  0.00000000000E+00  0.00000000000E+00  0.77904021495E+02  0.77904021495E+02  0.00000000000E+00 0. -1.
          1   -1    0    0  501    0 -0.00000000000E+00 -0.00000000000E+00 -0.85474311332E+01  0.85474311332E+01  0.00000000000E+00 0. -1.
          2    1    1    2  501    0 -0.83218955709E+01 -0.19342664261E+02  0.59664283706E+02  0.63270999334E+02  0.00000000000E+00 0. -1.
          1    1    1    2  502    0  0.83218955709E+01  0.19342664261E+02  0.96923066562E+01  0.23180453294E+02  0.00000000000E+00 0. -1.
</event>
<event>
 4    1  0.3593938E+003  0.2038711E+02  0.7546771E-02  0.1528198E+00
          2   -1    0    0  502    0  0.00000000000E+00  0.00000000000E+00  0.13936539063E+02  0.13936539063E+02  0.00000000000E+00 0. -1.
          1   -1    0    0  501    0 -0.00000000000E+00 -0.00000000000E+00 -0.31571501395E+02  0.31571501395E+02  0.00000000000E+00 0. -1.
          2    1    1    2  501    0  0.48416526282E+01  0.19803838892E+02 -0.14171819517E+02  0.24828896541E+02  0.00000000000E+00 0. -1.
          1    1    1    2  502    0 -0.48416526282E+01 -0.19803838892E+02 -0.34631428150E+01  0.20679143918E+02  0.00000000000E+00 0. -1.
</event>
<event>
 4    1  0.3593938E+003  0.2466552E+02  0.7546771E-02  0.1472580E+00
          2   -1    0    0  502    0  0.00000000000E+00  0.00000000000E+00  0.35719725609E+03  0.35719725609E+03  0.00000000000E+00 0. -1.
          1   -1    0    0  501    0 -0.00000000000E+00 -0.00000000000E+00 -0.13065272701E+02  0.13065272701E+02  0.00000000000E+00 0. -1.
          2    1    1    2  501    0 -0.55347989165E+01 -0.24036512892E+02  0.34470892126E+03  0.34559026079E+03  0.00000000000E+00 0. -1.
          1    1    1    2  502    0  0.55347989165E+01  0.24036512892E+02 -0.57693787708E+00  0.24672268002E+02  0.00000000000E+00 0. -1.
</event>
<event>
 4    1  0.3593938E+003  0.1114697E+03  0.7546771E-02  0.1145292E+00
          2   -1    0    0  502    0  0.00000000000E+00  0.00000000000E+00  0.36286470408E+02  0.36286470408E+02  0.00000000000E+00 0. -1.
          1   -1    0    0  501    0 -0.00000000000E+00 -0.00000000000E+00 -0.46687864123E+03  0.46687864123E+03  0.00000000000E+00 0. -1.
          2    1    1    2  501    0  0.10668004648E+03 -0.32324261482E+02 -0.85405483275E+02  0.14042644613E+03  0.00000000000E+00 0. -1.
          1    1    1    2  502    0 -0.10668004648E+03  0.32324261482E+02 -0.34518668754E+03  0.36273866551E+03  0.00000000000E+00 0. -1.
</event>
<event>
 4    1  0.3593938E+003  0.2317766E+02  0.7546771E-02  0.1490279E+00
          2   -1    0    0  502    0  0.00000000000E+00  0.00000000000E+00  0.59304462020E+03  0.59304462020E+03  0.00000000000E+00 0.  1.
          1   -1    0    0  501    0 -0.00000000000E+00 -0.00000000000E+00 -0.45800258830E+02  0.45800258830E+02  0.00000000000E+00 0.  1.
          2    1    1    2  501    0  0.22715599831E+02  0.46049556177E+01  0.58987006476E+03  0.59032524712E+03  0.00000000000E+00 0.  1.
          1    1    1    2  502    0 -0.22715599831E+02 -0.46049556177E+01 -0.42625703384E+02  0.48519631912E+02  0.00000000000E+00 0.  1.
</event>
<event>
 4    1  0.3593938E+003  0.2357776E+02  0.7546771E-02  0.1485368E+00
          2   -1    0    0  502    0  0.00000000000E+00  0.00000000000E+00  0.10658088856E+03  0.10658088856E+03  0.00000000000E+00 0.  1.
          1   -1    0    0  501    0 -0.00000000000E+00 -0.00000000000E+00 -0.30412760902E+02  0.30412760902E+02  0.00000000000E+00 0.  1.
          2    1    1    2  501    0  0.18187247261E+02  0.15004493315E+02  0.10043114075E+03  0.10316164410E+03  0.00000000000E+00 0.  1.
          1    1    1    2  502    0 -0.18187247261E+02 -0.15004493315E+02 -0.24263013087E+02  0.33832005359E+02  0.00000000000E+00 0.  1.
</event>
<event>
 4    1  0.3593938E+003  0.3700299E+02  0.7546771E-02  0.1367004E+00
          2   -1    0    0  502    0  0.00000000000E+00  0.00000000000E+00  0.15584778899E+02  0.15584778899E+02  0.00000000000E+00 0. -1.
          1   -1    0    0  501    0 -0.00000000000E+00 -0.00000000000E+00 -0.14094320155E+03  0.14094320155E+03  0.00000000000E+00 0. -1.
          2    1    1    2  501    0  0.31966495017E+02 -0.18637708198E+02 -0.14646885162E+02  0.39796384453E+02  0.00000000000E+00 0. -1.
          1    1    1    2  502    0 -0.31966495017E+02  0.18637708198E+02 -0.11071153748E+03  0.11673159599E+03  0.00000000000E+00 0. -1.
</event>
<event>
 4    1  0.3593938E+003  0.2988173E+02  0.7546771E-02  0.1420627E+00
          2   -1    0    0  502    0  0.00000000000E+00  0.00000000000E+00  0.37467602138E+03  0.37467602138E+03  0.00000000000E+00 0. -1.
          1   -1    0    0  501    0 -0.00000000000E+00 -0.00000000000E+00 -0.91268983948E+01  0.91268983948E+01  0.00000000000E+00 0. -1.
          2    1    1    2  501    0 -0.25229843203E+02  0.16011638010E+02  0.34772999671E+03  0.34901155876E+03  0.00000000000E+00 0. -1.
          1    1    1    2  502    0  0.25229843203E+02 -0.16011638010E+02  0.17819126279E+02  0.34791361014E+02  0.00000000000E+00 0. -1.
</event>
<event>
 4    1  0.3593938E+003  0.2157148E+02  0.7546771E-02  0.1511260E+00
          2   -1    0    0  502    0  0.00000000000E+00  0.00000000000E+00  0.92606543633E+03  0.92606543633E+03  0.00000000000E+00 0. -1.
          1   -1    0    0  501    0 -0.00000000000E+00 -0.00000000000E+00 -0.50902167697E+02  0.50902167697E+02  0.00000000000E+00 0.  1.
          2    1    1    2  501    0  0.12401228112E+02 -0.17650444345E+02  0.92364843006E+03  0.92390029278E+03  0.00000000000E+00 0. -1.
          1    1    1    2  502    0 -0.12401228112E+02  0.17650444345E+02 -0.48485161428E+02  0.53067311247E+02  0.00000000000E+00 0.  1.
</event>
<event>
 4    1  0.3593938E+003  0.2432004E+02  0.7546771E-02  0.1476556E+00
          2   -1    0    0  502    0  0.00000000000E+00  0.00000000000E+00  0.81184024502E+01  0.81184024502E+01  0.00000000000E+00 0.  1.
          1   -1    0    0  501    0 -0.00000000000E+00 -0.00000000000E+00 -0.87140007736E+03  0.87140007736E+03  0.00000000000E+00 0. -1.
          2    1    1    2  501    0  0.13028229287E+02 -0.20536053851E+02 -0.10666172694E+02  0.26556195248E+02  0.00000000000E+00 0.  1.
          1    1    1    2  502    0 -0.13028229287E+02  0.20536053851E+02 -0.85261550222E+03  0.85296228456E+03  0.00000000000E+00 0. -1.
</event>
<event>
 4    1  0.3593938E+003  0.4911821E+02  0.7546771E-02  0.1302042E+00
          2   -1    0    0  502    0  0.00000000000E+00  0.00000000000E+00  0.40409388151E+03  0.40409388151E+03  0.00000000000E+00 0. -1.
          1   -1    0    0  501    0 -0.00000000000E+00 -0.00000000000E+00 -0.28175607319E+02  0.28175607319E+02  0.00000000000E+00 0.  1.
          2    1    1    2  501    0 -0.48690613111E+02 -0.64670601952E+01  0.37983283394E+03  0.38299553576E+03  0.00000000000E+00 0. -1.
          1    1    1    2  502    0  0.48690613111E+02  0.64670601952E+01 -0.39145597526E+01  0.49273953066E+02  0.00000000000E+00 0.  1.
</event>
<event>
 4    1  0.3593938E+003  0.2405670E+02  0.7546771E-02  0.1479639E+00
          2   -1    0    0  502    0  0.00000000000E+00  0.00000000000E+00  0.47237941239E+02  0.47237941239E+02  0.00000000000E+00 0. -1.
          1   -1    0    0  501    0 -0.00000000000E+00 -0.00000000000E+00 -0.17126103068E+02  0.17126103068E+02  0.00000000000E+00 0.  1.
          2    1    1    2  501    0  0.23588474470E+02  0.47232293006E+01  0.32225657982E+02  0.40214649759E+02  0.00000000000E+00 0. -1.
          1    1    1    2  502    0 -0.23588474470E+02 -0.47232293006E+01 -0.21138198101E+01  0.24149394548E+02  0.00000000000E+00 0.  1.
</event>
<event>
 4    1  0.3593938E+003  0.2519234E+02  0.7546771E-02  0.1466663E+00
          2   -1    0    0  502    0  0.00000000000E+00  0.00000000000E+00  0.16303631777E+02  0.16303631777E+02  0.00000000000E+00 0. -1.
          1   -1    0    0  501    0 -0.00000000000E+00 -0.00000000000E+00 -0.92370874880E+02  0.92370874880E+02  0.00000000000E+00 0. -1.
          2    1    1    2  501    0 -0.14090123055E+02  0.20883542462E+02  0.32976260206E+01  0.25407247998E+02  0.00000000000E+00 0. -1.
          1    1    1    2  502    0  0.14090123055E+02 -0.20883542462E+02 -0.79364869124E+02  0.83267258659E+02  0.00000000000E+00 0. -1.
</event>
<event>
 4    1  0.3593938E+003  0.2583624E+02  0.7546771E-02  0.1459662E+00
          2   -1    0    0  502    0  0.00000000000E+00  0.00000000000E+00  0.13970385879E+03  0.13970385879E+03  0.00000000000E+00 0. -1.
          1   -1    0    0  501    0 -0.00000000000E+00 -0.00000000000E+00 -0.24796035346E+02  0.24796035346E+02  0.00000000000E+00 0. -1.
          2    1    1    2  501    0  0.18476706347E+02  0.18058865971E+02  0.13135566501E+03  0.13387240958E+03  0.00000000000E+00 0. -1.
          1    1    1    2  502    0 -0.18476706347E+02 -0.18058865971E+02 -0.16447841569E+02  0.30627484550E+02  0.00000000000E+00 0. -1.
</event>
<event>
 4    1  0.3593938E+003  0.4339656E+02  0.7546771E-02  0.1329655E+00
          2   -1    0    0  502    0  0.00000000000E+00  0.00000000000E+00  0.70269222121E+03  0.70269222121E+03  0.00000000000E+00 0.  1.
          1   -1    0    0  501    0 -0.00000000000E+00 -0.00000000000E+00 -0.18937487473E+03  0.18937487473E+03  0.00000000000E+00 0.  1.
          2    1    1    2  501    0 -0.39260141910E+02 -0.18490611309E+02  0.69952480297E+03  0.70086961085E+03  0.00000000000E+00 0.  1.
          1    1    1    2  502    0  0.39260141910E+02  0.18490611309E+02 -0.18620745649E+03  0.19119748508E+03  0.00000000000E+00 0.  1.
</event>
<event>
 4    1  0.3593938E+003  0.3432657E+02  0.7546771E-02  0.1385360E+00
          2   -1    0    0  502    0  0.00000000000E+00  0.00000000000E+00  0.33448115158E+02  0.33448115158E+02  0.00000000000E+00 0. -1.
          1   -1    0    0  501    0 -0.00000000000E+00 -0.00000000000E+00 -0.35998048231E+02  0.35998048231E+02  0.00000000000E+00 0. -1.
          2    1    1    2  501    0 -0.23948468311E+02  0.24592335370E+02 -0.63533067460E+01  0.34909548837E+02  0.00000000000E+00 0. -1.
          1    1    1    2  502    0  0.23948468311E+02 -0.24592335370E+02  0.38033736730E+01  0.34536614552E+02  0.00000000000E+00 0. -1.
</event>
<event>
 4    1  0.3593938E+003  0.2179067E+02  0.7546771E-02  0.1508269E+00
          2   -1    0    0  502    0  0.00000000000E+00  0.00000000000E+00  0.75412343231E+01  0.75412343231E+01  0.00000000000E+00 0. -1.
          1   -1    0    0  501    0 -0.00000000000E+00 -0.00000000000E+00 -0.19094236289E+03  0.19094236289E+03  0.00000000000E+00 0.  1.
          2    1    1    2  501    0  0.18568564125E+02  0.11403578199E+02 -0.10453027174E+02  0.24168139078E+02  0.00000000000E+00 0. -1.
          1    1    1    2  502    0 -0.18568564125E+02 -0.11403578199E+02 -0.17294810140E+03  0.17431545814E+03  0.00000000000E+00 0.  1.
</event>
<event>
 4    1  0.3593938E+003  0.3814540E+02  0.7546771E-02  0.1359710E+00
          2   -1    0    0  502    0  0.00000000000E+00  0.00000000000E+00  0.22264413516E+02  0.22264413516E+02  0.00000000000E+00 0.  1.
          1   -1    0    0  501    0 -0.00000000000E+00 -0.00000000000E+00 -0.35322965907E+03  0.35322965907E+03  0.00000000000E+00 0.  1.
          2    1    1    2  501    0 -0.30323233259E+02  0.23142455354E+02  0.40084670062E+01  0.38355436679E+02  0.00000000000E+00 0.  1.
          1    1    1    2  502    0  0.30323233259E+02 -0.23142455354E+02 -0.33497371256E+03  0.33713863591E+03  0.00000000000E+00 0.  1.
</event>
<event>
 4    1  0.3593938E+003  0.2911579E+02  0.7546771E-02  0.1427439E+00
          2   -1    0    0  502    0  0.00000000000E+00  0.00000000000E+00  0.52492421005E+03  0.52492421005E+03  0.00000000000E+00 0.  1.
          1   -1    0    0  501    0 -0.00000000000E+00 -0.00000000000E+00 -0.20913264421E+03  0.20913264421E+03  0.00000000000E+00 0.  1.
          2    1    1    2  501    0 -0.24040694931E+02  0.16424811770E+02  0.52350433735E+03  0.52431338022E+03  0.00000000000E+00 0.  1.
          1    1    1    2  502    0  0.24040694931E+02 -0.16424811770E+02 -0.20771277150E+03  0.20974347404E+03  0.00000000000E+00 0.  1.
</event>
<event>
 4    1  0.3593938E+003  0.2360298E+02  0.7546771E-02  0.1485062E+00
          2   -1    0    0  502    0  0.00000000000E+00  0.00000000000E+00  0.77586126810E+02  0.77586126810E+02  0.00000000000E+00 0. -1.
          1   -1    0    0  501    0 -0.00000000000E+00 -0.00000000000E+00 -0.84879795314E+02  0.84879795314E+02  0.00000000000E+00 0. -1.
          2    1    1    2  501    0 -0.21102456419E+02 -0.10572939060E+02  0.74074258067E+02  0.77743786989E+02  0.00000000000E+00 0. -1.
          1    1    1    2  502    0  0.21102456419E+02  0.10572939060E+02 -0.81367926571E+02  0.84722135135E+02  0.00000000000E+00 0. -1.
</event>
<event>
 4    1  0.3593938E+003  0.3995008E+02  0.7546771E-02  0.1348779E+00
          2   -1    0    0  502    0  0.00000000000E+00  0.00000000000E+00  0.13598638241E+02  0.13598638241E+02  0.00000000000E+00 0.  1.
          1   -1    0    0  501    0 -0.00000000000E+00 -0.00000000000E+00 -0.16971144942E+03  0.16971144942E+03  0.00000000000E+00 0.  1.
          2    1    1    2  501    0 -0.37736983754E+02 -0.13112181378E+02 -0.27153465490E+02  0.48304450432E+02  0.00000000000E+00 0.  1.
          1    1    1    2  502    0  0.37736983754E+02  0.13112181378E+02 -0.12895934569E+03  0.13500563723E+03  0.00000000000E+00 0.  1.
</event>
<event>
 4    1  0.3593938E+003  0.4788282E+02  0.7546771E-02  0.1307622E+00
          2   -1    0    0  502    0  0.00000000000E+00  0.00000000000E+00  0.73675508198E+02  0.73675508198E+02  0.00000000000E+00 0.  1.
          1   -1    0    0  501    0 -0.00000000000E+00 -0.00000000000E+00 -0.13516345280E+03  0.13516345280E+03  0.00000000000E+00 0. -1.
          2    1    1    2  501    0 -0.44505837777E+02 -0.17663364676E+02  0.60869590079E+02  0.77445923355E+02  0.00000000000E+00 0.  1.
          1    1    1    2  502    0  0.44505837777E+02  0.17663364676E+02 -0.12235753468E+03  0.13139303764E+03  0.00000000000E+00 0. -1.
</event>
<event>
 4    1  0.3593938E+003  0.2249683E+02  0.7546771E-02  0.1498915E+00
          2   -1    0    0  502    0  0.00000000000E+00  0.00000000000E+00  0.16245461218E+01  0.16245461218E+01  0.00000000000E+00 0. -1.
          1   -1    0    0  501    0 -0.00000000000E+00 -0.00000000000E+00 -0.76102869846E+03  0.76102869846E+03  0.00000000000E+00 0. -1.
          2    1    1    2  501    0  0.81755726855E+00 -0.22481970585E+02 -0.86641703683E+02  0.89514759779E+02  0.00000000000E+00 0. -1.
          1    1    1    2  502    0 -0.81755726855E+00  0.22481970585E+02 -0.67276244866E+03  0.67313848480E+03  0.00000000000E+00 0. -1.
</event>
<event>
 4    1  0.3593938E+003  0.2289282E+02  0.7546771E-02  0.1493848E+00
          2   -1    0    0  502    0  0.00000000000E+00  0.00000000000E+00  0.92770618191E+02  0.92770618191E+02  0.00000000000E+00 0. -1.
          1   -1    0    0  501    0 -0.00000000000E+00 -0.00000000000E+00 -0.84522632373E+01  0.84522632373E+01  0.00000000000E+00 0.  1.
          2    1    1    2  501    0  0.98508372445E+01 -0.20665000526E+02  0.71305073927E+02  0.74889884557E+02  0.00000000000E+00 0. -1.
          1    1    1    2  502    0 -0.98508372445E+01  0.20665000526E+02  0.13013281026E+02  0.26332996871E+02  0.00000000000E+00 0.  1.
</event>
<event>
 4    1  0.3593938E+003  0.2268929E+02  0.7546771E-02  0.1496437E+00
          2   -1    0    0  502    0  0.00000000000E+00  0.00000000000E+00  0.18066297994E+02  0.18066297994E+02  0.00000000000E+00 0. -1.
          1   -1    0    0  501    0 -0.00000000000E+00 -0.00000000000E+00 -0.15737409872E+03  0.15737409872E+03  0.00000000000E+00 0.  1.
          2    1    1    2  501    0  0.15040444504E+02 -0.16987907651E+02  0.97284170434E+01  0.24686961648E+02  0.00000000000E+00 0. -1.
          1    1    1    2  502    0 -0.15040444504E+02  0.16987907651E+02 -0.14903621777E+03  0.15075343506E+03  0.00000000000E+00 0.  1.
</event>
<event>
 4    1  0.3593938E+003  0.4346918E+02  0.7546771E-02  0.1329274E+00
          2   -1    0    0  502    0  0.00000000000E+00  0.00000000000E+00  0.21489464420E+03  0.21489464420E+03  0.00000000000E+00 0.  1.
          1   -1    0    0  501    0 -0.00000000000E+00 -0.00000000000E+00 -0.24414641791E+03  0.24414641791E+03  0.00000000000E+00 0.  1.
          2    1    1    2  501    0 -0.74646758056E+01  0.42823452757E+02  0.21072362039E+03  0.21516043707E+03  0.00000000000E+00 0.  1.
          1    1    1    2  502    0  0.74646758056E+01 -0.42823452757E+02 -0.23997539411E+03  0.24388062504E+03  0.00000000000E+00 0.  1.
</event>
<event>
 4    1  0.3593938E+003  0.5365280E+02  0.7546771E-02  0.1283067E+00
          2   -1    0    0  502    0  0.00000000000E+00  0.00000000000E+00  0.14179743015E+03  0.14179743015E+03  0.00000000000E+00 0. -1.
          1   -1    0    0  501    0 -0.00000000000E+00 -0.00000000000E+00 -0.15247861831E+03  0.15247861831E+03  0.00000000000E+00 0. -1.
          2    1    1    2  501    0  0.43938906273E+02 -0.30789541263E+02  0.13165275407E+03  0.14216564630E+03  0.00000000000E+00 0. -1.
          1    1    1    2  502    0 -0.43938906273E+02  0.30789541263E+02 -0.14233394223E+03  0.15211040216E+03  0.00000000000E+00 0. -1.
</event>
<event>
 4    1  0.3593938E+003  0.2656660E+02  0.7546771E-02  0.1452011E+00
          2   -1    0    0  502    0  0.00000000000E+00  0.00000000000E+00  0.12851707851E+04  0.12851707851E+04  0.00000000000E+00 0. -1.
          1   -1    0    0  501    0 -0.00000000000E+00 -0.00000000000E+00 -0.23243500400E+03  0.23243500400E+03  0.00000000000E+00 0. -1.
          2    1    1    2  501    0  0.17415462821E+02 -0.20062048975E+02  0.12842738412E+04  0.12845485913E+04  0.00000000000E+00 0. -1.
          1    1    1    2  502    0 -0.17415462821E+02  0.20062048975E+02 -0.23153806013E+03  0.23305719780E+03  0.00000000000E+00 0. -1.
</event>
<event>
 4    1  0.3593938E+003  0.2071054E+02  0.7546771E-02  0.1523438E+00
          2   -1    0    0  502    0  0.00000000000E+00  0.00000000000E+00  0.10846800319E+03  0.10846800319E+03  0.00000000000E+00 0.  1.
          1   -1    0    0  501    0 -0.00000000000E+00 -0.00000000000E+00 -0.96691386901E+03  0.96691386901E+03  0.00000000000E+00 0. -1.
          2    1    1    2  501    0  0.74912367819E+01  0.19308230675E+02  0.10736737463E+03  0.10934660276E+03  0.00000000000E+00 0.  1.
          1    1    1    2  502    0 -0.74912367819E+01 -0.19308230675E+02 -0.96581324044E+03  0.96603526944E+03  0.00000000000E+00 0. -1.
</event>
<event>
 4    1  0.3593938E+003  0.2318253E+02  0.7546771E-02  0.1490219E+00
          2   -1    0    0  502    0  0.00000000000E+00  0.00000000000E+00  0.45235736551E+03  0.45235736551E+03  0.00000000000E+00 0.  1.
          1   -1    0    0  501    0 -0.00000000000E+00 -0.00000000000E+00 -0.54127906021E+01  0.54127906021E+01  0.00000000000E+00 0.  1.
          2    1    1    2  501    0  0.10121275654E+02 -0.20856403697E+02  0.42568392125E+03  0.42631470841E+03  0.00000000000E+00 0.  1.
          1    1    1    2  502    0 -0.10121275654E+02  0.20856403697E+02  0.21260653652E+02  0.31455447696E+02  0.00000000000E+00 0.  1.
</event>
<event>
 4    1  0.3593938E+003  0.6230428E+02  0.7546771E-02  0.1252198E+00
          2   -1    0    0  502    0  0.00000000000E+00  0.00000000000E+00  0.75705896143E+03  0.75705896143E+03  0.00000000000E+00 0. -1.
          1   -1    0    0  501    0 -0.00000000000E+00 -0.00000000000E+00 -0.48163352772E+03  0.48163352772E+03  0.00000000000E+00 0.  1.
          2    1    1    2  501    0 -0.43695000096E+02  0.44413623371E+02  0.75375333824E+03  0.75632395036E+03  0.00000000000E+00 0. -1.
          1    1    1    2  502    0  0.43695000096E+02 -0.44413623371E+02 -0.47832790453E+03  0.48236853880E+03  0.00000000000E+00 0.  1.
</event>
<event>
 4    1  0.3593938E+003  0.3953277E+02  0.7546771E-02  0.1351246E+00
          2   -1    0    0  502    0  0.00000000000E+00  0.00000000000E+00  0.87513386902E+02  0.87513386902E+02  0.00000000000E+00 0.  1.
          1   -1    0    0  501    0 -0.00000000000E+00 -0.00000000000E+00 -0.15914800487E+03  0.15914800487E+03  0.00000000000E+00 0.  1.
          2    1    1    2  501    0 -0.39308685758E+02  0.42032748185E+01  0.80387965830E+02  0.89582729058E+02  0.00000000000E+00 0.  1.
          1    1    1    2  502    0  0.39308685758E+02 -0.42032748185E+01 -0.15202258380E+03  0.15707866271E+03  0.00000000000E+00 0.  1.
</event>
<event>
 4    1  0.3593938E+003  0.6282954E+02  0.7546771E-02  0.1250510E+00
          2   -1    0    0  502    0  0.00000000000E+00  0.00000000000E+00  0.81196518545E+03  0.81196518545E+03  0.00000000000E+00 0.  1.
          1   -1    0    0  501    0 -0.00000000000E+00 -0.00000000000E+00 -0.32335573897E+02  0.32335573897E+02  0.00000000000E+00 0.  1.
          2    1    1    2  501    0 -0.53521990703E+02 -0.32908172230E+02  0.77893758196E+03  0.78146740679E+03  0.00000000000E+00 0.  1.
          1    1    1    2  502    0  0.53521990703E+02  0.32908172230E+02  0.69202959300E+00  0.62833352555E+02  0.00000000000E+00 0.  1.
</event>
<event>
 4    1  0.3593938E+003  0.3694190E+02  0.7546771E-02  0.1367402E+00
          2   -1    0    0  502    0  0.00000000000E+00  0.00000000000E+00  0.72128593800E+03  0.72128593800E+03  0.00000000000E+00 0. -1.
          1   -1    0    0  501    0 -0.00000000000E+00 -0.00000000000E+00 -0.40237099269E+02  0.40237099269E+02  0.00000000000E+00 0.  1.
          2    1    1    2  501    0 -0.26154322246E+02 -0.26089374108E+02  0.71222599985E+03  0.71318341181E+03  0.00000000000E+00 0. -1.
          1    1    1    2  502    0  0.26154322246E+02  0.26089374108E+02 -0.31177161125E+02  0.48339625457E+02  0.00000000000E+00 0.  1.
</event>
<event>
 4    1  0.3593938E+003  0.2470615E+02  0.7546771E-02  0.1472118E+00
          2   -1    0    0  502    0  0.00000000000E+00  0.00000000000E+00  0.84007359372E+03  0.84007359372E+03  0.00000000000E+00 0.  1.
          1   -1    0    0  501    0 -0.00000000000E+00 -0.00000000000E+00 -0.34916470399E+01  0.34916470399E+01  0.00000000000E+00 0.  1.
          2    1    1    2  501    0  0.21793671420E+02  0.11637424077E+02  0.79363120917E+03  0.79401567360E+03  0.00000000000E+00 0.  1.
          1    1    1    2  502    0 -0.21793671420E+02 -0.11637424077E+02  0.42950737509E+02  0.49549567159E+02  0.00000000000E+00 0.  1.
</event>
<event>
 4    1  0.3593938E+003  0.3735464E+02  0.7546771E-02  0.1364726E+00
          2   -1    0    0  502    0  0.00000000000E+00  0.00000000000E+00  0.28301156520E+01  0.28301156520E+01  0.00000000000E+00 0. -1.
          1   -1    0    0  501    0 -0.00000000000E+00 -0.00000000000E+00 -0.10262269169E+04  0.10262269169E+04  0.00000000000E+00 0.  1.
          2    1    1    2  501    0  0.23774777361E+02 -0.28811965486E+02 -0.14082458646E+03  0.14569465861E+03  0.00000000000E+00 0. -1.
          1    1    1    2  502    0 -0.23774777361E+02  0.28811965486E+02 -0.88257221480E+03  0.88336237397E+03  0.00000000000E+00 0.  1.
</event>
<event>
 4    1  0.3593938E+003  0.2830318E+02  0.7546771E-02  0.1434939E+00
          2   -1    0    0  502    0  0.00000000000E+00  0.00000000000E+00  0.32668609728E+03  0.32668609728E+03  0.00000000000E+00 0. -1.
          1   -1    0    0  501    0 -0.00000000000E+00 -0.00000000000E+00 -0.80443495221E+01  0.80443495221E+01  0.00000000000E+00 0.  1.
          2    1    1    2  501    0  0.18863943909E+02 -0.21100269300E+02  0.29886536534E+03  0.30020255886E+03  0.00000000000E+00 0. -1.
          1    1    1    2  502    0 -0.18863943909E+02  0.21100269300E+02  0.19776382415E+02  0.34527887942E+02  0.00000000000E+00 0.  1.
</event>
<event>
 4    1  0.3593938E+003  0.2980328E+02  0.7546771E-02  0.1421314E+00
          2   -1    0    0  502    0  0.00000000000E+00  0.00000000000E+00  0.23529338242E+01  0.23529338242E+01  0.00000000000E+00 0.  1.
          1   -1    0    0  501    0 -0.00000000000E+00 -0.00000000000E+00 -0.69369047759E+03  0.69369047759E+03  0.00000000000E+00 0. -1.
          2    1    1    2  501    0  0.27658199677E+02 -0.11102239674E+02 -0.11070715656E+03  0.11464863823E+03  0.00000000000E+00 0.  1.
          1    1    1    2  502    0 -0.27658199677E+02  0.11102239674E+02 -0.58063038721E+03  0.58139477319E+03  0.00000000000E+00 0. -1.
</event>
<event>
 4    1  0.3593938E+003  0.2093770E+02  0.7546771E-02  0.1520156E+00
          2   -1    0    0  502    0  0.00000000000E+00  0.00000000000E+00  0.81127869815E+03  0.81127869815E+03  0.00000000000E+00 0. -1.
          1   -1    0    0  501    0 -0.00000000000E+00 -0.00000000000E+00 -0.31059522832E+02  0.31059522832E+02  0.00000000000E+00 0.  1.
          2    1    1    2  501    0 -0.20422111556E+02 -0.46178520334E+01  0.80759892618E+03  0.80787029451E+03  0.00000000000E+00 0. -1.
          1    1    1    2  502    0  0.20422111556E+02  0.46178520334E+01 -0.27379750859E+02  0.34467926467E+02  0.00000000000E+00 0.  1.
</event>
<event>
 4    1  0.3593938E+003  0.2137879E+02  0.7546771E-02  0.1513925E+00
          2   -1    0    0  502    0  0.00000000000E+00  0.00000000000E+00  0.79297373735E+01  0.79297373735E+01  0.00000000000E+00 0.  1.
          1   -1    0    0  501    0 -0.00000000000E+00 -0.00000000000E+00 -0.26237591518E+03  0.26237591518E+03  0.00000000000E+00 0.  1.
          2    1    1    2  501    0 -0.80824044016E+01  0.19792108851E+02 -0.78345959349E+01  0.22769139798E+02  0.00000000000E+00 0.  1.
          1    1    1    2  502    0  0.80824044016E+01 -0.19792108851E+02 -0.24661158187E+03  0.24753651275E+03  0.00000000000E+00 0.  1.
</event>
<event>
 4    1  0.3593938E+003  0.5931015E+02  0.7546771E-02  0.1262195E+00
          2   -1    0    0  502    0  0.00000000000E+00  0.00000000000E+00  0.81025192180E+01  0.81025192180E+01  0.00000000000E+00 0. -1.
          1   -1    0    0  501    0 -0.00000000000E+00 -0.00000000000E+00 -0.50101238993E+03  0.50101238993E+03  0.00000000000E+00 0.  1.
          2    1    1    2  501    0  0.55450045718E+02 -0.21047252114E+02 -0.15346021838E+03  0.16452274316E+03  0.00000000000E+00 0. -1.
          1    1    1    2  502    0 -0.55450045718E+02  0.21047252114E+02 -0.33944965233E+03  0.34459216599E+03  0.00000000000E+00 0.  1.
</event>
<event>
 4    1  0.3593938E+003  0.2666654E+02  0.7546771E-02  0.1450987E+00
          2   -1    0    0  502    0  0.00000000000E+00  0.00000000000E+00  0.14403638625E+02  0.14403638625E+02  0.00000000000E+00 0.  1.
          1   -1    0    0  501    0 -0.00000000000E+00 -0.00000000000E+00 -0.35752136955E+03  0.35752136955E+03  0.00000000000E+00 0.  1.
          2    1    1    2  501    0 -0.16829256847E+02 -0.20685271446E+02  0.10871642224E+01  0.26688691741E+02  0.00000000000E+00 0.  1.
          1    1    1    2  502    0  0.16829256847E+02  0.20685271446E+02 -0.34420489515E+03  0.34523631644E+03  0.00000000000E+00 0.  1.
</event>
<event>
 4    1  0.3593938E+003  0.2613913E+02  0.7546771E-02  0.1456453E+00
          2   -1    0    0  502    0  0.00000000000E+00  0.00000000000E+00  0.95723493314E+03  0.95723493314E+03  0.00000000000E+00 0. -1.
          1   -1    0    0  501    0 -0.00000000000E+00 -0.00000000000E+00 -0.15941883005E+03  0.15941883005E+03  0.00000000000E+00 0.  1.
          2    1    1    2  501    0 -0.20994928812E+02  0.15571351780E+02  0.95598360983E+03  0.95634089963E+03  0.00000000000E+00 0. -1.
          1    1    1    2  502    0  0.20994928812E+02 -0.15571351780E+02 -0.15816750675E+03  0.16031286356E+03  0.00000000000E+00 0.  1.
</event>
<event>
 4    1  0.3593938E+003  0.2535531E+02  0.7546771E-02  0.1464868E+00
          2   -1    0    0  502    0  0.00000000000E+00  0.00000000000E+00  0.56717206625E+03  0.56717206625E+03  0.00000000000E+00 0.  1.
          1   -1    0    0  501    0 -0.00000000000E+00 -0.00000000000E+00 -0.13035537543E+01  0.13035537543E+01  0.00000000000E+00 0.  1.
          2    1    1    2  501    0  0.18636262804E+02 -0.17192478370E+02  0.38559533775E+03  0.38642807364E+03  0.00000000000E+00 0.  1.
          1    1    1    2  502    0 -0.18636262804E+02  0.17192478370E+02  0.18027317474E+03  0.18204754636E+03  0.00000000000E+00 0.  1.
</event>
<event>
 4    1  0.3593938E+003  0.3063245E+02  0.7546771E-02  0.1414179E+00
          2   -1    0    0  502    0  0.00000000000E+00  0.00000000000E+00  0.12125246345E+04  0.12125246345E+04  0.00000000000E+00 0.  1.
          1   -1    0    0  501    0 -0.00000000000E+00 -0.00000000000E+00 -0.94285851017E+00  0.94285851017E+00  0.00000000000E+00 0.  1.
          2    1    1    2  501    0 -0.16820193415E+02  0.25601311073E+02  0.34893276358E+03  0.35027477719E+03  0.00000000000E+00 0.  1.
          1    1    1    2  502    0  0.16820193415E+02 -0.25601311073E+02  0.86264901236E+03  0.86319271577E+03  0.00000000000E+00 0.  1.
</event>
<event>
 4    1  0.3593938E+003  0.3677206E+02  0.7546771E-02  0.1368516E+00
          2   -1    0    0  502    0  0.00000000000E+00  0.00000000000E+00  0.13591206588E+04  0.13591206588E+04  0.00000000000E+00 0.  1.
          1   -1    0    0  501    0 -0.00000000000E+00 -0.00000000000E+00 -0.11013650724E+02  0.11013650724E+02  0.00000000000E+00 0. -1.
          2    1    1    2  501    0  0.35468162142E+02 -0.97053439346E+01  0.13274463276E+04  0.13279555478E+04  0.00000000000E+00 0.  1.
          1    1    1    2  502    0 -0.35468162142E+02  0.97053439346E+01  0.20660680529E+02  0.42178761795E+02  0.00000000000E+00 0. -1.
</event>
<event>
 4    1  0.3593938E+003  0.2235295E+02  0.7546771E-02  0.1500787E+00
          2   -1    0    0  502    0  0.00000000000E+00  0.00000000000E+00  0.97564997044E+03  0.97564997044E+03  0.00000000000E+00 0. -1.
          1   -1    0    0  501    0 -0.00000000000E+00 -0.00000000000E+00 -0.25886488903E+02  0.25886488903E+02  0.00000000000E+00 0.  1.
          2    1    1    2  501    0 -0.18193733451E+02 -0.12986246030E+02  0.97067175730E+03  0.97092909882E+03  0.00000000000E+00 0. -1.
          1    1    1    2  502    0  0.18193733451E+02  0.12986246030E+02 -0.20908275760E+02  0.30607360522E+02  0.00000000000E+00 0.  1.
</event>
<event>
 4    1  0.3593938E+003  0.3563195E+02  0.7546771E-02  0.1376174E+00
          2   -1    0    0  502    0  0.00000000000E+00  0.00000000000E+00  0.51827783940E+03  0.51827783940E+03  0.00000000000E+00 0. -1.
          1   -1    0    0  501    0 -0.00000000000E+00 -0.00000000000E+00 -0.33518375629E+01  0.33518375629E+01  0.00000000000E+00 0.  1.
          2    1    1    2  501    0  0.13065619680E+02  0.33150043437E+02  0.39277063062E+03  0.39438357480E+03  0.00000000000E+00 0. -1.
          1    1    1    2  502    0 -0.13065619680E+02 -0.33150043437E+02  0.12215537122E+03  0.12724610216E+03  0.00000000000E+00 0.  1.
</event>
<event>
 4    1  0.3593938E+003  0.2076992E+02  0.7546771E-02  0.1522575E+00
          2   -1    0    0  502    0  0.00000000000E+00  0.00000000000E+00  0.35918903069E+01  0.35918903069E+01  0.00000000000E+00 0. -1.
          1   -1    0    0  501    0 -0.00000000000E+00 -0.00000000000E+00 -0.10859978535E+04  0.10859978535E+04  0.00000000000E+00 0.  1.
          2    1    1    2  501    0  0.17011701802E+01 -0.20700136500E+02 -0.27415045892E+02  0.34394394490E+02  0.00000000000E+00 0. -1.
          1    1    1    2  502    0 -0.17011701802E+01  0.20700136500E+02 -0.10549909173E+04  0.10551953493E+04  0.00000000000E+00 0.  1.
</event>
<event>
 4    1  0.3593938E+003  0.2401787E+02  0.7546771E-02  0.1480097E+00
          2   -1    0    0  502    0  0.00000000000E+00  0.00000000000E+00  0.16802355347E+03  0.16802355347E+03  0.00000000000E+00 0. -1.
          1   -1    0    0  501    0 -0.00000000000E+00 -0.00000000000E+00 -0.13508909922E+02  0.13508909922E+02  0.00000000000E+00 0.  1.
          2    1    1    2  501    0  0.23330944270E+02 -0.57030904025E+01  0.15564576041E+03  0.15748797076E+03  0.00000000000E+00 0. -1.
          1    1    1    2  502    0 -0.23330944270E+02  0.57030904025E+01 -0.11311168593E+01  0.24044492634E+02  0.00000000000E+00 0.  1.
</event>
<event>
 4    1  0.3593938E+003  0.4347962E+02  0.7546771E-02  0.1329219E+00
          2   -1    0    0  502    0  0.00000000000E+00  0.00000000000E+00  0.14567158569E+04  0.14567158569E+04  0.00000000000E+00 0. -1.
          1   -1    0    0  501    0 -0.00000000000E+00 -0.00000000000E+00 -0.19695571204E+01  0.19695571204E+01  0.00000000000E+00 0. -1.
          2    1    1    2  501    0  0.19239262768E+02  0.38991388215E+02  0.11533286209E+04  0.11541479045E+04  0.00000000000E+00 0. -1.
          1    1    1    2  502    0 -0.19239262768E+02 -0.38991388215E+02  0.30141767886E+03  0.30453750954E+03  0.00000000000E+00 0. -1.
</event>
<event>
 4    1  0.3593938E+003  0.3094125E+02  0.7546771E-02  0.1411589E+00
          2   -1    0    0  502    0  0.00000000000E+00  0.00000000000E+00  0.14950058516E+04  0.14950058516E+04  0.00000000000E+00 0.  1.
          1   -1    0    0  501    0 -0.00000000000E+00 -0.00000000000E+00 -0.75834655041E+00  0.75834655041E+00  0.00000000000E+00 0. -1.
          2    1    1    2  501    0 -0.30424090244E+02 -0.56334248574E+01  0.10421036311E+04  0.10425628704E+04  0.00000000000E+00 0.  1.
          1    1    1    2  502    0  0.30424090244E+02  0.56334248574E+01  0.45214387393E+03  0.45320132775E+03  0.00000000000E+00 0. -1.
</event>
<event>
 4    1  0.3593938E+003  0.2867211E+02  0.7546771E-02  0.1431498E+00
          2   -1    0    0  502    0  0.00000000000E+00  0.00000000000E+00  0.78691729882E+03  0.78691729882E+03  0.00000000000E+00 0. -1.
          1   -1    0    0  501    0 -0.00000000000E+00 -0.00000000000E+00 -0.28146753580E+02  0.28146753580E+02  0.00000000000E+00 0. -1.
          2    1    1    2  501    0  0.27533026997E+02 -0.80013872294E+01  0.77928279723E+03  0.77981008446E+03  0.00000000000E+00 0. -1.
          1    1    1    2  502    0 -0.27533026997E+02  0.80013872294E+01 -0.20512251993E+02  0.35253967933E+02  0.00000000000E+00 0. -1.
</event>
<event>
 4    1  0.3593938E+003  0.2008857E+02  0.7546771E-02  0.1532686E+00
          2   -1    0    0  502    0  0.00000000000E+00  0.00000000000E+00  0.10777124066E+04  0.10777124066E+04  0.00000000000E+00 0. -1.
          1   -1    0    0  501    0 -0.00000000000E+00 -0.00000000000E+00 -0.12815197592E+01  0.12815197592E+01  0.00000000000E+00 0.  1.
          2    1    1    2  501    0  0.32610893796E+01  0.19822110156E+02  0.99210103508E+03  0.99230439612E+03  0.00000000000E+00 0. -1.
          1    1    1    2  502    0 -0.32610893796E+01 -0.19822110156E+02  0.84329851788E+02  0.86689530265E+02  0.00000000000E+00 0.  1.
</event>
<event>
 4    1  0.3593938E+003  0.2127998E+02  0.7546771E-02  0.1515305E+00
          2   -1    0    0  502    0  0.00000000000E+00  0.00000000000E+00  0.46822977399E+01  0.46822977399E+01  0.00000000000E+00 0.  1.
          1   -1    0    0  501    0 -0.00000000000E+00 -0.00000000000E+00 -0.61670325931E+03  0.61670325931E+03  0.00000000000E+00 0. -1.
          2    1    1    2  501    0  0.20359585225E+02 -0.61907058237E+01 -0.20717703925E+02  0.29699508498E+02  0.00000000000E+00 0.  1.
          1    1    1    2  502    0 -0.20359585225E+02  0.61907058237E+01 -0.59130325765E+03  0.59168604856E+03  0.00000000000E+00 0. -1.
</event>
<event>
 4    1  0.3593938E+003  0.2412716E+02  0.7546771E-02  0.1478809E+00
          2   -1    0    0  502    0  0.00000000000E+00  0.00000000000E+00  0.29114286014E+03  0.29114286014E+03  0.00000000000E+00 0.  1.
          1   -1    0    0  501    0 -0.00000000000E+00 -0.00000000000E+00 -0.21046674234E+01  0.21046674234E+01  0.00000000000E+00 0. -1.
          2    1    1    2  501    0 -0.16928116849E+02  0.17191824979E+02  0.17730568164E+03  0.17893972373E+03  0.00000000000E+00 0.  1.
          1    1    1    2  502    0  0.16928116849E+02 -0.17191824979E+02  0.11173251108E+03  0.11430780384E+03  0.00000000000E+00 0. -1.
</event>
<event>
 4    1  0.3593938E+003  0.2147312E+02  0.7546771E-02  0.1512616E+00
          2   -1    0    0  502    0  0.00000000000E+00  0.00000000000E+00  0.50496386705E+03  0.50496386705E+03  0.00000000000E+00 0.  1.
          1   -1    0    0  501    0 -0.00000000000E+00 -0.00000000000E+00 -0.14219569940E+01  0.14219569940E+01  0.00000000000E+00 0. -1.
          2    1    1    2  501    0  0.12504482999E+02  0.17456592612E+02  0.40323022705E+03  0.40380157345E+03  0.00000000000E+00 0.  1.
          1    1    1    2  502    0 -0.12504482999E+02 -0.17456592612E+02  0.10031168301E+03  0.10258425059E+03  0.00000000000E+00 0. -1.
</event>
<event>
 4    1  0.3593938E+003  0.2701876E+02  0.7546771E-02  0.1447420E+00
          2   -1    0    0  502    0  0.00000000000E+00  0.00000000000E+00  0.12666057783E+04  0.12666057783E+04  0.00000000000E+00 0. -1.
          1   -1    0    0  501    0 -0.00000000000E+00 -0.00000000000E+00 -0.33948491391E+01  0.33948491391E+01  0.00000000000E+00 0. -1.
          2    1    1    2  501    0 -0.26495089890E+02 -0.52937382479E+01  0.12101973468E+04  0.12104989185E+04  0.00000000000E+00 0. -1.
          1    1    1    2  502    0  0.26495089890E+02  0.52937382479E+01  0.53013582305E+02  0.59501708898E+02  0.00000000000E+00 0. -1.
</event>
<event>
 4    1  0.3593938E+003  0.4526149E+02  0.7546771E-02  0.1320137E+00
          2   -1    0    0  502    0  0.00000000000E+00  0.00000000000E+00  0.30387239393E+03  0.30387239393E+03  0.00000000000E+00 0.  1.
          1   -1    0    0  501    0 -0.00000000000E+00 -0.00000000000E+00 -0.93762127498E+01  0.93762127498E+01  0.00000000000E+00 0. -1.
          2    1    1    2  501    0 -0.57037869299E+01 -0.44900663142E+02  0.23027126151E+03  0.23467734576E+03  0.00000000000E+00 0.  1.
          1    1    1    2  502    0  0.57037869299E+01  0.44900663142E+02  0.64224919678E+02  0.78571260926E+02  0.00000000000E+00 0. -1.
</event>
<event>
 4    1  0.3593938E+003  0.5816875E+02  0.7546771E-02  0.1266185E+00
          2   -1    0    0  502    0  0.00000000000E+00  0.00000000000E+00  0.23484417220E+03  0.23484417220E+03  0.00000000000E+00 0.  1.
          1   -1    0    0  501    0 -0.00000000000E+00 -0.00000000000E+00 -0.58098185935E+02  0.58098185935E+02  0.00000000000E+00 0. -1.
          2    1    1    2  501    0  0.57944737717E+02  0.51000675214E+01  0.21539047687E+03  0.22310683728E+03  0.00000000000E+00 0.  1.
          1    1    1    2  502    0 -0.57944737717E+02 -0.51000675214E+01 -0.38644490606E+02  0.69835520847E+02  0.00000000000E+00 0. -1.
</event>
<event>
 4    1  0.3593938E+003  0.2120083E+02  0.7546771E-02  0.1516417E+00
          2   -1    0    0  502    0  0.00000000000E+00  0.00000000000E+00  0.62711499309E+01  0.62711499309E+01  0.00000000000E+00 0. -1.
          1   -1    0    0  501    0 -0.00000000000E+00 -0.00000000000E+00 -0.58224284255E+03  0.58224284255E+03  0.00000000000E+00 0.  1.
          2    1    1    2  501    0  0.94304666117E+01  0.18987935105E+02 -0.12434791905E+02  0.24578434242E+02  0.00000000000E+00 0. -1.
          1    1    1    2  502    0 -0.94304666117E+01 -0.18987935105E+02 -0.56353690071E+03  0.56393555824E+03  0.00000000000E+00 0.  1.
</event>
<event>
 4    1  0.3593938E+003  0.2248319E+02  0.7546771E-02  0.1499092E+00
          2   -1    0    0  502    0  0.00000000000E+00  0.00000000000E+00  0.30930001978E+03  0.30930001978E+03  0.00000000000E+00 0. -1.
          1   -1    0    0  501    0 -0.00000000000E+00 -0.00000000000E+00 -0.29966437734E+01  0.29966437734E+01  0.00000000000E+00 0. -1.
          2    1    1    2  501    0 -0.21450823806E+02  0.67346957842E+01  0.25843525622E+03  0.25941140227E+03  0.00000000000E+00 0. -1.
          1    1    1    2  502    0  0.21450823806E+02 -0.67346957842E+01  0.47868119781E+02  0.52885261280E+02  0.00000000000E+00 0. -1.
</event>
<event>
 4    1  0.3593938E+003  0.2740849E+02  0.7546771E-02  0.1443547E+00
          2   -1    0    0  502    0  0.00000000000E+00  0.00000000000E+00  0.30083103464E+03  0.30083103464E+03  0.00000000000E+00 0.  1.
          1   -1    0    0  501    0 -0.00000000000E+00 -0.00000000000E+00 -0.25636625962E+02  0.25636625962E+02  0.00000000000E+00 0.  1.
          2    1    1    2  501    0  0.26371716838E+02 -0.74671138596E+01  0.29267740027E+03  0.29395796615E+03  0.00000000000E+00 0.  1.
          1    1    1    2  502    0 -0.26371716838E+02  0.74671138596E+01 -0.17482991588E+02  0.32509694450E+02  0.00000000000E+00 0.  1.
</event>
<event>
 4    1  0.3593938E+003  0.2340006E+02  0.7546771E-02  0.1487535E+00
          2   -1    0    0  502    0  0.00000000000E+00  0.00000000000E+00  0.28944575297E+01  0.28944575297E+01  0.00000000000E+00 0.  1.
          1   -1    0    0  501    0 -0.00000000000E+00 -0.00000000000E+00 -0.13555959344E+04  0.13555959344E+04  0.00000000000E+00 0. -1.
          2    1    1    2  501    0  0.11855247957E+02  0.20174638360E+02 -0.46280673553E+02  0.51860039352E+02  0.00000000000E+00 0.  1.
          1    1    1    2  502    0 -0.11855247957E+02 -0.20174638360E+02 -0.13064208033E+04  0.13066303526E+04  0.00000000000E+00 0. -1.
</event>
