<event>
 4    1  0.3035432E+006  0.3391525E+02  0.7546771E-02  0.1388354E+00
         21   -1    0    0  502  501  0.00000000000E+00  0.00000000000E+00  0.57425985784E+02  0.57425985784E+02  0.00000000000E+00 0. -1.
         21   -1    0    0  503  502 -0.00000000000E+00 -0.00000000000E+00 -0.11636726965E+03  0.11636726965E+03  0.00000000000E+00 0.  1.
         21    1    1    2  503  504 -0.32849534866E+02 -0.84351844884E+01 -0.10853570054E+03  0.11371122447E+03  0.00000000000E+00 0.  1.
         21    1    1    2  504  501  0.32849534866E+02  0.84351844884E+01  0.49594416681E+02  0.60082030959E+02  0.00000000000E+00 0. -1.
</event>
<event>
 4    1  0.3035432E+006  0.3033436E+02  0.7546771E-02  0.1416713E+00
         21   -1    0    0  504  501  0.00000000000E+00  0.00000000000E+00  0.39453472893E+01  0.39453472893E+01  0.00000000000E+00 0.  1.
         21   -1    0    0  501  502 -0.00000000000E+00 -0.00000000000E+00 -0.52397442651E+03  0.52397442651E+03  0.00000000000E+00 0. -1.
         21    1    1    2  503  502 -0.27179420286E+02  0.13470432361E+02 -0.45663946497E+03  0.45764590504E+03  0.00000000000E+00 0. -1.
         21    1    1    2  504  503  0.27179420286E+02 -0.13470432361E+02 -0.63389614254E+02  0.70273868758E+02  0.00000000000E+00 0.  1.
</event>
<event>
 4    1  0.3035432E+006  0.2308504E+02  0.7546771E-02  0.1491433E+00
         21   -1    0    0  503  501  0.00000000000E+00  0.00000000000E+00  0.47799149314E+01  0.47799149314E+01  0.00000000000E+00 0.  1.
         21   -1    0    0  504  502 -0.00000000000E+00 -0.00000000000E+00 -0.13519431908E+03  0.13519431908E+03  0.00000000000E+00 0. -1.
         21    1    1    2  503  502 -0.41564254267E+01 -0.22707774963E+02 -0.94512135656E+02  0.97290609528E+02  0.00000000000E+00 0. -1.
         21    1    1    2  504  501  0.41564254267E+01  0.22707774963E+02 -0.35902268490E+02  0.42683624481E+02  0.00000000000E+00 0.  1.
</event>
<event>
 4    1  0.3035432E+006  0.2515060E+02  0.7546771E-02  0.1467126E+00
         21   -1    0    0  503  501  0.00000000000E+00  0.00000000000E+00  0.43951179780E+01  0.43951179780E+01  0.00000000000E+00 0. -1.
         21   -1    0    0  504  502 -0.00000000000E+00 -0.00000000000E+00 -0.17499637797E+03  0.17499637797E+03  0.00000000000E+00 0. -1.
         21    1    1    2  503  502  0.18081449733E+02 -0.17481812957E+02 -0.47503308069E+02  0.53750505916E+02  0.00000000000E+00 0. -1.
         21    1    1    2  504  501 -0.18081449733E+02  0.17481812957E+02 -0.12309795192E+03  0.12564099003E+03  0.00000000000E+00 0. -1.
</event>
<event>
 4    1  0.3035432E+006  0.3317536E+02  0.7546771E-02  0.1393866E+00
         21   -1    0    0  504  501  0.00000000000E+00  0.00000000000E+00  0.60315324420E+00  0.60315324420E+00  0.00000000000E+00 0.  1.
         21   -1    0    0  503  502 -0.00000000000E+00 -0.00000000000E+00 -0.20616834900E+04  0.20616834900E+04  0.00000000000E+00 0.  1.
         21    1    1    2  503  501 -0.32468248281E+02  0.68130340392E+01 -0.68098139747E+03  0.68178902036E+03  0.00000000000E+00 0.  1.
         21    1    1    2  504  502  0.32468248281E+02 -0.68130340392E+01 -0.13800989393E+04  0.13804976229E+04  0.00000000000E+00 0.  1.
</event>
<event>
 4    1  0.3035432E+006  0.2410957E+02  0.7546771E-02  0.1479016E+00
         21   -1    0    0  503  501  0.00000000000E+00  0.00000000000E+00  0.44701631491E+03  0.44701631491E+03  0.00000000000E+00 0. -1.
         21   -1    0    0  501  502 -0.00000000000E+00 -0.00000000000E+00 -0.62499592144E+01  0.62499592144E+01  0.00000000000E+00 0. -1.
         21    1    1    2  503  504  0.12447005017E+02 -0.20648082891E+02  0.42206692562E+03  0.42275496563E+03  0.00000000000E+00 0. -1.
         21    1    1    2  504  502 -0.12447005017E+02  0.20648082891E+02  0.18699430074E+02  0.30511308495E+02  0.00000000000E+00 0. -1.
</event>
<event>
 4    1  0.3035432E+006  0.2409159E+02  0.7546771E-02  0.1479228E+00
         21   -1    0    0  503  501  0.00000000000E+00  0.00000000000E+00  0.51821538618E+02  0.51821538618E+02  0.00000000000E+00 0. -1.
         21   -1    0    0  501  502 -0.00000000000E+00 -0.00000000000E+00 -0.57607358441E+02  0.57607358441E+02  0.00000000000E+00 0. -1.
         21    1    1    2  503  504 -0.17623068935E+01  0.24027042631E+02  0.46215534188E+02  0.52117944160E+02  0.00000000000E+00 0. -1.
         21    1    1    2  504  502  0.17623068935E+01 -0.24027042631E+02 -0.52001354011E+02  0.57310952899E+02  0.00000000000E+00 0. -1.
</event>
<event>
 4    1  0.3035432E+006  0.2066054E+02  0.7546771E-02  0.1524167E+00
         21   -1    0    0  502  501  0.00000000000E+00  0.00000000000E+00  0.43593092046E+03  0.43593092046E+03  0.00000000000E+00 0.  1.
         21   -1    0    0  503  502 -0.00000000000E+00 -0.00000000000E+00 -0.24953192144E+01  0.24953192144E+01  0.00000000000E+00 0. -1.
         21    1    1    2  503  504  0.20378962785E+02 -0.33993733159E+01  0.45845355402E+02  0.50285728344E+02  0.00000000000E+00 0. -1.
         21    1    1    2  504  501 -0.20378962785E+02  0.33993733159E+01  0.38759024585E+03  0.38814051134E+03  0.00000000000E+00 0.  1.
</event>
<event>
 4    1  0.3035432E+006  0.2976956E+02  0.7546771E-02  0.1421610E+00
         21   -1    0    0  504  501  0.00000000000E+00  0.00000000000E+00  0.51928160204E+03  0.51928160204E+03  0.00000000000E+00 0.  1.
         21   -1    0    0  503  502 -0.00000000000E+00 -0.00000000000E+00 -0.30384859271E+01  0.30384859271E+01  0.00000000000E+00 0.  1.
         21    1    1    2  503  501  0.10993907467E+02 -0.27665153384E+02  0.43102559153E+03  0.43205241264E+03  0.00000000000E+00 0.  1.
         21    1    1    2  504  502 -0.10993907467E+02  0.27665153384E+02  0.85217524585E+02  0.90267675330E+02  0.00000000000E+00 0.  1.
</event>
<event>
 4    1  0.3035432E+006  0.3570475E+02  0.7546771E-02  0.1375675E+00
         21   -1    0    0  503  501  0.00000000000E+00  0.00000000000E+00  0.53800193379E+02  0.53800193379E+02  0.00000000000E+00 0.  1.
         21   -1    0    0  504  502 -0.00000000000E+00 -0.00000000000E+00 -0.86997705366E+02  0.86997705366E+02  0.00000000000E+00 0.  1.
         21    1    1    2  503  502  0.26189445122E+02  0.24268124065E+02 -0.76649900796E+02  0.84557886524E+02  0.00000000000E+00 0.  1.
         21    1    1    2  504  501 -0.26189445122E+02 -0.24268124065E+02  0.43452388808E+02  0.56240012221E+02  0.00000000000E+00 0.  1.
</event>
<event>
 4    1  0.3035432E+006  0.4310606E+02  0.7546771E-02  0.1331186E+00
         21   -1    0    0  504  501  0.00000000000E+00  0.00000000000E+00  0.55480241381E+03  0.55480241381E+03  0.00000000000E+00 0. -1.
         21   -1    0    0  503  502 -0.00000000000E+00 -0.00000000000E+00 -0.33960730766E+01  0.33960730766E+01  0.00000000000E+00 0. -1.
         21    1    1    2  503  501  0.38343467327E+02 -0.19695452159E+02  0.30849996515E+03  0.31149696759E+03  0.00000000000E+00 0. -1.
         21    1    1    2  504  502 -0.38343467327E+02  0.19695452159E+02  0.24290637558E+03  0.24670151929E+03  0.00000000000E+00 0. -1.
</event>
<event>
 4    1  0.3035432E+006  0.2094505E+02  0.7546771E-02  0.1520051E+00
         21   -1    0    0  503  501  0.00000000000E+00  0.00000000000E+00  0.20031813352E+03  0.20031813352E+03  0.00000000000E+00 0. -1.
         21   -1    0    0  504  502 -0.00000000000E+00 -0.00000000000E+00 -0.30142776229E+01  0.30142776229E+01  0.00000000000E+00 0.  1.
         21    1    1    2  503  502  0.39379351927E+01 -0.20571525069E+02  0.15181670869E+03  0.15325471612E+03  0.00000000000E+00 0. -1.
         21    1    1    2  504  501 -0.39379351927E+01  0.20571525069E+02  0.45487147208E+02  0.50077695019E+02  0.00000000000E+00 0.  1.
</event>
<event>
 4    1  0.3035432E+006  0.2059510E+02  0.7546771E-02  0.1525125E+00
         21   -1    0    0  503  501  0.00000000000E+00  0.00000000000E+00  0.79242697438E+02  0.79242697438E+02  0.00000000000E+00 0. -1.
         21   -1    0    0  501  502 -0.00000000000E+00 -0.00000000000E+00 -0.17235887383E+02  0.17235887383E+02  0.00000000000E+00 0. -1.
         21    1    1    2  503  504  0.56458625684E+01 -0.19806120772E+02  0.71057926416E+02  0.73982343101E+02  0.00000000000E+00 0. -1.
         21    1    1    2  504  502 -0.56458625684E+01  0.19806120772E+02 -0.90511163606E+01  0.22496241721E+02  0.00000000000E+00 0. -1.
</event>
<event>
 4    1  0.3035432E+006  0.2540574E+02  0.7546771E-02  0.1464315E+00
         21   -1    0    0  503  501  0.00000000000E+00  0.00000000000E+00  0.32538591570E+02  0.32538591570E+02  0.00000000000E+00 0. -1.
         21   -1    0    0  504  502 -0.00000000000E+00 -0.00000000000E+00 -0.87895308125E+02  0.87895308125E+02  0.00000000000E+00 0. -1.
         21    1    1    2  503  502  0.24044549716E+02  0.82043337866E+01 -0.80666428950E+02  0.84572597356E+02  0.00000000000E+00 0. -1.
         21    1    1    2  504  501 -0.24044549716E+02 -0.82043337866E+01  0.25309712395E+02  0.35861302339E+02  0.00000000000E+00 0. -1.
</event>
<event>
 4    1  0.3035432E+006  0.2872202E+02  0.7546771E-02  0.1431037E+00
         21   -1    0    0  503  501  0.00000000000E+00  0.00000000000E+00  0.92783592788E+02  0.92783592788E+02  0.00000000000E+00 0.  1.
         21   -1    0    0  504  502 -0.00000000000E+00 -0.00000000000E+00 -0.16747514659E+02  0.16747514659E+02  0.00000000000E+00 0.  1.
         21    1    1    2  503  502  0.22740413457E+02 -0.17545032880E+02  0.50842484354E+00  0.28726522219E+02  0.00000000000E+00 0.  1.
         21    1    1    2  504  501 -0.22740413457E+02  0.17545032880E+02  0.75527653286E+02  0.80804585228E+02  0.00000000000E+00 0.  1.
</event>
<event>
 4    1  0.3035432E+006  0.2450349E+02  0.7546771E-02  0.1474435E+00
         21   -1    0    0  502  501  0.00000000000E+00  0.00000000000E+00  0.62845920510E+02  0.62845920510E+02  0.00000000000E+00 0. -1.
         21   -1    0    0  504  502 -0.00000000000E+00 -0.00000000000E+00 -0.13123205826E+02  0.13123205826E+02  0.00000000000E+00 0. -1.
         21    1    1    2  503  501 -0.65532389270E+01  0.23610928859E+02  0.44671230597E+02  0.50950365505E+02  0.00000000000E+00 0. -1.
         21    1    1    2  504  503  0.65532389270E+01 -0.23610928859E+02  0.50514840872E+01  0.25018760831E+02  0.00000000000E+00 0. -1.
</event>
<event>
 4    1  0.3035432E+006  0.2172181E+02  0.7546771E-02  0.1509204E+00
         21   -1    0    0  503  501  0.00000000000E+00  0.00000000000E+00  0.41694348157E+01  0.41694348157E+01  0.00000000000E+00 0.  1.
         21   -1    0    0  504  502 -0.00000000000E+00 -0.00000000000E+00 -0.14826500887E+03  0.14826500887E+03  0.00000000000E+00 0.  1.
         21    1    1    2  503  502  0.21106656018E+02 -0.51328615299E+01 -0.34964110282E+02  0.41162193862E+02  0.00000000000E+00 0.  1.
         21    1    1    2  504  501 -0.21106656018E+02  0.51328615299E+01 -0.10913146377E+03  0.11127224982E+03  0.00000000000E+00 0.  1.
</event>
<event>
 4    1  0.3035432E+006  0.2064732E+02  0.7546771E-02  0.1524360E+00
         21   -1    0    0  503  501  0.00000000000E+00  0.00000000000E+00  0.14773967359E+03  0.14773967359E+03  0.00000000000E+00 0.  1.
         21   -1    0    0  501  502 -0.00000000000E+00 -0.00000000000E+00 -0.15812723209E+02  0.15812723209E+02  0.00000000000E+00 0.  1.
         21    1    1    2  503  504  0.21828134611E+00 -0.20646170971E+02  0.13990274566E+03  0.14141813980E+03  0.00000000000E+00 0.  1.
         21    1    1    2  504  502 -0.21828134611E+00  0.20646170971E+02 -0.79757952762E+01  0.22134256997E+02  0.00000000000E+00 0.  1.
</event>
<event>
 4    1  0.3035432E+006  0.3196042E+02  0.7546771E-02  0.1403292E+00
         21   -1    0    0  503  501  0.00000000000E+00  0.00000000000E+00  0.12693957210E+03  0.12693957210E+03  0.00000000000E+00 0.  1.
         21   -1    0    0  504  502 -0.00000000000E+00 -0.00000000000E+00 -0.84745103808E+01  0.84745103808E+01  0.00000000000E+00 0. -1.
         21    1    1    2  503  502  0.25453432670E+02 -0.19328514009E+02  0.44023341568E+02  0.54401500818E+02  0.00000000000E+00 0. -1.
         21    1    1    2  504  501 -0.25453432670E+02  0.19328514009E+02  0.74441720152E+02  0.81012581663E+02  0.00000000000E+00 0.  1.
</event>
<event>
 4    1  0.3035432E+006  0.2185744E+02  0.7546771E-02  0.1507366E+00
         21   -1    0    0  504  501  0.00000000000E+00  0.00000000000E+00  0.40616131303E+01  0.40616131303E+01  0.00000000000E+00 0.  1.
         21   -1    0    0  503  502 -0.00000000000E+00 -0.00000000000E+00 -0.24825100399E+03  0.24825100399E+03  0.00000000000E+00 0. -1.
         21    1    1    2  503  501  0.20560216317E+02 -0.74178882883E+01 -0.21360671857E+03  0.21472209430E+03  0.00000000000E+00 0. -1.
         21    1    1    2  504  502 -0.20560216317E+02  0.74178882883E+01 -0.30582672291E+02  0.37590522823E+02  0.00000000000E+00 0.  1.
</event>
<event>
 4    1  0.3035432E+006  0.2169847E+02  0.7546771E-02  0.1509522E+00
         21   -1    0    0  504  501  0.00000000000E+00  0.00000000000E+00  0.21839177989E+02  0.21839177989E+02  0.00000000000E+00 0.  1.
         21   -1    0    0  503  502 -0.00000000000E+00 -0.00000000000E+00 -0.47919506511E+02  0.47919506511E+02  0.00000000000E+00 0.  1.
         21    1    1    2  503  501  0.51478296185E+01  0.21078978267E+02 -0.38909886811E+02  0.44551125308E+02  0.00000000000E+00 0.  1.
         21    1    1    2  504  502 -0.51478296185E+01 -0.21078978267E+02  0.12829558289E+02  0.25207559193E+02  0.00000000000E+00 0.  1.
</event>
<event>
 4    1  0.3035432E+006  0.2102840E+02  0.7546771E-02  0.1518860E+00
         21   -1    0    0  504  501  0.00000000000E+00  0.00000000000E+00  0.92897014276E+02  0.92897014276E+02  0.00000000000E+00 0. -1.
         21   -1    0    0  503  502 -0.00000000000E+00 -0.00000000000E+00 -0.10177364870E+03  0.10177364870E+03  0.00000000000E+00 0.  1.
         21    1    1    2  503  501  0.16143371950E+02  0.13475354797E+02 -0.99470163384E+02  0.10166861388E+03  0.00000000000E+00 0.  1.
         21    1    1    2  504  502 -0.16143371950E+02 -0.13475354797E+02  0.90593528965E+02  0.93002049091E+02  0.00000000000E+00 0. -1.
</event>
<event>
 4    1  0.3035432E+006  0.2112880E+02  0.7546771E-02  0.1517434E+00
         21   -1    0    0  503  501  0.00000000000E+00  0.00000000000E+00  0.21918585140E+02  0.21918585140E+02  0.00000000000E+00 0.  1.
         21   -1    0    0  504  502 -0.00000000000E+00 -0.00000000000E+00 -0.42584836296E+02  0.42584836296E+02  0.00000000000E+00 0.  1.
         21    1    1    2  503  502  0.16873303775E+02 -0.12716823663E+02  0.12962351832E+02  0.24788072724E+02  0.00000000000E+00 0.  1.
         21    1    1    2  504  501 -0.16873303775E+02  0.12716823663E+02 -0.33628602988E+02  0.39715348711E+02  0.00000000000E+00 0.  1.
</event>
<event>
 4    1  0.3035432E+006  0.2831574E+02  0.7546771E-02  0.1434821E+00
         21   -1    0    0  503  501  0.00000000000E+00  0.00000000000E+00  0.16270257156E+03  0.16270257156E+03  0.00000000000E+00 0. -1.
         21   -1    0    0  504  502 -0.00000000000E+00 -0.00000000000E+00 -0.25824260880E+02  0.25824260880E+02  0.00000000000E+00 0. -1.
         21    1    1    2  503  502  0.95722078397E+00 -0.28299555707E+02  0.15323305540E+03  0.15582730952E+03  0.00000000000E+00 0. -1.
         21    1    1    2  504  501 -0.95722078397E+00  0.28299555707E+02 -0.16354744716E+02  0.32699522926E+02  0.00000000000E+00 0. -1.
</event>
<event>
 4    1  0.3035432E+006  0.2751087E+02  0.7546771E-02  0.1442543E+00
         21   -1    0    0  503  501  0.00000000000E+00  0.00000000000E+00  0.75793571972E+03  0.75793571972E+03  0.00000000000E+00 0.  1.
         21   -1    0    0  504  502 -0.00000000000E+00 -0.00000000000E+00 -0.17792328806E+01  0.17792328806E+01  0.00000000000E+00 0.  1.
         21    1    1    2  503  502 -0.30411405407E+01  0.27342261566E+02  0.12646265791E+03  0.12942044525E+03  0.00000000000E+00 0.  1.
         21    1    1    2  504  501  0.30411405407E+01 -0.27342261566E+02  0.62969382893E+03  0.63029450735E+03  0.00000000000E+00 0.  1.
</event>
<event>
 4    1  0.3035432E+006  0.2520954E+02  0.7546771E-02  0.1466473E+00
         21   -1    0    0  504  501  0.00000000000E+00  0.00000000000E+00  0.16364142556E+02  0.16364142556E+02  0.00000000000E+00 0.  1.
         21   -1    0    0  501  502 -0.00000000000E+00 -0.00000000000E+00 -0.21782834973E+03  0.21782834973E+03  0.00000000000E+00 0.  1.
         21    1    1    2  503  502 -0.17758287560E+02 -0.17893137519E+02 -0.20687789064E+03  0.20840821189E+03  0.00000000000E+00 0.  1.
         21    1    1    2  504  503  0.17758287560E+02  0.17893137519E+02  0.54136834589E+01  0.25784280404E+02  0.00000000000E+00 0.  1.
</event>
<event>
 4    1  0.3035432E+006  0.2106173E+02  0.7546771E-02  0.1518385E+00
         21   -1    0    0  503  501  0.00000000000E+00  0.00000000000E+00  0.10526505531E+03  0.10526505531E+03  0.00000000000E+00 0. -1.
         21   -1    0    0  501  502 -0.00000000000E+00 -0.00000000000E+00 -0.55303394176E+01  0.55303394176E+01  0.00000000000E+00 0. -1.
         21    1    1    2  503  504  0.17507608286E+02 -0.11708128032E+02  0.76893534761E+02  0.79725857147E+02  0.00000000000E+00 0. -1.
         21    1    1    2  504  502 -0.17507608286E+02  0.11708128032E+02  0.22841181131E+02  0.31069537579E+02  0.00000000000E+00 0. -1.
</event>
<event>
 4    1  0.3035432E+006  0.2191436E+02  0.7546771E-02  0.1506600E+00
         21   -1    0    0  504  501  0.00000000000E+00  0.00000000000E+00  0.93453002838E+02  0.93453002838E+02  0.00000000000E+00 0. -1.
         21   -1    0    0  503  502 -0.00000000000E+00 -0.00000000000E+00 -0.51408401113E+01  0.51408401113E+01  0.00000000000E+00 0. -1.
         21    1    1    2  503  501 -0.46651247042E+01 -0.21412044011E+02  0.45131075896E+02  0.50170240470E+02  0.00000000000E+00 0. -1.
         21    1    1    2  504  502  0.46651247042E+01  0.21412044011E+02  0.43181086831E+02  0.48423602480E+02  0.00000000000E+00 0. -1.
</event>
<event>
 4    1  0.3035432E+006  0.2022568E+02  0.7546771E-02  0.1530613E+00
         21   -1    0    0  503  501  0.00000000000E+00  0.00000000000E+00  0.13345438310E+02  0.13345438310E+02  0.00000000000E+00 0.  1.
         21   -1    0    0  504  502 -0.00000000000E+00 -0.00000000000E+00 -0.35071204759E+02  0.35071204759E+02  0.00000000000E+00 0.  1.
         21    1    1    2  503  502  0.19335276895E+02  0.59350925055E+01 -0.19455200107E+02  0.28063910399E+02  0.00000000000E+00 0.  1.
         21    1    1    2  504  501 -0.19335276895E+02 -0.59350925055E+01 -0.22705663423E+01  0.20352732671E+02  0.00000000000E+00 0.  1.
</event>
<event>
 4    1  0.3035432E+006  0.2073797E+02  0.7546771E-02  0.1523039E+00
         21   -1    0    0  503  501  0.00000000000E+00  0.00000000000E+00  0.14714466398E+02  0.14714466398E+02  0.00000000000E+00 0. -1.
         21   -1    0    0  504  502 -0.00000000000E+00 -0.00000000000E+00 -0.17667040170E+03  0.17667040170E+03  0.00000000000E+00 0. -1.
         21    1    1    2  503  502  0.16624711797E+02 -0.12396864463E+02 -0.16839740678E+03  0.16966953145E+03  0.00000000000E+00 0. -1.
         21    1    1    2  504  501 -0.16624711797E+02  0.12396864463E+02  0.64414714830E+01  0.21715336648E+02  0.00000000000E+00 0. -1.
</event>
<event>
 4    1  0.3035432E+006  0.2672038E+02  0.7546771E-02  0.1450437E+00
         21   -1    0    0  502  501  0.00000000000E+00  0.00000000000E+00  0.11102593239E+03  0.11102593239E+03  0.00000000000E+00 0. -1.
         21   -1    0    0  504  502 -0.00000000000E+00 -0.00000000000E+00 -0.21891130026E+02  0.21891130026E+02  0.00000000000E+00 0.  1.
         21    1    1    2  503  501  0.14300315707E+02 -0.22571657356E+02  0.10041787882E+03  0.10391212216E+03  0.00000000000E+00 0. -1.
         21    1    1    2  504  503 -0.14300315707E+02  0.22571657356E+02 -0.11283076453E+02  0.29004940258E+02  0.00000000000E+00 0.  1.
</event>
<event>
 4    1  0.3035432E+006  0.2562537E+02  0.7546771E-02  0.1461927E+00
         21   -1    0    0  503  501  0.00000000000E+00  0.00000000000E+00  0.29836134558E+03  0.29836134558E+03  0.00000000000E+00 0. -1.
         21   -1    0    0  501  502 -0.00000000000E+00 -0.00000000000E+00 -0.25580599824E+01  0.25580599824E+01  0.00000000000E+00 0. -1.
         21    1    1    2  503  504 -0.24002580569E+02 -0.89741794465E+01  0.20412332083E+03  0.20572552072E+03  0.00000000000E+00 0. -1.
         21    1    1    2  504  502  0.24002580569E+02  0.89741794465E+01  0.91679964767E+02  0.95193884837E+02  0.00000000000E+00 0. -1.
</event>
<event>
 4    1  0.3035432E+006  0.3321091E+02  0.7546771E-02  0.1393597E+00
         21   -1    0    0  503  501  0.00000000000E+00  0.00000000000E+00  0.24895652759E+02  0.24895652759E+02  0.00000000000E+00 0. -1.
         21   -1    0    0  501  502 -0.00000000000E+00 -0.00000000000E+00 -0.47526691357E+02  0.47526691357E+02  0.00000000000E+00 0.  1.
         21    1    1    2  503  504 -0.24349903262E+02  0.22584220570E+02 -0.18854226327E+01  0.33264389760E+02  0.00000000000E+00 0. -1.
         21    1    1    2  504  502  0.24349903262E+02 -0.22584220570E+02 -0.20745615965E+02  0.39157954356E+02  0.00000000000E+00 0.  1.
</event>
<event>
 4    1  0.3035432E+006  0.3067487E+02  0.7546771E-02  0.1413821E+00
         21   -1    0    0  503  501  0.00000000000E+00  0.00000000000E+00  0.83952750463E+02  0.83952750463E+02  0.00000000000E+00 0.  1.
         21   -1    0    0  504  502 -0.00000000000E+00 -0.00000000000E+00 -0.84878015185E+02  0.84878015185E+02  0.00000000000E+00 0. -1.
         21    1    1    2  503  502  0.18630371666E+02  0.24369182378E+02  0.78182016515E+02  0.83984376550E+02  0.00000000000E+00 0.  1.
         21    1    1    2  504  501 -0.18630371666E+02 -0.24369182378E+02 -0.79107281238E+02  0.84846389098E+02  0.00000000000E+00 0. -1.
</event>
<event>
 4    1  0.3035432E+006  0.2220938E+02  0.7546771E-02  0.1502672E+00
         21   -1    0    0  503  501  0.00000000000E+00  0.00000000000E+00  0.59173739613E+03  0.59173739613E+03  0.00000000000E+00 0.  1.
         21   -1    0    0  504  502 -0.00000000000E+00 -0.00000000000E+00 -0.96893043437E+00  0.96893043437E+00  0.00000000000E+00 0.  1.
         21    1    1    2  503  502 -0.20060437123E+02  0.95307503025E+01  0.40614966975E+03  0.40675645118E+03  0.00000000000E+00 0.  1.
         21    1    1    2  504  501  0.20060437123E+02 -0.95307503025E+01  0.18461879594E+03  0.18594987538E+03  0.00000000000E+00 0.  1.
</event>
<event>
 4    1  0.3035432E+006  0.3761794E+02  0.7546771E-02  0.1363040E+00
         21   -1    0    0  502  501  0.00000000000E+00  0.00000000000E+00  0.35978639607E+02  0.35978639607E+02  0.00000000000E+00 0. -1.
         21   -1    0    0  504  502 -0.00000000000E+00 -0.00000000000E+00 -0.11564002091E+03  0.11564002091E+03  0.00000000000E+00 0.  1.
         21    1    1    2  503  501  0.26336702845E+02 -0.26860522597E+02  0.21751318372E+02  0.43453762114E+02  0.00000000000E+00 0. -1.
         21    1    1    2  504  503 -0.26336702845E+02  0.26860522597E+02 -0.10141269968E+03  0.10816489841E+03  0.00000000000E+00 0.  1.
</event>
<event>
 4    1  0.3035432E+006  0.2548352E+02  0.7546771E-02  0.1463466E+00
         21   -1    0    0  503  501  0.00000000000E+00  0.00000000000E+00  0.36175105651E+02  0.36175105651E+02  0.00000000000E+00 0. -1.
         21   -1    0    0  504  502 -0.00000000000E+00 -0.00000000000E+00 -0.18986805426E+02  0.18986805426E+02  0.00000000000E+00 0. -1.
         21    1    1    2  503  502  0.18629100646E+02  0.17388679478E+02  0.21547247621E+01  0.25574448258E+02  0.00000000000E+00 0. -1.
         21    1    1    2  504  501 -0.18629100646E+02 -0.17388679478E+02  0.15033575463E+02  0.29587462819E+02  0.00000000000E+00 0. -1.
</event>
<event>
 4    1  0.3035432E+006  0.2217473E+02  0.7546771E-02  0.1503130E+00
         21   -1    0    0  503  501  0.00000000000E+00  0.00000000000E+00  0.99853240668E+01  0.99853240668E+01  0.00000000000E+00 0.  1.
         21   -1    0    0  504  502 -0.00000000000E+00 -0.00000000000E+00 -0.12897945368E+03  0.12897945368E+03  0.00000000000E+00 0. -1.
         21    1    1    2  503  502 -0.15273531017E+02 -0.16075997071E+02 -0.11412815921E+03  0.11626244087E+03  0.00000000000E+00 0. -1.
         21    1    1    2  504  501  0.15273531017E+02  0.16075997071E+02 -0.48659703950E+01  0.22702336872E+02  0.00000000000E+00 0.  1.
</event>
<event>
 4    1  0.3035432E+006  0.2489095E+02  0.7546771E-02  0.1470027E+00
         21   -1    0    0  503  501  0.00000000000E+00  0.00000000000E+00  0.70257268422E+01  0.70257268422E+01  0.00000000000E+00 0. -1.
         21   -1    0    0  501  502 -0.00000000000E+00 -0.00000000000E+00 -0.15457925059E+03  0.15457925059E+03  0.00000000000E+00 0. -1.
         21    1    1    2  503  504  0.99093916790E+01  0.22833377290E+02 -0.20820600405E+02  0.32450833012E+02  0.00000000000E+00 0. -1.
         21    1    1    2  504  502 -0.99093916790E+01 -0.22833377290E+02 -0.12673292334E+03  0.12915414442E+03  0.00000000000E+00 0. -1.
</event>
<event>
 4    1  0.3035432E+006  0.3586038E+02  0.7546771E-02  0.1374613E+00
         21   -1    0    0  503  501  0.00000000000E+00  0.00000000000E+00  0.18847995339E+02  0.18847995339E+02  0.00000000000E+00 0.  1.
         21   -1    0    0  504  502 -0.00000000000E+00 -0.00000000000E+00 -0.81126454028E+02  0.81126454028E+02  0.00000000000E+00 0.  1.
         21    1    1    2  503  502  0.34749671478E+02  0.88559142930E+01 -0.11207665539E+02  0.37570981524E+02  0.00000000000E+00 0.  1.
         21    1    1    2  504  501 -0.34749671478E+02 -0.88559142930E+01 -0.51070793150E+02  0.62403467843E+02  0.00000000000E+00 0.  1.
</event>
<event>
 4    1  0.3035432E+006  0.6419737E+02  0.7546771E-02  0.1246202E+00
         21   -1    0    0  503  501  0.00000000000E+00  0.00000000000E+00  0.56688601813E+03  0.56688601813E+03  0.00000000000E+00 0.  1.
         21   -1    0    0  504  502 -0.00000000000E+00 -0.00000000000E+00 -0.14740609137E+02  0.14740609137E+02  0.00000000000E+00 0.  1.
         21    1    1    2  503  502 -0.58408688727E+01  0.63931102999E+02  0.48310233603E+03  0.48734912410E+03  0.00000000000E+00 0.  1.
         21    1    1    2  504  501  0.58408688727E+01 -0.63931102999E+02  0.69043072964E+02  0.94277503171E+02  0.00000000000E+00 0.  1.
</event>
<event>
 4    1  0.3035432E+006  0.2754763E+02  0.7546771E-02  0.1442183E+00
         21   -1    0    0  504  501  0.00000000000E+00  0.00000000000E+00  0.44789268877E+02  0.44789268877E+02  0.00000000000E+00 0. -1.
         21   -1    0    0  501  502 -0.00000000000E+00 -0.00000000000E+00 -0.43086522334E+02  0.43086522334E+02  0.00000000000E+00 0. -1.
         21    1    1    2  503  502  0.11994726864E+02  0.24799161604E+02 -0.33374081434E+02  0.43274717796E+02  0.00000000000E+00 0. -1.
         21    1    1    2  504  503 -0.11994726864E+02 -0.24799161604E+02  0.35076827976E+02  0.44601073414E+02  0.00000000000E+00 0. -1.
</event>
<event>
 4    1  0.3035432E+006  0.2621519E+02  0.7546771E-02  0.1455655E+00
         21   -1    0    0  504  501  0.00000000000E+00  0.00000000000E+00  0.79773804710E+02  0.79773804710E+02  0.00000000000E+00 0.  1.
         21   -1    0    0  503  502 -0.00000000000E+00 -0.00000000000E+00 -0.17946530828E+02  0.17946530828E+02  0.00000000000E+00 0. -1.
         21    1    1    2  503  501 -0.25775294219E+02  0.47823175144E+01  0.66146303598E+02  0.71151738086E+02  0.00000000000E+00 0.  1.
         21    1    1    2  504  502  0.25775294219E+02 -0.47823175144E+01 -0.43190297162E+01  0.26568597452E+02  0.00000000000E+00 0. -1.
</event>
<event>
 4    1  0.3035432E+006  0.2395002E+02  0.7546771E-02  0.1480901E+00
         21   -1    0    0  504  501  0.00000000000E+00  0.00000000000E+00  0.24264143871E+03  0.24264143871E+03  0.00000000000E+00 0.  1.
         21   -1    0    0  503  502 -0.00000000000E+00 -0.00000000000E+00 -0.26528999068E+01  0.26528999068E+01  0.00000000000E+00 0.  1.
         21    1    1    2  503  501  0.16400059793E+02  0.17453977982E+02  0.79520462248E+02  0.83048824343E+02  0.00000000000E+00 0.  1.
         21    1    1    2  504  502 -0.16400059793E+02 -0.17453977982E+02  0.16046807655E+03  0.16224551427E+03  0.00000000000E+00 0.  1.
</event>
<event>
 4    1  0.3035432E+006  0.4321252E+02  0.7546771E-02  0.1330623E+00
         21   -1    0    0  503  501  0.00000000000E+00  0.00000000000E+00  0.30056446637E+03  0.30056446637E+03  0.00000000000E+00 0. -1.
         21   -1    0    0  504  502 -0.00000000000E+00 -0.00000000000E+00 -0.10555163068E+02  0.10555163068E+02  0.00000000000E+00 0.  1.
         21    1    1    2  503  502  0.43199752134E+02  0.10503356677E+01  0.24478205335E+03  0.24856704414E+03  0.00000000000E+00 0. -1.
         21    1    1    2  504  501 -0.43199752134E+02 -0.10503356677E+01  0.45227249953E+02  0.62552585300E+02  0.00000000000E+00 0.  1.
</event>
<event>
 4    1  0.3035432E+006  0.2559952E+02  0.7546771E-02  0.1462207E+00
         21   -1    0    0  504  501  0.00000000000E+00  0.00000000000E+00  0.23065841527E+03  0.23065841527E+03  0.00000000000E+00 0.  1.
         21   -1    0    0  503  502 -0.00000000000E+00 -0.00000000000E+00 -0.10050944696E+02  0.10050944696E+02  0.00000000000E+00 0.  1.
         21    1    1    2  503  501  0.24661244775E+02  0.68672093915E+01  0.21223817433E+03  0.21377646784E+03  0.00000000000E+00 0.  1.
         21    1    1    2  504  502 -0.24661244775E+02 -0.68672093915E+01  0.83692962419E+01  0.26932892126E+02  0.00000000000E+00 0.  1.
</event>
<event>
 4    1  0.3035432E+006  0.2350065E+02  0.7546771E-02  0.1486305E+00
         21   -1    0    0  502  501  0.00000000000E+00  0.00000000000E+00  0.33854095337E+03  0.33854095337E+03  0.00000000000E+00 0. -1.
         21   -1    0    0  503  502 -0.00000000000E+00 -0.00000000000E+00 -0.54920195200E+02  0.54920195200E+02  0.00000000000E+00 0. -1.
         21    1    1    2  503  504  0.27510869881E+01  0.23339068477E+02 -0.51976316061E+02  0.57042247749E+02  0.00000000000E+00 0. -1.
         21    1    1    2  504  501 -0.27510869881E+01 -0.23339068477E+02  0.33559707423E+03  0.33641890082E+03  0.00000000000E+00 0. -1.
</event>
<event>
 4    1  0.3035432E+006  0.2893684E+02  0.7546771E-02  0.1429066E+00
         21   -1    0    0  503  501  0.00000000000E+00  0.00000000000E+00  0.24630998895E+01  0.24630998895E+01  0.00000000000E+00 0.  1.
         21   -1    0    0  504  502 -0.00000000000E+00 -0.00000000000E+00 -0.36083924530E+03  0.36083924530E+03  0.00000000000E+00 0.  1.
         21    1    1    2  503  502 -0.97544003223E+01  0.27243204392E+02 -0.13548602967E+03  0.13854170760E+03  0.00000000000E+00 0.  1.
         21    1    1    2  504  501  0.97544003223E+01 -0.27243204392E+02 -0.22289011574E+03  0.22476063758E+03  0.00000000000E+00 0.  1.
</event>
<event>
 4    1  0.3035432E+006  0.2318310E+02  0.7546771E-02  0.1490212E+00
         21   -1    0    0  502  501  0.00000000000E+00  0.00000000000E+00  0.53893031055E+02  0.53893031055E+02  0.00000000000E+00 0.  1.
         21   -1    0    0  503  502 -0.00000000000E+00 -0.00000000000E+00 -0.15757200951E+03  0.15757200951E+03  0.00000000000E+00 0. -1.
         21    1    1    2  503  504  0.13791435107E+02 -0.18634710866E+02 -0.15417144857E+03  0.15590475196E+03  0.00000000000E+00 0. -1.
         21    1    1    2  504  501 -0.13791435107E+02  0.18634710866E+02  0.50492470113E+02  0.55560288602E+02  0.00000000000E+00 0.  1.
</event>
<event>
 4    1  0.3035432E+006  0.2270635E+02  0.7546771E-02  0.1496219E+00
         21   -1    0    0  502  501  0.00000000000E+00  0.00000000000E+00  0.14185852436E+01  0.14185852436E+01  0.00000000000E+00 0. -1.
         21   -1    0    0  503  502 -0.00000000000E+00 -0.00000000000E+00 -0.55284243624E+03  0.55284243624E+03  0.00000000000E+00 0. -1.
         21    1    1    2  503  504  0.10803063815E+02 -0.19971779339E+02 -0.43791920680E+03  0.43850747980E+03  0.00000000000E+00 0. -1.
         21    1    1    2  504  501 -0.10803063815E+02  0.19971779339E+02 -0.11350464420E+03  0.11575354168E+03  0.00000000000E+00 0. -1.
</event>
<event>
 4    1  0.3035432E+006  0.2247592E+02  0.7546771E-02  0.1499186E+00
         21   -1    0    0  504  501  0.00000000000E+00  0.00000000000E+00  0.25161155952E+02  0.25161155952E+02  0.00000000000E+00 0.  1.
         21   -1    0    0  501  502 -0.00000000000E+00 -0.00000000000E+00 -0.10088590172E+03  0.10088590172E+03  0.00000000000E+00 0.  1.
         21    1    1    2  503  502  0.33876404213E+01 -0.22219153954E+02 -0.94267216202E+02  0.96909622641E+02  0.00000000000E+00 0.  1.
         21    1    1    2  504  503 -0.33876404213E+01  0.22219153954E+02  0.18542470438E+02  0.29137435027E+02  0.00000000000E+00 0.  1.
</event>
<event>
 4    1  0.3035432E+006  0.2174947E+02  0.7546771E-02  0.1508828E+00
         21   -1    0    0  503  501  0.00000000000E+00  0.00000000000E+00  0.50696216806E+01  0.50696216806E+01  0.00000000000E+00 0. -1.
         21   -1    0    0  504  502 -0.00000000000E+00 -0.00000000000E+00 -0.77443893145E+03  0.77443893145E+03  0.00000000000E+00 0. -1.
         21    1    1    2  503  502 -0.21634265368E+02 -0.22356523917E+01 -0.75020570547E+03  0.75052091250E+03  0.00000000000E+00 0. -1.
         21    1    1    2  504  501  0.21634265368E+02  0.22356523917E+01 -0.19163604301E+02  0.28987640633E+02  0.00000000000E+00 0. -1.
</event>
<event>
 4    1  0.3035432E+006  0.2673472E+02  0.7546771E-02  0.1450291E+00
         21   -1    0    0  502  501  0.00000000000E+00  0.00000000000E+00  0.50072433085E+02  0.50072433085E+02  0.00000000000E+00 0.  1.
         21   -1    0    0  503  502 -0.00000000000E+00 -0.00000000000E+00 -0.11751616935E+03  0.11751616935E+03  0.00000000000E+00 0. -1.
         21    1    1    2  503  504  0.67425182447E+01 -0.25870521715E+02 -0.11226238347E+03  0.11540185523E+03  0.00000000000E+00 0. -1.
         21    1    1    2  504  501 -0.67425182447E+01  0.25870521715E+02  0.44818647212E+02  0.52186747207E+02  0.00000000000E+00 0.  1.
</event>
<event>
 4    1  0.3035432E+006  0.2193846E+02  0.7546771E-02  0.1506276E+00
         21   -1    0    0  502  501  0.00000000000E+00  0.00000000000E+00  0.36133863840E+02  0.36133863840E+02  0.00000000000E+00 0.  1.
         21   -1    0    0  504  502 -0.00000000000E+00 -0.00000000000E+00 -0.21274543746E+03  0.21274543746E+03  0.00000000000E+00 0.  1.
         21    1    1    2  503  501  0.12659514396E+02 -0.17917385819E+02  0.32175374433E+02  0.38942916419E+02  0.00000000000E+00 0.  1.
         21    1    1    2  504  503 -0.12659514396E+02  0.17917385819E+02 -0.20878694805E+03  0.20993638488E+03  0.00000000000E+00 0.  1.
</event>
<event>
 4    1  0.3035432E+006  0.4875461E+02  0.7546771E-02  0.1303664E+00
         21   -1    0    0  503  501  0.00000000000E+00  0.00000000000E+00  0.24791094430E+02  0.24791094430E+02  0.00000000000E+00 0. -1.
         21   -1    0    0  504  502 -0.00000000000E+00 -0.00000000000E+00 -0.10597291980E+03  0.10597291980E+03  0.00000000000E+00 0. -1.
         21    1    1    2  503  502  0.26294549103E+02 -0.41056161294E+02 -0.60766823051E+02  0.77907756202E+02  0.00000000000E+00 0. -1.
         21    1    1    2  504  501 -0.26294549103E+02  0.41056161294E+02 -0.20415002316E+02  0.52856258024E+02  0.00000000000E+00 0. -1.
</event>
<event>
 4    1  0.3035432E+006  0.2244032E+02  0.7546771E-02  0.1499648E+00
         21   -1    0    0  502  501  0.00000000000E+00  0.00000000000E+00  0.37160960735E+03  0.37160960735E+03  0.00000000000E+00 0. -1.
         21   -1    0    0  504  502 -0.00000000000E+00 -0.00000000000E+00 -0.21147197042E+02  0.21147197042E+02  0.00000000000E+00 0. -1.
         21    1    1    2  503  501  0.22406927276E+02 -0.12237348759E+01  0.36521354393E+03  0.36590231017E+03  0.00000000000E+00 0. -1.
         21    1    1    2  504  503 -0.22406927276E+02  0.12237348759E+01 -0.14751133620E+02  0.26854494225E+02  0.00000000000E+00 0. -1.
</event>
<event>
 4    1  0.3035432E+006  0.4747988E+02  0.7546771E-02  0.1309485E+00
         21   -1    0    0  503  501  0.00000000000E+00  0.00000000000E+00  0.85721414698E+02  0.85721414698E+02  0.00000000000E+00 0. -1.
         21   -1    0    0  504  502 -0.00000000000E+00 -0.00000000000E+00 -0.62313893321E+02  0.62313893321E+02  0.00000000000E+00 0. -1.
         21    1    1    2  503  502  0.26543414717E+02  0.39367323899E+02  0.67975112123E+02  0.82915347939E+02  0.00000000000E+00 0. -1.
         21    1    1    2  504  501 -0.26543414717E+02 -0.39367323899E+02 -0.44567590746E+02  0.65119960079E+02  0.00000000000E+00 0. -1.
</event>
<event>
 4    1  0.3035432E+006  0.2621996E+02  0.7546771E-02  0.1455605E+00
         21   -1    0    0  504  501  0.00000000000E+00  0.00000000000E+00  0.64575581009E+01  0.64575581009E+01  0.00000000000E+00 0.  1.
         21   -1    0    0  501  502 -0.00000000000E+00 -0.00000000000E+00 -0.12913699943E+03  0.12913699943E+03  0.00000000000E+00 0. -1.
         21    1    1    2  503  502  0.16215261828E+02  0.20604650275E+02 -0.89748849866E+02  0.93500494017E+02  0.00000000000E+00 0. -1.
         21    1    1    2  504  503 -0.16215261828E+02 -0.20604650275E+02 -0.32930591468E+02  0.42094063519E+02  0.00000000000E+00 0.  1.
</event>
<event>
 4    1  0.3035432E+006  0.2655925E+02  0.7546771E-02  0.1452087E+00
         21   -1    0    0  503  501  0.00000000000E+00  0.00000000000E+00  0.53762530463E+02  0.53762530463E+02  0.00000000000E+00 0.  1.
         21   -1    0    0  504  502 -0.00000000000E+00 -0.00000000000E+00 -0.19534606549E+02  0.19534606549E+02  0.00000000000E+00 0. -1.
         21    1    1    2  503  502 -0.18160017768E+02 -0.19380590157E+02 -0.38861377383E+01  0.26842048854E+02  0.00000000000E+00 0. -1.
         21    1    1    2  504  501  0.18160017768E+02  0.19380590157E+02  0.38114061651E+02  0.46455088158E+02  0.00000000000E+00 0.  1.
</event>
<event>
 4    1  0.3035432E+006  0.2669036E+02  0.7546771E-02  0.1450744E+00
         21   -1    0    0  503  501  0.00000000000E+00  0.00000000000E+00  0.86952926797E+01  0.86952926797E+01  0.00000000000E+00 0. -1.
         21   -1    0    0  504  502 -0.00000000000E+00 -0.00000000000E+00 -0.91388969456E+02  0.91388969456E+02  0.00000000000E+00 0. -1.
         21    1    1    2  503  502 -0.25546587488E+02 -0.77296223487E+01 -0.25244447527E+02  0.36737682628E+02  0.00000000000E+00 0. -1.
         21    1    1    2  504  501  0.25546587488E+02  0.77296223487E+01 -0.57449229250E+02  0.63346579508E+02  0.00000000000E+00 0. -1.
</event>
<event>
 4    1  0.3035432E+006  0.2149296E+02  0.7546771E-02  0.1512342E+00
         21   -1    0    0  503  501  0.00000000000E+00  0.00000000000E+00  0.70343002823E+02  0.70343002823E+02  0.00000000000E+00 0.  1.
         21   -1    0    0  504  502 -0.00000000000E+00 -0.00000000000E+00 -0.15647360544E+02  0.15647360544E+02  0.00000000000E+00 0.  1.
         21    1    1    2  503  502  0.99235211665E+00 -0.21470037342E+02  0.60100676674E+02  0.63828195986E+02  0.00000000000E+00 0.  1.
         21    1    1    2  504  501 -0.99235211665E+00  0.21470037342E+02 -0.54050343946E+01  0.22162167380E+02  0.00000000000E+00 0.  1.
</event>
<event>
 4    1  0.3035432E+006  0.2541927E+02  0.7546771E-02  0.1464167E+00
         21   -1    0    0  502  501  0.00000000000E+00  0.00000000000E+00  0.30551428808E+03  0.30551428808E+03  0.00000000000E+00 0.  1.
         21   -1    0    0  504  502 -0.00000000000E+00 -0.00000000000E+00 -0.38339828840E+01  0.38339828840E+01  0.00000000000E+00 0. -1.
         21    1    1    2  503  501 -0.18994375607E+02  0.16892390475E+02  0.25441114304E+03  0.25567786150E+03  0.00000000000E+00 0.  1.
         21    1    1    2  504  503  0.18994375607E+02 -0.16892390475E+02  0.47269162162E+02  0.53670409465E+02  0.00000000000E+00 0. -1.
</event>
<event>
 4    1  0.3035432E+006  0.3325232E+02  0.7546771E-02  0.1393284E+00
         21   -1    0    0  503  501  0.00000000000E+00  0.00000000000E+00  0.53763845841E+01  0.53763845841E+01  0.00000000000E+00 0.  1.
         21   -1    0    0  504  502 -0.00000000000E+00 -0.00000000000E+00 -0.20973690792E+03  0.20973690792E+03  0.00000000000E+00 0.  1.
         21    1    1    2  503  502  0.21569249660E+01  0.33182291712E+02 -0.87187881262E+02  0.93313683067E+02  0.00000000000E+00 0.  1.
         21    1    1    2  504  501 -0.21569249660E+01 -0.33182291712E+02 -0.11717264208E+03  0.12179960944E+03  0.00000000000E+00 0.  1.
</event>
<event>
 4    1  0.3035432E+006  0.2362449E+02  0.7546771E-02  0.1484802E+00
         21   -1    0    0  502  501  0.00000000000E+00  0.00000000000E+00  0.39776482585E+02  0.39776482585E+02  0.00000000000E+00 0.  1.
         21   -1    0    0  503  502 -0.00000000000E+00 -0.00000000000E+00 -0.59814886430E+02  0.59814886430E+02  0.00000000000E+00 0.  1.
         21    1    1    2  503  504  0.23326183935E+02 -0.37424335171E+01 -0.53584617623E+02  0.58561317535E+02  0.00000000000E+00 0.  1.
         21    1    1    2  504  501 -0.23326183935E+02  0.37424335171E+01  0.33546213778E+02  0.41030051480E+02  0.00000000000E+00 0.  1.
</event>
<event>
 4    1  0.3035432E+006  0.2281169E+02  0.7546771E-02  0.1494876E+00
         21   -1    0    0  504  501  0.00000000000E+00  0.00000000000E+00  0.79740636277E+02  0.79740636277E+02  0.00000000000E+00 0. -1.
         21   -1    0    0  503  502 -0.00000000000E+00 -0.00000000000E+00 -0.10440534395E+02  0.10440534395E+02  0.00000000000E+00 0. -1.
         21    1    1    2  503  501 -0.18815666192E+02 -0.12897441051E+02  0.70395438631E+01  0.23873174437E+02  0.00000000000E+00 0. -1.
         21    1    1    2  504  502  0.18815666192E+02  0.12897441051E+02  0.62260558019E+02  0.66307996235E+02  0.00000000000E+00 0. -1.
</event>
<event>
 4    1  0.3035432E+006  0.2240406E+02  0.7546771E-02  0.1500120E+00
         21   -1    0    0  504  501  0.00000000000E+00  0.00000000000E+00  0.11912362625E+02  0.11912362625E+02  0.00000000000E+00 0.  1.
         21   -1    0    0  503  502 -0.00000000000E+00 -0.00000000000E+00 -0.46056018042E+02  0.46056018042E+02  0.00000000000E+00 0.  1.
         21    1    1    2  503  501  0.66708214165E+01  0.21387890121E+02 -0.86161018262E+01  0.24003727062E+02  0.00000000000E+00 0.  1.
         21    1    1    2  504  502 -0.66708214165E+01 -0.21387890121E+02 -0.25527553590E+02  0.33964653605E+02  0.00000000000E+00 0.  1.
</event>
<event>
 4    1  0.3035432E+006  0.2684995E+02  0.7546771E-02  0.1449121E+00
         21   -1    0    0  503  501  0.00000000000E+00  0.00000000000E+00  0.75383268266E+01  0.75383268266E+01  0.00000000000E+00 0.  1.
         21   -1    0    0  504  502 -0.00000000000E+00 -0.00000000000E+00 -0.52323380647E+03  0.52323380647E+03  0.00000000000E+00 0. -1.
         21    1    1    2  503  502  0.56052730897E+01  0.26258350136E+02 -0.49775809319E+03  0.49848173424E+03  0.00000000000E+00 0. -1.
         21    1    1    2  504  501 -0.56052730897E+01 -0.26258350136E+02 -0.17937386455E+02  0.32290399054E+02  0.00000000000E+00 0.  1.
</event>
<event>
 4    1  0.3035432E+006  0.3579888E+02  0.7546771E-02  0.1375032E+00
         21   -1    0    0  504  501  0.00000000000E+00  0.00000000000E+00  0.30317433108E+02  0.30317433108E+02  0.00000000000E+00 0. -1.
         21   -1    0    0  503  502 -0.00000000000E+00 -0.00000000000E+00 -0.16472534564E+03  0.16472534564E+03  0.00000000000E+00 0. -1.
         21    1    1    2  503  501 -0.20307147765E+02  0.29481857316E+02  0.16878631339E+02  0.39578382446E+02  0.00000000000E+00 0. -1.
         21    1    1    2  504  502  0.20307147765E+02 -0.29481857316E+02 -0.15128654387E+03  0.15546439630E+03  0.00000000000E+00 0. -1.
</event>
<event>
 4    1  0.3035432E+006  0.2184915E+02  0.7546771E-02  0.1507478E+00
         21   -1    0    0  503  501  0.00000000000E+00  0.00000000000E+00  0.18925541019E+02  0.18925541019E+02  0.00000000000E+00 0.  1.
         21   -1    0    0  504  502 -0.00000000000E+00 -0.00000000000E+00 -0.27823373427E+02  0.27823373427E+02  0.00000000000E+00 0.  1.
         21    1    1    2  503  502 -0.93004568438E+01 -0.19770856115E+02  0.26950321024E+01  0.22014732500E+02  0.00000000000E+00 0.  1.
         21    1    1    2  504  501  0.93004568438E+01  0.19770856115E+02 -0.11592864510E+02  0.24734181946E+02  0.00000000000E+00 0.  1.
</event>
<event>
 4    1  0.3035432E+006  0.2369944E+02  0.7546771E-02  0.1483897E+00
         21   -1    0    0  502  501  0.00000000000E+00  0.00000000000E+00  0.15188320975E+03  0.15188320975E+03  0.00000000000E+00 0. -1.
         21   -1    0    0  504  502 -0.00000000000E+00 -0.00000000000E+00 -0.56505425776E+01  0.56505425776E+01  0.00000000000E+00 0. -1.
         21    1    1    2  503  501  0.58202108765E+01  0.22973649909E+02  0.11941828441E+03  0.12174723856E+03  0.00000000000E+00 0. -1.
         21    1    1    2  504  503 -0.58202108765E+01 -0.22973649909E+02  0.26814382755E+02  0.35786513764E+02  0.00000000000E+00 0. -1.
</event>
<event>
 4    1  0.3035432E+006  0.2163226E+02  0.7546771E-02  0.1510426E+00
         21   -1    0    0  502  501  0.00000000000E+00  0.00000000000E+00  0.78244252235E+02  0.78244252235E+02  0.00000000000E+00 0.  1.
         21   -1    0    0  504  502 -0.00000000000E+00 -0.00000000000E+00 -0.79449981531E+02  0.79449981531E+02  0.00000000000E+00 0. -1.
         21    1    1    2  503  501  0.19965447920E+02  0.83268035468E+01  0.75218542052E+02  0.78267386800E+02  0.00000000000E+00 0.  1.
         21    1    1    2  504  503 -0.19965447920E+02 -0.83268035468E+01 -0.76424271348E+02  0.79426846966E+02  0.00000000000E+00 0. -1.
</event>
<event>
 4    1  0.3035432E+006  0.2442452E+02  0.7546771E-02  0.1475345E+00
         21   -1    0    0  503  501  0.00000000000E+00  0.00000000000E+00  0.82154909761E+03  0.82154909761E+03  0.00000000000E+00 0.  1.
         21   -1    0    0  504  502 -0.00000000000E+00 -0.00000000000E+00 -0.57880850366E+03  0.57880850366E+03  0.00000000000E+00 0. -1.
         21    1    1    2  503  502  0.23960841184E+02  0.47365699904E+01 -0.57836916567E+03  0.57888465932E+03  0.00000000000E+00 0. -1.
         21    1    1    2  504  501 -0.23960841184E+02 -0.47365699904E+01  0.82110975962E+03  0.82147294194E+03  0.00000000000E+00 0.  1.
</event>
<event>
 4    1  0.3035432E+006  0.2062869E+02  0.7546771E-02  0.1524633E+00
         21   -1    0    0  503  501  0.00000000000E+00  0.00000000000E+00  0.14396393592E+03  0.14396393592E+03  0.00000000000E+00 0.  1.
         21   -1    0    0  504  502 -0.00000000000E+00 -0.00000000000E+00 -0.71328481016E+01  0.71328481016E+01  0.00000000000E+00 0.  1.
         21    1    1    2  503  502  0.20512543889E+02  0.21859267086E+01  0.12622825994E+03  0.12790276127E+03  0.00000000000E+00 0.  1.
         21    1    1    2  504  501 -0.20512543889E+02 -0.21859267086E+01  0.10602827873E+02  0.23194022749E+02  0.00000000000E+00 0.  1.
</event>
<event>
 4    1  0.3035432E+006  0.2226601E+02  0.7546771E-02  0.1501926E+00
         21   -1    0    0  504  501  0.00000000000E+00  0.00000000000E+00  0.18197194261E+01  0.18197194261E+01  0.00000000000E+00 0.  1.
         21   -1    0    0  503  502 -0.00000000000E+00 -0.00000000000E+00 -0.27765199961E+03  0.27765199961E+03  0.00000000000E+00 0.  1.
         21    1    1    2  503  501 -0.53304743458E+01 -0.21618539003E+02 -0.15705040025E+03  0.15862094251E+03  0.00000000000E+00 0.  1.
         21    1    1    2  504  502  0.53304743458E+01  0.21618539003E+02 -0.11878187994E+03  0.12085077653E+03  0.00000000000E+00 0.  1.
</event>
<event>
 4    1  0.3035432E+006  0.2192452E+02  0.7546771E-02  0.1506463E+00
         21   -1    0    0  504  501  0.00000000000E+00  0.00000000000E+00  0.18116867044E+01  0.18116867044E+01  0.00000000000E+00 0.  1.
         21   -1    0    0  501  502 -0.00000000000E+00 -0.00000000000E+00 -0.28218595044E+03  0.28218595044E+03  0.00000000000E+00 0.  1.
         21    1    1    2  503  502  0.16481357164E+02  0.14458539795E+02 -0.17489812793E+03  0.17626695567E+03  0.00000000000E+00 0.  1.
         21    1    1    2  504  503 -0.16481357164E+02 -0.14458539795E+02 -0.10547613581E+03  0.10773068148E+03  0.00000000000E+00 0.  1.
</event>
<event>
 4    1  0.3035432E+006  0.2342233E+02  0.7546771E-02  0.1487262E+00
         21   -1    0    0  504  501  0.00000000000E+00  0.00000000000E+00  0.69181142011E+03  0.69181142011E+03  0.00000000000E+00 0.  1.
         21   -1    0    0  503  502 -0.00000000000E+00 -0.00000000000E+00 -0.90979522520E+02  0.90979522520E+02  0.00000000000E+00 0.  1.
         21    1    1    2  503  501  0.20753632044E+02  0.10857814336E+02  0.69010194044E+03  0.69049930744E+03  0.00000000000E+00 0.  1.
         21    1    1    2  504  502 -0.20753632044E+02 -0.10857814336E+02 -0.89270042851E+02  0.92291635189E+02  0.00000000000E+00 0.  1.
</event>
<event>
 4    1  0.3035432E+006  0.2438663E+02  0.7546771E-02  0.1475783E+00
         21   -1    0    0  503  501  0.00000000000E+00  0.00000000000E+00  0.12295992261E+03  0.12295992261E+03  0.00000000000E+00 0.  1.
         21   -1    0    0  501  502 -0.00000000000E+00 -0.00000000000E+00 -0.23276451847E+02  0.23276451847E+02  0.00000000000E+00 0.  1.
         21    1    1    2  503  504 -0.23423762143E+02 -0.67849105460E+01  0.11492146954E+03  0.11748043158E+03  0.00000000000E+00 0.  1.
         21    1    1    2  504  502  0.23423762143E+02  0.67849105460E+01 -0.15237998773E+02  0.28755942876E+02  0.00000000000E+00 0.  1.
</event>
<event>
 4    1  0.3035432E+006  0.4159552E+02  0.7546771E-02  0.1339381E+00
         21   -1    0    0  503  501  0.00000000000E+00  0.00000000000E+00  0.74287218003E+02  0.74287218003E+02  0.00000000000E+00 0.  1.
         21   -1    0    0  504  502 -0.00000000000E+00 -0.00000000000E+00 -0.15152478040E+03  0.15152478040E+03  0.00000000000E+00 0.  1.
         21    1    1    2  503  502  0.26631737881E+01 -0.41510173904E+02 -0.14248569873E+03  0.14843301982E+03  0.00000000000E+00 0.  1.
         21    1    1    2  504  501 -0.26631737881E+01  0.41510173904E+02  0.65248136327E+02  0.77378978582E+02  0.00000000000E+00 0.  1.
</event>
<event>
 4    1  0.3035432E+006  0.2031304E+02  0.7546771E-02  0.1529303E+00
         21   -1    0    0  504  501  0.00000000000E+00  0.00000000000E+00  0.16139485584E+02  0.16139485584E+02  0.00000000000E+00 0. -1.
         21   -1    0    0  503  502 -0.00000000000E+00 -0.00000000000E+00 -0.14943619400E+03  0.14943619400E+03  0.00000000000E+00 0. -1.
         21    1    1    2  503  501 -0.14914764172E+02 -0.13790188193E+02  0.87257812323E+01  0.22107888611E+02  0.00000000000E+00 0. -1.
         21    1    1    2  504  502  0.14914764172E+02  0.13790188193E+02 -0.14202248965E+03  0.14346779097E+03  0.00000000000E+00 0. -1.
</event>
<event>
 4    1  0.3035432E+006  0.2322655E+02  0.7546771E-02  0.1489673E+00
         21   -1    0    0  504  501  0.00000000000E+00  0.00000000000E+00  0.88651794826E+02  0.88651794826E+02  0.00000000000E+00 0.  1.
         21   -1    0    0  503  502 -0.00000000000E+00 -0.00000000000E+00 -0.14807409939E+03  0.14807409939E+03  0.00000000000E+00 0. -1.
         21    1    1    2  503  501  0.15074034087E+02 -0.17670492799E+02 -0.14561644356E+03  0.14745718516E+03  0.00000000000E+00 0. -1.
         21    1    1    2  504  502 -0.15074034087E+02  0.17670492799E+02  0.86194138997E+02  0.89268709058E+02  0.00000000000E+00 0.  1.
</event>
<event>
 4    1  0.3035432E+006  0.2216494E+02  0.7546771E-02  0.1503259E+00
         21   -1    0    0  504  501  0.00000000000E+00  0.00000000000E+00  0.24755636179E+02  0.24755636179E+02  0.00000000000E+00 0.  1.
         21   -1    0    0  501  502 -0.00000000000E+00 -0.00000000000E+00 -0.27788350703E+02  0.27788350703E+02  0.00000000000E+00 0. -1.
         21    1    1    2  503  502 -0.28384801132E+01 -0.21982436690E+02 -0.15562390455E+02  0.27082697223E+02  0.00000000000E+00 0. -1.
         21    1    1    2  504  503  0.28384801132E+01  0.21982436690E+02  0.12529675931E+02  0.25461289659E+02  0.00000000000E+00 0.  1.
</event>
<event>
 4    1  0.3035432E+006  0.2755528E+02  0.7546771E-02  0.1442109E+00
         21   -1    0    0  502  501  0.00000000000E+00  0.00000000000E+00  0.30674118228E+02  0.30674118228E+02  0.00000000000E+00 0. -1.
         21   -1    0    0  504  502 -0.00000000000E+00 -0.00000000000E+00 -0.37727111278E+02  0.37727111278E+02  0.00000000000E+00 0.  1.
         21    1    1    2  503  501  0.24975826707E+02  0.11640519189E+02  0.16529146130E+02  0.32132635723E+02  0.00000000000E+00 0. -1.
         21    1    1    2  504  503 -0.24975826707E+02 -0.11640519189E+02 -0.23582139180E+02  0.36268593783E+02  0.00000000000E+00 0.  1.
</event>
<event>
 4    1  0.3035432E+006  0.2350503E+02  0.7546771E-02  0.1486252E+00
         21   -1    0    0  504  501  0.00000000000E+00  0.00000000000E+00  0.88878207171E+03  0.88878207171E+03  0.00000000000E+00 0. -1.
         21   -1    0    0  501  502 -0.00000000000E+00 -0.00000000000E+00 -0.12797529167E+01  0.12797529167E+01  0.00000000000E+00 0. -1.
         21    1    1    2  503  502  0.18283195434E+02  0.14771968837E+02  0.12460962283E+03  0.12680711494E+03  0.00000000000E+00 0. -1.
         21    1    1    2  504  503 -0.18283195434E+02 -0.14771968837E+02  0.76289269596E+03  0.76325470968E+03  0.00000000000E+00 0. -1.
</event>
<event>
 4    1  0.3035432E+006  0.2415310E+02  0.7546771E-02  0.1478505E+00
         21   -1    0    0  504  501  0.00000000000E+00  0.00000000000E+00  0.39676297686E+02  0.39676297686E+02  0.00000000000E+00 0.  1.
         21   -1    0    0  503  502 -0.00000000000E+00 -0.00000000000E+00 -0.17510266206E+02  0.17510266206E+02  0.00000000000E+00 0.  1.
         21    1    1    2  503  501 -0.13397626929E+02 -0.20096663617E+02 -0.36516922339E+00  0.24155861492E+02  0.00000000000E+00 0.  1.
         21    1    1    2  504  502  0.13397626929E+02  0.20096663617E+02  0.22531200704E+02  0.33030702400E+02  0.00000000000E+00 0.  1.
</event>
<event>
 4    1  0.3035432E+006  0.2386892E+02  0.7546771E-02  0.1481866E+00
         21   -1    0    0  504  501  0.00000000000E+00  0.00000000000E+00  0.20078842509E+03  0.20078842509E+03  0.00000000000E+00 0.  1.
         21   -1    0    0  503  502 -0.00000000000E+00 -0.00000000000E+00 -0.41677211731E+01  0.41677211731E+01  0.00000000000E+00 0.  1.
         21    1    1    2  503  501 -0.21632683730E+02 -0.10087247429E+02  0.40413763547E+02  0.46936103908E+02  0.00000000000E+00 0.  1.
         21    1    1    2  504  502  0.21632683730E+02  0.10087247429E+02  0.15620694037E+03  0.15802004235E+03  0.00000000000E+00 0.  1.
</event>
<event>
 4    1  0.3035432E+006  0.2713102E+02  0.7546771E-02  0.1446296E+00
         21   -1    0    0  503  501  0.00000000000E+00  0.00000000000E+00  0.55104421450E+03  0.55104421450E+03  0.00000000000E+00 0.  1.
         21   -1    0    0  501  502 -0.00000000000E+00 -0.00000000000E+00 -0.70642360863E+01  0.70642360863E+01  0.00000000000E+00 0. -1.
         21    1    1    2  503  504 -0.18721619923E+02  0.19636525806E+02  0.52327902017E+03  0.52398189391E+03  0.00000000000E+00 0.  1.
         21    1    1    2  504  502  0.18721619923E+02 -0.19636525806E+02  0.20700958248E+02  0.34126556678E+02  0.00000000000E+00 0. -1.
</event>
<event>
 4    1  0.3035432E+006  0.2139140E+02  0.7546771E-02  0.1513749E+00
         21   -1    0    0  502  501  0.00000000000E+00  0.00000000000E+00  0.16094367945E+02  0.16094367945E+02  0.00000000000E+00 0. -1.
         21   -1    0    0  504  502 -0.00000000000E+00 -0.00000000000E+00 -0.10486584712E+03  0.10486584712E+03  0.00000000000E+00 0.  1.
         21    1    1    2  503  501 -0.18695516878E+02 -0.10395650520E+02  0.72486371143E+01  0.22586160389E+02  0.00000000000E+00 0. -1.
         21    1    1    2  504  503  0.18695516878E+02  0.10395650520E+02 -0.96020116285E+02  0.98374054671E+02  0.00000000000E+00 0.  1.
</event>
<event>
 4    1  0.3035432E+006  0.2105438E+02  0.7546771E-02  0.1518490E+00
         21   -1    0    0  504  501  0.00000000000E+00  0.00000000000E+00  0.60439324218E+01  0.60439324218E+01  0.00000000000E+00 0.  1.
         21   -1    0    0  503  502 -0.00000000000E+00 -0.00000000000E+00 -0.85495423675E+02  0.85495423675E+02  0.00000000000E+00 0.  1.
         21    1    1    2  503  501 -0.16352345129E+02  0.13262259634E+02 -0.22470609035E+02  0.30793099750E+02  0.00000000000E+00 0.  1.
         21    1    1    2  504  502  0.16352345129E+02 -0.13262259634E+02 -0.56980882218E+02  0.60746256347E+02  0.00000000000E+00 0.  1.
</event>
<event>
 4    1  0.3035432E+006  0.2748752E+02  0.7546771E-02  0.1442771E+00
         21   -1    0    0  502  501  0.00000000000E+00  0.00000000000E+00  0.73503949317E+02  0.73503949317E+02  0.00000000000E+00 0. -1.
         21   -1    0    0  503  502 -0.00000000000E+00 -0.00000000000E+00 -0.12090232782E+02  0.12090232782E+02  0.00000000000E+00 0. -1.
         21    1    1    2  503  504 -0.14250398655E+02 -0.23505103905E+02  0.14143177469E+02  0.30912671194E+02  0.00000000000E+00 0. -1.
         21    1    1    2  504  501  0.14250398655E+02  0.23505103905E+02  0.47270539066E+02  0.54681510906E+02  0.00000000000E+00 0. -1.
</event>
<event>
 4    1  0.3035432E+006  0.2719179E+02  0.7546771E-02  0.1445691E+00
         21   -1    0    0  504  501  0.00000000000E+00  0.00000000000E+00  0.36194712473E+03  0.36194712473E+03  0.00000000000E+00 0.  1.
         21   -1    0    0  503  502 -0.00000000000E+00 -0.00000000000E+00 -0.20428427347E+01  0.20428427347E+01  0.00000000000E+00 0.  1.
         21    1    1    2  503  501  0.89679555690E+01  0.25670399831E+02  0.18052787495E+03  0.18256425523E+03  0.00000000000E+00 0.  1.
         21    1    1    2  504  502 -0.89679555690E+01 -0.25670399831E+02  0.17937640705E+03  0.18142571224E+03  0.00000000000E+00 0.  1.
</event>
<event>
 4    1  0.3035432E+006  0.2122877E+02  0.7546771E-02  0.1516024E+00
         21   -1    0    0  503  501  0.00000000000E+00  0.00000000000E+00  0.34910350193E+03  0.34910350193E+03  0.00000000000E+00 0.  1.
         21   -1    0    0  501  502 -0.00000000000E+00 -0.00000000000E+00 -0.17252697469E+01  0.17252697469E+01  0.00000000000E+00 0.  1.
         21    1    1    2  503  504  0.99532822552E+01 -0.18750808137E+02  0.26170525301E+03  0.26256484930E+03  0.00000000000E+00 0.  1.
         21    1    1    2  504  502 -0.99532822552E+01  0.18750808137E+02  0.85672979169E+02  0.88263922375E+02  0.00000000000E+00 0.  1.
</event>
<event>
 4    1  0.3035432E+006  0.3071224E+02  0.7546771E-02  0.1413506E+00
         21   -1    0    0  504  501  0.00000000000E+00  0.00000000000E+00  0.56834654794E+01  0.56834654794E+01  0.00000000000E+00 0.  1.
         21   -1    0    0  501  502 -0.00000000000E+00 -0.00000000000E+00 -0.16661508843E+03  0.16661508843E+03  0.00000000000E+00 0.  1.
         21    1    1    2  503  502 -0.18724698777E+02  0.24343936943E+02 -0.75073870192E+02  0.81113054411E+02  0.00000000000E+00 0.  1.
         21    1    1    2  504  503  0.18724698777E+02 -0.24343936943E+02 -0.85857752757E+02  0.91185499498E+02  0.00000000000E+00 0.  1.
</event>
<event>
 4    1  0.3035432E+006  0.6739688E+02  0.7546771E-02  0.1236580E+00
         21   -1    0    0  503  501  0.00000000000E+00  0.00000000000E+00  0.52036053569E+03  0.52036053569E+03  0.00000000000E+00 0.  1.
         21   -1    0    0  504  502 -0.00000000000E+00 -0.00000000000E+00 -0.50067555436E+02  0.50067555436E+02  0.00000000000E+00 0. -1.
         21    1    1    2  503  502  0.63610811683E+02  0.22271160947E+02  0.49430723770E+03  0.49888073245E+03  0.00000000000E+00 0.  1.
         21    1    1    2  504  501 -0.63610811683E+02 -0.22271160947E+02 -0.24014257441E+02  0.71547358675E+02  0.00000000000E+00 0. -1.
</event>
<event>
 4    1  0.3035432E+006  0.2010291E+02  0.7546771E-02  0.1532468E+00
         21   -1    0    0  503  501  0.00000000000E+00  0.00000000000E+00  0.35402813906E+03  0.35402813906E+03  0.00000000000E+00 0. -1.
         21   -1    0    0  504  502 -0.00000000000E+00 -0.00000000000E+00 -0.37582268776E+01  0.37582268776E+01  0.00000000000E+00 0. -1.
         21    1    1    2  503  502  0.16716783402E+02  0.11165840785E+02  0.25862177033E+02  0.32756358904E+02  0.00000000000E+00 0. -1.
         21    1    1    2  504  501 -0.16716783402E+02 -0.11165840785E+02  0.32440773515E+03  0.32503000703E+03  0.00000000000E+00 0. -1.
</event>
<event>
 4    1  0.3035432E+006  0.2070272E+02  0.7546771E-02  0.1523552E+00
         21   -1    0    0  503  501  0.00000000000E+00  0.00000000000E+00  0.13039202336E+02  0.13039202336E+02  0.00000000000E+00 0.  1.
         21   -1    0    0  504  502 -0.00000000000E+00 -0.00000000000E+00 -0.83592129464E+02  0.83592129464E+02  0.00000000000E+00 0.  1.
         21    1    1    2  503  502 -0.14911579415E+02 -0.14361322225E+02  0.23594650889E+01  0.20836742840E+02  0.00000000000E+00 0.  1.
         21    1    1    2  504  501  0.14911579415E+02  0.14361322225E+02 -0.72912392217E+02  0.75794588959E+02  0.00000000000E+00 0.  1.
</event>
<event>
 4    1  0.3035432E+006  0.2044199E+02  0.7546771E-02  0.1527383E+00
         21   -1    0    0  503  501  0.00000000000E+00  0.00000000000E+00  0.60256240618E+02  0.60256240618E+02  0.00000000000E+00 0.  1.
         21   -1    0    0  501  502 -0.00000000000E+00 -0.00000000000E+00 -0.20434167729E+02  0.20434167729E+02  0.00000000000E+00 0. -1.
         21    1    1    2  503  504 -0.76078704827E+01 -0.18973537213E+02  0.52703008136E+02  0.56528593422E+02  0.00000000000E+00 0.  1.
         21    1    1    2  504  502  0.76078704827E+01  0.18973537213E+02 -0.12880935247E+02  0.24161814925E+02  0.00000000000E+00 0. -1.
</event>
<event>
 4    1  0.3035432E+006  0.2157689E+02  0.7546771E-02  0.1511185E+00
         21   -1    0    0  503  501  0.00000000000E+00  0.00000000000E+00  0.54259750783E+02  0.54259750783E+02  0.00000000000E+00 0. -1.
         21   -1    0    0  504  502 -0.00000000000E+00 -0.00000000000E+00 -0.22734225030E+02  0.22734225030E+02  0.00000000000E+00 0. -1.
         21    1    1    2  503  502  0.20626165032E+02  0.63343027128E+01 -0.14612911522E+02  0.26059532957E+02  0.00000000000E+00 0. -1.
         21    1    1    2  504  501 -0.20626165032E+02 -0.63343027128E+01  0.46138437275E+02  0.50934442855E+02  0.00000000000E+00 0. -1.
</event>
<event>
 4    1  0.3035432E+006  0.2459301E+02  0.7546771E-02  0.1473408E+00
         21   -1    0    0  504  501  0.00000000000E+00  0.00000000000E+00  0.55427020326E+03  0.55427020326E+03  0.00000000000E+00 0.  1.
         21   -1    0    0  503  502 -0.00000000000E+00 -0.00000000000E+00 -0.21751244555E+01  0.21751244555E+01  0.00000000000E+00 0.  1.
         21    1    1    2  503  501  0.14241304924E+01  0.24551740214E+02  0.47245195146E+03  0.47309160057E+03  0.00000000000E+00 0.  1.
         21    1    1    2  504  502 -0.14241304924E+01 -0.24551740214E+02  0.79643127346E+02  0.83353727143E+02  0.00000000000E+00 0.  1.
</event>
<event>
 4    1  0.3035432E+006  0.2317231E+02  0.7546771E-02  0.1490346E+00
         21   -1    0    0  504  501  0.00000000000E+00  0.00000000000E+00  0.16633473654E+04  0.16633473654E+04  0.00000000000E+00 0. -1.
         21   -1    0    0  503  502 -0.00000000000E+00 -0.00000000000E+00 -0.58468191649E+00  0.58468191649E+00  0.00000000000E+00 0. -1.
         21    1    1    2  503  501  0.21296136582E+02 -0.91340220695E+01  0.13881630050E+04  0.13883563967E+04  0.00000000000E+00 0. -1.
         21    1    1    2  504  502 -0.21296136582E+02  0.91340220695E+01  0.27459967853E+03  0.27557565067E+03  0.00000000000E+00 0. -1.
</event>
<event>
 4    1  0.3035432E+006  0.2206747E+02  0.7546771E-02  0.1504552E+00
         21   -1    0    0  503  501  0.00000000000E+00  0.00000000000E+00  0.12718217436E+01  0.12718217436E+01  0.00000000000E+00 0.  1.
         21   -1    0    0  504  502 -0.00000000000E+00 -0.00000000000E+00 -0.89623667278E+03  0.89623667278E+03  0.00000000000E+00 0. -1.
         21    1    1    2  503  502 -0.22047993047E+02 -0.92686174125E+00 -0.78710836183E+03  0.78741764416E+03  0.00000000000E+00 0. -1.
         21    1    1    2  504  501  0.22047993047E+02  0.92686174125E+00 -0.10785648921E+03  0.11009085036E+03  0.00000000000E+00 0.  1.
</event>
<event>
 4    1  0.3035432E+006  0.2618546E+02  0.7546771E-02  0.1455966E+00
         21   -1    0    0  504  501  0.00000000000E+00  0.00000000000E+00  0.70919554743E+01  0.70919554743E+01  0.00000000000E+00 0.  1.
         21   -1    0    0  501  502 -0.00000000000E+00 -0.00000000000E+00 -0.21441403783E+03  0.21441403783E+03  0.00000000000E+00 0.  1.
         21    1    1    2  503  502 -0.11339881052E+01  0.26160893439E+02 -0.18572880699E+03  0.18756563657E+03  0.00000000000E+00 0.  1.
         21    1    1    2  504  503  0.11339881052E+01 -0.26160893439E+02 -0.21593275367E+02  0.33940356740E+02  0.00000000000E+00 0.  1.
</event>
<event>
 4    1  0.3035432E+006  0.2813307E+02  0.7546771E-02  0.1436547E+00
         21   -1    0    0  502  501  0.00000000000E+00  0.00000000000E+00  0.51082342823E+02  0.51082342823E+02  0.00000000000E+00 0.  1.
         21   -1    0    0  503  502 -0.00000000000E+00 -0.00000000000E+00 -0.63030307199E+02  0.63030307199E+02  0.00000000000E+00 0. -1.
         21    1    1    2  503  504 -0.84113657104E+01 -0.26846202123E+02 -0.55523772385E+02  0.62244348670E+02  0.00000000000E+00 0. -1.
         21    1    1    2  504  501  0.84113657104E+01  0.26846202123E+02  0.43575808009E+02  0.51868301352E+02  0.00000000000E+00 0.  1.
</event>
<event>
 4    1  0.3035432E+006  0.4325591E+02  0.7546771E-02  0.1330395E+00
         21   -1    0    0  504  501  0.00000000000E+00  0.00000000000E+00  0.50176910409E+02  0.50176910409E+02  0.00000000000E+00 0. -1.
         21   -1    0    0  503  502 -0.00000000000E+00 -0.00000000000E+00 -0.20142543498E+03  0.20142543498E+03  0.00000000000E+00 0.  1.
         21    1    1    2  503  501  0.40908839003E+02 -0.14054902219E+02  0.37936770091E+02  0.57534962501E+02  0.00000000000E+00 0. -1.
         21    1    1    2  504  502 -0.40908839003E+02  0.14054902219E+02 -0.18918529466E+03  0.19406738289E+03  0.00000000000E+00 0.  1.
</event>
<event>
 4    1  0.3035432E+006  0.2143315E+02  0.7546771E-02  0.1513170E+00
         21   -1    0    0  503  501  0.00000000000E+00  0.00000000000E+00  0.22671362672E+02  0.22671362672E+02  0.00000000000E+00 0.  1.
         21   -1    0    0  504  502 -0.00000000000E+00 -0.00000000000E+00 -0.36810615752E+02  0.36810615752E+02  0.00000000000E+00 0.  1.
         21    1    1    2  503  502 -0.20797152623E+02 -0.51824919760E+01  0.12871165041E+02  0.25000933379E+02  0.00000000000E+00 0.  1.
         21    1    1    2  504  501  0.20797152623E+02  0.51824919760E+01 -0.27010418121E+02  0.34481045045E+02  0.00000000000E+00 0.  1.
</event>
<event>
 4    1  0.3035432E+006  0.4181796E+02  0.7546771E-02  0.1338150E+00
         21   -1    0    0  504  501  0.00000000000E+00  0.00000000000E+00  0.31541927909E+02  0.31541927909E+02  0.00000000000E+00 0.  1.
         21   -1    0    0  503  502 -0.00000000000E+00 -0.00000000000E+00 -0.73610138938E+02  0.73610138938E+02  0.00000000000E+00 0.  1.
         21    1    1    2  503  501 -0.32949306335E+02 -0.25750436477E+02  0.50860896913E+01  0.42126121054E+02  0.00000000000E+00 0.  1.
         21    1    1    2  504  502  0.32949306335E+02  0.25750436477E+02 -0.47154300721E+02  0.63025945793E+02  0.00000000000E+00 0.  1.
</event>
<event>
 4    1  0.3035432E+006  0.2837777E+02  0.7546771E-02  0.1434238E+00
         21   -1    0    0  504  501  0.00000000000E+00  0.00000000000E+00  0.43559014482E+03  0.43559014482E+03  0.00000000000E+00 0. -1.
         21   -1    0    0  503  502 -0.00000000000E+00 -0.00000000000E+00 -0.59159749159E+01  0.59159749159E+01  0.00000000000E+00 0. -1.
         21    1    1    2  503  501 -0.28227442399E+02  0.29170624611E+01  0.31798518281E+02  0.42619755075E+02  0.00000000000E+00 0. -1.
         21    1    1    2  504  502  0.28227442399E+02 -0.29170624611E+01  0.39787565163E+03  0.39888636466E+03  0.00000000000E+00 0. -1.
</event>
<event>
 4    1  0.3035432E+006  0.2682558E+02  0.7546771E-02  0.1449368E+00
         21   -1    0    0  503  501  0.00000000000E+00  0.00000000000E+00  0.36034617252E+03  0.36034617252E+03  0.00000000000E+00 0.  1.
         21   -1    0    0  504  502 -0.00000000000E+00 -0.00000000000E+00 -0.83285762342E+01  0.83285762342E+01  0.00000000000E+00 0.  1.
         21    1    1    2  503  502  0.10279446717E+02 -0.24777910508E+02  0.15283632963E+02  0.30873958452E+02  0.00000000000E+00 0.  1.
         21    1    1    2  504  501 -0.10279446717E+02  0.24777910508E+02  0.33673396333E+03  0.33780079031E+03  0.00000000000E+00 0.  1.
</event>
<event>
 4    1  0.3035432E+006  0.3045447E+02  0.7546771E-02  0.1415687E+00
         21   -1    0    0  504  501  0.00000000000E+00  0.00000000000E+00  0.14607765413E+03  0.14607765413E+03  0.00000000000E+00 0. -1.
         21   -1    0    0  501  502 -0.00000000000E+00 -0.00000000000E+00 -0.11850229181E+03  0.11850229181E+03  0.00000000000E+00 0. -1.
         21    1    1    2  503  502 -0.23374450183E+02 -0.19522042029E+02 -0.11490954722E+03  0.11887673906E+03  0.00000000000E+00 0. -1.
         21    1    1    2  504  503  0.23374450183E+02  0.19522042029E+02  0.14248490955E+03  0.14570320688E+03  0.00000000000E+00 0. -1.
</event>
<event>
 4    1  0.3035432E+006  0.2125155E+02  0.7546771E-02  0.1515704E+00
         21   -1    0    0  503  501  0.00000000000E+00  0.00000000000E+00  0.15290508123E+01  0.15290508123E+01  0.00000000000E+00 0.  1.
         21   -1    0    0  504  502 -0.00000000000E+00 -0.00000000000E+00 -0.34502782090E+03  0.34502782090E+03  0.00000000000E+00 0.  1.
         21    1    1    2  503  502 -0.19984810186E+02 -0.72274240598E+01 -0.23748981976E+03  0.23843876108E+03  0.00000000000E+00 0.  1.
         21    1    1    2  504  501  0.19984810186E+02  0.72274240598E+01 -0.10600895033E+03  0.10811811063E+03  0.00000000000E+00 0.  1.
</event>
<event>
 4    1  0.3035432E+006  0.2313791E+02  0.7546771E-02  0.1490774E+00
         21   -1    0    0  502  501  0.00000000000E+00  0.00000000000E+00  0.52865848098E+01  0.52865848098E+01  0.00000000000E+00 0.  1.
         21   -1    0    0  504  502 -0.00000000000E+00 -0.00000000000E+00 -0.13784333078E+03  0.13784333078E+03  0.00000000000E+00 0.  1.
         21    1    1    2  503  501  0.20390199819E+00 -0.23137011545E+02 -0.29414535859E+02  0.37424294236E+02  0.00000000000E+00 0.  1.
         21    1    1    2  504  503 -0.20390199819E+00  0.23137011545E+02 -0.10314221011E+03  0.10570562135E+03  0.00000000000E+00 0.  1.
</event>
<event>
 4    1  0.3035432E+006  0.2362691E+02  0.7546771E-02  0.1484772E+00
         21   -1    0    0  504  501  0.00000000000E+00  0.00000000000E+00  0.34916775417E+01  0.34916775417E+01  0.00000000000E+00 0. -1.
         21   -1    0    0  503  502 -0.00000000000E+00 -0.00000000000E+00 -0.11175685232E+04  0.11175685232E+04  0.00000000000E+00 0.  1.
         21    1    1    2  503  501  0.11072173746E+02 -0.20871943267E+02 -0.38148553051E+02  0.44872521069E+02  0.00000000000E+00 0. -1.
         21    1    1    2  504  502 -0.11072173746E+02  0.20871943267E+02 -0.10759282926E+04  0.10761876796E+04  0.00000000000E+00 0.  1.
</event>
<event>
 4    1  0.3035432E+006  0.2098058E+02  0.7546771E-02  0.1519542E+00
         21   -1    0    0  504  501  0.00000000000E+00  0.00000000000E+00  0.37906210276E+01  0.37906210276E+01  0.00000000000E+00 0.  1.
         21   -1    0    0  503  502 -0.00000000000E+00 -0.00000000000E+00 -0.12911227376E+03  0.12911227376E+03  0.00000000000E+00 0.  1.
         21    1    1    2  503  501  0.20766011000E+02 -0.29928901474E+01 -0.41584969200E+02  0.46577830216E+02  0.00000000000E+00 0.  1.
         21    1    1    2  504  502 -0.20766011000E+02  0.29928901474E+01 -0.83736683533E+02  0.86325064572E+02  0.00000000000E+00 0.  1.
</event>
<event>
 4    1  0.3035432E+006  0.2610342E+02  0.7546771E-02  0.1456828E+00
         21   -1    0    0  503  501  0.00000000000E+00  0.00000000000E+00  0.86460585690E+01  0.86460585690E+01  0.00000000000E+00 0. -1.
         21   -1    0    0  504  502 -0.00000000000E+00 -0.00000000000E+00 -0.87591884840E+02  0.87591884840E+02  0.00000000000E+00 0. -1.
         21    1    1    2  503  502  0.16552537660E+02  0.20184203317E+02 -0.54709902825E+02  0.60618165872E+02  0.00000000000E+00 0. -1.
         21    1    1    2  504  501 -0.16552537660E+02 -0.20184203317E+02 -0.24235923446E+02  0.35619777538E+02  0.00000000000E+00 0. -1.
</event>
<event>
 4    1  0.3035432E+006  0.2511162E+02  0.7546771E-02  0.1467559E+00
         21   -1    0    0  502  501  0.00000000000E+00  0.00000000000E+00  0.24278807600E+02  0.24278807600E+02  0.00000000000E+00 0. -1.
         21   -1    0    0  504  502 -0.00000000000E+00 -0.00000000000E+00 -0.36784317824E+02  0.36784317824E+02  0.00000000000E+00 0. -1.
         21    1    1    2  503  501  0.23873210115E+02  0.77886635275E+01  0.10299494301E+02  0.27141721088E+02  0.00000000000E+00 0. -1.
         21    1    1    2  504  503 -0.23873210115E+02 -0.77886635275E+01 -0.22805004525E+02  0.33921404337E+02  0.00000000000E+00 0. -1.
</event>
<event>
 4    1  0.3035432E+006  0.2643114E+02  0.7546771E-02  0.1453408E+00
         21   -1    0    0  503  501  0.00000000000E+00  0.00000000000E+00  0.14708592626E+03  0.14708592626E+03  0.00000000000E+00 0.  1.
         21   -1    0    0  504  502 -0.00000000000E+00 -0.00000000000E+00 -0.19448572959E+02  0.19448572959E+02  0.00000000000E+00 0. -1.
         21    1    1    2  503  502  0.19214256685E+02  0.18149867063E+02  0.13620778721E+03  0.13874857344E+03  0.00000000000E+00 0.  1.
         21    1    1    2  504  501 -0.19214256685E+02 -0.18149867063E+02 -0.85704339063E+01  0.27785925784E+02  0.00000000000E+00 0. -1.
</event>
<event>
 4    1  0.3035432E+006  0.2271312E+02  0.7546771E-02  0.1496132E+00
         21   -1    0    0  503  501  0.00000000000E+00  0.00000000000E+00  0.80183436340E+03  0.80183436340E+03  0.00000000000E+00 0.  1.
         21   -1    0    0  504  502 -0.00000000000E+00 -0.00000000000E+00 -0.70376583819E+00  0.70376583819E+00  0.00000000000E+00 0.  1.
         21    1    1    2  503  502  0.76103440605E+01 -0.21400200391E+02  0.51810414434E+03  0.51860176465E+03  0.00000000000E+00 0.  1.
         21    1    1    2  504  501 -0.76103440605E+01  0.21400200391E+02  0.28302645322E+03  0.28393636458E+03  0.00000000000E+00 0.  1.
</event>
<event>
 4    1  0.3035432E+006  0.2098755E+02  0.7546771E-02  0.1519443E+00
         21   -1    0    0  504  501  0.00000000000E+00  0.00000000000E+00  0.95947648868E+02  0.95947648868E+02  0.00000000000E+00 0. -1.
         21   -1    0    0  503  502 -0.00000000000E+00 -0.00000000000E+00 -0.76224665702E+01  0.76224665702E+01  0.00000000000E+00 0. -1.
         21    1    1    2  503  501  0.18580566452E+02  0.97590859564E+01  0.76821138542E+02  0.79636452302E+02  0.00000000000E+00 0. -1.
         21    1    1    2  504  502 -0.18580566452E+02 -0.97590859564E+01  0.11504043756E+02  0.23933663136E+02  0.00000000000E+00 0. -1.
</event>
<event>
 4    1  0.3035432E+006  0.2184377E+02  0.7546771E-02  0.1507551E+00
         21   -1    0    0  504  501  0.00000000000E+00  0.00000000000E+00  0.59200995754E+02  0.59200995754E+02  0.00000000000E+00 0.  1.
         21   -1    0    0  503  502 -0.00000000000E+00 -0.00000000000E+00 -0.66455941828E+03  0.66455941828E+03  0.00000000000E+00 0. -1.
         21    1    1    2  503  501 -0.14025278792E+02  0.16746398136E+02 -0.66235826633E+03  0.66271835894E+03  0.00000000000E+00 0. -1.
         21    1    1    2  504  502  0.14025278792E+02 -0.16746398136E+02  0.56999843809E+02  0.61042055093E+02  0.00000000000E+00 0.  1.
</event>
<event>
 4    1  0.3035432E+006  0.7067342E+02  0.7546771E-02  0.1227330E+00
         21   -1    0    0  502  501  0.00000000000E+00  0.00000000000E+00  0.14201302344E+03  0.14201302344E+03  0.00000000000E+00 0. -1.
         21   -1    0    0  504  502 -0.00000000000E+00 -0.00000000000E+00 -0.44849622490E+02  0.44849622490E+02  0.00000000000E+00 0.  1.
         21    1    1    2  503  501  0.49799338654E+02  0.50147360584E+02  0.91984841945E+02  0.11599975453E+03  0.00000000000E+00 0. -1.
         21    1    1    2  504  503 -0.49799338654E+02 -0.50147360584E+02  0.51785590053E+01  0.70862891397E+02  0.00000000000E+00 0.  1.
</event>
<event>
 4    1  0.3035432E+006  0.2538735E+02  0.7546771E-02  0.1464516E+00
         21   -1    0    0  503  501  0.00000000000E+00  0.00000000000E+00  0.65228775438E+03  0.65228775438E+03  0.00000000000E+00 0. -1.
         21   -1    0    0  504  502 -0.00000000000E+00 -0.00000000000E+00 -0.39044466828E+01  0.39044466828E+01  0.00000000000E+00 0. -1.
         21    1    1    2  503  502  0.14437288198E+02  0.20882583619E+02  0.40633720927E+02  0.47912596105E+02  0.00000000000E+00 0. -1.
         21    1    1    2  504  501 -0.14437288198E+02 -0.20882583619E+02  0.60774958677E+03  0.60827960496E+03  0.00000000000E+00 0. -1.
</event>
<event>
 4    1  0.3035432E+006  0.2039097E+02  0.7546771E-02  0.1528141E+00
         21   -1    0    0  502  501  0.00000000000E+00  0.00000000000E+00  0.33959846287E+01  0.33959846287E+01  0.00000000000E+00 0. -1.
         21   -1    0    0  503  502 -0.00000000000E+00 -0.00000000000E+00 -0.19284306042E+03  0.19284306042E+03  0.00000000000E+00 0. -1.
         21    1    1    2  503  504 -0.23004579905E+01 -0.20260783495E+02 -0.15401073331E+03  0.15535474705E+03  0.00000000000E+00 0. -1.
         21    1    1    2  504  501  0.23004579905E+01  0.20260783495E+02 -0.35436342484E+02  0.40884298006E+02  0.00000000000E+00 0. -1.
</event>
<event>
 4    1  0.3035432E+006  0.2279410E+02  0.7546771E-02  0.1495100E+00
         21   -1    0    0  503  501  0.00000000000E+00  0.00000000000E+00  0.92929508174E+01  0.92929508174E+01  0.00000000000E+00 0.  1.
         21   -1    0    0  504  502 -0.00000000000E+00 -0.00000000000E+00 -0.60278970232E+02  0.60278970232E+02  0.00000000000E+00 0.  1.
         21    1    1    2  503  502 -0.18815158926E+02 -0.12867050208E+02 -0.16128214268E+02  0.27922938275E+02  0.00000000000E+00 0.  1.
         21    1    1    2  504  501  0.18815158926E+02  0.12867050208E+02 -0.34857805147E+02  0.41648982774E+02  0.00000000000E+00 0.  1.
</event>
<event>
 4    1  0.3035432E+006  0.2638151E+02  0.7546771E-02  0.1453922E+00
         21   -1    0    0  503  501  0.00000000000E+00  0.00000000000E+00  0.92967116224E+01  0.92967116224E+01  0.00000000000E+00 0.  1.
         21   -1    0    0  504  502 -0.00000000000E+00 -0.00000000000E+00 -0.75492254557E+02  0.75492254557E+02  0.00000000000E+00 0.  1.
         21    1    1    2  503  502 -0.21305479338E+02  0.15558290618E+02 -0.29228601534E+02  0.39373785752E+02  0.00000000000E+00 0.  1.
         21    1    1    2  504  501  0.21305479338E+02 -0.15558290618E+02 -0.36966941401E+02  0.45415180428E+02  0.00000000000E+00 0.  1.
</event>
<event>
 4    1  0.3035432E+006  0.2886727E+02  0.7546771E-02  0.1429702E+00
         21   -1    0    0  502  501  0.00000000000E+00  0.00000000000E+00  0.29110539971E+03  0.29110539971E+03  0.00000000000E+00 0.  1.
         21   -1    0    0  503  502 -0.00000000000E+00 -0.00000000000E+00 -0.78394517496E+01  0.78394517496E+01  0.00000000000E+00 0.  1.
         21    1    1    2  503  504  0.22126289551E+02 -0.18540401525E+02  0.22537444404E+02  0.36623156312E+02  0.00000000000E+00 0.  1.
         21    1    1    2  504  501 -0.22126289551E+02  0.18540401525E+02  0.26072850355E+03  0.26232169514E+03  0.00000000000E+00 0.  1.
</event>
<event>
 4    1  0.3035432E+006  0.2421231E+02  0.7546771E-02  0.1477812E+00
         21   -1    0    0  503  501  0.00000000000E+00  0.00000000000E+00  0.33931036066E+03  0.33931036066E+03  0.00000000000E+00 0.  1.
         21   -1    0    0  504  502 -0.00000000000E+00 -0.00000000000E+00 -0.23973807426E+01  0.23973807426E+01  0.00000000000E+00 0. -1.
         21    1    1    2  503  502  0.31596562174E+01  0.24005256128E+02  0.25875516791E+03  0.25988549916E+03  0.00000000000E+00 0.  1.
         21    1    1    2  504  501 -0.31596562174E+01 -0.24005256128E+02  0.78157812004E+02  0.81822242248E+02  0.00000000000E+00 0. -1.
</event>
<event>
 4    1  0.3035432E+006  0.2816149E+02  0.7546771E-02  0.1436277E+00
         21   -1    0    0  502  501  0.00000000000E+00  0.00000000000E+00  0.74848202267E+02  0.74848202267E+02  0.00000000000E+00 0. -1.
         21   -1    0    0  503  502 -0.00000000000E+00 -0.00000000000E+00 -0.26974985469E+02  0.26974985469E+02  0.00000000000E+00 0. -1.
         21    1    1    2  503  504  0.13160988778E+02 -0.24896947958E+02 -0.15735333852E+02  0.32259423037E+02  0.00000000000E+00 0. -1.
         21    1    1    2  504  501 -0.13160988778E+02  0.24896947958E+02  0.63608550651E+02  0.69563764699E+02  0.00000000000E+00 0. -1.
</event>
<event>
 4    1  0.3035432E+006  0.3168295E+02  0.7546771E-02  0.1405514E+00
         21   -1    0    0  503  501  0.00000000000E+00  0.00000000000E+00  0.42202236729E+02  0.42202236729E+02  0.00000000000E+00 0. -1.
         21   -1    0    0  501  502 -0.00000000000E+00 -0.00000000000E+00 -0.71810136170E+03  0.71810136170E+03  0.00000000000E+00 0.  1.
         21    1    1    2  503  504 -0.10843231749E+02  0.29769672668E+02  0.35853332828E+02  0.47846322329E+02  0.00000000000E+00 0. -1.
         21    1    1    2  504  502  0.10843231749E+02 -0.29769672668E+02 -0.71175245780E+03  0.71245727610E+03  0.00000000000E+00 0.  1.
</event>
<event>
 4    1  0.3035432E+006  0.2161568E+02  0.7546771E-02  0.1510653E+00
         21   -1    0    0  503  501  0.00000000000E+00  0.00000000000E+00  0.59320695930E+02  0.59320695930E+02  0.00000000000E+00 0.  1.
         21   -1    0    0  504  502 -0.00000000000E+00 -0.00000000000E+00 -0.85193806399E+02  0.85193806399E+02  0.00000000000E+00 0.  1.
         21    1    1    2  503  502 -0.16117980443E+02  0.14403070680E+02  0.55899482501E+02  0.59933211848E+02  0.00000000000E+00 0.  1.
         21    1    1    2  504  501  0.16117980443E+02 -0.14403070680E+02 -0.81772592969E+02  0.84581290481E+02  0.00000000000E+00 0.  1.
</event>
<event>
 4    1  0.3035432E+006  0.2105403E+02  0.7546771E-02  0.1518495E+00
         21   -1    0    0  504  501  0.00000000000E+00  0.00000000000E+00  0.14849597667E+01  0.14849597667E+01  0.00000000000E+00 0. -1.
         21   -1    0    0  503  502 -0.00000000000E+00 -0.00000000000E+00 -0.47114500206E+03  0.47114500206E+03  0.00000000000E+00 0.  1.
         21    1    1    2  503  501  0.14474272995E+02 -0.15289457781E+02 -0.91782237558E+02  0.94166083221E+02  0.00000000000E+00 0. -1.
         21    1    1    2  504  502 -0.14474272995E+02  0.15289457781E+02 -0.37787780474E+03  0.37846387861E+03  0.00000000000E+00 0.  1.
</event>
<event>
 4    1  0.3035432E+006  0.2705176E+02  0.7546771E-02  0.1447089E+00
         21   -1    0    0  503  501  0.00000000000E+00  0.00000000000E+00  0.28042914916E+02  0.28042914916E+02  0.00000000000E+00 0.  1.
         21   -1    0    0  504  502 -0.00000000000E+00 -0.00000000000E+00 -0.86636469070E+02  0.86636469070E+02  0.00000000000E+00 0. -1.
         21    1    1    2  503  502  0.16961298811E+02 -0.21073966545E+02 -0.77229177328E+02  0.81829967335E+02  0.00000000000E+00 0. -1.
         21    1    1    2  504  501 -0.16961298811E+02  0.21073966545E+02  0.18635623174E+02  0.32849416651E+02  0.00000000000E+00 0.  1.
</event>
<event>
 4    1  0.3035432E+006  0.2408018E+02  0.7546771E-02  0.1479362E+00
         21   -1    0    0  503  501  0.00000000000E+00  0.00000000000E+00  0.47088462678E+01  0.47088462678E+01  0.00000000000E+00 0. -1.
         21   -1    0    0  501  502 -0.00000000000E+00 -0.00000000000E+00 -0.17852950214E+03  0.17852950214E+03  0.00000000000E+00 0. -1.
         21    1    1    2  503  504 -0.19425520820E+01 -0.24001695906E+02 -0.35878774193E+02  0.43210431062E+02  0.00000000000E+00 0. -1.
         21    1    1    2  504  502  0.19425520820E+01  0.24001695906E+02 -0.13794188168E+03  0.14002791734E+03  0.00000000000E+00 0. -1.
</event>
<event>
 4    1  0.3035432E+006  0.2748050E+02  0.7546771E-02  0.1442840E+00
         21   -1    0    0  503  501  0.00000000000E+00  0.00000000000E+00  0.92618899884E+00  0.92618899884E+00  0.00000000000E+00 0.  1.
         21   -1    0    0  504  502 -0.00000000000E+00 -0.00000000000E+00 -0.87989581710E+03  0.87989581710E+03  0.00000000000E+00 0.  1.
         21    1    1    2  503  502  0.21132761419E+02  0.17566569638E+02 -0.55875752234E+03  0.55943287958E+03  0.00000000000E+00 0.  1.
         21    1    1    2  504  501 -0.21132761419E+02 -0.17566569638E+02 -0.32021210576E+03  0.32138912653E+03  0.00000000000E+00 0.  1.
</event>
<event>
 4    1  0.3035432E+006  0.3764500E+02  0.7546771E-02  0.1362867E+00
         21   -1    0    0  504  501  0.00000000000E+00  0.00000000000E+00  0.38085910357E+02  0.38085910357E+02  0.00000000000E+00 0.  1.
         21   -1    0    0  503  502 -0.00000000000E+00 -0.00000000000E+00 -0.53300239175E+02  0.53300239175E+02  0.00000000000E+00 0.  1.
         21    1    1    2  503  501 -0.34540636001E+02  0.14969649545E+02  0.17498860851E+02  0.41513324053E+02  0.00000000000E+00 0.  1.
         21    1    1    2  504  502  0.34540636001E+02 -0.14969649545E+02 -0.32713189670E+02  0.49872825479E+02  0.00000000000E+00 0.  1.
</event>
<event>
 4    1  0.3035432E+006  0.2320305E+02  0.7546771E-02  0.1489964E+00
         21   -1    0    0  504  501  0.00000000000E+00  0.00000000000E+00  0.31745489697E+02  0.31745489697E+02  0.00000000000E+00 0.  1.
         21   -1    0    0  501  502 -0.00000000000E+00 -0.00000000000E+00 -0.23635864115E+03  0.23635864115E+03  0.00000000000E+00 0. -1.
         21    1    1    2  503  502  0.15819888333E+02  0.16973880117E+02 -0.23145985011E+03  0.23261995547E+03  0.00000000000E+00 0. -1.
         21    1    1    2  504  503 -0.15819888333E+02 -0.16973880117E+02  0.26846698656E+02  0.35484175372E+02  0.00000000000E+00 0.  1.
</event>
<event>
 4    1  0.3035432E+006  0.2607627E+02  0.7546771E-02  0.1457114E+00
         21   -1    0    0  504  501  0.00000000000E+00  0.00000000000E+00  0.48385121561E+03  0.48385121561E+03  0.00000000000E+00 0. -1.
         21   -1    0    0  503  502 -0.00000000000E+00 -0.00000000000E+00 -0.11762296523E+02  0.11762296523E+02  0.00000000000E+00 0. -1.
         21    1    1    2  503  501 -0.18609830352E+02  0.18265976506E+02  0.46857677776E+03  0.46930178813E+03  0.00000000000E+00 0. -1.
         21    1    1    2  504  502  0.18609830352E+02 -0.18265976506E+02  0.35121413276E+01  0.26311724006E+02  0.00000000000E+00 0. -1.
</event>
<event>
 4    1  0.3035432E+006  0.4332367E+02  0.7546771E-02  0.1330038E+00
         21   -1    0    0  502  501  0.00000000000E+00  0.00000000000E+00  0.17709867989E+03  0.17709867989E+03  0.00000000000E+00 0. -1.
         21   -1    0    0  503  502 -0.00000000000E+00 -0.00000000000E+00 -0.27706079025E+02  0.27706079025E+02  0.00000000000E+00 0.  1.
         21    1    1    2  503  504  0.42725268290E+02  0.71757646895E+01 -0.57710447586E+01  0.43706350877E+02  0.00000000000E+00 0.  1.
         21    1    1    2  504  501 -0.42725268290E+02 -0.71757646895E+01  0.15516364563E+03  0.16109840804E+03  0.00000000000E+00 0. -1.
</event>
<event>
 4    1  0.3035432E+006  0.2995148E+02  0.7546771E-02  0.1420019E+00
         21   -1    0    0  504  501  0.00000000000E+00  0.00000000000E+00  0.58388006293E+03  0.58388006293E+03  0.00000000000E+00 0.  1.
         21   -1    0    0  503  502 -0.00000000000E+00 -0.00000000000E+00 -0.27562681926E+02  0.27562681926E+02  0.00000000000E+00 0. -1.
         21    1    1    2  503  501 -0.28807262076E+02  0.81995761559E+01  0.57523694984E+03  0.57601618021E+03  0.00000000000E+00 0.  1.
         21    1    1    2  504  502  0.28807262076E+02 -0.81995761559E+01 -0.18919568841E+02  0.35426564646E+02  0.00000000000E+00 0. -1.
</event>
<event>
 4    1  0.3035432E+006  0.2137482E+02  0.7546771E-02  0.1513980E+00
         21   -1    0    0  504  501  0.00000000000E+00  0.00000000000E+00  0.16632348494E+02  0.16632348494E+02  0.00000000000E+00 0. -1.
         21   -1    0    0  501  502 -0.00000000000E+00 -0.00000000000E+00 -0.33655301114E+02  0.33655301114E+02  0.00000000000E+00 0. -1.
         21    1    1    2  503  502 -0.19494096128E+02 -0.87671528905E+01 -0.19291050701E+02  0.28792835755E+02  0.00000000000E+00 0. -1.
         21    1    1    2  504  503  0.19494096128E+02  0.87671528905E+01  0.22680980816E+01  0.21494813852E+02  0.00000000000E+00 0. -1.
</event>
<event>
 4    1  0.3035432E+006  0.2284686E+02  0.7546771E-02  0.1494430E+00
         21   -1    0    0  504  501  0.00000000000E+00  0.00000000000E+00  0.65722451577E+02  0.65722451577E+02  0.00000000000E+00 0.  1.
         21   -1    0    0  503  502 -0.00000000000E+00 -0.00000000000E+00 -0.36395616998E+02  0.36395616998E+02  0.00000000000E+00 0. -1.
         21    1    1    2  503  501  0.21110563810E+02  0.87363058730E+01  0.59809023549E+02  0.64024200445E+02  0.00000000000E+00 0.  1.
         21    1    1    2  504  502 -0.21110563810E+02 -0.87363058730E+01 -0.30482188971E+02  0.38093868130E+02  0.00000000000E+00 0. -1.
</event>
<event>
 4    1  0.3035432E+006  0.2150351E+02  0.7546771E-02  0.1512196E+00
         21   -1    0    0  503  501  0.00000000000E+00  0.00000000000E+00  0.16527685418E+02  0.16527685418E+02  0.00000000000E+00 0. -1.
         21   -1    0    0  504  502 -0.00000000000E+00 -0.00000000000E+00 -0.47777613307E+02  0.47777613307E+02  0.00000000000E+00 0. -1.
         21    1    1    2  503  502 -0.18708685105E+02 -0.10601225218E+02 -0.36323517554E+02  0.42211358684E+02  0.00000000000E+00 0. -1.
         21    1    1    2  504  501  0.18708685105E+02  0.10601225218E+02  0.50735896646E+01  0.22093940042E+02  0.00000000000E+00 0. -1.
</event>
<event>
 4    1  0.3035432E+006  0.2041490E+02  0.7546771E-02  0.1527785E+00
         21   -1    0    0  504  501  0.00000000000E+00  0.00000000000E+00  0.15904224451E+04  0.15904224451E+04  0.00000000000E+00 0.  1.
         21   -1    0    0  503  502 -0.00000000000E+00 -0.00000000000E+00 -0.26907603472E+00  0.26907603472E+00  0.00000000000E+00 0.  1.
         21    1    1    2  503  501  0.56937851582E+01 -0.19604817358E+02  0.92360989542E+03  0.92383548697E+03  0.00000000000E+00 0.  1.
         21    1    1    2  504  502 -0.56937851582E+01  0.19604817358E+02  0.66654347360E+03  0.66685603413E+03  0.00000000000E+00 0.  1.
</event>
<event>
 4    1  0.3035432E+006  0.2443003E+02  0.7546771E-02  0.1475282E+00
         21   -1    0    0  503  501  0.00000000000E+00  0.00000000000E+00  0.18763047598E+02  0.18763047598E+02  0.00000000000E+00 0.  1.
         21   -1    0    0  504  502 -0.00000000000E+00 -0.00000000000E+00 -0.33651062905E+02  0.33651062905E+02  0.00000000000E+00 0.  1.
         21    1    1    2  503  502  0.19770342558E+02 -0.14351303570E+02 -0.13117882542E+01  0.24465223225E+02  0.00000000000E+00 0.  1.
         21    1    1    2  504  501 -0.19770342558E+02  0.14351303570E+02 -0.13576227053E+02  0.27948887277E+02  0.00000000000E+00 0.  1.
</event>
<event>
 4    1  0.3035432E+006  0.2620294E+02  0.7546771E-02  0.1455783E+00
         21   -1    0    0  503  501  0.00000000000E+00  0.00000000000E+00  0.18065159795E+03  0.18065159795E+03  0.00000000000E+00 0. -1.
         21   -1    0    0  504  502 -0.00000000000E+00 -0.00000000000E+00 -0.97909937774E+02  0.97909937774E+02  0.00000000000E+00 0. -1.
         21    1    1    2  503  502  0.22145245061E+02  0.14006507441E+02 -0.95179891781E+02  0.98720848503E+02  0.00000000000E+00 0. -1.
         21    1    1    2  504  501 -0.22145245061E+02 -0.14006507441E+02  0.17792155195E+03  0.17984068722E+03  0.00000000000E+00 0. -1.
</event>
<event>
 4    1  0.3035432E+006  0.2081058E+02  0.7546771E-02  0.1521987E+00
         21   -1    0    0  504  501  0.00000000000E+00  0.00000000000E+00  0.80193514507E+02  0.80193514507E+02  0.00000000000E+00 0.  1.
         21   -1    0    0  503  502 -0.00000000000E+00 -0.00000000000E+00 -0.14756861556E+03  0.14756861556E+03  0.00000000000E+00 0.  1.
         21    1    1    2  503  501 -0.12108381265E+02  0.16925348080E+02 -0.14546539051E+03  0.14694645331E+03  0.00000000000E+00 0.  1.
         21    1    1    2  504  502  0.12108381265E+02 -0.16925348080E+02  0.78090289449E+02  0.80815676763E+02  0.00000000000E+00 0.  1.
</event>
<event>
 4    1  0.3035432E+006  0.2850857E+02  0.7546771E-02  0.1433016E+00
         21   -1    0    0  503  501  0.00000000000E+00  0.00000000000E+00  0.66859929726E+02  0.66859929726E+02  0.00000000000E+00 0. -1.
         21   -1    0    0  504  502 -0.00000000000E+00 -0.00000000000E+00 -0.13064092634E+02  0.13064092634E+02  0.00000000000E+00 0. -1.
         21    1    1    2  503  502  0.59185637407E+01  0.27887439636E+02  0.16361069329E+02  0.32869792755E+02  0.00000000000E+00 0. -1.
         21    1    1    2  504  501 -0.59185637407E+01 -0.27887439636E+02  0.37434767763E+02  0.47054229604E+02  0.00000000000E+00 0. -1.
</event>
<event>
 4    1  0.3035432E+006  0.3769730E+02  0.7546771E-02  0.1362535E+00
         21   -1    0    0  503  501  0.00000000000E+00  0.00000000000E+00  0.55709405330E+02  0.55709405330E+02  0.00000000000E+00 0. -1.
         21   -1    0    0  501  502 -0.00000000000E+00 -0.00000000000E+00 -0.33260327624E+02  0.33260327624E+02  0.00000000000E+00 0. -1.
         21    1    1    2  503  504  0.34380066809E+02  0.15462779654E+02  0.32699848084E+02  0.49903573150E+02  0.00000000000E+00 0. -1.
         21    1    1    2  504  502 -0.34380066809E+02 -0.15462779654E+02 -0.10250770377E+02  0.39066159803E+02  0.00000000000E+00 0. -1.
</event>
<event>
 4    1  0.3035432E+006  0.2451640E+02  0.7546771E-02  0.1474287E+00
         21   -1    0    0  502  501  0.00000000000E+00  0.00000000000E+00  0.43862317018E+02  0.43862317018E+02  0.00000000000E+00 0.  1.
         21   -1    0    0  504  502 -0.00000000000E+00 -0.00000000000E+00 -0.55264882890E+02  0.55264882890E+02  0.00000000000E+00 0. -1.
         21    1    1    2  503  501 -0.13250922487E+02  0.20626850285E+02  0.37280537189E+02  0.44619416766E+02  0.00000000000E+00 0.  1.
         21    1    1    2  504  503  0.13250922487E+02 -0.20626850285E+02 -0.48683103061E+02  0.54507783142E+02  0.00000000000E+00 0. -1.
</event>
<event>
 4    1  0.3035432E+006  0.3287619E+02  0.7546771E-02  0.1396142E+00
         21   -1    0    0  502  501  0.00000000000E+00  0.00000000000E+00  0.39537051994E+02  0.39537051994E+02  0.00000000000E+00 0.  1.
         21   -1    0    0  504  502 -0.00000000000E+00 -0.00000000000E+00 -0.11144242722E+04  0.11144242722E+04  0.00000000000E+00 0. -1.
         21    1    1    2  503  501 -0.28830985764E+02  0.15799316214E+02  0.32416269812E+02  0.46169889338E+02  0.00000000000E+00 0.  1.
         21    1    1    2  504  503  0.28830985764E+02 -0.15799316214E+02 -0.11073034900E+04  0.11077914348E+04  0.00000000000E+00 0. -1.
</event>
<event>
 4    1  0.3035432E+006  0.3242925E+02  0.7546771E-02  0.1399597E+00
         21   -1    0    0  502  501  0.00000000000E+00  0.00000000000E+00  0.10850331891E+04  0.10850331891E+04  0.00000000000E+00 0.  1.
         21   -1    0    0  504  502 -0.00000000000E+00 -0.00000000000E+00 -0.56237387295E+02  0.56237387295E+02  0.00000000000E+00 0. -1.
         21    1    1    2  503  501  0.21258050110E+02 -0.24489824147E+02  0.10800944316E+04  0.10805811573E+04  0.00000000000E+00 0.  1.
         21    1    1    2  504  503 -0.21258050110E+02  0.24489824147E+02 -0.51298629790E+02  0.60689419173E+02  0.00000000000E+00 0. -1.
</event>
<event>
 4    1  0.3035432E+006  0.2197179E+02  0.7546771E-02  0.1505829E+00
         21   -1    0    0  503  501  0.00000000000E+00  0.00000000000E+00  0.32846349679E+03  0.32846349679E+03  0.00000000000E+00 0. -1.
         21   -1    0    0  504  502 -0.00000000000E+00 -0.00000000000E+00 -0.50176840497E+02  0.50176840497E+02  0.00000000000E+00 0.  1.
         21    1    1    2  503  502 -0.16794431811E+02 -0.14167100855E+02 -0.47383504041E+02  0.52229839572E+02  0.00000000000E+00 0.  1.
         21    1    1    2  504  501  0.16794431811E+02  0.14167100855E+02  0.32567016034E+03  0.32641049772E+03  0.00000000000E+00 0. -1.
</event>
<event>
 4    1  0.3035432E+006  0.2477893E+02  0.7546771E-02  0.1471292E+00
         21   -1    0    0  504  501  0.00000000000E+00  0.00000000000E+00  0.10919557082E+03  0.10919557082E+03  0.00000000000E+00 0. -1.
         21   -1    0    0  503  502 -0.00000000000E+00 -0.00000000000E+00 -0.31028069743E+02  0.31028069743E+02  0.00000000000E+00 0.  1.
         21    1    1    2  503  501 -0.22253832298E+02 -0.10897812004E+02  0.10252547016E+03  0.10547733117E+03  0.00000000000E+00 0. -1.
         21    1    1    2  504  502  0.22253832298E+02  0.10897812004E+02 -0.24357969087E+02  0.34746309393E+02  0.00000000000E+00 0.  1.
</event>
<event>
 4    1  0.3035432E+006  0.4298316E+02  0.7546771E-02  0.1331839E+00
         21   -1    0    0  503  501  0.00000000000E+00  0.00000000000E+00  0.98310167428E+02  0.98310167428E+02  0.00000000000E+00 0. -1.
         21   -1    0    0  504  502 -0.00000000000E+00 -0.00000000000E+00 -0.23393071241E+02  0.23393071241E+02  0.00000000000E+00 0. -1.
         21    1    1    2  503  502  0.16176078880E+02  0.39823188061E+02  0.10474534735E+02  0.44241018447E+02  0.00000000000E+00 0. -1.
         21    1    1    2  504  501 -0.16176078880E+02 -0.39823188061E+02  0.64442561452E+02  0.77462220222E+02  0.00000000000E+00 0. -1.
</event>
<event>
 4    1  0.3035432E+006  0.2846679E+02  0.7546771E-02  0.1433405E+00
         21   -1    0    0  503  501  0.00000000000E+00  0.00000000000E+00  0.10573725269E+02  0.10573725269E+02  0.00000000000E+00 0.  1.
         21   -1    0    0  504  502 -0.00000000000E+00 -0.00000000000E+00 -0.39862105276E+03  0.39862105276E+03  0.00000000000E+00 0.  1.
         21    1    1    2  503  502 -0.34768722201E+01  0.28253663639E+02 -0.10143066985E+02  0.30219860313E+02  0.00000000000E+00 0.  1.
         21    1    1    2  504  501  0.34768722201E+01 -0.28253663639E+02 -0.37790426050E+03  0.37897491771E+03  0.00000000000E+00 0.  1.
</event>
<event>
 4    1  0.3035432E+006  0.2766052E+02  0.7546771E-02  0.1441084E+00
         21   -1    0    0  503  501  0.00000000000E+00  0.00000000000E+00  0.93827742758E+03  0.93827742758E+03  0.00000000000E+00 0. -1.
         21   -1    0    0  501  502 -0.00000000000E+00 -0.00000000000E+00 -0.20565612119E+03  0.20565612119E+03  0.00000000000E+00 0. -1.
         21    1    1    2  503  504 -0.27448024937E+02  0.34220342165E+01  0.93714236519E+03  0.93755048772E+03  0.00000000000E+00 0. -1.
         21    1    1    2  504  502  0.27448024937E+02 -0.34220342165E+01 -0.20452105880E+03  0.20638306104E+03  0.00000000000E+00 0. -1.
</event>
<event>
 4    1  0.3035432E+006  0.3071941E+02  0.7546771E-02  0.1413446E+00
         21   -1    0    0  502  501  0.00000000000E+00  0.00000000000E+00  0.58288826656E+01  0.58288826656E+01  0.00000000000E+00 0. -1.
         21   -1    0    0  503  502 -0.00000000000E+00 -0.00000000000E+00 -0.19410097529E+03  0.19410097529E+03  0.00000000000E+00 0. -1.
         21    1    1    2  503  504  0.25224786698E+02  0.17532602747E+02 -0.13485387447E+03  0.13830853004E+03  0.00000000000E+00 0. -1.
         21    1    1    2  504  501 -0.25224786698E+02 -0.17532602747E+02 -0.53418218162E+02  0.61621327920E+02  0.00000000000E+00 0. -1.
</event>
<event>
 4    1  0.3035432E+006  0.2213316E+02  0.7546771E-02  0.1503680E+00
         21   -1    0    0  504  501  0.00000000000E+00  0.00000000000E+00  0.23101080193E+02  0.23101080193E+02  0.00000000000E+00 0. -1.
         21   -1    0    0  503  502 -0.00000000000E+00 -0.00000000000E+00 -0.58837806645E+02  0.58837806645E+02  0.00000000000E+00 0.  1.
         21    1    1    2  503  501  0.64686903244E+01  0.21166782448E+02 -0.50633393842E+02  0.55259544023E+02  0.00000000000E+00 0.  1.
         21    1    1    2  504  502 -0.64686903244E+01 -0.21166782448E+02  0.14896667390E+02  0.26679342815E+02  0.00000000000E+00 0. -1.
</event>
<event>
 4    1  0.3035432E+006  0.2233246E+02  0.7546771E-02  0.1501055E+00
         21   -1    0    0  504  501  0.00000000000E+00  0.00000000000E+00  0.68475963609E+01  0.68475963609E+01  0.00000000000E+00 0.  1.
         21   -1    0    0  501  502 -0.00000000000E+00 -0.00000000000E+00 -0.10290285107E+03  0.10290285107E+03  0.00000000000E+00 0.  1.
         21    1    1    2  503  502 -0.78736331829E+01 -0.20898441786E+02 -0.77690951652E+02  0.80837014648E+02  0.00000000000E+00 0.  1.
         21    1    1    2  504  503  0.78736331829E+01  0.20898441786E+02 -0.18364303059E+02  0.28913432785E+02  0.00000000000E+00 0.  1.
</event>
<event>
 4    1  0.3035432E+006  0.3308760E+02  0.7546771E-02  0.1394530E+00
         21   -1    0    0  504  501  0.00000000000E+00  0.00000000000E+00  0.60581781055E+02  0.60581781055E+02  0.00000000000E+00 0.  1.
         21   -1    0    0  501  502 -0.00000000000E+00 -0.00000000000E+00 -0.55884118877E+03  0.55884118877E+03  0.00000000000E+00 0.  1.
         21    1    1    2  503  502  0.32998862353E+02  0.24216178965E+01 -0.55379246443E+03  0.55478003101E+03  0.00000000000E+00 0.  1.
         21    1    1    2  504  503 -0.32998862353E+02 -0.24216178965E+01  0.55533056717E+02  0.64642938812E+02  0.00000000000E+00 0.  1.
</event>
<event>
 4    1  0.3035432E+006  0.2859037E+02  0.7546771E-02  0.1432255E+00
         21   -1    0    0  504  501  0.00000000000E+00  0.00000000000E+00  0.21314597139E+02  0.21314597139E+02  0.00000000000E+00 0. -1.
         21   -1    0    0  503  502 -0.00000000000E+00 -0.00000000000E+00 -0.55808492650E+02  0.55808492650E+02  0.00000000000E+00 0.  1.
         21    1    1    2  503  501 -0.83509596543E+01  0.27343567807E+02  0.43211032792E+01  0.28915068063E+02  0.00000000000E+00 0. -1.
         21    1    1    2  504  502  0.83509596543E+01 -0.27343567807E+02 -0.38814998790E+02  0.48208021725E+02  0.00000000000E+00 0.  1.
</event>
<event>
 4    1  0.3035432E+006  0.2313235E+02  0.7546771E-02  0.1490843E+00
         21   -1    0    0  504  501  0.00000000000E+00  0.00000000000E+00  0.25929971248E+03  0.25929971248E+03  0.00000000000E+00 0. -1.
         21   -1    0    0  501  502 -0.00000000000E+00 -0.00000000000E+00 -0.91391627397E+01  0.91391627397E+01  0.00000000000E+00 0.  1.
         21    1    1    2  503  502  0.22927354185E+02 -0.30728006746E+01  0.69827073906E+01  0.24163275366E+02  0.00000000000E+00 0.  1.
         21    1    1    2  504  503 -0.22927354185E+02  0.30728006746E+01  0.24317784235E+03  0.24427559985E+03  0.00000000000E+00 0. -1.
</event>
<event>
 4    1  0.3035432E+006  0.2737863E+02  0.7546771E-02  0.1443841E+00
         21   -1    0    0  503  501  0.00000000000E+00  0.00000000000E+00  0.92810640185E+01  0.92810640185E+01  0.00000000000E+00 0. -1.
         21   -1    0    0  504  502 -0.00000000000E+00 -0.00000000000E+00 -0.81542031103E+02  0.81542031103E+02  0.00000000000E+00 0. -1.
         21    1    1    2  503  502  0.15563846237E+02  0.22524565083E+02 -0.40562160003E+02  0.48937492436E+02  0.00000000000E+00 0. -1.
         21    1    1    2  504  501 -0.15563846237E+02 -0.22524565083E+02 -0.31698807082E+02  0.41885602685E+02  0.00000000000E+00 0. -1.
</event>
<event>
 4    1  0.3035432E+006  0.2786364E+02  0.7546771E-02  0.1439120E+00
         21   -1    0    0  504  501  0.00000000000E+00  0.00000000000E+00  0.97999839163E+01  0.97999839163E+01  0.00000000000E+00 0. -1.
         21   -1    0    0  503  502 -0.00000000000E+00 -0.00000000000E+00 -0.13629269341E+03  0.13629269341E+03  0.00000000000E+00 0.  1.
         21    1    1    2  503  501  0.24009381420E+02 -0.14139739676E+02 -0.11051416834E+03  0.11397264601E+03  0.00000000000E+00 0.  1.
         21    1    1    2  504  502 -0.24009381420E+02  0.14139739676E+02 -0.15978541147E+02  0.32120031312E+02  0.00000000000E+00 0. -1.
</event>
<event>
 4    1  0.3035432E+006  0.2091787E+02  0.7546771E-02  0.1520441E+00
         21   -1    0    0  503  501  0.00000000000E+00  0.00000000000E+00  0.29759366942E+02  0.29759366942E+02  0.00000000000E+00 0.  1.
         21   -1    0    0  504  502 -0.00000000000E+00 -0.00000000000E+00 -0.77407357266E+02  0.77407357266E+02  0.00000000000E+00 0. -1.
         21    1    1    2  503  502 -0.81731961688E+01 -0.19255023782E+02 -0.72050646359E+02  0.75025680385E+02  0.00000000000E+00 0. -1.
         21    1    1    2  504  501  0.81731961688E+01  0.19255023782E+02  0.24402656035E+02  0.32141043823E+02  0.00000000000E+00 0.  1.
</event>
<event>
 4    1  0.3035432E+006  0.2709585E+02  0.7546771E-02  0.1446648E+00
         21   -1    0    0  504  501  0.00000000000E+00  0.00000000000E+00  0.59572296272E+01  0.59572296272E+01  0.00000000000E+00 0.  1.
         21   -1    0    0  503  502 -0.00000000000E+00 -0.00000000000E+00 -0.33362847668E+03  0.33362847668E+03  0.00000000000E+00 0.  1.
         21    1    1    2  503  501  0.53927295806E+01  0.26553790961E+02 -0.29866855867E+03  0.29989513715E+03  0.00000000000E+00 0.  1.
         21    1    1    2  504  502 -0.53927295806E+01 -0.26553790961E+02 -0.29002688382E+02  0.39690569158E+02  0.00000000000E+00 0.  1.
</event>
<event>
 4    1  0.3035432E+006  0.2178859E+02  0.7546771E-02  0.1508297E+00
         21   -1    0    0  503  501  0.00000000000E+00  0.00000000000E+00  0.10712814061E+02  0.10712814061E+02  0.00000000000E+00 0. -1.
         21   -1    0    0  504  502 -0.00000000000E+00 -0.00000000000E+00 -0.15006505850E+03  0.15006505850E+03  0.00000000000E+00 0. -1.
         21    1    1    2  503  502 -0.21757179220E+02  0.11695435704E+01 -0.21928752901E+01  0.21898661644E+02  0.00000000000E+00 0. -1.
         21    1    1    2  504  501  0.21757179220E+02 -0.11695435704E+01 -0.13715936915E+03  0.13887921092E+03  0.00000000000E+00 0. -1.
</event>
<event>
 4    1  0.3035432E+006  0.2662428E+02  0.7546771E-02  0.1451419E+00
         21   -1    0    0  503  501  0.00000000000E+00  0.00000000000E+00  0.10553778928E+03  0.10553778928E+03  0.00000000000E+00 0.  1.
         21   -1    0    0  501  502 -0.00000000000E+00 -0.00000000000E+00 -0.19208048887E+02  0.19208048887E+02  0.00000000000E+00 0. -1.
         21    1    1    2  503  504  0.55049927994E+01  0.26048936700E+02  0.93464102460E+02  0.97182254026E+02  0.00000000000E+00 0.  1.
         21    1    1    2  504  502 -0.55049927994E+01 -0.26048936700E+02 -0.71343620629E+01  0.27563584146E+02  0.00000000000E+00 0. -1.
</event>
<event>
 4    1  0.3035432E+006  0.2041268E+02  0.7546771E-02  0.1527818E+00
         21   -1    0    0  503  501  0.00000000000E+00  0.00000000000E+00  0.16984269668E+03  0.16984269668E+03  0.00000000000E+00 0. -1.
         21   -1    0    0  501  502 -0.00000000000E+00 -0.00000000000E+00 -0.29536580895E+01  0.29536580895E+01  0.00000000000E+00 0.  1.
         21    1    1    2  503  504  0.20607359938E+00  0.20411643743E+02  0.11900424021E+03  0.12074223310E+03  0.00000000000E+00 0. -1.
         21    1    1    2  504  502 -0.20607359938E+00 -0.20411643743E+02  0.47884798386E+02  0.52054121672E+02  0.00000000000E+00 0.  1.
</event>
<event>
 4    1  0.3035432E+006  0.3375488E+02  0.7546771E-02  0.1389534E+00
         21   -1    0    0  504  501  0.00000000000E+00  0.00000000000E+00  0.14099764659E+04  0.14099764659E+04  0.00000000000E+00 0.  1.
         21   -1    0    0  503  502 -0.00000000000E+00 -0.00000000000E+00 -0.11640756984E+01  0.11640756984E+01  0.00000000000E+00 0.  1.
         21    1    1    2  503  501  0.17243182800E+02  0.29018353122E+02  0.31422702373E+03  0.31603483133E+03  0.00000000000E+00 0.  1.
         21    1    1    2  504  502 -0.17243182800E+02 -0.29018353122E+02  0.10945853665E+04  0.10951057103E+04  0.00000000000E+00 0.  1.
</event>
<event>
 4    1  0.3035432E+006  0.2657693E+02  0.7546771E-02  0.1451905E+00
         21   -1    0    0  503  501  0.00000000000E+00  0.00000000000E+00  0.86957484647E+01  0.86957484647E+01  0.00000000000E+00 0.  1.
         21   -1    0    0  504  502 -0.00000000000E+00 -0.00000000000E+00 -0.88046852561E+02  0.88046852561E+02  0.00000000000E+00 0.  1.
         21    1    1    2  503  502 -0.18902220032E+02  0.18682590708E+02 -0.26213684485E+02  0.37329483950E+02  0.00000000000E+00 0.  1.
         21    1    1    2  504  501  0.18902220032E+02 -0.18682590708E+02 -0.53137419612E+02  0.59413117076E+02  0.00000000000E+00 0.  1.
</event>
<event>
 4    1  0.3035432E+006  0.2494740E+02  0.7546771E-02  0.1469393E+00
         21   -1    0    0  503  501  0.00000000000E+00  0.00000000000E+00  0.57799901358E+03  0.57799901358E+03  0.00000000000E+00 0.  1.
         21   -1    0    0  504  502 -0.00000000000E+00 -0.00000000000E+00 -0.19787800106E+01  0.19787800106E+01  0.00000000000E+00 0. -1.
         21    1    1    2  503  502  0.24750923231E+02  0.31248351175E+01  0.92221265158E+02  0.95536037927E+02  0.00000000000E+00 0. -1.
         21    1    1    2  504  501 -0.24750923231E+02 -0.31248351175E+01  0.48379896841E+03  0.48444175566E+03  0.00000000000E+00 0.  1.
</event>
<event>
 4    1  0.3035432E+006  0.2026827E+02  0.7546771E-02  0.1529973E+00
         21   -1    0    0  503  501  0.00000000000E+00  0.00000000000E+00  0.71661009854E+01  0.71661009854E+01  0.00000000000E+00 0. -1.
         21   -1    0    0  504  502 -0.00000000000E+00 -0.00000000000E+00 -0.85247471105E+02  0.85247471105E+02  0.00000000000E+00 0.  1.
         21    1    1    2  503  502  0.18098449352E+02  0.91240942311E+01 -0.12596196106E+02  0.23863510237E+02  0.00000000000E+00 0. -1.
         21    1    1    2  504  501 -0.18098449352E+02 -0.91240942311E+01 -0.65485174013E+02  0.68550061853E+02  0.00000000000E+00 0.  1.
</event>
<event>
 4    1  0.3035432E+006  0.2095889E+02  0.7546771E-02  0.1519853E+00
         21   -1    0    0  504  501  0.00000000000E+00  0.00000000000E+00  0.16108932499E+03  0.16108932499E+03  0.00000000000E+00 0. -1.
         21   -1    0    0  503  502 -0.00000000000E+00 -0.00000000000E+00 -0.10556554450E+02  0.10556554450E+02  0.00000000000E+00 0.  1.
         21    1    1    2  503  501  0.10576222831E+02 -0.18094710775E+02  0.13546343474E+01  0.21002620827E+02  0.00000000000E+00 0.  1.
         21    1    1    2  504  502 -0.10576222831E+02  0.18094710775E+02  0.14917813620E+03  0.15064325862E+03  0.00000000000E+00 0. -1.
</event>
<event>
 4    1  0.3035432E+006  0.3501501E+02  0.7546771E-02  0.1380458E+00
         21   -1    0    0  504  501  0.00000000000E+00  0.00000000000E+00  0.18237125687E+02  0.18237125687E+02  0.00000000000E+00 0. -1.
         21   -1    0    0  503  502 -0.00000000000E+00 -0.00000000000E+00 -0.76030207297E+02  0.76030207297E+02  0.00000000000E+00 0. -1.
         21    1    1    2  503  501  0.59248788995E+01  0.34510097354E+02 -0.12859417767E+02  0.37301684073E+02  0.00000000000E+00 0. -1.
         21    1    1    2  504  502 -0.59248788995E+01 -0.34510097354E+02 -0.44933663843E+02  0.56965648910E+02  0.00000000000E+00 0. -1.
</event>
<event>
 4    1  0.3035432E+006  0.2860334E+02  0.7546771E-02  0.1432135E+00
         21   -1    0    0  503  501  0.00000000000E+00  0.00000000000E+00  0.21909854801E+03  0.21909854801E+03  0.00000000000E+00 0. -1.
         21   -1    0    0  504  502 -0.00000000000E+00 -0.00000000000E+00 -0.51227230183E+01  0.51227230183E+01  0.00000000000E+00 0. -1.
         21    1    1    2  503  502  0.26736647372E+02 -0.10163807063E+02  0.16535628266E+03  0.16781195280E+03  0.00000000000E+00 0. -1.
         21    1    1    2  504  501 -0.26736647372E+02  0.10163807063E+02  0.48619542333E+02  0.56409318232E+02  0.00000000000E+00 0. -1.
</event>
<event>
 4    1  0.3035432E+006  0.2618143E+02  0.7546771E-02  0.1456009E+00
         21   -1    0    0  503  501  0.00000000000E+00  0.00000000000E+00  0.63988601720E+02  0.63988601720E+02  0.00000000000E+00 0.  1.
         21   -1    0    0  504  502 -0.00000000000E+00 -0.00000000000E+00 -0.71546859138E+03  0.71546859138E+03  0.00000000000E+00 0. -1.
         21    1    1    2  503  502  0.13084139167E+02  0.22677574655E+02 -0.71253998831E+03  0.71302082861E+03  0.00000000000E+00 0. -1.
         21    1    1    2  504  501 -0.13084139167E+02 -0.22677574655E+02  0.61059998656E+02  0.66436364484E+02  0.00000000000E+00 0.  1.
</event>
<event>
 4    1  0.3035432E+006  0.2305277E+02  0.7546771E-02  0.1491837E+00
         21   -1    0    0  504  501  0.00000000000E+00  0.00000000000E+00  0.31536739326E+01  0.31536739326E+01  0.00000000000E+00 0. -1.
         21   -1    0    0  503  502 -0.00000000000E+00 -0.00000000000E+00 -0.34138397843E+03  0.34138397843E+03  0.00000000000E+00 0. -1.
         21    1    1    2  503  501 -0.10800330732E+02  0.20366224281E+02 -0.46527114975E+02  0.51924971481E+02  0.00000000000E+00 0. -1.
         21    1    1    2  504  502  0.10800330732E+02 -0.20366224281E+02 -0.29170318953E+03  0.29261268089E+03  0.00000000000E+00 0. -1.
</event>
<event>
 4    1  0.3035432E+006  0.2006011E+02  0.7546771E-02  0.1533119E+00
         21   -1    0    0  504  501  0.00000000000E+00  0.00000000000E+00  0.14407892945E+03  0.14407892945E+03  0.00000000000E+00 0. -1.
         21   -1    0    0  503  502 -0.00000000000E+00 -0.00000000000E+00 -0.60067920080E+01  0.60067920080E+01  0.00000000000E+00 0. -1.
         21    1    1    2  503  501  0.23002280295E+01  0.19927791726E+02  0.14145328641E+02  0.24545839860E+02  0.00000000000E+00 0. -1.
         21    1    1    2  504  502 -0.23002280295E+01 -0.19927791726E+02  0.12392680881E+03  0.12553988160E+03  0.00000000000E+00 0. -1.
</event>
<event>
 4    1  0.3035432E+006  0.3317797E+02  0.7546771E-02  0.1393846E+00
         21   -1    0    0  503  501  0.00000000000E+00  0.00000000000E+00  0.25357166882E+01  0.25357166882E+01  0.00000000000E+00 0. -1.
         21   -1    0    0  501  502 -0.00000000000E+00 -0.00000000000E+00 -0.68169614210E+03  0.68169614210E+03  0.00000000000E+00 0. -1.
         21    1    1    2  503  504  0.20114726086E+02  0.26385138160E+02 -0.13340245004E+03  0.13746632823E+03  0.00000000000E+00 0. -1.
         21    1    1    2  504  502 -0.20114726086E+02 -0.26385138160E+02 -0.54575797537E+03  0.54676553055E+03  0.00000000000E+00 0. -1.
</event>
<event>
 4    1  0.3035432E+006  0.2438453E+02  0.7546771E-02  0.1475808E+00
         21   -1    0    0  504  501  0.00000000000E+00  0.00000000000E+00  0.13504359535E+03  0.13504359535E+03  0.00000000000E+00 0. -1.
         21   -1    0    0  503  502 -0.00000000000E+00 -0.00000000000E+00 -0.75356124866E+02  0.75356124866E+02  0.00000000000E+00 0.  1.
         21    1    1    2  503  501 -0.20610437486E+02 -0.13031309510E+02 -0.72236452764E+02  0.76241132395E+02  0.00000000000E+00 0.  1.
         21    1    1    2  504  502  0.20610437486E+02  0.13031309510E+02  0.13192392325E+03  0.13415858782E+03  0.00000000000E+00 0. -1.
</event>
<event>
 4    1  0.3035432E+006  0.3025258E+02  0.7546771E-02  0.1417414E+00
         21   -1    0    0  502  501  0.00000000000E+00  0.00000000000E+00  0.96305728196E+02  0.96305728196E+02  0.00000000000E+00 0.  1.
         21   -1    0    0  503  502 -0.00000000000E+00 -0.00000000000E+00 -0.17159642378E+04  0.17159642378E+04  0.00000000000E+00 0.  1.
         21    1    1    2  503  504 -0.17666299480E+02 -0.24558514967E+02 -0.17134515991E+04  0.17137186471E+04  0.00000000000E+00 0.  1.
         21    1    1    2  504  501  0.17666299480E+02  0.24558514967E+02  0.93793089584E+02  0.98551318856E+02  0.00000000000E+00 0.  1.
</event>
<event>
 4    1  0.3035432E+006  0.2364627E+02  0.7546771E-02  0.1484539E+00
         21   -1    0    0  502  501  0.00000000000E+00  0.00000000000E+00  0.20238983457E+02  0.20238983457E+02  0.00000000000E+00 0. -1.
         21   -1    0    0  504  502 -0.00000000000E+00 -0.00000000000E+00 -0.31728030244E+02  0.31728030244E+02  0.00000000000E+00 0. -1.
         21    1    1    2  503  501 -0.31598386564E+01  0.23434193590E+02  0.35969039769E+01  0.23918271839E+02  0.00000000000E+00 0. -1.
         21    1    1    2  504  503  0.31598386564E+01 -0.23434193590E+02 -0.15085950763E+02  0.28048741861E+02  0.00000000000E+00 0. -1.
</event>
<event>
 4    1  0.3035432E+006  0.4088205E+02  0.7546771E-02  0.1343393E+00
         21   -1    0    0  504  501  0.00000000000E+00  0.00000000000E+00  0.51765630981E+02  0.51765630981E+02  0.00000000000E+00 0. -1.
         21   -1    0    0  503  502 -0.00000000000E+00 -0.00000000000E+00 -0.19670760463E+03  0.19670760463E+03  0.00000000000E+00 0.  1.
         21    1    1    2  503  501 -0.26435837446E+02  0.31184744385E+02 -0.18605508955E+03  0.19049366953E+03  0.00000000000E+00 0.  1.
         21    1    1    2  504  502  0.26435837446E+02 -0.31184744385E+02  0.41113115900E+02  0.57979566080E+02  0.00000000000E+00 0. -1.
</event>
<event>
 4    1  0.3035432E+006  0.2307183E+02  0.7546771E-02  0.1491598E+00
         21   -1    0    0  503  501  0.00000000000E+00  0.00000000000E+00  0.94839349323E+01  0.94839349323E+01  0.00000000000E+00 0.  1.
         21   -1    0    0  504  502 -0.00000000000E+00 -0.00000000000E+00 -0.64088916228E+03  0.64088916228E+03  0.00000000000E+00 0.  1.
         21    1    1    2  503  502 -0.11502941988E+02  0.19999796724E+02 -0.62632342908E+03  0.62674823283E+03  0.00000000000E+00 0.  1.
         21    1    1    2  504  501  0.11502941988E+02 -0.19999796724E+02 -0.50817982689E+01  0.23624864382E+02  0.00000000000E+00 0.  1.
</event>
<event>
 4    1  0.3035432E+006  0.3521829E+02  0.7546771E-02  0.1379035E+00
         21   -1    0    0  504  501  0.00000000000E+00  0.00000000000E+00  0.68649261456E+01  0.68649261456E+01  0.00000000000E+00 0.  1.
         21   -1    0    0  503  502 -0.00000000000E+00 -0.00000000000E+00 -0.18270813650E+03  0.18270813650E+03  0.00000000000E+00 0.  1.
         21    1    1    2  503  501 -0.28471129383E+02 -0.20729756884E+02 -0.97917790028E+02  0.10405874126E+03  0.00000000000E+00 0.  1.
         21    1    1    2  504  502  0.28471129383E+02  0.20729756884E+02 -0.77925420324E+02  0.85514321383E+02  0.00000000000E+00 0.  1.
</event>
<event>
 4    1  0.3035432E+006  0.2663656E+02  0.7546771E-02  0.1451293E+00
         21   -1    0    0  502  501  0.00000000000E+00  0.00000000000E+00  0.84897004394E+02  0.84897004394E+02  0.00000000000E+00 0.  1.
         21   -1    0    0  504  502 -0.00000000000E+00 -0.00000000000E+00 -0.56903228155E+02  0.56903228155E+02  0.00000000000E+00 0.  1.
         21    1    1    2  503  501  0.26083172042E+02  0.54013420893E+01  0.79483885345E+02  0.83828362681E+02  0.00000000000E+00 0.  1.
         21    1    1    2  504  503 -0.26083172042E+02 -0.54013420893E+01 -0.51490109107E+02  0.57971869868E+02  0.00000000000E+00 0.  1.
</event>
<event>
 4    1  0.3035432E+006  0.5728903E+02  0.7546771E-02  0.1269332E+00
         21   -1    0    0  503  501  0.00000000000E+00  0.00000000000E+00  0.47311832042E+01  0.47311832042E+01  0.00000000000E+00 0.  1.
         21   -1    0    0  504  502 -0.00000000000E+00 -0.00000000000E+00 -0.88560840404E+03  0.88560840404E+03  0.00000000000E+00 0.  1.
         21    1    1    2  503  502  0.57207945190E+02  0.30470235862E+01 -0.23321031410E+03  0.24014388176E+03  0.00000000000E+00 0.  1.
         21    1    1    2  504  501 -0.57207945190E+02 -0.30470235862E+01 -0.64766690673E+03  0.65019570548E+03  0.00000000000E+00 0.  1.
</event>
<event>
 4    1  0.3035432E+006  0.2229736E+02  0.7546771E-02  0.1501515E+00
         21   -1    0    0  504  501  0.00000000000E+00  0.00000000000E+00  0.93351552958E+03  0.93351552958E+03  0.00000000000E+00 0. -1.
         21   -1    0    0  503  502 -0.00000000000E+00 -0.00000000000E+00 -0.10266278026E+02  0.10266278026E+02  0.00000000000E+00 0. -1.
         21    1    1    2  503  501  0.20668113980E+02 -0.83666736362E+01  0.21367900582E+01  0.22399509704E+02  0.00000000000E+00 0. -1.
         21    1    1    2  504  502 -0.20668113980E+02  0.83666736362E+01  0.92111246149E+03  0.92138229790E+03  0.00000000000E+00 0. -1.
</event>
<event>
 4    1  0.3035432E+006  0.2256980E+02  0.7546771E-02  0.1497972E+00
         21   -1    0    0  503  501  0.00000000000E+00  0.00000000000E+00  0.15169796643E+03  0.15169796643E+03  0.00000000000E+00 0.  1.
         21   -1    0    0  504  502 -0.00000000000E+00 -0.00000000000E+00 -0.77676063436E+01  0.77676063436E+01  0.00000000000E+00 0. -1.
         21    1    1    2  503  502  0.18038945539E+02  0.13564384189E+02  0.11889997769E+02  0.25510157222E+02  0.00000000000E+00 0. -1.
         21    1    1    2  504  501 -0.18038945539E+02 -0.13564384189E+02  0.13204036232E+03  0.13395541556E+03  0.00000000000E+00 0.  1.
</event>
<event>
 4    1  0.3035432E+006  0.2949316E+02  0.7546771E-02  0.1424053E+00
         21   -1    0    0  502  501  0.00000000000E+00  0.00000000000E+00  0.59678336229E+02  0.59678336229E+02  0.00000000000E+00 0. -1.
         21   -1    0    0  503  502 -0.00000000000E+00 -0.00000000000E+00 -0.10098440254E+03  0.10098440254E+03  0.00000000000E+00 0.  1.
         21    1    1    2  503  504  0.24673956222E+02 -0.16156798558E+02 -0.94961289099E+02  0.99435872212E+02  0.00000000000E+00 0.  1.
         21    1    1    2  504  501 -0.24673956222E+02  0.16156798558E+02  0.53655222791E+02  0.61226866554E+02  0.00000000000E+00 0. -1.
</event>
<event>
 4    1  0.3035432E+006  0.2421717E+02  0.7546771E-02  0.1477755E+00
         21   -1    0    0  503  501  0.00000000000E+00  0.00000000000E+00  0.64469872362E+02  0.64469872362E+02  0.00000000000E+00 0. -1.
         21   -1    0    0  504  502 -0.00000000000E+00 -0.00000000000E+00 -0.31615923644E+02  0.31615923644E+02  0.00000000000E+00 0. -1.
         21    1    1    2  503  502 -0.14292058993E+02 -0.19550147983E+02  0.56973322767E+02  0.61906629237E+02  0.00000000000E+00 0. -1.
         21    1    1    2  504  501  0.14292058993E+02  0.19550147983E+02 -0.24119374050E+02  0.34179166768E+02  0.00000000000E+00 0. -1.
</event>
<event>
 4    1  0.3035432E+006  0.2755589E+02  0.7546771E-02  0.1442103E+00
         21   -1    0    0  503  501  0.00000000000E+00  0.00000000000E+00  0.23263979689E+02  0.23263979689E+02  0.00000000000E+00 0.  1.
         21   -1    0    0  504  502 -0.00000000000E+00 -0.00000000000E+00 -0.33697522978E+02  0.33697522978E+02  0.00000000000E+00 0.  1.
         21    1    1    2  503  502  0.25380442691E+02 -0.10731261265E+02 -0.10263161731E+02  0.29405090176E+02  0.00000000000E+00 0.  1.
         21    1    1    2  504  501 -0.25380442691E+02  0.10731261265E+02 -0.17038155749E+00  0.27556412491E+02  0.00000000000E+00 0.  1.
</event>
<event>
 4    1  0.3035432E+006  0.2170395E+02  0.7546771E-02  0.1509447E+00
         21   -1    0    0  504  501  0.00000000000E+00  0.00000000000E+00  0.29546836410E+03  0.29546836410E+03  0.00000000000E+00 0. -1.
         21   -1    0    0  501  502 -0.00000000000E+00 -0.00000000000E+00 -0.38351283483E+01  0.38351283483E+01  0.00000000000E+00 0. -1.
         21    1    1    2  503  502 -0.21515809440E+02  0.28515500643E+01  0.31424161711E+02  0.38190827863E+02  0.00000000000E+00 0. -1.
         21    1    1    2  504  503  0.21515809440E+02 -0.28515500643E+01  0.26020907404E+03  0.26111266459E+03  0.00000000000E+00 0. -1.
</event>
<event>
 4    1  0.3035432E+006  0.2005411E+02  0.7546771E-02  0.1533210E+00
         21   -1    0    0  502  501  0.00000000000E+00  0.00000000000E+00  0.96825686785E+03  0.96825686785E+03  0.00000000000E+00 0. -1.
         21   -1    0    0  503  502 -0.00000000000E+00 -0.00000000000E+00 -0.13225336165E+02  0.13225336165E+02  0.00000000000E+00 0. -1.
         21    1    1    2  503  504  0.17468191496E+02 -0.98503579228E+01 -0.54578129172E+01  0.20783526823E+02  0.00000000000E+00 0. -1.
         21    1    1    2  504  501 -0.17468191496E+02  0.98503579228E+01  0.96048934461E+03  0.96069867720E+03  0.00000000000E+00 0. -1.
</event>
<event>
 4    1  0.3035432E+006  0.2289493E+02  0.7546771E-02  0.1493822E+00
         21   -1    0    0  503  501  0.00000000000E+00  0.00000000000E+00  0.45964137898E+03  0.45964137898E+03  0.00000000000E+00 0. -1.
         21   -1    0    0  501  502 -0.00000000000E+00 -0.00000000000E+00 -0.92403921232E+01  0.92403921232E+01  0.00000000000E+00 0.  1.
         21    1    1    2  503  504  0.10717858538E+02 -0.20231297624E+02  0.44469835000E+03  0.44528732340E+03  0.00000000000E+00 0. -1.
         21    1    1    2  504  502 -0.10717858538E+02  0.20231297624E+02  0.57026368644E+01  0.23594447703E+02  0.00000000000E+00 0.  1.
</event>
<event>
 4    1  0.3035432E+006  0.2423484E+02  0.7546771E-02  0.1477548E+00
         21   -1    0    0  504  501  0.00000000000E+00  0.00000000000E+00  0.36733703879E+01  0.36733703879E+01  0.00000000000E+00 0. -1.
         21   -1    0    0  503  502 -0.00000000000E+00 -0.00000000000E+00 -0.16056070299E+03  0.16056070299E+03  0.00000000000E+00 0. -1.
         21    1    1    2  503  501  0.22207792482E+02  0.97026564111E+01 -0.83759211717E+02  0.87194799936E+02  0.00000000000E+00 0. -1.
         21    1    1    2  504  502 -0.22207792482E+02 -0.97026564111E+01 -0.73128120886E+02  0.77039273444E+02  0.00000000000E+00 0. -1.
</event>
<event>
 4    1  0.3035432E+006  0.2762791E+02  0.7546771E-02  0.1441401E+00
         21   -1    0    0  504  501  0.00000000000E+00  0.00000000000E+00  0.36642631602E+03  0.36642631602E+03  0.00000000000E+00 0.  1.
         21   -1    0    0  503  502 -0.00000000000E+00 -0.00000000000E+00 -0.38395957165E+01  0.38395957165E+01  0.00000000000E+00 0. -1.
         21    1    1    2  503  501  0.14560592096E+02  0.23479576041E+02  0.30651084631E+03  0.30775347316E+03  0.00000000000E+00 0.  1.
         21    1    1    2  504  502 -0.14560592096E+02 -0.23479576041E+02  0.56075873991E+02  0.62512438579E+02  0.00000000000E+00 0. -1.
</event>
<event>
 4    1  0.3035432E+006  0.2041711E+02  0.7546771E-02  0.1527752E+00
         21   -1    0    0  503  501  0.00000000000E+00  0.00000000000E+00  0.19077010155E+03  0.19077010155E+03  0.00000000000E+00 0. -1.
         21   -1    0    0  501  502 -0.00000000000E+00 -0.00000000000E+00 -0.15529288464E+03  0.15529288464E+03  0.00000000000E+00 0.  1.
         21    1    1    2  503  504  0.12382626635E+02 -0.16233580264E+02  0.18954842033E+03  0.19064485889E+03  0.00000000000E+00 0. -1.
         21    1    1    2  504  502 -0.12382626635E+02  0.16233580264E+02 -0.15407120342E+03  0.15541812730E+03  0.00000000000E+00 0.  1.
</event>
<event>
 4    1  0.3035432E+006  0.2161957E+02  0.7546771E-02  0.1510600E+00
         21   -1    0    0  503  501  0.00000000000E+00  0.00000000000E+00  0.29585053887E+02  0.29585053887E+02  0.00000000000E+00 0. -1.
         21   -1    0    0  504  502 -0.00000000000E+00 -0.00000000000E+00 -0.10788568596E+03  0.10788568596E+03  0.00000000000E+00 0. -1.
         21    1    1    2  503  502 -0.11743111140E+02  0.18152277560E+02 -0.10265378563E+03  0.10490569834E+03  0.00000000000E+00 0. -1.
         21    1    1    2  504  501  0.11743111140E+02 -0.18152277560E+02  0.24353153561E+02  0.32565041505E+02  0.00000000000E+00 0. -1.
</event>
<event>
 4    1  0.3035432E+006  0.4158866E+02  0.7546771E-02  0.1339420E+00
         21   -1    0    0  504  501  0.00000000000E+00  0.00000000000E+00  0.51603034986E+03  0.51603034986E+03  0.00000000000E+00 0. -1.
         21   -1    0    0  501  502 -0.00000000000E+00 -0.00000000000E+00 -0.41799365596E+01  0.41799365596E+01  0.00000000000E+00 0.  1.
         21    1    1    2  503  502 -0.19857250616E+02  0.36541843212E+02  0.14014825903E+03  0.14618875202E+03  0.00000000000E+00 0.  1.
         21    1    1    2  504  503  0.19857250616E+02 -0.36541843212E+02  0.37170215426E+03  0.37402153440E+03  0.00000000000E+00 0. -1.
</event>
<event>
 4    1  0.3035432E+006  0.2262262E+02  0.7546771E-02  0.1497292E+00
         21   -1    0    0  504  501  0.00000000000E+00  0.00000000000E+00  0.36092734219E+03  0.36092734219E+03  0.00000000000E+00 0.  1.
         21   -1    0    0  503  502 -0.00000000000E+00 -0.00000000000E+00 -0.70707049209E+01  0.70707049209E+01  0.00000000000E+00 0.  1.
         21    1    1    2  503  501 -0.81769152337E+01  0.21093152050E+02  0.12410253681E+02  0.25803050257E+02  0.00000000000E+00 0.  1.
         21    1    1    2  504  502  0.81769152337E+01 -0.21093152050E+02  0.34144638359E+03  0.34219499686E+03  0.00000000000E+00 0.  1.
</event>
<event>
 4    1  0.3035432E+006  0.2381858E+02  0.7546771E-02  0.1482467E+00
         21   -1    0    0  504  501  0.00000000000E+00  0.00000000000E+00  0.21675913866E+03  0.21675913866E+03  0.00000000000E+00 0.  1.
         21   -1    0    0  503  502 -0.00000000000E+00 -0.00000000000E+00 -0.29766003423E+03  0.29766003423E+03  0.00000000000E+00 0. -1.
         21    1    1    2  503  501 -0.27951313945E+01 -0.23654004519E+02  0.21562582861E+03  0.21693737035E+03  0.00000000000E+00 0.  1.
         21    1    1    2  504  502  0.27951313945E+01  0.23654004519E+02 -0.29652672418E+03  0.29748180254E+03  0.00000000000E+00 0. -1.
</event>
<event>
 4    1  0.3035432E+006  0.2127839E+02  0.7546771E-02  0.1515327E+00
         21   -1    0    0  504  501  0.00000000000E+00  0.00000000000E+00  0.33557903949E+02  0.33557903949E+02  0.00000000000E+00 0.  1.
         21   -1    0    0  503  502 -0.00000000000E+00 -0.00000000000E+00 -0.14754279346E+02  0.14754279346E+02  0.00000000000E+00 0.  1.
         21    1    1    2  503  501 -0.20628111741E+02 -0.52202347120E+01  0.16466802230E+02  0.26905862190E+02  0.00000000000E+00 0.  1.
         21    1    1    2  504  502  0.20628111741E+02  0.52202347120E+01  0.23368223723E+01  0.21406321105E+02  0.00000000000E+00 0.  1.
</event>
<event>
 4    1  0.3035432E+006  0.3444368E+02  0.7546771E-02  0.1384517E+00
         21   -1    0    0  503  501  0.00000000000E+00  0.00000000000E+00  0.93084518950E+02  0.93084518950E+02  0.00000000000E+00 0. -1.
         21   -1    0    0  504  502 -0.00000000000E+00 -0.00000000000E+00 -0.13748564240E+02  0.13748564240E+02  0.00000000000E+00 0. -1.
         21    1    1    2  503  502 -0.13617167532E+02  0.31637635350E+02  0.54099361714E+02  0.64133518226E+02  0.00000000000E+00 0. -1.
         21    1    1    2  504  501  0.13617167532E+02 -0.31637635350E+02  0.25236592996E+02  0.42699564964E+02  0.00000000000E+00 0. -1.
</event>
<event>
 4    1  0.3035432E+006  0.2965971E+02  0.7546771E-02  0.1422577E+00
         21   -1    0    0  504  501  0.00000000000E+00  0.00000000000E+00  0.16444679729E+03  0.16444679729E+03  0.00000000000E+00 0.  1.
         21   -1    0    0  503  502 -0.00000000000E+00 -0.00000000000E+00 -0.62968239503E+01  0.62968239503E+01  0.00000000000E+00 0.  1.
         21    1    1    2  503  501 -0.10350278953E+02  0.27795149172E+02  0.45960632691E+02  0.54699893503E+02  0.00000000000E+00 0.  1.
         21    1    1    2  504  502  0.10350278953E+02 -0.27795149172E+02  0.11218934065E+03  0.11604372774E+03  0.00000000000E+00 0.  1.
</event>
<event>
 4    1  0.3035432E+006  0.2104978E+02  0.7546771E-02  0.1518555E+00
         21   -1    0    0  502  501  0.00000000000E+00  0.00000000000E+00  0.15828507847E+02  0.15828507847E+02  0.00000000000E+00 0. -1.
         21   -1    0    0  503  502 -0.00000000000E+00 -0.00000000000E+00 -0.12215090359E+03  0.12215090359E+03  0.00000000000E+00 0. -1.
         21    1    1    2  503  504 -0.20994196930E+02 -0.15287024176E+01 -0.11373202348E+03  0.11566359151E+03  0.00000000000E+00 0. -1.
         21    1    1    2  504  501  0.20994196930E+02  0.15287024176E+01  0.74096277374E+01  0.22315819927E+02  0.00000000000E+00 0. -1.
</event>
<event>
 4    1  0.3035432E+006  0.2750879E+02  0.7546771E-02  0.1442563E+00
         21   -1    0    0  503  501  0.00000000000E+00  0.00000000000E+00  0.25049106859E+03  0.25049106859E+03  0.00000000000E+00 0. -1.
         21   -1    0    0  504  502 -0.00000000000E+00 -0.00000000000E+00 -0.13355409490E+02  0.13355409490E+02  0.00000000000E+00 0.  1.
         21    1    1    2  503  502 -0.23475110147E+02 -0.14340597070E+02  0.23461526152E+03  0.23622246815E+03  0.00000000000E+00 0. -1.
         21    1    1    2  504  501  0.23475110147E+02  0.14340597070E+02  0.25203975820E+01  0.27624009932E+02  0.00000000000E+00 0.  1.
</event>
<event>
 4    1  0.3035432E+006  0.2402108E+02  0.7546771E-02  0.1480060E+00
         21   -1    0    0  502  501  0.00000000000E+00  0.00000000000E+00  0.51234519151E+02  0.51234519151E+02  0.00000000000E+00 0.  1.
         21   -1    0    0  503  502 -0.00000000000E+00 -0.00000000000E+00 -0.90836649586E+02  0.90836649586E+02  0.00000000000E+00 0. -1.
         21    1    1    2  503  504  0.23149272353E+02 -0.64127429010E+01 -0.86287385252E+02  0.89568548808E+02  0.00000000000E+00 0. -1.
         21    1    1    2  504  501 -0.23149272353E+02  0.64127429010E+01  0.46685254817E+02  0.52502619928E+02  0.00000000000E+00 0.  1.
</event>
<event>
 4    1  0.3035432E+006  0.2118216E+02  0.7546771E-02  0.1516680E+00
         21   -1    0    0  503  501  0.00000000000E+00  0.00000000000E+00  0.40740228527E+01  0.40740228527E+01  0.00000000000E+00 0. -1.
         21   -1    0    0  504  502 -0.00000000000E+00 -0.00000000000E+00 -0.18093754022E+03  0.18093754022E+03  0.00000000000E+00 0. -1.
         21    1    1    2  503  502  0.16996452227E+02  0.12641385840E+02 -0.30564175980E+02  0.37186729859E+02  0.00000000000E+00 0. -1.
         21    1    1    2  504  501 -0.16996452227E+02 -0.12641385840E+02 -0.14629934139E+03  0.14782483322E+03  0.00000000000E+00 0. -1.
</event>
<event>
 4    1  0.3035432E+006  0.3405908E+02  0.7546771E-02  0.1387301E+00
         21   -1    0    0  504  501  0.00000000000E+00  0.00000000000E+00  0.14120480093E+03  0.14120480093E+03  0.00000000000E+00 0.  1.
         21   -1    0    0  503  502 -0.00000000000E+00 -0.00000000000E+00 -0.21731047901E+02  0.21731047901E+02  0.00000000000E+00 0.  1.
         21    1    1    2  503  501 -0.11403950009E+01  0.34039984203E+02  0.12398619050E+03  0.12857914473E+03  0.00000000000E+00 0.  1.
         21    1    1    2  504  502  0.11403950009E+01 -0.34039984203E+02 -0.45124374620E+01  0.34356704108E+02  0.00000000000E+00 0.  1.
</event>
<event>
 4    1  0.3035432E+006  0.3493268E+02  0.7546771E-02  0.1381037E+00
         21   -1    0    0  504  501  0.00000000000E+00  0.00000000000E+00  0.79361153899E+01  0.79361153899E+01  0.00000000000E+00 0.  1.
         21   -1    0    0  503  502 -0.00000000000E+00 -0.00000000000E+00 -0.19097517819E+03  0.19097517819E+03  0.00000000000E+00 0. -1.
         21    1    1    2  503  501  0.63120985412E+01  0.34357673494E+02 -0.47618457530E+02  0.59057682087E+02  0.00000000000E+00 0.  1.
         21    1    1    2  504  502 -0.63120985412E+01 -0.34357673494E+02 -0.13542060527E+03  0.13985361149E+03  0.00000000000E+00 0. -1.
</event>
<event>
 4    1  0.3035432E+006  0.2087483E+02  0.7546771E-02  0.1521060E+00
         21   -1    0    0  504  501  0.00000000000E+00  0.00000000000E+00  0.19156599505E+01  0.19156599505E+01  0.00000000000E+00 0. -1.
         21   -1    0    0  503  502 -0.00000000000E+00 -0.00000000000E+00 -0.45315336920E+03  0.45315336920E+03  0.00000000000E+00 0. -1.
         21    1    1    2  503  501 -0.41466805528E+01  0.20458821186E+02 -0.38619198384E+03  0.38675574554E+03  0.00000000000E+00 0. -1.
         21    1    1    2  504  502  0.41466805528E+01 -0.20458821186E+02 -0.65045725409E+02  0.68313283612E+02  0.00000000000E+00 0. -1.
</event>
<event>
 4    1  0.3035432E+006  0.2247306E+02  0.7546771E-02  0.1499223E+00
         21   -1    0    0  503  501  0.00000000000E+00  0.00000000000E+00  0.17735252289E+02  0.17735252289E+02  0.00000000000E+00 0.  1.
         21   -1    0    0  504  502 -0.00000000000E+00 -0.00000000000E+00 -0.36367203057E+02  0.36367203057E+02  0.00000000000E+00 0.  1.
         21    1    1    2  503  502  0.19566599982E+02 -0.11053809246E+02 -0.21916508325E+02  0.31390633489E+02  0.00000000000E+00 0.  1.
         21    1    1    2  504  501 -0.19566599982E+02  0.11053809246E+02  0.32845575563E+01  0.22711821857E+02  0.00000000000E+00 0.  1.
</event>
<event>
 4    1  0.3035432E+006  0.2031256E+02  0.7546771E-02  0.1529310E+00
         21   -1    0    0  503  501  0.00000000000E+00  0.00000000000E+00  0.83758806655E+01  0.83758806655E+01  0.00000000000E+00 0.  1.
         21   -1    0    0  504  502 -0.00000000000E+00 -0.00000000000E+00 -0.10152880709E+03  0.10152880709E+03  0.00000000000E+00 0.  1.
         21    1    1    2  503  502 -0.10190669163E+02  0.17571298569E+02 -0.86005003243E+02  0.88371153971E+02  0.00000000000E+00 0.  1.
         21    1    1    2  504  501  0.10190669163E+02 -0.17571298569E+02 -0.71479231803E+01  0.21533533783E+02  0.00000000000E+00 0.  1.
</event>
<event>
 4    1  0.3035432E+006  0.4344510E+02  0.7546771E-02  0.1329400E+00
         21   -1    0    0  502  501  0.00000000000E+00  0.00000000000E+00  0.11141492465E+04  0.11141492465E+04  0.00000000000E+00 0. -1.
         21   -1    0    0  503  502 -0.00000000000E+00 -0.00000000000E+00 -0.27046908946E+01  0.27046908946E+01  0.00000000000E+00 0. -1.
         21    1    1    2  503  504 -0.43438777980E+02 -0.74141788243E+00  0.21437546363E+03  0.21873343718E+03  0.00000000000E+00 0. -1.
         21    1    1    2  504  501  0.43438777980E+02  0.74141788243E+00  0.89706909194E+03  0.89812050018E+03  0.00000000000E+00 0. -1.
</event>
<event>
 4    1  0.3035432E+006  0.2129116E+02  0.7546771E-02  0.1515148E+00
         21   -1    0    0  502  501  0.00000000000E+00  0.00000000000E+00  0.20411580064E+01  0.20411580064E+01  0.00000000000E+00 0. -1.
         21   -1    0    0  504  502 -0.00000000000E+00 -0.00000000000E+00 -0.27162395088E+03  0.27162395088E+03  0.00000000000E+00 0. -1.
         21    1    1    2  503  501  0.21052128605E+02  0.31814330551E+01 -0.76356505683E+02  0.79269348396E+02  0.00000000000E+00 0. -1.
         21    1    1    2  504  503 -0.21052128605E+02 -0.31814330551E+01 -0.19322628719E+03  0.19439576049E+03  0.00000000000E+00 0. -1.
</event>
<event>
 4    1  0.3035432E+006  0.3580343E+02  0.7546771E-02  0.1375001E+00
         21   -1    0    0  503  501  0.00000000000E+00  0.00000000000E+00  0.49147893480E+03  0.49147893480E+03  0.00000000000E+00 0.  1.
         21   -1    0    0  504  502 -0.00000000000E+00 -0.00000000000E+00 -0.23092901877E+02  0.23092901877E+02  0.00000000000E+00 0.  1.
         21    1    1    2  503  502  0.15585907032E+02  0.32232981847E+02 -0.81281577519E+01  0.36714473512E+02  0.00000000000E+00 0.  1.
         21    1    1    2  504  501 -0.15585907032E+02 -0.32232981847E+02  0.47651419067E+03  0.47785736316E+03  0.00000000000E+00 0.  1.
</event>
<event>
 4    1  0.3035432E+006  0.2455612E+02  0.7546771E-02  0.1473831E+00
         21   -1    0    0  504  501  0.00000000000E+00  0.00000000000E+00  0.21729788888E+03  0.21729788888E+03  0.00000000000E+00 0. -1.
         21   -1    0    0  503  502 -0.00000000000E+00 -0.00000000000E+00 -0.85176631942E+01  0.85176631942E+01  0.00000000000E+00 0. -1.
         21    1    1    2  503  501  0.11974283651E+02  0.21438738288E+02  0.19709872154E+03  0.19862252894E+03  0.00000000000E+00 0. -1.
         21    1    1    2  504  502 -0.11974283651E+02 -0.21438738288E+02  0.11681504147E+02  0.27193023140E+02  0.00000000000E+00 0. -1.
</event>
<event>
 4    1  0.3035432E+006  0.3572150E+02  0.7546771E-02  0.1375561E+00
         21   -1    0    0  503  501  0.00000000000E+00  0.00000000000E+00  0.17348695873E+01  0.17348695873E+01  0.00000000000E+00 0. -1.
         21   -1    0    0  504  502 -0.00000000000E+00 -0.00000000000E+00 -0.75532343665E+03  0.75532343665E+03  0.00000000000E+00 0. -1.
         21    1    1    2  503  502 -0.25681771712E+02 -0.24828854534E+02 -0.43809142029E+03  0.43954535369E+03  0.00000000000E+00 0. -1.
         21    1    1    2  504  501  0.25681771712E+02  0.24828854534E+02 -0.31549714677E+03  0.31751295255E+03  0.00000000000E+00 0. -1.
</event>
<event>
 4    1  0.3035432E+006  0.3363021E+02  0.7546771E-02  0.1390458E+00
         21   -1    0    0  503  501  0.00000000000E+00  0.00000000000E+00  0.52206344490E+03  0.52206344490E+03  0.00000000000E+00 0.  1.
         21   -1    0    0  504  502 -0.00000000000E+00 -0.00000000000E+00 -0.27890992365E+01  0.27890992365E+01  0.00000000000E+00 0. -1.
         21    1    1    2  503  502  0.31154346425E+02 -0.12664809608E+02  0.13563778733E+03  0.13974476754E+03  0.00000000000E+00 0. -1.
         21    1    1    2  504  501 -0.31154346425E+02  0.12664809608E+02  0.38363655833E+03  0.38510777660E+03  0.00000000000E+00 0.  1.
</event>
<event>
 4    1  0.3035432E+006  0.3686534E+02  0.7546771E-02  0.1367903E+00
         21   -1    0    0  503  501  0.00000000000E+00  0.00000000000E+00  0.10560769063E+02  0.10560769063E+02  0.00000000000E+00 0. -1.
         21   -1    0    0  501  502 -0.00000000000E+00 -0.00000000000E+00 -0.67665528330E+03  0.67665528330E+03  0.00000000000E+00 0.  1.
         21    1    1    2  503  504  0.48159706237E+01 -0.36549419370E+02 -0.23835126013E+02  0.43899508669E+02  0.00000000000E+00 0. -1.
         21    1    1    2  504  502 -0.48159706237E+01  0.36549419370E+02 -0.64225938823E+03  0.64331654370E+03  0.00000000000E+00 0.  1.
</event>
<event>
 4    1  0.3035432E+006  0.2795036E+02  0.7546771E-02  0.1438288E+00
         21   -1    0    0  504  501  0.00000000000E+00  0.00000000000E+00  0.20425444396E+01  0.20425444396E+01  0.00000000000E+00 0.  1.
         21   -1    0    0  503  502 -0.00000000000E+00 -0.00000000000E+00 -0.66155058483E+03  0.66155058483E+03  0.00000000000E+00 0.  1.
         21    1    1    2  503  501 -0.22832704331E+02 -0.16121118811E+02 -0.11425216107E+03  0.11762133806E+03  0.00000000000E+00 0.  1.
         21    1    1    2  504  502  0.22832704331E+02  0.16121118811E+02 -0.54525587932E+03  0.54597179121E+03  0.00000000000E+00 0.  1.
</event>
<event>
 4    1  0.3035432E+006  0.2391388E+02  0.7546771E-02  0.1481331E+00
         21   -1    0    0  502  501  0.00000000000E+00  0.00000000000E+00  0.14480302113E+03  0.14480302113E+03  0.00000000000E+00 0.  1.
         21   -1    0    0  503  502 -0.00000000000E+00 -0.00000000000E+00 -0.46174047750E+03  0.46174047750E+03  0.00000000000E+00 0.  1.
         21    1    1    2  503  504  0.21541648144E+02 -0.10384175057E+02 -0.46044073252E+03  0.46106132115E+03  0.00000000000E+00 0.  1.
         21    1    1    2  504  501 -0.21541648144E+02  0.10384175057E+02  0.14350327616E+03  0.14548217748E+03  0.00000000000E+00 0.  1.
</event>
<event>
 4    1  0.3035432E+006  0.4829639E+02  0.7546771E-02  0.1305733E+00
         21   -1    0    0  503  501  0.00000000000E+00  0.00000000000E+00  0.50792035750E+03  0.50792035750E+03  0.00000000000E+00 0. -1.
         21   -1    0    0  504  502 -0.00000000000E+00 -0.00000000000E+00 -0.10100030985E+02  0.10100030985E+02  0.00000000000E+00 0.  1.
         21    1    1    2  503  502  0.35046707738E+02 -0.33230557483E+02  0.57643012524E+02  0.75201453223E+02  0.00000000000E+00 0.  1.
         21    1    1    2  504  501 -0.35046707738E+02  0.33230557483E+02  0.44017731399E+03  0.44281893526E+03  0.00000000000E+00 0. -1.
</event>
<event>
 4    1  0.3035432E+006  0.2899101E+02  0.7546771E-02  0.1428572E+00
         21   -1    0    0  504  501  0.00000000000E+00  0.00000000000E+00  0.17797492789E+03  0.17797492789E+03  0.00000000000E+00 0. -1.
         21   -1    0    0  503  502 -0.00000000000E+00 -0.00000000000E+00 -0.48819116183E+01  0.48819116183E+01  0.00000000000E+00 0. -1.
         21    1    1    2  503  501  0.14472865374E+02  0.25120012373E+02  0.70022876707E+02  0.75787084098E+02  0.00000000000E+00 0. -1.
         21    1    1    2  504  502 -0.14472865374E+02 -0.25120012373E+02  0.10307013956E+03  0.10706975541E+03  0.00000000000E+00 0. -1.
</event>
<event>
 4    1  0.3035432E+006  0.2098249E+02  0.7546771E-02  0.1519515E+00
         21   -1    0    0  503  501  0.00000000000E+00  0.00000000000E+00  0.84604926778E+03  0.84604926778E+03  0.00000000000E+00 0.  1.
         21   -1    0    0  504  502 -0.00000000000E+00 -0.00000000000E+00 -0.31896879059E+01  0.31896879059E+01  0.00000000000E+00 0. -1.
         21    1    1    2  503  502 -0.20945304411E+02 -0.12487024526E+01  0.80987104866E+03  0.81014281488E+03  0.00000000000E+00 0.  1.
         21    1    1    2  504  501  0.20945304411E+02  0.12487024526E+01  0.32988531211E+02  0.39096140808E+02  0.00000000000E+00 0. -1.
</event>
<event>
 4    1  0.3035432E+006  0.2324304E+02  0.7546771E-02  0.1489469E+00
         21   -1    0    0  503  501  0.00000000000E+00  0.00000000000E+00  0.16525720731E+02  0.16525720731E+02  0.00000000000E+00 0.  1.
         21   -1    0    0  504  502 -0.00000000000E+00 -0.00000000000E+00 -0.32702449626E+02  0.32702449626E+02  0.00000000000E+00 0.  1.
         21    1    1    2  503  502  0.21495705998E+02 -0.88415843915E+01 -0.85529814375E+01  0.24766761645E+02  0.00000000000E+00 0.  1.
         21    1    1    2  504  501 -0.21495705998E+02  0.88415843915E+01 -0.76237474577E+01  0.24461408712E+02  0.00000000000E+00 0.  1.
</event>
<event>
 4    1  0.3035432E+006  0.2434447E+02  0.7546771E-02  0.1476272E+00
         21   -1    0    0  503  501  0.00000000000E+00  0.00000000000E+00  0.20372824999E+02  0.20372824999E+02  0.00000000000E+00 0.  1.
         21   -1    0    0  504  502 -0.00000000000E+00 -0.00000000000E+00 -0.80319656896E+02  0.80319656896E+02  0.00000000000E+00 0.  1.
         21    1    1    2  503  502  0.90444541467E+00 -0.24327660476E+02  0.10234843043E+02  0.26408428538E+02  0.00000000000E+00 0.  1.
         21    1    1    2  504  501 -0.90444541467E+00  0.24327660476E+02 -0.70181674941E+02  0.74284053357E+02  0.00000000000E+00 0.  1.
</event>
<event>
 4    1  0.3035432E+006  0.2369768E+02  0.7546771E-02  0.1483918E+00
         21   -1    0    0  502  501  0.00000000000E+00  0.00000000000E+00  0.58761788910E+02  0.58761788910E+02  0.00000000000E+00 0. -1.
         21   -1    0    0  503  502 -0.00000000000E+00 -0.00000000000E+00 -0.11095552391E+02  0.11095552391E+02  0.00000000000E+00 0. -1.
         21    1    1    2  503  504  0.22743409620E+02 -0.66571334518E+01  0.10826065791E+02  0.26053479757E+02  0.00000000000E+00 0. -1.
         21    1    1    2  504  501 -0.22743409620E+02  0.66571334518E+01  0.36840170728E+02  0.43803861544E+02  0.00000000000E+00 0. -1.
</event>
<event>
 4    1  0.3035432E+006  0.2522327E+02  0.7546771E-02  0.1466321E+00
         21   -1    0    0  503  501  0.00000000000E+00  0.00000000000E+00  0.32235538027E+03  0.32235538027E+03  0.00000000000E+00 0. -1.
         21   -1    0    0  504  502 -0.00000000000E+00 -0.00000000000E+00 -0.20247615323E+01  0.20247615323E+01  0.00000000000E+00 0. -1.
         21    1    1    2  503  502 -0.23674843503E+02 -0.87014588877E+01  0.18593668228E+03  0.18763971706E+03  0.00000000000E+00 0. -1.
         21    1    1    2  504  501  0.23674843503E+02  0.87014588877E+01  0.13439393646E+03  0.13674042474E+03  0.00000000000E+00 0. -1.
</event>
<event>
 4    1  0.3035432E+006  0.2048031E+02  0.7546771E-02  0.1526816E+00
         21   -1    0    0  504  501  0.00000000000E+00  0.00000000000E+00  0.82949398152E+03  0.82949398152E+03  0.00000000000E+00 0. -1.
         21   -1    0    0  503  502 -0.00000000000E+00 -0.00000000000E+00 -0.38152856701E+01  0.38152856701E+01  0.00000000000E+00 0. -1.
         21    1    1    2  503  501 -0.29101837850E+01 -0.20272492640E+02  0.80090216181E+03  0.80116397568E+03  0.00000000000E+00 0. -1.
         21    1    1    2  504  502  0.29101837850E+01  0.20272492640E+02  0.24776534035E+02  0.32145291510E+02  0.00000000000E+00 0. -1.
</event>
<event>
 4    1  0.3035432E+006  0.2224005E+02  0.7546771E-02  0.1502268E+00
         21   -1    0    0  504  501  0.00000000000E+00  0.00000000000E+00  0.29984288273E+02  0.29984288273E+02  0.00000000000E+00 0. -1.
         21   -1    0    0  503  502 -0.00000000000E+00 -0.00000000000E+00 -0.30386834715E+02  0.30386834715E+02  0.00000000000E+00 0.  1.
         21    1    1    2  503  501  0.20614866458E+02 -0.83454967429E+01  0.20207697742E+02  0.30049477250E+02  0.00000000000E+00 0. -1.
         21    1    1    2  504  502 -0.20614866458E+02  0.83454967429E+01 -0.20610244184E+02  0.30321645738E+02  0.00000000000E+00 0.  1.
</event>
<event>
 4    1  0.3035432E+006  0.2749530E+02  0.7546771E-02  0.1442695E+00
         21   -1    0    0  504  501  0.00000000000E+00  0.00000000000E+00  0.15746530811E+02  0.15746530811E+02  0.00000000000E+00 0. -1.
         21   -1    0    0  503  502 -0.00000000000E+00 -0.00000000000E+00 -0.81514595541E+02  0.81514595541E+02  0.00000000000E+00 0. -1.
         21    1    1    2  503  501 -0.25561007004E+02  0.10130476826E+02 -0.64061692144E+02  0.69712925918E+02  0.00000000000E+00 0. -1.
         21    1    1    2  504  502  0.25561007004E+02 -0.10130476826E+02 -0.17063725863E+01  0.27548200434E+02  0.00000000000E+00 0. -1.
</event>
<event>
 4    1  0.3035432E+006  0.2451479E+02  0.7546771E-02  0.1474305E+00
         21   -1    0    0  504  501  0.00000000000E+00  0.00000000000E+00  0.31762703181E+03  0.31762703181E+03  0.00000000000E+00 0. -1.
         21   -1    0    0  503  502 -0.00000000000E+00 -0.00000000000E+00 -0.55910964501E+01  0.55910964501E+01  0.00000000000E+00 0. -1.
         21    1    1    2  503  501 -0.20154749683E+02 -0.13955686501E+02  0.24568003621E+02  0.34706799368E+02  0.00000000000E+00 0. -1.
         21    1    1    2  504  502  0.20154749683E+02  0.13955686501E+02  0.28746793174E+03  0.28851132889E+03  0.00000000000E+00 0. -1.
</event>
<event>
 4    1  0.3035432E+006  0.2158970E+02  0.7546771E-02  0.1511010E+00
         21   -1    0    0  504  501  0.00000000000E+00  0.00000000000E+00  0.18926291306E+03  0.18926291306E+03  0.00000000000E+00 0. -1.
         21   -1    0    0  503  502 -0.00000000000E+00 -0.00000000000E+00 -0.77888228861E+02  0.77888228861E+02  0.00000000000E+00 0. -1.
         21    1    1    2  503  501  0.21578082589E+02 -0.70806457631E+00 -0.75759466102E+02  0.78775705061E+02  0.00000000000E+00 0. -1.
         21    1    1    2  504  502 -0.21578082589E+02  0.70806457631E+00  0.18713415030E+03  0.18837543686E+03  0.00000000000E+00 0. -1.
</event>
<event>
 4    1  0.3035432E+006  0.2358232E+02  0.7546771E-02  0.1485313E+00
         21   -1    0    0  503  501  0.00000000000E+00  0.00000000000E+00  0.12547500552E+03  0.12547500552E+03  0.00000000000E+00 0. -1.
         21   -1    0    0  504  502 -0.00000000000E+00 -0.00000000000E+00 -0.86541001707E+01  0.86541001707E+01  0.00000000000E+00 0.  1.
         21    1    1    2  503  502 -0.15322986682E+02 -0.17925736617E+02  0.10525271304E+03  0.10786222488E+03  0.00000000000E+00 0. -1.
         21    1    1    2  504  501  0.15322986682E+02  0.17925736617E+02  0.11568192309E+02  0.26266880809E+02  0.00000000000E+00 0.  1.
</event>
<event>
 4    1  0.3035432E+006  0.2173298E+02  0.7546771E-02  0.1509052E+00
         21   -1    0    0  502  501  0.00000000000E+00  0.00000000000E+00  0.55256389079E+02  0.55256389079E+02  0.00000000000E+00 0. -1.
         21   -1    0    0  504  502 -0.00000000000E+00 -0.00000000000E+00 -0.20409650133E+02  0.20409650133E+02  0.00000000000E+00 0.  1.
         21    1    1    2  503  501  0.38563692627E+01 -0.21388099131E+02  0.46265599991E+02  0.51115830336E+02  0.00000000000E+00 0. -1.
         21    1    1    2  504  503 -0.38563692627E+01  0.21388099131E+02 -0.11418861045E+02  0.24550208877E+02  0.00000000000E+00 0.  1.
</event>
<event>
 4    1  0.3035432E+006  0.2005635E+02  0.7546771E-02  0.1533176E+00
         21   -1    0    0  502  501  0.00000000000E+00  0.00000000000E+00  0.31520304592E+02  0.31520304592E+02  0.00000000000E+00 0. -1.
         21   -1    0    0  504  502 -0.00000000000E+00 -0.00000000000E+00 -0.19111363420E+02  0.19111363420E+02  0.00000000000E+00 0. -1.
         21    1    1    2  503  501 -0.42985230768E+01 -0.19590298105E+02  0.20796542869E+02  0.28892097116E+02  0.00000000000E+00 0. -1.
         21    1    1    2  504  503  0.42985230768E+01  0.19590298105E+02 -0.83876016968E+01  0.21739570895E+02  0.00000000000E+00 0. -1.
</event>
<event>
 4    1  0.3035432E+006  0.2952733E+02  0.7546771E-02  0.1423749E+00
         21   -1    0    0  502  501  0.00000000000E+00  0.00000000000E+00  0.42662346577E+03  0.42662346577E+03  0.00000000000E+00 0. -1.
         21   -1    0    0  504  502 -0.00000000000E+00 -0.00000000000E+00 -0.14560749964E+02  0.14560749964E+02  0.00000000000E+00 0. -1.
         21    1    1    2  503  501  0.14949970464E+02  0.25462941472E+02  0.41055814891E+03  0.41161858151E+03  0.00000000000E+00 0. -1.
         21    1    1    2  504  503 -0.14949970464E+02 -0.25462941472E+02  0.15045668879E+01  0.29565634220E+02  0.00000000000E+00 0. -1.
</event>
<event>
 4    1  0.3035432E+006  0.2005505E+02  0.7546771E-02  0.1533196E+00
         21   -1    0    0  502  501  0.00000000000E+00  0.00000000000E+00  0.15322315521E+02  0.15322315521E+02  0.00000000000E+00 0. -1.
         21   -1    0    0  504  502 -0.00000000000E+00 -0.00000000000E+00 -0.11030978598E+03  0.11030978598E+03  0.00000000000E+00 0. -1.
         21    1    1    2  503  501  0.72275704584E+00  0.20042026462E+02  0.73413709215E+01  0.21356519600E+02  0.00000000000E+00 0. -1.
         21    1    1    2  504  503 -0.72275704584E+00 -0.20042026462E+02 -0.10232884138E+03  0.10427558190E+03  0.00000000000E+00 0. -1.
</event>
<event>
 4    1  0.3035432E+006  0.2010090E+02  0.7546771E-02  0.1532499E+00
         21   -1    0    0  503  501  0.00000000000E+00  0.00000000000E+00  0.71267806169E+02  0.71267806169E+02  0.00000000000E+00 0. -1.
         21   -1    0    0  504  502 -0.00000000000E+00 -0.00000000000E+00 -0.52646685902E+02  0.52646685902E+02  0.00000000000E+00 0. -1.
         21    1    1    2  503  502 -0.16281155151E+02 -0.11788556216E+02 -0.49215666336E+02  0.53162278766E+02  0.00000000000E+00 0. -1.
         21    1    1    2  504  501  0.16281155151E+02  0.11788556216E+02  0.67836786604E+02  0.70752213304E+02  0.00000000000E+00 0. -1.
</event>
<event>
 4    1  0.3035432E+006  0.2688687E+02  0.7546771E-02  0.1448748E+00
         21   -1    0    0  504  501  0.00000000000E+00  0.00000000000E+00  0.54844964008E+02  0.54844964008E+02  0.00000000000E+00 0.  1.
         21   -1    0    0  503  502 -0.00000000000E+00 -0.00000000000E+00 -0.37087011933E+03  0.37087011933E+03  0.00000000000E+00 0.  1.
         21    1    1    2  503  501  0.98962094654E+01 -0.24999380114E+02  0.51028226701E+02  0.57678279171E+02  0.00000000000E+00 0.  1.
         21    1    1    2  504  502 -0.98962094654E+01  0.24999380114E+02 -0.36705338203E+03  0.36803680417E+03  0.00000000000E+00 0.  1.
</event>
<event>
 4    1  0.3035432E+006  0.2749110E+02  0.7546771E-02  0.1442736E+00
         21   -1    0    0  503  501  0.00000000000E+00  0.00000000000E+00  0.58957980096E+02  0.58957980096E+02  0.00000000000E+00 0.  1.
         21   -1    0    0  504  502 -0.00000000000E+00 -0.00000000000E+00 -0.18013911192E+02  0.18013911192E+02  0.00000000000E+00 0. -1.
         21    1    1    2  503  502  0.17421978228E+02  0.21265818860E+02  0.41140240987E+02  0.49480095045E+02  0.00000000000E+00 0.  1.
         21    1    1    2  504  501 -0.17421978228E+02 -0.21265818860E+02 -0.19617208361E+00  0.27491796243E+02  0.00000000000E+00 0. -1.
</event>
<event>
 4    1  0.3035432E+006  0.2353894E+02  0.7546771E-02  0.1485839E+00
         21   -1    0    0  504  501  0.00000000000E+00  0.00000000000E+00  0.30455943408E+03  0.30455943408E+03  0.00000000000E+00 0. -1.
         21   -1    0    0  503  502 -0.00000000000E+00 -0.00000000000E+00 -0.37835005213E+03  0.37835005213E+03  0.00000000000E+00 0.  1.
         21    1    1    2  503  501 -0.10513571301E+02  0.21060546966E+02  0.30373750524E+03  0.30464824619E+03  0.00000000000E+00 0. -1.
         21    1    1    2  504  502  0.10513571301E+02 -0.21060546966E+02 -0.37752812330E+03  0.37826124002E+03  0.00000000000E+00 0.  1.
</event>
<event>
 4    1  0.3035432E+006  0.2081872E+02  0.7546771E-02  0.1521869E+00
         21   -1    0    0  504  501  0.00000000000E+00  0.00000000000E+00  0.13767227083E+02  0.13767227083E+02  0.00000000000E+00 0. -1.
         21   -1    0    0  503  502 -0.00000000000E+00 -0.00000000000E+00 -0.19026673601E+03  0.19026673601E+03  0.00000000000E+00 0.  1.
         21    1    1    2  503  501 -0.20293559292E+01 -0.20719571334E+02 -0.18144537465E+03  0.18263582043E+03  0.00000000000E+00 0.  1.
         21    1    1    2  504  502  0.20293559292E+01  0.20719571334E+02  0.49458657228E+01  0.21398142664E+02  0.00000000000E+00 0. -1.
</event>
<event>
 4    1  0.3035432E+006  0.3135474E+02  0.7546771E-02  0.1408178E+00
         21   -1    0    0  502  501  0.00000000000E+00  0.00000000000E+00  0.29083533960E+03  0.29083533960E+03  0.00000000000E+00 0.  1.
         21   -1    0    0  504  502 -0.00000000000E+00 -0.00000000000E+00 -0.21970594316E+02  0.21970594316E+02  0.00000000000E+00 0. -1.
         21    1    1    2  503  501  0.26754999694E+02  0.16349005393E+02  0.27830124664E+03  0.28006196433E+03  0.00000000000E+00 0.  1.
         21    1    1    2  504  503 -0.26754999694E+02 -0.16349005393E+02 -0.94365013578E+01  0.32743969579E+02  0.00000000000E+00 0. -1.
</event>
<event>
 4    1  0.3035432E+006  0.2453238E+02  0.7546771E-02  0.1474103E+00
         21   -1    0    0  503  501  0.00000000000E+00  0.00000000000E+00  0.22444572547E+02  0.22444572547E+02  0.00000000000E+00 0. -1.
         21   -1    0    0  504  502 -0.00000000000E+00 -0.00000000000E+00 -0.26897143625E+02  0.26897143625E+02  0.00000000000E+00 0. -1.
         21    1    1    2  503  502 -0.23994928394E+02  0.51069761727E+01 -0.85794934344E+00  0.24547380132E+02  0.00000000000E+00 0. -1.
         21    1    1    2  504  501  0.23994928394E+02 -0.51069761727E+01 -0.35946217343E+01  0.24794336040E+02  0.00000000000E+00 0. -1.
</event>
<event>
 4    1  0.3035432E+006  0.2110079E+02  0.7546771E-02  0.1517831E+00
         21   -1    0    0  502  501  0.00000000000E+00  0.00000000000E+00  0.21786256472E+02  0.21786256472E+02  0.00000000000E+00 0.  1.
         21   -1    0    0  503  502 -0.00000000000E+00 -0.00000000000E+00 -0.24231148973E+03  0.24231148973E+03  0.00000000000E+00 0. -1.
         21    1    1    2  503  504 -0.11332173745E+02 -0.17799580382E+02 -0.23662025304E+03  0.23755922919E+03  0.00000000000E+00 0. -1.
         21    1    1    2  504  501  0.11332173745E+02  0.17799580382E+02  0.16095019782E+02  0.26538517015E+02  0.00000000000E+00 0.  1.
</event>
<event>
 4    1  0.3035432E+006  0.2869323E+02  0.7546771E-02  0.1431303E+00
         21   -1    0    0  504  501  0.00000000000E+00  0.00000000000E+00  0.19919946848E+03  0.19919946848E+03  0.00000000000E+00 0.  1.
         21   -1    0    0  501  502 -0.00000000000E+00 -0.00000000000E+00 -0.97272795124E+01  0.97272795124E+01  0.00000000000E+00 0.  1.
         21    1    1    2  503  502  0.74671523021E+01 -0.27704572322E+02  0.15515439797E+02  0.32619481344E+02  0.00000000000E+00 0.  1.
         21    1    1    2  504  503 -0.74671523021E+01  0.27704572322E+02  0.17395674917E+03  0.17630726664E+03  0.00000000000E+00 0.  1.
</event>
<event>
 4    1  0.3035432E+006  0.2129034E+02  0.7546771E-02  0.1515160E+00
         21   -1    0    0  503  501  0.00000000000E+00  0.00000000000E+00  0.27905370236E+02  0.27905370236E+02  0.00000000000E+00 0.  1.
         21   -1    0    0  501  502 -0.00000000000E+00 -0.00000000000E+00 -0.59072692595E+02  0.59072692595E+02  0.00000000000E+00 0. -1.
         21    1    1    2  503  504 -0.21263449619E+02  0.10697772587E+01  0.21446592680E+02  0.30219779130E+02  0.00000000000E+00 0.  1.
         21    1    1    2  504  502  0.21263449619E+02 -0.10697772587E+01 -0.52613915039E+02  0.56758283702E+02  0.00000000000E+00 0. -1.
</event>
<event>
 4    1  0.3035432E+006  0.4202191E+02  0.7546771E-02  0.1337028E+00
         21   -1    0    0  503  501  0.00000000000E+00  0.00000000000E+00  0.79270351627E+02  0.79270351627E+02  0.00000000000E+00 0.  1.
         21   -1    0    0  504  502 -0.00000000000E+00 -0.00000000000E+00 -0.31073274765E+02  0.31073274765E+02  0.00000000000E+00 0.  1.
         21    1    1    2  503  502 -0.63330499019E+01 -0.41541948251E+02 -0.52572173654E+01  0.42349490197E+02  0.00000000000E+00 0.  1.
         21    1    1    2  504  501  0.63330499019E+01  0.41541948251E+02  0.53454294227E+02  0.67994136195E+02  0.00000000000E+00 0.  1.
</event>
<event>
 4    1  0.3035432E+006  0.2117664E+02  0.7546771E-02  0.1516758E+00
         21   -1    0    0  504  501  0.00000000000E+00  0.00000000000E+00  0.35531343657E+03  0.35531343657E+03  0.00000000000E+00 0.  1.
         21   -1    0    0  503  502 -0.00000000000E+00 -0.00000000000E+00 -0.15315228633E+01  0.15315228633E+01  0.00000000000E+00 0.  1.
         21    1    1    2  503  501  0.11043093355E+02  0.18069311805E+02  0.25172254680E+03  0.25261173866E+03  0.00000000000E+00 0.  1.
         21    1    1    2  504  502 -0.11043093355E+02 -0.18069311805E+02  0.10205936690E+03  0.10423322077E+03  0.00000000000E+00 0.  1.
</event>
<event>
 4    1  0.3035432E+006  0.2354558E+02  0.7546771E-02  0.1485759E+00
         21   -1    0    0  502  501  0.00000000000E+00  0.00000000000E+00  0.59980174885E+01  0.59980174885E+01  0.00000000000E+00 0. -1.
         21   -1    0    0  503  502 -0.00000000000E+00 -0.00000000000E+00 -0.13476084285E+04  0.13476084285E+04  0.00000000000E+00 0.  1.
         21    1    1    2  503  504  0.19754341490E+02  0.12812506139E+02 -0.13239859337E+04  0.13241952827E+04  0.00000000000E+00 0.  1.
         21    1    1    2  504  501 -0.19754341490E+02 -0.12812506139E+02 -0.17624477350E+02  0.29411163240E+02  0.00000000000E+00 0. -1.
</event>
<event>
 4    1  0.3035432E+006  0.2417987E+02  0.7546771E-02  0.1478191E+00
         21   -1    0    0  503  501  0.00000000000E+00  0.00000000000E+00  0.11046584610E+02  0.11046584610E+02  0.00000000000E+00 0. -1.
         21   -1    0    0  504  502 -0.00000000000E+00 -0.00000000000E+00 -0.87878660264E+03  0.87878660264E+03  0.00000000000E+00 0.  1.
         21    1    1    2  503  502  0.57453030482E+01 -0.23487390692E+02 -0.86518039814E+03  0.86551821896E+03  0.00000000000E+00 0.  1.
         21    1    1    2  504  501 -0.57453030482E+01  0.23487390692E+02 -0.25596198855E+01  0.24314968283E+02  0.00000000000E+00 0. -1.
</event>
<event>
 4    1  0.3035432E+006  0.2779537E+02  0.7546771E-02  0.1439778E+00
         21   -1    0    0  503  501  0.00000000000E+00  0.00000000000E+00  0.13567440723E+03  0.13567440723E+03  0.00000000000E+00 0.  1.
         21   -1    0    0  504  502 -0.00000000000E+00 -0.00000000000E+00 -0.74706859996E+01  0.74706859996E+01  0.00000000000E+00 0. -1.
         21    1    1    2  503  502 -0.20342943423E+02 -0.18940631405E+02  0.29201974645E+02  0.40315483233E+02  0.00000000000E+00 0. -1.
         21    1    1    2  504  501  0.20342943423E+02  0.18940631405E+02  0.99001746585E+02  0.10282961000E+03  0.00000000000E+00 0.  1.
</event>
<event>
 4    1  0.3035432E+006  0.2041960E+02  0.7546771E-02  0.1527715E+00
         21   -1    0    0  504  501  0.00000000000E+00  0.00000000000E+00  0.53017077117E+00  0.53017077117E+00  0.00000000000E+00 0. -1.
         21   -1    0    0  503  502 -0.00000000000E+00 -0.00000000000E+00 -0.14522669803E+04  0.14522669803E+04  0.00000000000E+00 0. -1.
         21    1    1    2  503  501  0.11619429393E+01 -0.20386512584E+02 -0.23402737595E+03  0.23491652283E+03  0.00000000000E+00 0. -1.
         21    1    1    2  504  502 -0.11619429393E+01  0.20386512584E+02 -0.12177094336E+04  0.12178806282E+04  0.00000000000E+00 0. -1.
</event>
<event>
 4    1  0.3035432E+006  0.2370726E+02  0.7546771E-02  0.1483803E+00
         21   -1    0    0  503  501  0.00000000000E+00  0.00000000000E+00  0.94238285191E+03  0.94238285191E+03  0.00000000000E+00 0.  1.
         21   -1    0    0  504  502 -0.00000000000E+00 -0.00000000000E+00 -0.12120359750E+01  0.12120359750E+01  0.00000000000E+00 0.  1.
         21    1    1    2  503  502 -0.21750763705E+02 -0.94307243030E+01  0.13433649402E+03  0.13641234515E+03  0.00000000000E+00 0.  1.
         21    1    1    2  504  501  0.21750763705E+02  0.94307243030E+01  0.80683432192E+03  0.80718254274E+03  0.00000000000E+00 0.  1.
</event>
<event>
 4    1  0.3035432E+006  0.2105024E+02  0.7546771E-02  0.1518549E+00
         21   -1    0    0  504  501  0.00000000000E+00  0.00000000000E+00  0.42872725391E+03  0.42872725391E+03  0.00000000000E+00 0. -1.
         21   -1    0    0  503  502 -0.00000000000E+00 -0.00000000000E+00 -0.37219116345E+02  0.37219116345E+02  0.00000000000E+00 0. -1.
         21    1    1    2  503  501 -0.10872706393E+02  0.18024893050E+02  0.42546971416E+03  0.42599012921E+03  0.00000000000E+00 0. -1.
         21    1    1    2  504  502  0.10872706393E+02 -0.18024893050E+02 -0.33961576596E+02  0.39956241048E+02  0.00000000000E+00 0. -1.
</event>
<event>
 4    1  0.3035432E+006  0.2319893E+02  0.7546771E-02  0.1490015E+00
         21   -1    0    0  504  501  0.00000000000E+00  0.00000000000E+00  0.16375667748E+03  0.16375667748E+03  0.00000000000E+00 0.  1.
         21   -1    0    0  503  502 -0.00000000000E+00 -0.00000000000E+00 -0.58553021465E+01  0.58553021465E+01  0.00000000000E+00 0. -1.
         21    1    1    2  503  501  0.22790586650E+02  0.43335307282E+01  0.22779302840E+02  0.32512873854E+02  0.00000000000E+00 0. -1.
         21    1    1    2  504  502 -0.22790586650E+02 -0.43335307282E+01  0.13512207249E+03  0.13709910577E+03  0.00000000000E+00 0.  1.
</event>
<event>
 4    1  0.3035432E+006  0.2234906E+02  0.7546771E-02  0.1500838E+00
         21   -1    0    0  504  501  0.00000000000E+00  0.00000000000E+00  0.12907459992E+01  0.12907459992E+01  0.00000000000E+00 0. -1.
         21   -1    0    0  503  502 -0.00000000000E+00 -0.00000000000E+00 -0.39714586168E+03  0.39714586168E+03  0.00000000000E+00 0. -1.
         21    1    1    2  503  501  0.14231681089E+02 -0.17231936599E+02 -0.22981598497E+03  0.23090012415E+03  0.00000000000E+00 0. -1.
         21    1    1    2  504  502 -0.14231681089E+02  0.17231936599E+02 -0.16603913071E+03  0.16753648353E+03  0.00000000000E+00 0. -1.
</event>
<event>
 4    1  0.3035432E+006  0.4183348E+02  0.7546771E-02  0.1338064E+00
         21   -1    0    0  503  501  0.00000000000E+00  0.00000000000E+00  0.17797825802E+04  0.17797825802E+04  0.00000000000E+00 0.  1.
         21   -1    0    0  504  502 -0.00000000000E+00 -0.00000000000E+00 -0.17289956698E+01  0.17289956698E+01  0.00000000000E+00 0.  1.
         21    1    1    2  503  502 -0.58588541879E+01 -0.41421175327E+02  0.30404031384E+03  0.30690479367E+03  0.00000000000E+00 0.  1.
         21    1    1    2  504  501  0.58588541879E+01  0.41421175327E+02  0.14740132706E+04  0.14746067822E+04  0.00000000000E+00 0.  1.
</event>
<event>
 4    1  0.3035432E+006  0.2361256E+02  0.7546771E-02  0.1484946E+00
         21   -1    0    0  504  501  0.00000000000E+00  0.00000000000E+00  0.14504026927E+02  0.14504026927E+02  0.00000000000E+00 0. -1.
         21   -1    0    0  503  502 -0.00000000000E+00 -0.00000000000E+00 -0.11057827894E+03  0.11057827894E+03  0.00000000000E+00 0.  1.
         21    1    1    2  503  501 -0.23446934153E+02 -0.27918305182E+01  0.24766776775E+01  0.23742092813E+02  0.00000000000E+00 0. -1.
         21    1    1    2  504  502  0.23446934153E+02  0.27918305182E+01 -0.98550929687E+02  0.10134021305E+03  0.00000000000E+00 0.  1.
</event>
<event>
 4    1  0.3035432E+006  0.2438153E+02  0.7546771E-02  0.1475842E+00
         21   -1    0    0  504  501  0.00000000000E+00  0.00000000000E+00  0.11595431918E+04  0.11595431918E+04  0.00000000000E+00 0.  1.
         21   -1    0    0  503  502 -0.00000000000E+00 -0.00000000000E+00 -0.70545057205E+03  0.70545057205E+03  0.00000000000E+00 0.  1.
         21    1    1    2  503  501  0.20883401919E+02  0.12583427177E+02  0.11592042971E+04  0.11594606770E+04  0.00000000000E+00 0.  1.
         21    1    1    2  504  502 -0.20883401919E+02 -0.12583427177E+02 -0.70511167734E+03  0.70553308685E+03  0.00000000000E+00 0.  1.
</event>
<event>
 4    1  0.3035432E+006  0.2604080E+02  0.7546771E-02  0.1457489E+00
         21   -1    0    0  504  501  0.00000000000E+00  0.00000000000E+00  0.62579102129E+03  0.62579102129E+03  0.00000000000E+00 0. -1.
         21   -1    0    0  503  502 -0.00000000000E+00 -0.00000000000E+00 -0.45858970745E+02  0.45858970745E+02  0.00000000000E+00 0.  1.
         21    1    1    2  503  501  0.71155833705E+01 -0.25049786853E+02 -0.41867557728E+02  0.49305331742E+02  0.00000000000E+00 0.  1.
         21    1    1    2  504  502 -0.71155833705E+01  0.25049786853E+02  0.62179960828E+03  0.62234466030E+03  0.00000000000E+00 0. -1.
</event>
<event>
 4    1  0.3035432E+006  0.2300648E+02  0.7546771E-02  0.1492417E+00
         21   -1    0    0  503  501  0.00000000000E+00  0.00000000000E+00  0.19365364642E+02  0.19365364642E+02  0.00000000000E+00 0.  1.
         21   -1    0    0  501  502 -0.00000000000E+00 -0.00000000000E+00 -0.23702208802E+03  0.23702208802E+03  0.00000000000E+00 0.  1.
         21    1    1    2  503  504 -0.19550473561E+02  0.12127532791E+02  0.11747702385E+02  0.25832277860E+02  0.00000000000E+00 0.  1.
         21    1    1    2  504  502  0.19550473561E+02 -0.12127532791E+02 -0.22940442577E+03  0.23055517480E+03  0.00000000000E+00 0.  1.
</event>
<event>
 4    1  0.3035432E+006  0.2168775E+02  0.7546771E-02  0.1509668E+00
         21   -1    0    0  503  501  0.00000000000E+00  0.00000000000E+00  0.83452166389E+01  0.83452166389E+01  0.00000000000E+00 0. -1.
         21   -1    0    0  501  502 -0.00000000000E+00 -0.00000000000E+00 -0.59947980005E+02  0.59947980005E+02  0.00000000000E+00 0. -1.
         21    1    1    2  503  504 -0.11273283391E+02 -0.18527592222E+02 -0.17450655419E+02  0.27836737713E+02  0.00000000000E+00 0. -1.
         21    1    1    2  504  502  0.11273283391E+02  0.18527592222E+02 -0.34152107947E+02  0.40456458931E+02  0.00000000000E+00 0. -1.
</event>
<event>
 4    1  0.3035432E+006  0.2307436E+02  0.7546771E-02  0.1491567E+00
         21   -1    0    0  504  501  0.00000000000E+00  0.00000000000E+00  0.49381587350E+02  0.49381587350E+02  0.00000000000E+00 0. -1.
         21   -1    0    0  503  502 -0.00000000000E+00 -0.00000000000E+00 -0.31247575093E+03  0.31247575093E+03  0.00000000000E+00 0.  1.
         21    1    1    2  503  501 -0.23806125976E+01  0.22951226507E+02  0.46232743692E+02  0.51671004478E+02  0.00000000000E+00 0. -1.
         21    1    1    2  504  502  0.23806125976E+01 -0.22951226507E+02 -0.30932690727E+03  0.31018633380E+03  0.00000000000E+00 0.  1.
</event>
<event>
 4    1  0.3035432E+006  0.2316909E+02  0.7546771E-02  0.1490386E+00
         21   -1    0    0  502  501  0.00000000000E+00  0.00000000000E+00  0.26289145196E+02  0.26289145196E+02  0.00000000000E+00 0. -1.
         21   -1    0    0  504  502 -0.00000000000E+00 -0.00000000000E+00 -0.30985128584E+03  0.30985128584E+03  0.00000000000E+00 0.  1.
         21    1    1    2  503  501 -0.22137618665E+02  0.68361171192E+01  0.20656822609E+02  0.31040473220E+02  0.00000000000E+00 0. -1.
         21    1    1    2  504  503  0.22137618665E+02 -0.68361171192E+01 -0.30421896325E+03  0.30509995782E+03  0.00000000000E+00 0.  1.
</event>
<event>
 4    1  0.3035432E+006  0.2156884E+02  0.7546771E-02  0.1511296E+00
         21   -1    0    0  503  501  0.00000000000E+00  0.00000000000E+00  0.67155506171E+02  0.67155506171E+02  0.00000000000E+00 0. -1.
         21   -1    0    0  501  502 -0.00000000000E+00 -0.00000000000E+00 -0.10752322334E+03  0.10752322334E+03  0.00000000000E+00 0.  1.
         21    1    1    2  503  504  0.14486776380E+02 -0.15979619354E+02  0.64295149486E+02  0.67816525803E+02  0.00000000000E+00 0. -1.
         21    1    1    2  504  502 -0.14486776380E+02  0.15979619354E+02 -0.10466286665E+03  0.10686220371E+03  0.00000000000E+00 0.  1.
</event>
<event>
 4    1  0.3035432E+006  0.2653348E+02  0.7546771E-02  0.1452352E+00
         21   -1    0    0  504  501  0.00000000000E+00  0.00000000000E+00  0.98721921626E+02  0.98721921626E+02  0.00000000000E+00 0. -1.
         21   -1    0    0  503  502 -0.00000000000E+00 -0.00000000000E+00 -0.21162903824E+02  0.21162903824E+02  0.00000000000E+00 0.  1.
         21    1    1    2  503  501 -0.19331642707E+02 -0.18174517776E+02 -0.10029355218E+02  0.28365709444E+02  0.00000000000E+00 0.  1.
         21    1    1    2  504  502  0.19331642707E+02  0.18174517776E+02  0.87588373020E+02  0.91519116006E+02  0.00000000000E+00 0. -1.
</event>
<event>
 4    1  0.3035432E+006  0.2743606E+02  0.7546771E-02  0.1443276E+00
         21   -1    0    0  502  501  0.00000000000E+00  0.00000000000E+00  0.16742579328E+02  0.16742579328E+02  0.00000000000E+00 0. -1.
         21   -1    0    0  504  502 -0.00000000000E+00 -0.00000000000E+00 -0.55041220679E+03  0.55041220679E+03  0.00000000000E+00 0. -1.
         21    1    1    2  503  501  0.12938473585E+02 -0.24193659376E+02  0.49141268175E+01  0.27872672909E+02  0.00000000000E+00 0. -1.
         21    1    1    2  504  503 -0.12938473585E+02  0.24193659376E+02 -0.53858375428E+03  0.53928211321E+03  0.00000000000E+00 0. -1.
</event>
<event>
 4    1  0.3035432E+006  0.2155147E+02  0.7546771E-02  0.1511535E+00
         21   -1    0    0  502  501  0.00000000000E+00  0.00000000000E+00  0.60811339702E+03  0.60811339702E+03  0.00000000000E+00 0. -1.
         21   -1    0    0  503  502 -0.00000000000E+00 -0.00000000000E+00 -0.16738510527E+01  0.16738510527E+01  0.00000000000E+00 0. -1.
         21    1    1    2  503  504  0.20125890222E+02 -0.77080700744E+01  0.78403773880E+02  0.81311853750E+02  0.00000000000E+00 0. -1.
         21    1    1    2  504  501 -0.20125890222E+02  0.77080700744E+01  0.52803577208E+03  0.52847539432E+03  0.00000000000E+00 0. -1.
</event>
<event>
 4    1  0.3035432E+006  0.2004444E+02  0.7546771E-02  0.1533357E+00
         21   -1    0    0  504  501  0.00000000000E+00  0.00000000000E+00  0.10245482791E+04  0.10245482791E+04  0.00000000000E+00 0.  1.
         21   -1    0    0  501  502 -0.00000000000E+00 -0.00000000000E+00 -0.14423462410E+01  0.14423462410E+01  0.00000000000E+00 0.  1.
         21    1    1    2  503  502  0.24020120079E+01  0.19899993595E+02  0.73815925064E+02  0.76489020125E+02  0.00000000000E+00 0.  1.
         21    1    1    2  504  503 -0.24020120079E+01 -0.19899993595E+02  0.94929000784E+03  0.94950160526E+03  0.00000000000E+00 0.  1.
</event>
<event>
 4    1  0.3035432E+006  0.3542379E+02  0.7546771E-02  0.1377608E+00
         21   -1    0    0  503  501  0.00000000000E+00  0.00000000000E+00  0.24492044011E+02  0.24492044011E+02  0.00000000000E+00 0. -1.
         21   -1    0    0  504  502 -0.00000000000E+00 -0.00000000000E+00 -0.58133579379E+02  0.58133579379E+02  0.00000000000E+00 0. -1.
         21    1    1    2  503  502  0.32176794923E+02 -0.14815484610E+02 -0.25890380428E+01  0.35518274645E+02  0.00000000000E+00 0. -1.
         21    1    1    2  504  501 -0.32176794923E+02  0.14815484610E+02 -0.31052497325E+02  0.47107348746E+02  0.00000000000E+00 0. -1.
</event>
<event>
 4    1  0.3035432E+006  0.2147232E+02  0.7546771E-02  0.1512627E+00
         21   -1    0    0  504  501  0.00000000000E+00  0.00000000000E+00  0.11145739565E+03  0.11145739565E+03  0.00000000000E+00 0.  1.
         21   -1    0    0  503  502 -0.00000000000E+00 -0.00000000000E+00 -0.65230464595E+01  0.65230464595E+01  0.00000000000E+00 0.  1.
         21    1    1    2  503  501 -0.21163787424E+02 -0.36269134442E+01  0.88147265503E+02  0.90724863268E+02  0.00000000000E+00 0.  1.
         21    1    1    2  504  502  0.21163787424E+02  0.36269134442E+01  0.16787083687E+02  0.27255578842E+02  0.00000000000E+00 0.  1.
</event>
<event>
 4    1  0.3035432E+006  0.2590541E+02  0.7546771E-02  0.1458924E+00
         21   -1    0    0  504  501  0.00000000000E+00  0.00000000000E+00  0.10029292865E+03  0.10029292865E+03  0.00000000000E+00 0.  1.
         21   -1    0    0  503  502 -0.00000000000E+00 -0.00000000000E+00 -0.15890989261E+02  0.15890989261E+02  0.00000000000E+00 0.  1.
         21    1    1    2  503  501 -0.19438975085E+02  0.17123568101E+02 -0.19995190913E+01  0.25982463576E+02  0.00000000000E+00 0.  1.
         21    1    1    2  504  502  0.19438975085E+02 -0.17123568101E+02  0.86401458481E+02  0.90201454337E+02  0.00000000000E+00 0.  1.
</event>
<event>
 4    1  0.3035432E+006  0.2212800E+02  0.7546771E-02  0.1503748E+00
         21   -1    0    0  503  501  0.00000000000E+00  0.00000000000E+00  0.23103312547E+03  0.23103312547E+03  0.00000000000E+00 0. -1.
         21   -1    0    0  501  502 -0.00000000000E+00 -0.00000000000E+00 -0.18865120947E+02  0.18865120947E+02  0.00000000000E+00 0. -1.
         21    1    1    2  503  504  0.13602505919E+02  0.17453377168E+02  0.22380542791E+03  0.22489668317E+03  0.00000000000E+00 0. -1.
         21    1    1    2  504  502 -0.13602505919E+02 -0.17453377168E+02 -0.11637423380E+02  0.25001563246E+02  0.00000000000E+00 0. -1.
</event>
<event>
 4    1  0.3035432E+006  0.2336248E+02  0.7546771E-02  0.1487996E+00
         21   -1    0    0  503  501  0.00000000000E+00  0.00000000000E+00  0.48967352628E+03  0.48967352628E+03  0.00000000000E+00 0.  1.
         21   -1    0    0  504  502 -0.00000000000E+00 -0.00000000000E+00 -0.68421998517E+02  0.68421998517E+02  0.00000000000E+00 0. -1.
         21    1    1    2  503  502 -0.20425816320E+02  0.11339824876E+02  0.48739127330E+03  0.48795087753E+03  0.00000000000E+00 0.  1.
         21    1    1    2  504  501  0.20425816320E+02 -0.11339824876E+02 -0.66139745533E+02  0.70144647264E+02  0.00000000000E+00 0. -1.
</event>
<event>
 4    1  0.3035432E+006  0.2899618E+02  0.7546771E-02  0.1428525E+00
         21   -1    0    0  503  501  0.00000000000E+00  0.00000000000E+00  0.19329459889E+02  0.19329459889E+02  0.00000000000E+00 0.  1.
         21   -1    0    0  504  502 -0.00000000000E+00 -0.00000000000E+00 -0.44065002900E+03  0.44065002900E+03  0.00000000000E+00 0. -1.
         21    1    1    2  503  502 -0.28793696218E+02 -0.34207508256E+01 -0.42900383520E+03  0.42998263813E+03  0.00000000000E+00 0. -1.
         21    1    1    2  504  501  0.28793696218E+02  0.34207508256E+01  0.76832660816E+01  0.29996850765E+02  0.00000000000E+00 0.  1.
</event>
<event>
 4    1  0.3035432E+006  0.2933404E+02  0.7546771E-02  0.1425473E+00
         21   -1    0    0  503  501  0.00000000000E+00  0.00000000000E+00  0.45001236371E+03  0.45001236371E+03  0.00000000000E+00 0.  1.
         21   -1    0    0  501  502 -0.00000000000E+00 -0.00000000000E+00 -0.28777234274E+02  0.28777234274E+02  0.00000000000E+00 0. -1.
         21    1    1    2  503  504  0.69564326252E+01 -0.28497257921E+02  0.44192222699E+03  0.44289472831E+03  0.00000000000E+00 0.  1.
         21    1    1    2  504  502 -0.69564326252E+01  0.28497257921E+02 -0.20687097548E+02  0.35894869673E+02  0.00000000000E+00 0. -1.
</event>
<event>
 4    1  0.3035432E+006  0.2543030E+02  0.7546771E-02  0.1464047E+00
         21   -1    0    0  503  501  0.00000000000E+00  0.00000000000E+00  0.90284442812E+02  0.90284442812E+02  0.00000000000E+00 0. -1.
         21   -1    0    0  501  502 -0.00000000000E+00 -0.00000000000E+00 -0.14245084021E+02  0.14245084021E+02  0.00000000000E+00 0. -1.
         21    1    1    2  503  504  0.25284503433E+02  0.27192208715E+01  0.74871543396E+02  0.79072424312E+02  0.00000000000E+00 0. -1.
         21    1    1    2  504  502 -0.25284503433E+02 -0.27192208715E+01  0.11678153946E+01  0.25457102522E+02  0.00000000000E+00 0. -1.
</event>
<event>
 4    1  0.3035432E+006  0.2151907E+02  0.7546771E-02  0.1511981E+00
         21   -1    0    0  504  501  0.00000000000E+00  0.00000000000E+00  0.26443354960E+03  0.26443354960E+03  0.00000000000E+00 0.  1.
         21   -1    0    0  501  502 -0.00000000000E+00 -0.00000000000E+00 -0.15052063678E+03  0.15052063678E+03  0.00000000000E+00 0. -1.
         21    1    1    2  503  502 -0.76046495064E+01 -0.20130564811E+02 -0.14931019690E+03  0.15085292583E+03  0.00000000000E+00 0. -1.
         21    1    1    2  504  503  0.76046495064E+01  0.20130564811E+02  0.26322310972E+03  0.26410126055E+03  0.00000000000E+00 0.  1.
</event>
<event>
 4    1  0.3035432E+006  0.2877896E+02  0.7546771E-02  0.1430512E+00
         21   -1    0    0  504  501  0.00000000000E+00  0.00000000000E+00  0.28777897871E+02  0.28777897871E+02  0.00000000000E+00 0.  1.
         21   -1    0    0  503  502 -0.00000000000E+00 -0.00000000000E+00 -0.29221885965E+02  0.29221885965E+02  0.00000000000E+00 0.  1.
         21    1    1    2  503  501  0.95319461092E+01 -0.27154572759E+02 -0.37879969493E+01  0.29027189655E+02  0.00000000000E+00 0.  1.
         21    1    1    2  504  502 -0.95319461092E+01  0.27154572759E+02  0.33440088553E+01  0.28972594181E+02  0.00000000000E+00 0.  1.
</event>
<event>
 4    1  0.3035432E+006  0.2043450E+02  0.7546771E-02  0.1527494E+00
         21   -1    0    0  503  501  0.00000000000E+00  0.00000000000E+00  0.11556582564E+02  0.11556582564E+02  0.00000000000E+00 0.  1.
         21   -1    0    0  501  502 -0.00000000000E+00 -0.00000000000E+00 -0.26565461076E+03  0.26565461076E+03  0.00000000000E+00 0.  1.
         21    1    1    2  503  504  0.32052118902E+01  0.20181560532E+02  0.17861180687E+01  0.20512410549E+02  0.00000000000E+00 0.  1.
         21    1    1    2  504  502 -0.32052118902E+01 -0.20181560532E+02 -0.25588414626E+03  0.25669878277E+03  0.00000000000E+00 0.  1.
</event>
<event>
 4    1  0.3035432E+006  0.2179328E+02  0.7546771E-02  0.1508233E+00
         21   -1    0    0  504  501  0.00000000000E+00  0.00000000000E+00  0.75241479601E+02  0.75241479601E+02  0.00000000000E+00 0.  1.
         21   -1    0    0  501  502 -0.00000000000E+00 -0.00000000000E+00 -0.29569089744E+02  0.29569089744E+02  0.00000000000E+00 0.  1.
         21    1    1    2  503  502  0.19046052129E+02 -0.10592219459E+02 -0.23640039921E+02  0.32152740198E+02  0.00000000000E+00 0.  1.
         21    1    1    2  504  503 -0.19046052129E+02  0.10592219459E+02  0.69312429777E+02  0.72657829147E+02  0.00000000000E+00 0.  1.
</event>
<event>
 4    1  0.3035432E+006  0.2124543E+02  0.7546771E-02  0.1515789E+00
         21   -1    0    0  503  501  0.00000000000E+00  0.00000000000E+00  0.18809694891E+02  0.18809694891E+02  0.00000000000E+00 0.  1.
         21   -1    0    0  504  502 -0.00000000000E+00 -0.00000000000E+00 -0.32670514237E+02  0.32670514237E+02  0.00000000000E+00 0.  1.
         21    1    1    2  503  502 -0.35947013063E+01 -0.20939110388E+02  0.63325531763E+01  0.22169110290E+02  0.00000000000E+00 0.  1.
         21    1    1    2  504  501  0.35947013063E+01  0.20939110388E+02 -0.20193372522E+02  0.29311098839E+02  0.00000000000E+00 0.  1.
</event>
<event>
 4    1  0.3035432E+006  0.2143450E+02  0.7546771E-02  0.1513151E+00
         21   -1    0    0  504  501  0.00000000000E+00  0.00000000000E+00  0.17375055385E+02  0.17375055385E+02  0.00000000000E+00 0. -1.
         21   -1    0    0  503  502 -0.00000000000E+00 -0.00000000000E+00 -0.10989993471E+03  0.10989993471E+03  0.00000000000E+00 0. -1.
         21    1    1    2  503  501  0.18505823859E+02  0.10815367889E+02 -0.10171826901E+03  0.10395212335E+03  0.00000000000E+00 0. -1.
         21    1    1    2  504  502 -0.18505823859E+02 -0.10815367889E+02  0.91933896829E+01  0.23322866744E+02  0.00000000000E+00 0. -1.
</event>
<event>
 4    1  0.3035432E+006  0.2242815E+02  0.7546771E-02  0.1499806E+00
         21   -1    0    0  503  501  0.00000000000E+00  0.00000000000E+00  0.49484516463E+02  0.49484516463E+02  0.00000000000E+00 0.  1.
         21   -1    0    0  504  502 -0.00000000000E+00 -0.00000000000E+00 -0.28171982945E+02  0.28171982945E+02  0.00000000000E+00 0. -1.
         21    1    1    2  503  502 -0.21597385021E+02  0.60477272298E+01 -0.20386232094E+02  0.30308752916E+02  0.00000000000E+00 0. -1.
         21    1    1    2  504  501  0.21597385021E+02 -0.60477272298E+01  0.41698765611E+02  0.47347746492E+02  0.00000000000E+00 0.  1.
</event>
<event>
 4    1  0.3035432E+006  0.2143833E+02  0.7546771E-02  0.1513098E+00
         21   -1    0    0  503  501  0.00000000000E+00  0.00000000000E+00  0.65702620538E+02  0.65702620538E+02  0.00000000000E+00 0.  1.
         21   -1    0    0  501  502 -0.00000000000E+00 -0.00000000000E+00 -0.55615594890E+02  0.55615594890E+02  0.00000000000E+00 0.  1.
         21    1    1    2  503  504  0.20637845532E+02  0.58035494393E+01  0.61759701808E+02  0.65374785825E+02  0.00000000000E+00 0.  1.
         21    1    1    2  504  502 -0.20637845532E+02 -0.58035494393E+01 -0.51672676159E+02  0.55943429603E+02  0.00000000000E+00 0.  1.
</event>
<event>
 4    1  0.3035432E+006  0.2729577E+02  0.7546771E-02  0.1444659E+00
         21   -1    0    0  504  501  0.00000000000E+00  0.00000000000E+00  0.71787609427E+03  0.71787609427E+03  0.00000000000E+00 0. -1.
         21   -1    0    0  503  502 -0.00000000000E+00 -0.00000000000E+00 -0.10684801601E+01  0.10684801601E+01  0.00000000000E+00 0. -1.
         21    1    1    2  503  501  0.25621972920E+02  0.94113562108E+01  0.41925148852E+03  0.42013910761E+03  0.00000000000E+00 0. -1.
         21    1    1    2  504  502 -0.25621972920E+02 -0.94113562108E+01  0.29755612559E+03  0.29880546681E+03  0.00000000000E+00 0. -1.
</event>
<event>
 4    1  0.3035432E+006  0.2657187E+02  0.7546771E-02  0.1451957E+00
         21   -1    0    0  503  501  0.00000000000E+00  0.00000000000E+00  0.12610942652E+02  0.12610942652E+02  0.00000000000E+00 0. -1.
         21   -1    0    0  504  502 -0.00000000000E+00 -0.00000000000E+00 -0.17232369374E+04  0.17232369374E+04  0.00000000000E+00 0. -1.
         21    1    1    2  503  502  0.26567999619E+02 -0.45369493952E+00 -0.17090210225E+04  0.17092275799E+04  0.00000000000E+00 0. -1.
         21    1    1    2  504  501 -0.26567999619E+02  0.45369493952E+00 -0.16049721895E+01  0.26620300122E+02  0.00000000000E+00 0. -1.
</event>
<event>
 4    1  0.3035432E+006  0.2433710E+02  0.7546771E-02  0.1476358E+00
         21   -1    0    0  504  501  0.00000000000E+00  0.00000000000E+00  0.32169131018E+02  0.32169131018E+02  0.00000000000E+00 0. -1.
         21   -1    0    0  503  502 -0.00000000000E+00 -0.00000000000E+00 -0.19726716001E+02  0.19726716001E+02  0.00000000000E+00 0.  1.
         21    1    1    2  503  501 -0.15408956647E+02 -0.18837690191E+02  0.12920196712E+02  0.27554055959E+02  0.00000000000E+00 0.  1.
         21    1    1    2  504  502  0.15408956647E+02  0.18837690191E+02 -0.47778169435E+00  0.24341791061E+02  0.00000000000E+00 0. -1.
</event>
<event>
 4    1  0.3035432E+006  0.2289095E+02  0.7546771E-02  0.1493872E+00
         21   -1    0    0  503  501  0.00000000000E+00  0.00000000000E+00  0.50586196899E+01  0.50586196899E+01  0.00000000000E+00 0. -1.
         21   -1    0    0  504  502 -0.00000000000E+00 -0.00000000000E+00 -0.10468797086E+03  0.10468797086E+03  0.00000000000E+00 0. -1.
         21    1    1    2  503  502  0.12414534543E+02 -0.19232130477E+02 -0.44181447714E+02  0.49759379344E+02  0.00000000000E+00 0. -1.
         21    1    1    2  504  501 -0.12414534543E+02  0.19232130477E+02 -0.55447903460E+02  0.59987211210E+02  0.00000000000E+00 0. -1.
</event>
<event>
 4    1  0.3035432E+006  0.2203386E+02  0.7546771E-02  0.1505000E+00
         21   -1    0    0  503  501  0.00000000000E+00  0.00000000000E+00  0.13860534193E+02  0.13860534193E+02  0.00000000000E+00 0.  1.
         21   -1    0    0  504  502 -0.00000000000E+00 -0.00000000000E+00 -0.89222125016E+02  0.89222125016E+02  0.00000000000E+00 0. -1.
         21    1    1    2  503  502  0.21377651497E+02 -0.53373188562E+01  0.24890368855E+01  0.22173999656E+02  0.00000000000E+00 0.  1.
         21    1    1    2  504  501 -0.21377651497E+02  0.53373188562E+01 -0.77850627708E+02  0.80908659553E+02  0.00000000000E+00 0. -1.
</event>
<event>
 4    1  0.3035432E+006  0.2141589E+02  0.7546771E-02  0.1513409E+00
         21   -1    0    0  503  501  0.00000000000E+00  0.00000000000E+00  0.72344639320E+01  0.72344639320E+01  0.00000000000E+00 0.  1.
         21   -1    0    0  504  502 -0.00000000000E+00 -0.00000000000E+00 -0.55252965365E+03  0.55252965365E+03  0.00000000000E+00 0. -1.
         21    1    1    2  503  502 -0.13575625694E+02  0.16563289718E+02 -0.93112612075E+01  0.23352510883E+02  0.00000000000E+00 0.  1.
         21    1    1    2  504  501  0.13575625694E+02 -0.16563289718E+02 -0.53598392851E+03  0.53641160670E+03  0.00000000000E+00 0. -1.
</event>
<event>
 4    1  0.3035432E+006  0.2403739E+02  0.7546771E-02  0.1479867E+00
         21   -1    0    0  502  501  0.00000000000E+00  0.00000000000E+00  0.39000318469E+01  0.39000318469E+01  0.00000000000E+00 0.  1.
         21   -1    0    0  503  502 -0.00000000000E+00 -0.00000000000E+00 -0.15367553629E+03  0.15367553629E+03  0.00000000000E+00 0. -1.
         21    1    1    2  503  504  0.19240150848E+02 -0.14408768902E+02 -0.89825329495E+02  0.92985944340E+02  0.00000000000E+00 0. -1.
         21    1    1    2  504  501 -0.19240150848E+02  0.14408768902E+02 -0.59950174949E+02  0.64589623797E+02  0.00000000000E+00 0.  1.
</event>
<event>
 4    1  0.3035432E+006  0.2009896E+02  0.7546771E-02  0.1532528E+00
         21   -1    0    0  504  501  0.00000000000E+00  0.00000000000E+00  0.39502125309E+02  0.39502125309E+02  0.00000000000E+00 0.  1.
         21   -1    0    0  501  502 -0.00000000000E+00 -0.00000000000E+00 -0.13160316895E+02  0.13160316895E+02  0.00000000000E+00 0.  1.
         21    1    1    2  503  502 -0.19631082406E+02  0.43114675968E+01  0.73850471245E+00  0.20112521933E+02  0.00000000000E+00 0.  1.
         21    1    1    2  504  503  0.19631082406E+02 -0.43114675968E+01  0.25603303701E+02  0.32549920272E+02  0.00000000000E+00 0.  1.
</event>
<event>
 4    1  0.3035432E+006  0.2280519E+02  0.7546771E-02  0.1494959E+00
         21   -1    0    0  504  501  0.00000000000E+00  0.00000000000E+00  0.10050639741E+02  0.10050639741E+02  0.00000000000E+00 0.  1.
         21   -1    0    0  503  502 -0.00000000000E+00 -0.00000000000E+00 -0.12841339603E+04  0.12841339603E+04  0.00000000000E+00 0. -1.
         21    1    1    2  503  501 -0.94722336715E+01  0.20744964353E+02 -0.12709622438E+04  0.12711668270E+04  0.00000000000E+00 0. -1.
         21    1    1    2  504  502  0.94722336715E+01 -0.20744964353E+02 -0.31210767209E+01  0.23017773060E+02  0.00000000000E+00 0.  1.
</event>
<event>
 4    1  0.3035432E+006  0.2118957E+02  0.7546771E-02  0.1516575E+00
         21   -1    0    0  503  501  0.00000000000E+00  0.00000000000E+00  0.31145204251E+01  0.31145204251E+01  0.00000000000E+00 0. -1.
         21   -1    0    0  504  502 -0.00000000000E+00 -0.00000000000E+00 -0.76381039309E+03  0.76381039309E+03  0.00000000000E+00 0.  1.
         21    1    1    2  503  502  0.12042454651E+02  0.17434942886E+02 -0.72573212841E+03  0.72604140388E+03  0.00000000000E+00 0.  1.
         21    1    1    2  504  501 -0.12042454651E+02 -0.17434942886E+02 -0.34963744257E+02  0.40883509633E+02  0.00000000000E+00 0. -1.
</event>
<event>
 4    1  0.3035432E+006  0.2377414E+02  0.7546771E-02  0.1482999E+00
         21   -1    0    0  504  501  0.00000000000E+00  0.00000000000E+00  0.18485713346E+02  0.18485713346E+02  0.00000000000E+00 0. -1.
         21   -1    0    0  501  502 -0.00000000000E+00 -0.00000000000E+00 -0.12772741237E+03  0.12772741237E+03  0.00000000000E+00 0.  1.
         21    1    1    2  503  502 -0.20973907904E+02  0.11193961760E+02 -0.11837963362E+03  0.12074331140E+03  0.00000000000E+00 0.  1.
         21    1    1    2  504  503  0.20973907904E+02 -0.11193961760E+02  0.91379345928E+01  0.25469814316E+02  0.00000000000E+00 0. -1.
</event>
<event>
 4    1  0.3035432E+006  0.2114787E+02  0.7546771E-02  0.1517164E+00
         21   -1    0    0  503  501  0.00000000000E+00  0.00000000000E+00  0.10761419591E+02  0.10761419591E+02  0.00000000000E+00 0. -1.
         21   -1    0    0  504  502 -0.00000000000E+00 -0.00000000000E+00 -0.11128802812E+03  0.11128802812E+03  0.00000000000E+00 0.  1.
         21    1    1    2  503  502  0.10284977803E+02  0.18478415720E+02 -0.98567934113E+02  0.10081106215E+03  0.00000000000E+00 0.  1.
         21    1    1    2  504  501 -0.10284977803E+02 -0.18478415720E+02 -0.19586744160E+01  0.21238385564E+02  0.00000000000E+00 0. -1.
</event>
<event>
 4    1  0.3035432E+006  0.2027168E+02  0.7546771E-02  0.1529922E+00
         21   -1    0    0  504  501  0.00000000000E+00  0.00000000000E+00  0.29929466858E+03  0.29929466858E+03  0.00000000000E+00 0. -1.
         21   -1    0    0  503  502 -0.00000000000E+00 -0.00000000000E+00 -0.58052497495E+02  0.58052497495E+02  0.00000000000E+00 0.  1.
         21    1    1    2  503  501 -0.15288694176E+02  0.13311534180E+02 -0.55926899810E+02  0.59487471238E+02  0.00000000000E+00 0.  1.
         21    1    1    2  504  502  0.15288694176E+02 -0.13311534180E+02  0.29716907089E+03  0.29785969483E+03  0.00000000000E+00 0. -1.
</event>
<event>
 4    1  0.3035432E+006  0.2440347E+02  0.7546771E-02  0.1475589E+00
         21   -1    0    0  504  501  0.00000000000E+00  0.00000000000E+00  0.14685655032E+01  0.14685655032E+01  0.00000000000E+00 0.  1.
         21   -1    0    0  501  502 -0.00000000000E+00 -0.00000000000E+00 -0.41217353223E+03  0.41217353223E+03  0.00000000000E+00 0.  1.
         21    1    1    2  503  502  0.23731075555E+02 -0.56890525144E+01 -0.17907058385E+03  0.18072576812E+03  0.00000000000E+00 0.  1.
         21    1    1    2  504  503 -0.23731075555E+02  0.56890525144E+01 -0.23163438288E+03  0.23291632961E+03  0.00000000000E+00 0.  1.
</event>
<event>
 4    1  0.3035432E+006  0.2080847E+02  0.7546771E-02  0.1522017E+00
         21   -1    0    0  502  501  0.00000000000E+00  0.00000000000E+00  0.27350629166E+03  0.27350629166E+03  0.00000000000E+00 0. -1.
         21   -1    0    0  504  502 -0.00000000000E+00 -0.00000000000E+00 -0.20082475433E+02  0.20082475433E+02  0.00000000000E+00 0. -1.
         21    1    1    2  503  501 -0.19016957692E+02 -0.84467487308E+01  0.26760158079E+03  0.26840938561E+03  0.00000000000E+00 0. -1.
         21    1    1    2  504  503  0.19016957692E+02  0.84467487308E+01 -0.14177764559E+02  0.25179381483E+02  0.00000000000E+00 0. -1.
</event>
<event>
 4    1  0.3035432E+006  0.2281392E+02  0.7546771E-02  0.1494848E+00
         21   -1    0    0  504  501  0.00000000000E+00  0.00000000000E+00  0.14104401187E+02  0.14104401187E+02  0.00000000000E+00 0. -1.
         21   -1    0    0  503  502 -0.00000000000E+00 -0.00000000000E+00 -0.37495660158E+02  0.37495660158E+02  0.00000000000E+00 0. -1.
         21    1    1    2  503  501 -0.17077024661E+02  0.15127794288E+02 -0.14943105545E+02  0.27272171432E+02  0.00000000000E+00 0. -1.
         21    1    1    2  504  502  0.17077024661E+02 -0.15127794288E+02 -0.84481534252E+01  0.24327889912E+02  0.00000000000E+00 0. -1.
</event>
<event>
 4    1  0.3035432E+006  0.3842853E+02  0.7546771E-02  0.1357949E+00
         21   -1    0    0  503  501  0.00000000000E+00  0.00000000000E+00  0.93067327661E+02  0.93067327661E+02  0.00000000000E+00 0.  1.
         21   -1    0    0  504  502 -0.00000000000E+00 -0.00000000000E+00 -0.17585744538E+02  0.17585744538E+02  0.00000000000E+00 0.  1.
         21    1    1    2  503  502  0.37149987149E+02 -0.98300840545E+01  0.20447125674E+02  0.43529726004E+02  0.00000000000E+00 0.  1.
         21    1    1    2  504  501 -0.37149987149E+02  0.98300840545E+01  0.55034457449E+02  0.67123346194E+02  0.00000000000E+00 0.  1.
</event>
<event>
 4    1  0.3035432E+006  0.3168285E+02  0.7546771E-02  0.1405515E+00
         21   -1    0    0  503  501  0.00000000000E+00  0.00000000000E+00  0.16459730095E+02  0.16459730095E+02  0.00000000000E+00 0. -1.
         21   -1    0    0  504  502 -0.00000000000E+00 -0.00000000000E+00 -0.61705394774E+02  0.61705394774E+02  0.00000000000E+00 0. -1.
         21    1    1    2  503  502 -0.30243865748E+02  0.94398945890E+01 -0.18401108982E+02  0.36638829635E+02  0.00000000000E+00 0. -1.
         21    1    1    2  504  501  0.30243865748E+02 -0.94398945890E+01 -0.26844555698E+02  0.41526295234E+02  0.00000000000E+00 0. -1.
</event>
<event>
 4    1  0.3035432E+006  0.3118685E+02  0.7546771E-02  0.1409556E+00
         21   -1    0    0  504  501  0.00000000000E+00  0.00000000000E+00  0.14567877107E+03  0.14567877107E+03  0.00000000000E+00 0.  1.
         21   -1    0    0  503  502 -0.00000000000E+00 -0.00000000000E+00 -0.12945279894E+02  0.12945279894E+02  0.00000000000E+00 0.  1.
         21    1    1    2  503  501  0.29216130096E+02  0.10910437847E+02  0.12155871311E+03  0.12549558018E+03  0.00000000000E+00 0.  1.
         21    1    1    2  504  502 -0.29216130096E+02 -0.10910437847E+02  0.11174778067E+02  0.33128470786E+02  0.00000000000E+00 0.  1.
</event>
<event>
 4    1  0.3035432E+006  0.2385278E+02  0.7546771E-02  0.1482059E+00
         21   -1    0    0  504  501  0.00000000000E+00  0.00000000000E+00  0.37461915426E+02  0.37461915426E+02  0.00000000000E+00 0. -1.
         21   -1    0    0  503  502 -0.00000000000E+00 -0.00000000000E+00 -0.55794328766E+03  0.55794328766E+03  0.00000000000E+00 0.  1.
         21    1    1    2  503  501  0.23270584111E+02  0.52378652815E+01  0.33382134589E+02  0.41028310071E+02  0.00000000000E+00 0. -1.
         21    1    1    2  504  502 -0.23270584111E+02 -0.52378652815E+01 -0.55386350682E+03  0.55437689301E+03  0.00000000000E+00 0.  1.
</event>
<event>
 4    1  0.3035432E+006  0.2177835E+02  0.7546771E-02  0.1508436E+00
         21   -1    0    0  503  501  0.00000000000E+00  0.00000000000E+00  0.60483210935E+01  0.60483210935E+01  0.00000000000E+00 0.  1.
         21   -1    0    0  504  502 -0.00000000000E+00 -0.00000000000E+00 -0.14163053210E+03  0.14163053210E+03  0.00000000000E+00 0.  1.
         21    1    1    2  503  502 -0.14804104575E+02  0.15972948866E+02 -0.11712118630E+03  0.11912879118E+03  0.00000000000E+00 0.  1.
         21    1    1    2  504  501  0.14804104575E+02 -0.15972948866E+02 -0.18461024706E+02  0.28550062013E+02  0.00000000000E+00 0.  1.
</event>
<event>
 4    1  0.3035432E+006  0.2273775E+02  0.7546771E-02  0.1495818E+00
         21   -1    0    0  502  501  0.00000000000E+00  0.00000000000E+00  0.97231921696E+02  0.97231921696E+02  0.00000000000E+00 0. -1.
         21   -1    0    0  504  502 -0.00000000000E+00 -0.00000000000E+00 -0.80201145735E+01  0.80201145735E+01  0.00000000000E+00 0. -1.
         21    1    1    2  503  501 -0.18410436959E+02  0.13343961148E+02  0.75156743205E+02  0.78520962407E+02  0.00000000000E+00 0. -1.
         21    1    1    2  504  503  0.18410436959E+02 -0.13343961148E+02  0.14055063918E+02  0.26731073863E+02  0.00000000000E+00 0. -1.
</event>
<event>
 4    1  0.3035432E+006  0.2810073E+02  0.7546771E-02  0.1436854E+00
         21   -1    0    0  502  501  0.00000000000E+00  0.00000000000E+00  0.24769287235E+02  0.24769287235E+02  0.00000000000E+00 0. -1.
         21   -1    0    0  503  502 -0.00000000000E+00 -0.00000000000E+00 -0.47857720460E+02  0.47857720460E+02  0.00000000000E+00 0. -1.
         21    1    1    2  503  504 -0.13154848975E+02 -0.24831446348E+02 -0.32526189524E+02  0.42983761867E+02  0.00000000000E+00 0. -1.
         21    1    1    2  504  501  0.13154848975E+02  0.24831446348E+02  0.94377562998E+01  0.29643245828E+02  0.00000000000E+00 0. -1.
</event>
<event>
 4    1  0.3035432E+006  0.2627165E+02  0.7546771E-02  0.1455065E+00
         21   -1    0    0  504  501  0.00000000000E+00  0.00000000000E+00  0.26562911612E+02  0.26562911612E+02  0.00000000000E+00 0.  1.
         21   -1    0    0  503  502 -0.00000000000E+00 -0.00000000000E+00 -0.37643984124E+02  0.37643984124E+02  0.00000000000E+00 0. -1.
         21    1    1    2  503  501  0.36880653043E+01 -0.26011494630E+02 -0.23407904573E+02  0.35187066873E+02  0.00000000000E+00 0. -1.
         21    1    1    2  504  502 -0.36880653043E+01  0.26011494630E+02  0.12326832062E+02  0.29019828864E+02  0.00000000000E+00 0.  1.
</event>
<event>
 4    1  0.3035432E+006  0.2535368E+02  0.7546771E-02  0.1464885E+00
         21   -1    0    0  504  501  0.00000000000E+00  0.00000000000E+00  0.46437586324E+03  0.46437586324E+03  0.00000000000E+00 0. -1.
         21   -1    0    0  503  502 -0.00000000000E+00 -0.00000000000E+00 -0.13985608942E+01  0.13985608942E+01  0.00000000000E+00 0. -1.
         21    1    1    2  503  501 -0.22433442653E+01  0.25254242146E+02  0.20792542953E+03  0.20946549498E+03  0.00000000000E+00 0. -1.
         21    1    1    2  504  502  0.22433442653E+01 -0.25254242146E+02  0.25505187281E+03  0.25630892915E+03  0.00000000000E+00 0. -1.
</event>
<event>
 4    1  0.3035432E+006  0.2326449E+02  0.7546771E-02  0.1489203E+00
         21   -1    0    0  502  501  0.00000000000E+00  0.00000000000E+00  0.27381297104E+01  0.27381297104E+01  0.00000000000E+00 0.  1.
         21   -1    0    0  503  502 -0.00000000000E+00 -0.00000000000E+00 -0.29678767006E+03  0.29678767006E+03  0.00000000000E+00 0.  1.
         21    1    1    2  503  504  0.16752124977E+01  0.23204102734E+02 -0.23357422971E+03  0.23472996721E+03  0.00000000000E+00 0.  1.
         21    1    1    2  504  501 -0.16752124977E+01 -0.23204102734E+02 -0.60475310641E+02  0.64795832564E+02  0.00000000000E+00 0.  1.
</event>
<event>
 4    1  0.3035432E+006  0.2203176E+02  0.7546771E-02  0.1505028E+00
         21   -1    0    0  503  501  0.00000000000E+00  0.00000000000E+00  0.28868496982E+03  0.28868496982E+03  0.00000000000E+00 0.  1.
         21   -1    0    0  504  502 -0.00000000000E+00 -0.00000000000E+00 -0.25446688952E+02  0.25446688952E+02  0.00000000000E+00 0. -1.
         21    1    1    2  503  502 -0.10643080730E+02 -0.19290493145E+02 -0.20168885814E+02  0.29869419951E+02  0.00000000000E+00 0. -1.
         21    1    1    2  504  501  0.10643080730E+02  0.19290493145E+02  0.28340716668E+03  0.28426223882E+03  0.00000000000E+00 0.  1.
</event>
<event>
 4    1  0.3035432E+006  0.2923549E+02  0.7546771E-02  0.1426358E+00
         21   -1    0    0  504  501  0.00000000000E+00  0.00000000000E+00  0.89384323530E+01  0.89384323530E+01  0.00000000000E+00 0.  1.
         21   -1    0    0  501  502 -0.00000000000E+00 -0.00000000000E+00 -0.19034086340E+03  0.19034086340E+03  0.00000000000E+00 0. -1.
         21    1    1    2  503  502 -0.61372753637E+01  0.28584051276E+02 -0.16098959723E+03  0.16362262849E+03  0.00000000000E+00 0. -1.
         21    1    1    2  504  503  0.61372753637E+01 -0.28584051276E+02 -0.20412833819E+02  0.35656667270E+02  0.00000000000E+00 0.  1.
</event>
<event>
 4    1  0.3035432E+006  0.3179099E+02  0.7546771E-02  0.1404646E+00
         21   -1    0    0  504  501  0.00000000000E+00  0.00000000000E+00  0.51334893445E+03  0.51334893445E+03  0.00000000000E+00 0. -1.
         21   -1    0    0  501  502 -0.00000000000E+00 -0.00000000000E+00 -0.12165977475E+02  0.12165977475E+02  0.00000000000E+00 0. -1.
         21    1    1    2  503  502 -0.27170922244E+02  0.16504796315E+02  0.10032197644E+02  0.33336351128E+02  0.00000000000E+00 0. -1.
         21    1    1    2  504  503  0.27170922244E+02 -0.16504796315E+02  0.49115075933E+03  0.49217856080E+03  0.00000000000E+00 0. -1.
</event>
<event>
 4    1  0.3035432E+006  0.3189499E+02  0.7546771E-02  0.1403814E+00
         21   -1    0    0  503  501  0.00000000000E+00  0.00000000000E+00  0.26939469214E+03  0.26939469214E+03  0.00000000000E+00 0. -1.
         21   -1    0    0  504  502 -0.00000000000E+00 -0.00000000000E+00 -0.31825717466E+03  0.31825717466E+03  0.00000000000E+00 0. -1.
         21    1    1    2  503  502 -0.29713404388E+02 -0.11593263314E+02 -0.31650881105E+03  0.31811180052E+03  0.00000000000E+00 0. -1.
         21    1    1    2  504  501  0.29713404388E+02  0.11593263314E+02  0.26764632854E+03  0.26954006629E+03  0.00000000000E+00 0. -1.
</event>
<event>
 4    1  0.3035432E+006  0.2090129E+02  0.7546771E-02  0.1520679E+00
         21   -1    0    0  504  501  0.00000000000E+00  0.00000000000E+00  0.31927679317E+02  0.31927679317E+02  0.00000000000E+00 0.  1.
         21   -1    0    0  501  502 -0.00000000000E+00 -0.00000000000E+00 -0.12643898569E+03  0.12643898569E+03  0.00000000000E+00 0. -1.
         21    1    1    2  503  502  0.30140767546E+01 -0.20682826841E+02 -0.12203182449E+03  0.12380884530E+03  0.00000000000E+00 0. -1.
         21    1    1    2  504  503 -0.30140767546E+01  0.20682826841E+02  0.27520518125E+02  0.34557819704E+02  0.00000000000E+00 0.  1.
</event>
<event>
 4    1  0.3035432E+006  0.4292070E+02  0.7546771E-02  0.1332171E+00
         21   -1    0    0  504  501  0.00000000000E+00  0.00000000000E+00  0.34977824486E+03  0.34977824486E+03  0.00000000000E+00 0. -1.
         21   -1    0    0  503  502 -0.00000000000E+00 -0.00000000000E+00 -0.38274174292E+02  0.38274174292E+02  0.00000000000E+00 0. -1.
         21    1    1    2  503  501 -0.25709659191E+02  0.34368591029E+02  0.33593488520E+03  0.33866566658E+03  0.00000000000E+00 0. -1.
         21    1    1    2  504  502  0.25709659191E+02 -0.34368591029E+02 -0.24430814639E+02  0.49386752566E+02  0.00000000000E+00 0. -1.
</event>
<event>
 4    1  0.3035432E+006  0.3075371E+02  0.7546771E-02  0.1413158E+00
         21   -1    0    0  503  501  0.00000000000E+00  0.00000000000E+00  0.18706239066E+01  0.18706239066E+01  0.00000000000E+00 0.  1.
         21   -1    0    0  501  502 -0.00000000000E+00 -0.00000000000E+00 -0.51640311331E+03  0.51640311331E+03  0.00000000000E+00 0.  1.
         21    1    1    2  503  504 -0.30606153963E+02  0.30090002057E+01 -0.21978846687E+03  0.22192963054E+03  0.00000000000E+00 0.  1.
         21    1    1    2  504  502  0.30606153963E+02 -0.30090002057E+01 -0.29474402254E+03  0.29634410668E+03  0.00000000000E+00 0.  1.
</event>
<event>
 4    1  0.3035432E+006  0.2202986E+02  0.7546771E-02  0.1505053E+00
         21   -1    0    0  503  501  0.00000000000E+00  0.00000000000E+00  0.66750125305E+02  0.66750125305E+02  0.00000000000E+00 0. -1.
         21   -1    0    0  501  502 -0.00000000000E+00 -0.00000000000E+00 -0.47159493933E+03  0.47159493933E+03  0.00000000000E+00 0. -1.
         21    1    1    2  503  504 -0.12919736494E+02 -0.17843627151E+02  0.64667138359E+02  0.68316567570E+02  0.00000000000E+00 0. -1.
         21    1    1    2  504  502  0.12919736494E+02  0.17843627151E+02 -0.46951195239E+03  0.47002849707E+03  0.00000000000E+00 0. -1.
</event>
<event>
 4    1  0.3035432E+006  0.2130833E+02  0.7546771E-02  0.1514908E+00
         21   -1    0    0  504  501  0.00000000000E+00  0.00000000000E+00  0.10680294598E+02  0.10680294598E+02  0.00000000000E+00 0. -1.
         21   -1    0    0  503  502 -0.00000000000E+00 -0.00000000000E+00 -0.49973958092E+02  0.49973958092E+02  0.00000000000E+00 0. -1.
         21    1    1    2  503  501 -0.21170317762E+02 -0.24213046664E+01 -0.79282828347E+01  0.22735495137E+02  0.00000000000E+00 0. -1.
         21    1    1    2  504  502  0.21170317762E+02  0.24213046664E+01 -0.31365380659E+02  0.37918757553E+02  0.00000000000E+00 0. -1.
</event>
<event>
 4    1  0.3035432E+006  0.2585634E+02  0.7546771E-02  0.1459447E+00
         21   -1    0    0  502  501  0.00000000000E+00  0.00000000000E+00  0.47535702599E+02  0.47535702599E+02  0.00000000000E+00 0.  1.
         21   -1    0    0  504  502 -0.00000000000E+00 -0.00000000000E+00 -0.20722682541E+02  0.20722682541E+02  0.00000000000E+00 0.  1.
         21    1    1    2  503  501 -0.21211331865E+02 -0.14786135944E+02  0.32752523757E+02  0.41728626003E+02  0.00000000000E+00 0.  1.
         21    1    1    2  504  503  0.21211331865E+02  0.14786135944E+02 -0.59395036993E+01  0.26529759137E+02  0.00000000000E+00 0.  1.
</event>
<event>
 4    1  0.3035432E+006  0.2603497E+02  0.7546771E-02  0.1457550E+00
         21   -1    0    0  504  501  0.00000000000E+00  0.00000000000E+00  0.20547541176E+03  0.20547541176E+03  0.00000000000E+00 0.  1.
         21   -1    0    0  503  502 -0.00000000000E+00 -0.00000000000E+00 -0.84340240610E+01  0.84340240610E+01  0.00000000000E+00 0.  1.
         21    1    1    2  503  501  0.11062203715E+02 -0.23567931435E+02  0.18197769042E+03  0.18383062735E+03  0.00000000000E+00 0.  1.
         21    1    1    2  504  502 -0.11062203715E+02  0.23567931435E+02  0.15063697283E+02  0.30078808470E+02  0.00000000000E+00 0.  1.
</event>
<event>
 4    1  0.3035432E+006  0.2101008E+02  0.7546771E-02  0.1519121E+00
         21   -1    0    0  504  501  0.00000000000E+00  0.00000000000E+00  0.16424235644E+02  0.16424235644E+02  0.00000000000E+00 0.  1.
         21   -1    0    0  503  502 -0.00000000000E+00 -0.00000000000E+00 -0.15989215393E+03  0.15989215393E+03  0.00000000000E+00 0. -1.
         21    1    1    2  503  501 -0.10521699793E+02 -0.18185638601E+02  0.86743116773E+01  0.22730316781E+02  0.00000000000E+00 0.  1.
         21    1    1    2  504  502  0.10521699793E+02  0.18185638601E+02 -0.15214222996E+03  0.15358607279E+03  0.00000000000E+00 0. -1.
</event>
<event>
 4    1  0.3035432E+006  0.3548128E+02  0.7546771E-02  0.1377211E+00
         21   -1    0    0  504  501  0.00000000000E+00  0.00000000000E+00  0.46097921084E+02  0.46097921084E+02  0.00000000000E+00 0. -1.
         21   -1    0    0  501  502 -0.00000000000E+00 -0.00000000000E+00 -0.34423923509E+03  0.34423923509E+03  0.00000000000E+00 0.  1.
         21    1    1    2  503  502 -0.27363517625E+02  0.22586702270E+02 -0.33633757310E+03  0.33820390934E+03  0.00000000000E+00 0.  1.
         21    1    1    2  504  503  0.27363517625E+02 -0.22586702270E+02  0.38196259095E+02  0.52133246830E+02  0.00000000000E+00 0. -1.
</event>
<event>
 4    1  0.3035432E+006  0.4454858E+02  0.7546771E-02  0.1323712E+00
         21   -1    0    0  504  501  0.00000000000E+00  0.00000000000E+00  0.17774375218E+03  0.17774375218E+03  0.00000000000E+00 0.  1.
         21   -1    0    0  501  502 -0.00000000000E+00 -0.00000000000E+00 -0.23195380958E+02  0.23195380958E+02  0.00000000000E+00 0.  1.
         21    1    1    2  503  502  0.30789345456E+02 -0.32196152167E+02  0.49195004028E+01  0.44819387459E+02  0.00000000000E+00 0.  1.
         21    1    1    2  504  503 -0.30789345456E+02  0.32196152167E+02  0.14962887082E+03  0.15611974568E+03  0.00000000000E+00 0.  1.
</event>
<event>
 4    1  0.3035432E+006  0.2254255E+02  0.7546771E-02  0.1498324E+00
         21   -1    0    0  503  501  0.00000000000E+00  0.00000000000E+00  0.37543795626E+01  0.37543795626E+01  0.00000000000E+00 0.  1.
         21   -1    0    0  504  502 -0.00000000000E+00 -0.00000000000E+00 -0.29662405453E+03  0.29662405453E+03  0.00000000000E+00 0.  1.
         21    1    1    2  503  502  0.20332405217E+02  0.97344669696E+01 -0.25717719848E+03  0.25816327773E+03  0.00000000000E+00 0.  1.
         21    1    1    2  504  501 -0.20332405217E+02 -0.97344669696E+01 -0.35692476484E+02  0.42215156362E+02  0.00000000000E+00 0.  1.
</event>
<event>
 4    1  0.3035432E+006  0.2009540E+02  0.7546771E-02  0.1532582E+00
         21   -1    0    0  502  501  0.00000000000E+00  0.00000000000E+00  0.22479986276E+02  0.22479986276E+02  0.00000000000E+00 0. -1.
         21   -1    0    0  503  502 -0.00000000000E+00 -0.00000000000E+00 -0.37552304100E+02  0.37552304100E+02  0.00000000000E+00 0. -1.
         21    1    1    2  503  504 -0.18517414968E+02  0.78057923638E+01 -0.29215082534E+02  0.35459076398E+02  0.00000000000E+00 0. -1.
         21    1    1    2  504  501  0.18517414968E+02 -0.78057923638E+01  0.14142764710E+02  0.24573213977E+02  0.00000000000E+00 0. -1.
</event>
<event>
 4    1  0.3035432E+006  0.2284895E+02  0.7546771E-02  0.1494404E+00
         21   -1    0    0  504  501  0.00000000000E+00  0.00000000000E+00  0.10950333211E+03  0.10950333211E+03  0.00000000000E+00 0. -1.
         21   -1    0    0  503  502 -0.00000000000E+00 -0.00000000000E+00 -0.11903452298E+02  0.11903452298E+02  0.00000000000E+00 0.  1.
         21    1    1    2  503  501 -0.54618652106E+01  0.22186534661E+02  0.95799922215E+02  0.98487051882E+02  0.00000000000E+00 0. -1.
         21    1    1    2  504  502  0.54618652106E+01 -0.22186534661E+02  0.17999575992E+01  0.22919732529E+02  0.00000000000E+00 0.  1.
</event>
<event>
 4    1  0.3035432E+006  0.2054128E+02  0.7546771E-02  0.1525916E+00
         21   -1    0    0  502  501  0.00000000000E+00  0.00000000000E+00  0.38924886178E+03  0.38924886178E+03  0.00000000000E+00 0.  1.
         21   -1    0    0  503  502 -0.00000000000E+00 -0.00000000000E+00 -0.10841131450E+01  0.10841131450E+01  0.00000000000E+00 0.  1.
         21    1    1    2  503  504  0.19134283058E+02 -0.74714984038E+01  0.19205066951E+03  0.19314606839E+03  0.00000000000E+00 0.  1.
         21    1    1    2  504  501 -0.19134283058E+02  0.74714984038E+01  0.19611407912E+03  0.19718690653E+03  0.00000000000E+00 0.  1.
</event>
<event>
 4    1  0.3035432E+006  0.2614295E+02  0.7546771E-02  0.1456413E+00
         21   -1    0    0  504  501  0.00000000000E+00  0.00000000000E+00  0.25191621355E+02  0.25191621355E+02  0.00000000000E+00 0. -1.
         21   -1    0    0  503  502 -0.00000000000E+00 -0.00000000000E+00 -0.27272367793E+02  0.27272367793E+02  0.00000000000E+00 0. -1.
         21    1    1    2  503  501 -0.18225539371E+02  0.18742555796E+02  0.85359672755E+00  0.26156878837E+02  0.00000000000E+00 0. -1.
         21    1    1    2  504  502  0.18225539371E+02 -0.18742555796E+02 -0.29343431661E+01  0.26307110311E+02  0.00000000000E+00 0. -1.
</event>
<event>
 4    1  0.3035432E+006  0.2224473E+02  0.7546771E-02  0.1502206E+00
         21   -1    0    0  504  501  0.00000000000E+00  0.00000000000E+00  0.16835477459E+03  0.16835477459E+03  0.00000000000E+00 0.  1.
         21   -1    0    0  501  502 -0.00000000000E+00 -0.00000000000E+00 -0.31416738789E+02  0.31416738789E+02  0.00000000000E+00 0. -1.
         21    1    1    2  503  502  0.21838976231E+02 -0.42293054876E+01 -0.26629611911E+02  0.34698186383E+02  0.00000000000E+00 0. -1.
         21    1    1    2  504  503 -0.21838976231E+02  0.42293054876E+01  0.16356764771E+03  0.16507332700E+03  0.00000000000E+00 0.  1.
</event>
<event>
 4    1  0.3035432E+006  0.2330080E+02  0.7546771E-02  0.1488755E+00
         21   -1    0    0  504  501  0.00000000000E+00  0.00000000000E+00  0.45655358827E+02  0.45655358827E+02  0.00000000000E+00 0.  1.
         21   -1    0    0  503  502 -0.00000000000E+00 -0.00000000000E+00 -0.13185264280E+03  0.13185264280E+03  0.00000000000E+00 0. -1.
         21    1    1    2  503  501 -0.16099560828E+02 -0.16844328991E+02 -0.12775569758E+03  0.12986318009E+03  0.00000000000E+00 0. -1.
         21    1    1    2  504  502  0.16099560828E+02  0.16844328991E+02  0.41558413607E+02  0.47644821540E+02  0.00000000000E+00 0.  1.
</event>
<event>
 4    1  0.3035432E+006  0.2122568E+02  0.7546771E-02  0.1516067E+00
         21   -1    0    0  504  501  0.00000000000E+00  0.00000000000E+00  0.30805624541E+02  0.30805624541E+02  0.00000000000E+00 0. -1.
         21   -1    0    0  501  502 -0.00000000000E+00 -0.00000000000E+00 -0.10193361291E+03  0.10193361291E+03  0.00000000000E+00 0. -1.
         21    1    1    2  503  502 -0.51623657299E+01  0.20588335553E+02 -0.96988175183E+02  0.99283612475E+02  0.00000000000E+00 0. -1.
         21    1    1    2  504  503  0.51623657299E+01 -0.20588335553E+02  0.25860186811E+02  0.33455624978E+02  0.00000000000E+00 0. -1.
</event>
<event>
 4    1  0.3035432E+006  0.2868161E+02  0.7546771E-02  0.1431410E+00
         21   -1    0    0  503  501  0.00000000000E+00  0.00000000000E+00  0.43992521753E+03  0.43992521753E+03  0.00000000000E+00 0.  1.
         21   -1    0    0  504  502 -0.00000000000E+00 -0.00000000000E+00 -0.65786886482E+01  0.65786886482E+01  0.00000000000E+00 0.  1.
         21    1    1    2  503  502  0.26852065110E+02  0.10079760580E+02  0.40554989545E+03  0.40656285206E+03  0.00000000000E+00 0.  1.
         21    1    1    2  504  501 -0.26852065110E+02 -0.10079760580E+02  0.27796633428E+02  0.39941054117E+02  0.00000000000E+00 0.  1.
</event>
<event>
 4    1  0.3035432E+006  0.2054107E+02  0.7546771E-02  0.1525919E+00
         21   -1    0    0  504  501  0.00000000000E+00  0.00000000000E+00  0.13896783705E+03  0.13896783705E+03  0.00000000000E+00 0.  1.
         21   -1    0    0  501  502 -0.00000000000E+00 -0.00000000000E+00 -0.11739338926E+03  0.11739338926E+03  0.00000000000E+00 0.  1.
         21    1    1    2  503  502  0.16765468083E+02 -0.11868225127E+02 -0.11572492694E+03  0.11753380111E+03  0.00000000000E+00 0.  1.
         21    1    1    2  504  503 -0.16765468083E+02  0.11868225127E+02  0.13729937473E+03  0.13882742520E+03  0.00000000000E+00 0.  1.
</event>
<event>
 4    1  0.3035432E+006  0.2766209E+02  0.7546771E-02  0.1441068E+00
         21   -1    0    0  504  501  0.00000000000E+00  0.00000000000E+00  0.42836414338E+02  0.42836414338E+02  0.00000000000E+00 0. -1.
         21   -1    0    0  501  502 -0.00000000000E+00 -0.00000000000E+00 -0.56001397513E+02  0.56001397513E+02  0.00000000000E+00 0. -1.
         21    1    1    2  503  502  0.21794517823E+02  0.17034971121E+02 -0.47365037374E+02  0.54851052986E+02  0.00000000000E+00 0. -1.
         21    1    1    2  504  503 -0.21794517823E+02 -0.17034971121E+02  0.34200054199E+02  0.43986758865E+02  0.00000000000E+00 0. -1.
</event>
<event>
 4    1  0.3035432E+006  0.2055616E+02  0.7546771E-02  0.1525697E+00
         21   -1    0    0  503  501  0.00000000000E+00  0.00000000000E+00  0.59066954758E+03  0.59066954758E+03  0.00000000000E+00 0.  1.
         21   -1    0    0  504  502 -0.00000000000E+00 -0.00000000000E+00 -0.10130907352E+03  0.10130907352E+03  0.00000000000E+00 0. -1.
         21    1    1    2  503  502  0.10421080130E+02 -0.17718831769E+02 -0.10008532364E+03  0.10217449740E+03  0.00000000000E+00 0. -1.
         21    1    1    2  504  501 -0.10421080130E+02  0.17718831769E+02  0.58944579770E+03  0.58980412370E+03  0.00000000000E+00 0.  1.
</event>
<event>
 4    1  0.3035432E+006  0.3374415E+02  0.7546771E-02  0.1389614E+00
         21   -1    0    0  503  501  0.00000000000E+00  0.00000000000E+00  0.31764156429E+03  0.31764156429E+03  0.00000000000E+00 0. -1.
         21   -1    0    0  504  502 -0.00000000000E+00 -0.00000000000E+00 -0.58103669855E+01  0.58103669855E+01  0.00000000000E+00 0. -1.
         21    1    1    2  503  502  0.32769881895E+02  0.80499897205E+01  0.55822853078E+02  0.65229275787E+02  0.00000000000E+00 0. -1.
         21    1    1    2  504  501 -0.32769881895E+02 -0.80499897205E+01  0.25600834423E+03  0.25822265549E+03  0.00000000000E+00 0. -1.
</event>
<event>
 4    1  0.3035432E+006  0.2875276E+02  0.7546771E-02  0.1430754E+00
         21   -1    0    0  503  501  0.00000000000E+00  0.00000000000E+00  0.32804309256E+01  0.32804309256E+01  0.00000000000E+00 0. -1.
         21   -1    0    0  504  502 -0.00000000000E+00 -0.00000000000E+00 -0.40746571450E+03  0.40746571450E+03  0.00000000000E+00 0.  1.
         21    1    1    2  503  502 -0.20551022006E+01 -0.28679225592E+02 -0.75241966845E+02  0.80548587824E+02  0.00000000000E+00 0. -1.
         21    1    1    2  504  501  0.20551022006E+01  0.28679225592E+02 -0.32894331673E+03  0.33019755760E+03  0.00000000000E+00 0.  1.
</event>
<event>
 4    1  0.3035432E+006  0.2674863E+02  0.7546771E-02  0.1450150E+00
         21   -1    0    0  504  501  0.00000000000E+00  0.00000000000E+00  0.20102333178E+02  0.20102333178E+02  0.00000000000E+00 0.  1.
         21   -1    0    0  501  502 -0.00000000000E+00 -0.00000000000E+00 -0.45738437336E+02  0.45738437336E+02  0.00000000000E+00 0.  1.
         21    1    1    2  503  502  0.23761636256E+02  0.12283063546E+02 -0.28323125744E+02  0.38957521219E+02  0.00000000000E+00 0.  1.
         21    1    1    2  504  503 -0.23761636256E+02 -0.12283063546E+02  0.26870215856E+01  0.26883249295E+02  0.00000000000E+00 0.  1.
</event>
<event>
 4    1  0.3035432E+006  0.8641948E+02  0.7546771E-02  0.1189680E+00
         21   -1    0    0  504  501  0.00000000000E+00  0.00000000000E+00  0.89441359464E+03  0.89441359464E+03  0.00000000000E+00 0. -1.
         21   -1    0    0  503  502 -0.00000000000E+00 -0.00000000000E+00 -0.95963379877E+01  0.95963379877E+01  0.00000000000E+00 0. -1.
         21    1    1    2  503  501 -0.26005189947E+01 -0.86380341061E+02  0.60530586256E+03  0.61144379404E+03  0.00000000000E+00 0. -1.
         21    1    1    2  504  502  0.26005189947E+01  0.86380341061E+02  0.27951139410E+03  0.29256613860E+03  0.00000000000E+00 0. -1.
</event>
<event>
 4    1  0.3035432E+006  0.2357160E+02  0.7546771E-02  0.1485443E+00
         21   -1    0    0  502  501  0.00000000000E+00  0.00000000000E+00  0.11609540631E+03  0.11609540631E+03  0.00000000000E+00 0.  1.
         21   -1    0    0  503  502 -0.00000000000E+00 -0.00000000000E+00 -0.97383226053E+01  0.97383226053E+01  0.00000000000E+00 0.  1.
         21    1    1    2  503  504  0.20704242562E+02 -0.11267406604E+02  0.83108035455E+01  0.24993790574E+02  0.00000000000E+00 0.  1.
         21    1    1    2  504  501 -0.20704242562E+02  0.11267406604E+02  0.98046280157E+02  0.10083993834E+03  0.00000000000E+00 0.  1.
</event>
<event>
 4    1  0.3035432E+006  0.2011086E+02  0.7546771E-02  0.1532348E+00
         21   -1    0    0  502  501  0.00000000000E+00  0.00000000000E+00  0.41314602767E+02  0.41314602767E+02  0.00000000000E+00 0.  1.
         21   -1    0    0  503  502 -0.00000000000E+00 -0.00000000000E+00 -0.37432214975E+02  0.37432214975E+02  0.00000000000E+00 0.  1.
         21    1    1    2  503  504 -0.19563281540E+02 -0.46609555517E+01 -0.31894192171E+02  0.37705251432E+02  0.00000000000E+00 0.  1.
         21    1    1    2  504  501  0.19563281540E+02  0.46609555517E+01  0.35776579964E+02  0.41041566310E+02  0.00000000000E+00 0.  1.
</event>
<event>
 4    1  0.3035432E+006  0.2406482E+02  0.7546771E-02  0.1479543E+00
         21   -1    0    0  503  501  0.00000000000E+00  0.00000000000E+00  0.13167474189E+01  0.13167474189E+01  0.00000000000E+00 0.  1.
         21   -1    0    0  504  502 -0.00000000000E+00 -0.00000000000E+00 -0.75605679025E+03  0.75605679025E+03  0.00000000000E+00 0. -1.
         21    1    1    2  503  502 -0.20825436864E+02  0.12058890570E+02 -0.62228624828E+03  0.62275138736E+03  0.00000000000E+00 0. -1.
         21    1    1    2  504  501  0.20825436864E+02 -0.12058890570E+02 -0.13245379455E+03  0.13462215030E+03  0.00000000000E+00 0.  1.
</event>
<event>
 4    1  0.3035432E+006  0.3078516E+02  0.7546771E-02  0.1412894E+00
         21   -1    0    0  503  501  0.00000000000E+00  0.00000000000E+00  0.13934161300E+03  0.13934161300E+03  0.00000000000E+00 0. -1.
         21   -1    0    0  504  502 -0.00000000000E+00 -0.00000000000E+00 -0.92458542480E+01  0.92458542480E+01  0.00000000000E+00 0.  1.
         21    1    1    2  503  502  0.29603910196E+02  0.84459932991E+01  0.26847791969E+02  0.40847646631E+02  0.00000000000E+00 0.  1.
         21    1    1    2  504  501 -0.29603910196E+02 -0.84459932991E+01  0.10324796679E+03  0.10773982062E+03  0.00000000000E+00 0. -1.
</event>
<event>
 4    1  0.3035432E+006  0.2024834E+02  0.7546771E-02  0.1530273E+00
         21   -1    0    0  503  501  0.00000000000E+00  0.00000000000E+00  0.19003783713E+02  0.19003783713E+02  0.00000000000E+00 0. -1.
         21   -1    0    0  504  502 -0.00000000000E+00 -0.00000000000E+00 -0.24647227204E+02  0.24647227204E+02  0.00000000000E+00 0. -1.
         21    1    1    2  503  502  0.19776737607E+02  0.43446216570E+01  0.48846486626E+01  0.20829183380E+02  0.00000000000E+00 0. -1.
         21    1    1    2  504  501 -0.19776737607E+02 -0.43446216570E+01 -0.10528092154E+02  0.22821827537E+02  0.00000000000E+00 0. -1.
</event>
<event>
 4    1  0.3035432E+006  0.4327667E+02  0.7546771E-02  0.1330285E+00
         21   -1    0    0  503  501  0.00000000000E+00  0.00000000000E+00  0.22406094195E+03  0.22406094195E+03  0.00000000000E+00 0. -1.
         21   -1    0    0  501  502 -0.00000000000E+00 -0.00000000000E+00 -0.54470143969E+03  0.54470143969E+03  0.00000000000E+00 0. -1.
         21    1    1    2  503  504 -0.38401302772E+02 -0.19955201737E+02  0.22110026577E+03  0.22529580034E+03  0.00000000000E+00 0. -1.
         21    1    1    2  504  502  0.38401302772E+02  0.19955201737E+02 -0.54174076351E+03  0.54346658129E+03  0.00000000000E+00 0. -1.
</event>
<event>
 4    1  0.3035432E+006  0.2324557E+02  0.7546771E-02  0.1489437E+00
         21   -1    0    0  502  501  0.00000000000E+00  0.00000000000E+00  0.11174838615E+02  0.11174838615E+02  0.00000000000E+00 0.  1.
         21   -1    0    0  503  502 -0.00000000000E+00 -0.00000000000E+00 -0.41862067121E+03  0.41862067121E+03  0.00000000000E+00 0.  1.
         21    1    1    2  503  504 -0.13876450159E+02 -0.18649410509E+02 -0.40582855116E+03  0.40649375065E+03  0.00000000000E+00 0.  1.
         21    1    1    2  504  501  0.13876450159E+02  0.18649410509E+02 -0.16172814333E+01  0.23301759173E+02  0.00000000000E+00 0.  1.
</event>
<event>
 4    1  0.3035432E+006  0.2515468E+02  0.7546771E-02  0.1467080E+00
         21   -1    0    0  502  501  0.00000000000E+00  0.00000000000E+00  0.49158004345E+02  0.49158004345E+02  0.00000000000E+00 0.  1.
         21   -1    0    0  503  502 -0.00000000000E+00 -0.00000000000E+00 -0.90152578577E+02  0.90152578577E+02  0.00000000000E+00 0.  1.
         21    1    1    2  503  504 -0.23131115442E+02 -0.98848157085E+01 -0.84988483545E+02  0.88632953343E+02  0.00000000000E+00 0.  1.
         21    1    1    2  504  501  0.23131115442E+02  0.98848157085E+01  0.43993909312E+02  0.50677629579E+02  0.00000000000E+00 0.  1.
</event>
<event>
 4    1  0.3035432E+006  0.2426864E+02  0.7546771E-02  0.1477154E+00
         21   -1    0    0  502  501  0.00000000000E+00  0.00000000000E+00  0.49236262195E+01  0.49236262195E+01  0.00000000000E+00 0. -1.
         21   -1    0    0  504  502 -0.00000000000E+00 -0.00000000000E+00 -0.15775187656E+03  0.15775187656E+03  0.00000000000E+00 0. -1.
         21    1    1    2  503  501 -0.24128017778E+02 -0.26087494059E+01 -0.36424629902E+02  0.43768944228E+02  0.00000000000E+00 0. -1.
         21    1    1    2  504  503  0.24128017778E+02  0.26087494059E+01 -0.11640362044E+03  0.11890655856E+03  0.00000000000E+00 0. -1.
</event>
<event>
 4    1  0.3035432E+006  0.3595655E+02  0.7546771E-02  0.1373960E+00
         21   -1    0    0  504  501  0.00000000000E+00  0.00000000000E+00  0.48201232971E+02  0.48201232971E+02  0.00000000000E+00 0. -1.
         21   -1    0    0  503  502 -0.00000000000E+00 -0.00000000000E+00 -0.44028228700E+02  0.44028228700E+02  0.00000000000E+00 0.  1.
         21    1    1    2  503  501 -0.31502053917E+02 -0.17334772903E+02  0.30914309176E+02  0.47419070682E+02  0.00000000000E+00 0. -1.
         21    1    1    2  504  502  0.31502053917E+02  0.17334772903E+02 -0.26741304904E+02  0.44810390988E+02  0.00000000000E+00 0.  1.
</event>
<event>
 4    1  0.3035432E+006  0.2176142E+02  0.7546771E-02  0.1508666E+00
         21   -1    0    0  502  501  0.00000000000E+00  0.00000000000E+00  0.39208427765E+02  0.39208427765E+02  0.00000000000E+00 0.  1.
         21   -1    0    0  504  502 -0.00000000000E+00 -0.00000000000E+00 -0.55014868172E+02  0.55014868172E+02  0.00000000000E+00 0. -1.
         21    1    1    2  503  501  0.11349917009E+02  0.18567141547E+02  0.33716910856E+02  0.40129657848E+02  0.00000000000E+00 0.  1.
         21    1    1    2  504  503 -0.11349917009E+02 -0.18567141547E+02 -0.49523351263E+02  0.54093638088E+02  0.00000000000E+00 0. -1.
</event>
<event>
 4    1  0.3035432E+006  0.3167123E+02  0.7546771E-02  0.1405609E+00
         21   -1    0    0  503  501  0.00000000000E+00  0.00000000000E+00  0.26007065085E+02  0.26007065085E+02  0.00000000000E+00 0.  1.
         21   -1    0    0  504  502 -0.00000000000E+00 -0.00000000000E+00 -0.76179046491E+02  0.76179046491E+02  0.00000000000E+00 0.  1.
         21    1    1    2  503  502  0.17445327867E+00 -0.31670744960E+02  0.10814140914E+02  0.33466582795E+02  0.00000000000E+00 0.  1.
         21    1    1    2  504  501 -0.17445327867E+00  0.31670744960E+02 -0.60986122320E+02  0.68719528781E+02  0.00000000000E+00 0.  1.
</event>
<event>
 4    1  0.3035432E+006  0.3931526E+02  0.7546771E-02  0.1352546E+00
         21   -1    0    0  503  501  0.00000000000E+00  0.00000000000E+00  0.81134314410E+01  0.81134314410E+01  0.00000000000E+00 0.  1.
         21   -1    0    0  504  502 -0.00000000000E+00 -0.00000000000E+00 -0.28423279171E+03  0.28423279171E+03  0.00000000000E+00 0. -1.
         21    1    1    2  503  502  0.25970843882E+02 -0.29516176028E+02 -0.22199662093E+03  0.22545107913E+03  0.00000000000E+00 0. -1.
         21    1    1    2  504  501 -0.25970843882E+02  0.29516176028E+02 -0.54122739340E+02  0.66895144016E+02  0.00000000000E+00 0.  1.
</event>
<event>
 4    1  0.3035432E+006  0.2376470E+02  0.7546771E-02  0.1483113E+00
         21   -1    0    0  502  501  0.00000000000E+00  0.00000000000E+00  0.16494622922E+02  0.16494622922E+02  0.00000000000E+00 0. -1.
         21   -1    0    0  504  502 -0.00000000000E+00 -0.00000000000E+00 -0.36694091452E+02  0.36694091452E+02  0.00000000000E+00 0. -1.
         21    1    1    2  503  501 -0.16408118341E+01  0.23707992110E+02 -0.32208843816E+01  0.23981977599E+02  0.00000000000E+00 0. -1.
         21    1    1    2  504  503  0.16408118341E+01 -0.23707992110E+02 -0.16978584148E+02  0.29206736775E+02  0.00000000000E+00 0. -1.
</event>
<event>
 4    1  0.3035432E+006  0.2504678E+02  0.7546771E-02  0.1468281E+00
         21   -1    0    0  504  501  0.00000000000E+00  0.00000000000E+00  0.31367080144E+02  0.31367080144E+02  0.00000000000E+00 0.  1.
         21   -1    0    0  503  502 -0.00000000000E+00 -0.00000000000E+00 -0.20061645758E+02  0.20061645758E+02  0.00000000000E+00 0.  1.
         21    1    1    2  503  501 -0.69014386471E+01  0.24077199255E+02  0.70782236358E+01  0.26027728084E+02  0.00000000000E+00 0.  1.
         21    1    1    2  504  502  0.69014386471E+01 -0.24077199255E+02  0.42272107503E+01  0.25400997817E+02  0.00000000000E+00 0.  1.
</event>
<event>
 4    1  0.3035432E+006  0.3043953E+02  0.7546771E-02  0.1415815E+00
         21   -1    0    0  503  501  0.00000000000E+00  0.00000000000E+00  0.26041437951E+03  0.26041437951E+03  0.00000000000E+00 0. -1.
         21   -1    0    0  504  502 -0.00000000000E+00 -0.00000000000E+00 -0.35989874390E+01  0.35989874390E+01  0.00000000000E+00 0. -1.
         21    1    1    2  503  502  0.22057020579E+02 -0.20977437553E+02  0.11432733645E+03  0.11831020625E+03  0.00000000000E+00 0. -1.
         21    1    1    2  504  501 -0.22057020579E+02  0.20977437553E+02  0.14248805563E+03  0.14570316070E+03  0.00000000000E+00 0. -1.
</event>
<event>
 4    1  0.3035432E+006  0.5975603E+02  0.7546771E-02  0.1260664E+00
         21   -1    0    0  503  501  0.00000000000E+00  0.00000000000E+00  0.35503418017E+03  0.35503418017E+03  0.00000000000E+00 0. -1.
         21   -1    0    0  504  502 -0.00000000000E+00 -0.00000000000E+00 -0.66091426886E+02  0.66091426886E+02  0.00000000000E+00 0.  1.
         21    1    1    2  503  502  0.74451686359E+01  0.59290405328E+02 -0.49409212750E+02  0.77537429700E+02  0.00000000000E+00 0.  1.
         21    1    1    2  504  501 -0.74451686359E+01 -0.59290405328E+02  0.33835196604E+03  0.34358817736E+03  0.00000000000E+00 0. -1.
</event>
<event>
 4    1  0.3035432E+006  0.4431235E+02  0.7546771E-02  0.1324914E+00
         21   -1    0    0  503  501  0.00000000000E+00  0.00000000000E+00  0.23274509259E+02  0.23274509259E+02  0.00000000000E+00 0.  1.
         21   -1    0    0  504  502 -0.00000000000E+00 -0.00000000000E+00 -0.86141237745E+02  0.86141237745E+02  0.00000000000E+00 0.  1.
         21    1    1    2  503  502 -0.39284315545E+02 -0.20501866471E+02 -0.23580335678E+02  0.50195778779E+02  0.00000000000E+00 0.  1.
         21    1    1    2  504  501  0.39284315545E+02  0.20501866471E+02 -0.39286392809E+02  0.59219968225E+02  0.00000000000E+00 0.  1.
</event>
<event>
 4    1  0.3035432E+006  0.3079888E+02  0.7546771E-02  0.1412779E+00
         21   -1    0    0  502  501  0.00000000000E+00  0.00000000000E+00  0.26342150445E+02  0.26342150445E+02  0.00000000000E+00 0. -1.
         21   -1    0    0  504  502 -0.00000000000E+00 -0.00000000000E+00 -0.13051058456E+03  0.13051058456E+03  0.00000000000E+00 0. -1.
         21    1    1    2  503  501 -0.30186904510E+02  0.61091447616E+01  0.14651349387E+02  0.34106200206E+02  0.00000000000E+00 0. -1.
         21    1    1    2  504  503  0.30186904510E+02 -0.61091447616E+01 -0.11881978350E+03  0.12274653480E+03  0.00000000000E+00 0. -1.
</event>
<event>
 4    1  0.3035432E+006  0.3302304E+02  0.7546771E-02  0.1395021E+00
         21   -1    0    0  503  501  0.00000000000E+00  0.00000000000E+00  0.99643514599E+01  0.99643514599E+01  0.00000000000E+00 0.  1.
         21   -1    0    0  501  502 -0.00000000000E+00 -0.00000000000E+00 -0.49081271063E+03  0.49081271063E+03  0.00000000000E+00 0. -1.
         21    1    1    2  503  504 -0.33023026082E+02  0.31959732632E-01 -0.19710096885E+02  0.38457888557E+02  0.00000000000E+00 0.  1.
         21    1    1    2  504  502  0.33023026082E+02 -0.31959732632E-01 -0.46113826229E+03  0.46231917354E+03  0.00000000000E+00 0. -1.
</event>
<event>
 4    1  0.3035432E+006  0.2188820E+02  0.7546771E-02  0.1506952E+00
         21   -1    0    0  502  501  0.00000000000E+00  0.00000000000E+00  0.54098287571E+01  0.54098287571E+01  0.00000000000E+00 0.  1.
         21   -1    0    0  504  502 -0.00000000000E+00 -0.00000000000E+00 -0.28888929918E+03  0.28888929918E+03  0.00000000000E+00 0. -1.
         21    1    1    2  503  501  0.19611189175E+02  0.97208348584E+01 -0.19203170493E+02  0.29117951991E+02  0.00000000000E+00 0.  1.
         21    1    1    2  504  503 -0.19611189175E+02 -0.97208348584E+01 -0.26427629993E+03  0.26518117595E+03  0.00000000000E+00 0. -1.
</event>
<event>
 4    1  0.3035432E+006  0.2191830E+02  0.7546771E-02  0.1506547E+00
         21   -1    0    0  503  501  0.00000000000E+00  0.00000000000E+00  0.59194759344E+03  0.59194759344E+03  0.00000000000E+00 0.  1.
         21   -1    0    0  504  502 -0.00000000000E+00 -0.00000000000E+00 -0.21571506112E+01  0.21571506112E+01  0.00000000000E+00 0.  1.
         21    1    1    2  503  502  0.21263408869E+02  0.53178148228E+01  0.60285317619E+02  0.64146170826E+02  0.00000000000E+00 0.  1.
         21    1    1    2  504  501 -0.21263408869E+02 -0.53178148228E+01  0.52950512521E+03  0.52995857322E+03  0.00000000000E+00 0.  1.
</event>
<event>
 4    1  0.3035432E+006  0.2019452E+02  0.7546771E-02  0.1531083E+00
         21   -1    0    0  503  501  0.00000000000E+00  0.00000000000E+00  0.85933005894E+00  0.85933005894E+00  0.00000000000E+00 0.  1.
         21   -1    0    0  504  502 -0.00000000000E+00 -0.00000000000E+00 -0.53599800825E+03  0.53599800825E+03  0.00000000000E+00 0.  1.
         21    1    1    2  503  502  0.10553963385E+02  0.17217218575E+02 -0.17670283546E+03  0.17785305962E+03  0.00000000000E+00 0.  1.
         21    1    1    2  504  501 -0.10553963385E+02 -0.17217218575E+02 -0.35843584274E+03  0.35900427869E+03  0.00000000000E+00 0.  1.
</event>
<event>
 4    1  0.3035432E+006  0.2783092E+02  0.7546771E-02  0.1439435E+00
         21   -1    0    0  504  501  0.00000000000E+00  0.00000000000E+00  0.70291326981E+03  0.70291326981E+03  0.00000000000E+00 0.  1.
         21   -1    0    0  503  502 -0.00000000000E+00 -0.00000000000E+00 -0.23264639580E+01  0.23264639580E+01  0.00000000000E+00 0.  1.
         21    1    1    2  503  501  0.24574730987E+02  0.13063018616E+02  0.94467584184E+02  0.98481898439E+02  0.00000000000E+00 0.  1.
         21    1    1    2  504  502 -0.24574730987E+02 -0.13063018616E+02  0.60611922167E+03  0.60675783533E+03  0.00000000000E+00 0.  1.
</event>
<event>
 4    1  0.3035432E+006  0.2435820E+02  0.7546771E-02  0.1476113E+00
         21   -1    0    0  503  501  0.00000000000E+00  0.00000000000E+00  0.15718838199E+02  0.15718838199E+02  0.00000000000E+00 0.  1.
         21   -1    0    0  504  502 -0.00000000000E+00 -0.00000000000E+00 -0.65211105491E+02  0.65211105491E+02  0.00000000000E+00 0.  1.
         21    1    1    2  503  502 -0.17164619310E+02  0.17282872081E+02  0.15147794707E+01  0.24405253129E+02  0.00000000000E+00 0.  1.
         21    1    1    2  504  501  0.17164619310E+02 -0.17282872081E+02 -0.51007046763E+02  0.56524690561E+02  0.00000000000E+00 0.  1.
</event>
<event>
 4    1  0.3035432E+006  0.2497100E+02  0.7546771E-02  0.1469128E+00
         21   -1    0    0  504  501  0.00000000000E+00  0.00000000000E+00  0.35570153995E+03  0.35570153995E+03  0.00000000000E+00 0. -1.
         21   -1    0    0  503  502 -0.00000000000E+00 -0.00000000000E+00 -0.19026087936E+01  0.19026087936E+01  0.00000000000E+00 0. -1.
         21    1    1    2  503  501  0.92479695774E+00 -0.24953866220E+02  0.12676315967E+03  0.12919926214E+03  0.00000000000E+00 0. -1.
         21    1    1    2  504  502 -0.92479695774E+00  0.24953866220E+02  0.22703577148E+03  0.22840488660E+03  0.00000000000E+00 0. -1.
</event>
<event>
 4    1  0.3035432E+006  0.2071662E+02  0.7546771E-02  0.1523349E+00
         21   -1    0    0  504  501  0.00000000000E+00  0.00000000000E+00  0.63624335505E+02  0.63624335505E+02  0.00000000000E+00 0. -1.
         21   -1    0    0  503  502 -0.00000000000E+00 -0.00000000000E+00 -0.67509069873E+01  0.67509069873E+01  0.00000000000E+00 0. -1.
         21    1    1    2  503  501  0.17992018487E+02  0.10269654662E+02  0.29431706043E+02  0.35991719280E+02  0.00000000000E+00 0. -1.
         21    1    1    2  504  502 -0.17992018487E+02 -0.10269654662E+02  0.27441722475E+02  0.34383523213E+02  0.00000000000E+00 0. -1.
</event>
<event>
 4    1  0.3035432E+006  0.3917281E+02  0.7546771E-02  0.1353402E+00
         21   -1    0    0  504  501  0.00000000000E+00  0.00000000000E+00  0.92858262218E+02  0.92858262218E+02  0.00000000000E+00 0. -1.
         21   -1    0    0  503  502 -0.00000000000E+00 -0.00000000000E+00 -0.18905241938E+02  0.18905241938E+02  0.00000000000E+00 0. -1.
         21    1    1    2  503  501  0.23569230302E+02 -0.31288986148E+02  0.56803802981E+02  0.69001313787E+02  0.00000000000E+00 0. -1.
         21    1    1    2  504  502 -0.23569230302E+02  0.31288986148E+02  0.17149217299E+02  0.42762190369E+02  0.00000000000E+00 0. -1.
</event>
<event>
 4    1  0.3035432E+006  0.4260527E+02  0.7546771E-02  0.1333860E+00
         21   -1    0    0  504  501  0.00000000000E+00  0.00000000000E+00  0.56961032191E+02  0.56961032191E+02  0.00000000000E+00 0.  1.
         21   -1    0    0  503  502 -0.00000000000E+00 -0.00000000000E+00 -0.32542080145E+02  0.32542080145E+02  0.00000000000E+00 0.  1.
         21    1    1    2  503  501 -0.34162005103E+00  0.42603903296E+02  0.57665670953E+01  0.42993750433E+02  0.00000000000E+00 0.  1.
         21    1    1    2  504  502  0.34162005103E+00 -0.42603903296E+02  0.18652384951E+02  0.46509361903E+02  0.00000000000E+00 0.  1.
</event>
<event>
 4    1  0.3035432E+006  0.2138973E+02  0.7546771E-02  0.1513773E+00
         21   -1    0    0  502  501  0.00000000000E+00  0.00000000000E+00  0.32233288507E+02  0.32233288507E+02  0.00000000000E+00 0.  1.
         21   -1    0    0  504  502 -0.00000000000E+00 -0.00000000000E+00 -0.82689909153E+02  0.82689909153E+02  0.00000000000E+00 0.  1.
         21    1    1    2  503  501  0.18746428956E+02  0.10300099232E+02  0.27069515372E+02  0.34500424711E+02  0.00000000000E+00 0.  1.
         21    1    1    2  504  503 -0.18746428956E+02 -0.10300099232E+02 -0.77526136018E+02  0.80422772948E+02  0.00000000000E+00 0.  1.
</event>
<event>
 4    1  0.3035432E+006  0.2626036E+02  0.7546771E-02  0.1455183E+00
         21   -1    0    0  503  501  0.00000000000E+00  0.00000000000E+00  0.15540652009E+01  0.15540652009E+01  0.00000000000E+00 0.  1.
         21   -1    0    0  501  502 -0.00000000000E+00 -0.00000000000E+00 -0.46166125161E+03  0.46166125161E+03  0.00000000000E+00 0. -1.
         21    1    1    2  503  504  0.25051538035E+02  0.78757256619E+01 -0.18442566315E+03  0.18628588739E+03  0.00000000000E+00 0.  1.
         21    1    1    2  504  502 -0.25051538035E+02 -0.78757256619E+01 -0.27568152326E+03  0.27692942942E+03  0.00000000000E+00 0. -1.
</event>
<event>
 4    1  0.3035432E+006  0.2068289E+02  0.7546771E-02  0.1523841E+00
         21   -1    0    0  502  501  0.00000000000E+00  0.00000000000E+00  0.12288051228E+03  0.12288051228E+03  0.00000000000E+00 0. -1.
         21   -1    0    0  504  502 -0.00000000000E+00 -0.00000000000E+00 -0.12289175987E+02  0.12289175987E+02  0.00000000000E+00 0.  1.
         21    1    1    2  503  501  0.59809527173E+01  0.19799246832E+02  0.11251251530E+03  0.11439776252E+03  0.00000000000E+00 0. -1.
         21    1    1    2  504  503 -0.59809527173E+01 -0.19799246832E+02 -0.19211790045E+01  0.20771925748E+02  0.00000000000E+00 0.  1.
</event>
<event>
 4    1  0.3035432E+006  0.5273614E+02  0.7546771E-02  0.1286726E+00
         21   -1    0    0  504  501  0.00000000000E+00  0.00000000000E+00  0.25023714386E+02  0.25023714386E+02  0.00000000000E+00 0.  1.
         21   -1    0    0  503  502 -0.00000000000E+00 -0.00000000000E+00 -0.17286566049E+03  0.17286566049E+03  0.00000000000E+00 0.  1.
         21    1    1    2  503  501  0.12907971437E+02 -0.51132030025E+02 -0.13304662805E+03  0.14311710400E+03  0.00000000000E+00 0.  1.
         21    1    1    2  504  502 -0.12907971437E+02  0.51132030025E+02 -0.14795318056E+02  0.54772270881E+02  0.00000000000E+00 0.  1.
</event>
<event>
 4    1  0.3035432E+006  0.2386358E+02  0.7546771E-02  0.1481930E+00
         21   -1    0    0  502  501  0.00000000000E+00  0.00000000000E+00  0.53346653136E+03  0.53346653136E+03  0.00000000000E+00 0. -1.
         21   -1    0    0  504  502 -0.00000000000E+00 -0.00000000000E+00 -0.44254872574E+02  0.44254872574E+02  0.00000000000E+00 0.  1.
         21    1    1    2  503  501 -0.53700172010E+01 -0.23251526966E+02  0.52996139871E+03  0.53049840218E+03  0.00000000000E+00 0. -1.
         21    1    1    2  504  503  0.53700172010E+01  0.23251526966E+02 -0.40749739924E+02  0.47223001756E+02  0.00000000000E+00 0.  1.
</event>
<event>
 4    1  0.3035432E+006  0.2051239E+02  0.7546771E-02  0.1526342E+00
         21   -1    0    0  504  501  0.00000000000E+00  0.00000000000E+00  0.85274727717E+01  0.85274727717E+01  0.00000000000E+00 0.  1.
         21   -1    0    0  503  502 -0.00000000000E+00 -0.00000000000E+00 -0.49341639056E+02  0.49341639056E+02  0.00000000000E+00 0.  1.
         21    1    1    2  503  501  0.12682626073E+02  0.16121700350E+02 -0.20357066025E+02  0.28899279635E+02  0.00000000000E+00 0.  1.
         21    1    1    2  504  502 -0.12682626073E+02 -0.16121700350E+02 -0.20457100259E+02  0.28969832193E+02  0.00000000000E+00 0.  1.
</event>
<event>
 4    1  0.3035432E+006  0.2018322E+02  0.7546771E-02  0.1531253E+00
         21   -1    0    0  503  501  0.00000000000E+00  0.00000000000E+00  0.34225376835E+02  0.34225376835E+02  0.00000000000E+00 0.  1.
         21   -1    0    0  504  502 -0.00000000000E+00 -0.00000000000E+00 -0.11962579174E+02  0.11962579174E+02  0.00000000000E+00 0. -1.
         21    1    1    2  503  502 -0.18801643300E+02 -0.73389640938E+01  0.94926441982E+01  0.22304091074E+02  0.00000000000E+00 0.  1.
         21    1    1    2  504  501  0.18801643300E+02  0.73389640938E+01  0.12770153463E+02  0.23883864935E+02  0.00000000000E+00 0. -1.
</event>
<event>
 4    1  0.3035432E+006  0.2381817E+02  0.7546771E-02  0.1482472E+00
         21   -1    0    0  504  501  0.00000000000E+00  0.00000000000E+00  0.22395159051E+02  0.22395159051E+02  0.00000000000E+00 0. -1.
         21   -1    0    0  503  502 -0.00000000000E+00 -0.00000000000E+00 -0.30743551753E+02  0.30743551753E+02  0.00000000000E+00 0.  1.
         21    1    1    2  503  501  0.23199530565E+02 -0.53932323714E+01  0.69733945699E+01  0.24818005674E+02  0.00000000000E+00 0. -1.
         21    1    1    2  504  502 -0.23199530565E+02  0.53932323714E+01 -0.15321787271E+02  0.28320705129E+02  0.00000000000E+00 0.  1.
</event>
<event>
 4    1  0.3035432E+006  0.2281347E+02  0.7546771E-02  0.1494854E+00
         21   -1    0    0  503  501  0.00000000000E+00  0.00000000000E+00  0.16424996961E+03  0.16424996961E+03  0.00000000000E+00 0.  1.
         21   -1    0    0  501  502 -0.00000000000E+00 -0.00000000000E+00 -0.11234341132E+03  0.11234341132E+03  0.00000000000E+00 0.  1.
         21    1    1    2  503  504 -0.20289983315E+02 -0.10429328616E+02  0.16228567441E+03  0.16388134256E+03  0.00000000000E+00 0.  1.
         21    1    1    2  504  502  0.20289983315E+02  0.10429328616E+02 -0.11037911612E+03  0.11271203838E+03  0.00000000000E+00 0.  1.
</event>
<event>
 4    1  0.3035432E+006  0.2018963E+02  0.7546771E-02  0.1531156E+00
         21   -1    0    0  504  501  0.00000000000E+00  0.00000000000E+00  0.13612230212E+03  0.13612230212E+03  0.00000000000E+00 0. -1.
         21   -1    0    0  501  502 -0.00000000000E+00 -0.00000000000E+00 -0.69915322252E+01  0.69915322252E+01  0.00000000000E+00 0.  1.
         21    1    1    2  503  502  0.13722391636E+02 -0.14809355363E+02  0.10460915144E+02  0.22738772705E+02  0.00000000000E+00 0.  1.
         21    1    1    2  504  503 -0.13722391636E+02  0.14809355363E+02  0.11866985475E+03  0.12037506164E+03  0.00000000000E+00 0. -1.
</event>
<event>
 4    1  0.3035432E+006  0.4505727E+02  0.7546771E-02  0.1321153E+00
         21   -1    0    0  503  501  0.00000000000E+00  0.00000000000E+00  0.57138515104E+03  0.57138515104E+03  0.00000000000E+00 0.  1.
         21   -1    0    0  501  502 -0.00000000000E+00 -0.00000000000E+00 -0.25951641936E+02  0.25951641936E+02  0.00000000000E+00 0.  1.
         21    1    1    2  503  504  0.31120934961E+02  0.32582896277E+02  0.55018752991E+03  0.55202941569E+03  0.00000000000E+00 0.  1.
         21    1    1    2  504  502 -0.31120934961E+02 -0.32582896277E+02 -0.47540208024E+01  0.45307377285E+02  0.00000000000E+00 0.  1.
</event>
<event>
 4    1  0.3035432E+006  0.2639798E+02  0.7546771E-02  0.1453751E+00
         21   -1    0    0  504  501  0.00000000000E+00  0.00000000000E+00  0.66089150365E+01  0.66089150365E+01  0.00000000000E+00 0. -1.
         21   -1    0    0  503  502 -0.00000000000E+00 -0.00000000000E+00 -0.19520036913E+03  0.19520036913E+03  0.00000000000E+00 0. -1.
         21    1    1    2  503  501  0.26064164200E+02 -0.41848138037E+01 -0.25871526469E+02  0.36961996752E+02  0.00000000000E+00 0. -1.
         21    1    1    2  504  502 -0.26064164200E+02  0.41848138037E+01 -0.16271992762E+03  0.16484728741E+03  0.00000000000E+00 0. -1.
</event>
<event>
 4    1  0.3035432E+006  0.3046495E+02  0.7546771E-02  0.1415598E+00
         21   -1    0    0  502  501  0.00000000000E+00  0.00000000000E+00  0.38907434123E+03  0.38907434123E+03  0.00000000000E+00 0.  1.
         21   -1    0    0  504  502 -0.00000000000E+00 -0.00000000000E+00 -0.36658088042E+01  0.36658088042E+01  0.00000000000E+00 0. -1.
         21    1    1    2  503  501 -0.19180552090E+02  0.23668958224E+02  0.30875772515E+03  0.31025706439E+03  0.00000000000E+00 0.  1.
         21    1    1    2  504  503  0.19180552090E+02 -0.23668958224E+02  0.76650807272E+02  0.82483085644E+02  0.00000000000E+00 0. -1.
</event>
<event>
 4    1  0.3035432E+006  0.2308352E+02  0.7546771E-02  0.1491452E+00
         21   -1    0    0  503  501  0.00000000000E+00  0.00000000000E+00  0.17079439137E+02  0.17079439137E+02  0.00000000000E+00 0. -1.
         21   -1    0    0  501  502 -0.00000000000E+00 -0.00000000000E+00 -0.44891713750E+02  0.44891713750E+02  0.00000000000E+00 0.  1.
         21    1    1    2  503  504 -0.17643933942E+02 -0.14884233697E+02  0.32071308191E+01  0.23305246315E+02  0.00000000000E+00 0. -1.
         21    1    1    2  504  502  0.17643933942E+02  0.14884233697E+02 -0.31019405432E+02  0.38665906573E+02  0.00000000000E+00 0.  1.
</event>
<event>
 4    1  0.3035432E+006  0.2315649E+02  0.7546771E-02  0.1490542E+00
         21   -1    0    0  502  501  0.00000000000E+00  0.00000000000E+00  0.23447816447E+03  0.23447816447E+03  0.00000000000E+00 0. -1.
         21   -1    0    0  503  502 -0.00000000000E+00 -0.00000000000E+00 -0.25883556540E+02  0.25883556540E+02  0.00000000000E+00 0.  1.
         21    1    1    2  503  504 -0.83155920649E+00  0.23141550044E+02 -0.19999684294E+02  0.30597552206E+02  0.00000000000E+00 0.  1.
         21    1    1    2  504  501  0.83155920649E+00 -0.23141550044E+02  0.22859429223E+03  0.22976416881E+03  0.00000000000E+00 0. -1.
</event>
<event>
 4    1  0.3035432E+006  0.2378128E+02  0.7546771E-02  0.1482914E+00
         21   -1    0    0  503  501  0.00000000000E+00  0.00000000000E+00  0.41945007949E+01  0.41945007949E+01  0.00000000000E+00 0.  1.
         21   -1    0    0  504  502 -0.00000000000E+00 -0.00000000000E+00 -0.32839391551E+03  0.32839391551E+03  0.00000000000E+00 0.  1.
         21    1    1    2  503  502 -0.10524500341E+02  0.21325667983E+02 -0.34429218855E+02  0.41843999968E+02  0.00000000000E+00 0.  1.
         21    1    1    2  504  501  0.10524500341E+02 -0.21325667983E+02 -0.28977019586E+03  0.29074441634E+03  0.00000000000E+00 0.  1.
</event>
<event>
 4    1  0.3035432E+006  0.2572901E+02  0.7546771E-02  0.1460811E+00
         21   -1    0    0  504  501  0.00000000000E+00  0.00000000000E+00  0.73349319197E+02  0.73349319197E+02  0.00000000000E+00 0. -1.
         21   -1    0    0  503  502 -0.00000000000E+00 -0.00000000000E+00 -0.11461289824E+02  0.11461289824E+02  0.00000000000E+00 0.  1.
         21    1    1    2  503  501 -0.22223628324E+02  0.12965034144E+02  0.11393290053E+02  0.28138742411E+02  0.00000000000E+00 0.  1.
         21    1    1    2  504  502  0.22223628324E+02 -0.12965034144E+02  0.50494739319E+02  0.56671866610E+02  0.00000000000E+00 0. -1.
</event>
<event>
 4    1  0.3035432E+006  0.2620376E+02  0.7546771E-02  0.1455775E+00
         21   -1    0    0  503  501  0.00000000000E+00  0.00000000000E+00  0.18724966273E+04  0.18724966273E+04  0.00000000000E+00 0. -1.
         21   -1    0    0  501  502 -0.00000000000E+00 -0.00000000000E+00 -0.38358232429E+00  0.38358232429E+00  0.00000000000E+00 0.  1.
         21    1    1    2  503  504 -0.18715742798E+02  0.18340063960E+02  0.11325366398E+04  0.11328397404E+04  0.00000000000E+00 0. -1.
         21    1    1    2  504  502  0.18715742798E+02 -0.18340063960E+02  0.73957640516E+03  0.74004046919E+03  0.00000000000E+00 0.  1.
</event>
<event>
 4    1  0.3035432E+006  0.2525538E+02  0.7546771E-02  0.1465967E+00
         21   -1    0    0  503  501  0.00000000000E+00  0.00000000000E+00  0.19465807208E+02  0.19465807208E+02  0.00000000000E+00 0.  1.
         21   -1    0    0  504  502 -0.00000000000E+00 -0.00000000000E+00 -0.40114284348E+02  0.40114284348E+02  0.00000000000E+00 0.  1.
         21    1    1    2  503  502 -0.16810454396E+02  0.18847890049E+02  0.24251029622E+01  0.25371548252E+02  0.00000000000E+00 0.  1.
         21    1    1    2  504  501  0.16810454396E+02 -0.18847890049E+02 -0.23073580101E+02  0.34208543304E+02  0.00000000000E+00 0.  1.
</event>
<event>
 4    1  0.3035432E+006  0.2862100E+02  0.7546771E-02  0.1431971E+00
         21   -1    0    0  503  501  0.00000000000E+00  0.00000000000E+00  0.75097836024E+02  0.75097836024E+02  0.00000000000E+00 0. -1.
         21   -1    0    0  504  502 -0.00000000000E+00 -0.00000000000E+00 -0.23606377702E+02  0.23606377702E+02  0.00000000000E+00 0. -1.
         21    1    1    2  503  502  0.71134904858E+01 -0.27722915094E+02  0.61942212430E+02  0.68234884399E+02  0.00000000000E+00 0. -1.
         21    1    1    2  504  501 -0.71134904858E+01  0.27722915094E+02 -0.10450754108E+02  0.30469329327E+02  0.00000000000E+00 0. -1.
</event>
<event>
 4    1  0.3035432E+006  0.2268737E+02  0.7546771E-02  0.1496462E+00
         21   -1    0    0  502  501  0.00000000000E+00  0.00000000000E+00  0.45588188632E+01  0.45588188632E+01  0.00000000000E+00 0.  1.
         21   -1    0    0  504  502 -0.00000000000E+00 -0.00000000000E+00 -0.34353001645E+03  0.34353001645E+03  0.00000000000E+00 0.  1.
         21    1    1    2  503  501  0.22653374349E+02 -0.12415886389E+01 -0.26882079333E+02  0.35176172348E+02  0.00000000000E+00 0.  1.
         21    1    1    2  504  503 -0.22653374349E+02  0.12415886389E+01 -0.31208911825E+03  0.31291266296E+03  0.00000000000E+00 0.  1.
</event>
<event>
 4    1  0.3035432E+006  0.3263788E+02  0.7546771E-02  0.1397976E+00
         21   -1    0    0  503  501  0.00000000000E+00  0.00000000000E+00  0.14427948778E+04  0.14427948778E+04  0.00000000000E+00 0. -1.
         21   -1    0    0  504  502 -0.00000000000E+00 -0.00000000000E+00 -0.86310424882E+00  0.86310424882E+00  0.00000000000E+00 0. -1.
         21    1    1    2  503  502 -0.79251925431E+01  0.31661052003E+02  0.99543834229E+03  0.99597325476E+03  0.00000000000E+00 0. -1.
         21    1    1    2  504  501  0.79251925431E+01 -0.31661052003E+02  0.44649343128E+03  0.44768472731E+03  0.00000000000E+00 0. -1.
</event>
<event>
 4    1  0.3035432E+006  0.2722389E+02  0.7546771E-02  0.1445372E+00
         21   -1    0    0  502  501  0.00000000000E+00  0.00000000000E+00  0.61331732577E+02  0.61331732577E+02  0.00000000000E+00 0.  1.
         21   -1    0    0  504  502 -0.00000000000E+00 -0.00000000000E+00 -0.54625756772E+02  0.54625756772E+02  0.00000000000E+00 0.  1.
         21    1    1    2  503  501  0.20492156979E+02  0.17922380561E+02  0.54518479963E+02  0.60937713118E+02  0.00000000000E+00 0.  1.
         21    1    1    2  504  503 -0.20492156979E+02 -0.17922380561E+02 -0.47812504158E+02  0.55019776231E+02  0.00000000000E+00 0.  1.
</event>
<event>
 4    1  0.3035432E+006  0.2469740E+02  0.7546771E-02  0.1472217E+00
         21   -1    0    0  502  501  0.00000000000E+00  0.00000000000E+00  0.63162977026E+01  0.63162977026E+01  0.00000000000E+00 0. -1.
         21   -1    0    0  504  502 -0.00000000000E+00 -0.00000000000E+00 -0.13172652494E+03  0.13172652494E+03  0.00000000000E+00 0. -1.
         21    1    1    2  503  501 -0.24077634174E+02  0.54981033289E+01 -0.27047409457E+02  0.36626820309E+02  0.00000000000E+00 0. -1.
         21    1    1    2  504  503  0.24077634174E+02 -0.54981033289E+01 -0.98362817785E+02  0.10141600234E+03  0.00000000000E+00 0. -1.
</event>
<event>
 4    1  0.3035432E+006  0.2030081E+02  0.7546771E-02  0.1529486E+00
         21   -1    0    0  502  501  0.00000000000E+00  0.00000000000E+00  0.22950753809E+03  0.22950753809E+03  0.00000000000E+00 0.  1.
         21   -1    0    0  503  502 -0.00000000000E+00 -0.00000000000E+00 -0.13182392488E+02  0.13182392488E+02  0.00000000000E+00 0. -1.
         21    1    1    2  503  504 -0.27543353981E+01  0.20113092795E+02 -0.46152630159E+01  0.20818826047E+02  0.00000000000E+00 0. -1.
         21    1    1    2  504  501  0.27543353981E+01 -0.20113092795E+02  0.22094040861E+03  0.22187110453E+03  0.00000000000E+00 0.  1.
</event>
<event>
 4    1  0.3035432E+006  0.4668846E+02  0.7546771E-02  0.1313206E+00
         21   -1    0    0  503  501  0.00000000000E+00  0.00000000000E+00  0.52263241587E+03  0.52263241587E+03  0.00000000000E+00 0. -1.
         21   -1    0    0  504  502 -0.00000000000E+00 -0.00000000000E+00 -0.48837848066E+01  0.48837848066E+01  0.00000000000E+00 0. -1.
         21    1    1    2  503  502 -0.28192703737E+02  0.37215369839E+02  0.15809816434E+03  0.16484793558E+03  0.00000000000E+00 0. -1.
         21    1    1    2  504  501  0.28192703737E+02 -0.37215369839E+02  0.35965046672E+03  0.36266826510E+03  0.00000000000E+00 0. -1.
</event>
<event>
 4    1  0.3035432E+006  0.2552416E+02  0.7546771E-02  0.1463024E+00
         21   -1    0    0  504  501  0.00000000000E+00  0.00000000000E+00  0.45462825843E+02  0.45462825843E+02  0.00000000000E+00 0.  1.
         21   -1    0    0  501  502 -0.00000000000E+00 -0.00000000000E+00 -0.15157623773E+02  0.15157623773E+02  0.00000000000E+00 0. -1.
         21    1    1    2  503  502  0.34166238690E+01 -0.25294458846E+02  0.80701074036E+01  0.26769564816E+02  0.00000000000E+00 0. -1.
         21    1    1    2  504  503 -0.34166238690E+01  0.25294458846E+02  0.22235094666E+02  0.33850884800E+02  0.00000000000E+00 0.  1.
</event>
<event>
 4    1  0.3035432E+006  0.2922735E+02  0.7546771E-02  0.1426432E+00
         21   -1    0    0  504  501  0.00000000000E+00  0.00000000000E+00  0.85743219554E+02  0.85743219554E+02  0.00000000000E+00 0. -1.
         21   -1    0    0  503  502 -0.00000000000E+00 -0.00000000000E+00 -0.11068737453E+02  0.11068737453E+02  0.00000000000E+00 0. -1.
         21    1    1    2  503  501  0.12134644519E+02  0.26589255995E+02  0.22036045865E+02  0.36603626178E+02  0.00000000000E+00 0. -1.
         21    1    1    2  504  502 -0.12134644519E+02 -0.26589255995E+02  0.52638436235E+02  0.60208330829E+02  0.00000000000E+00 0. -1.
</event>
<event>
 4    1  0.3035432E+006  0.2416905E+02  0.7546771E-02  0.1478318E+00
         21   -1    0    0  502  501  0.00000000000E+00  0.00000000000E+00  0.60127146862E+03  0.60127146862E+03  0.00000000000E+00 0. -1.
         21   -1    0    0  503  502 -0.00000000000E+00 -0.00000000000E+00 -0.26123143927E+01  0.26123143927E+01  0.00000000000E+00 0. -1.
         21    1    1    2  503  504  0.18210817120E+02 -0.15890538155E+02  0.60031805445E+02  0.64714455324E+02  0.00000000000E+00 0. -1.
         21    1    1    2  504  501 -0.18210817120E+02  0.15890538155E+02  0.53862734879E+03  0.53916932769E+03  0.00000000000E+00 0. -1.
</event>
<event>
 4    1  0.3035432E+006  0.2535256E+02  0.7546771E-02  0.1464898E+00
         21   -1    0    0  504  501  0.00000000000E+00  0.00000000000E+00  0.56439774031E+02  0.56439774031E+02  0.00000000000E+00 0.  1.
         21   -1    0    0  503  502 -0.00000000000E+00 -0.00000000000E+00 -0.12571665992E+02  0.12571665992E+02  0.00000000000E+00 0.  1.
         21    1    1    2  503  501  0.24703355209E+02 -0.57005867890E+01  0.32520648270E+02  0.41235239931E+02  0.00000000000E+00 0.  1.
         21    1    1    2  504  502 -0.24703355209E+02  0.57005867890E+01  0.11347459770E+02  0.27776200092E+02  0.00000000000E+00 0.  1.
</event>
<event>
 4    1  0.3035432E+006  0.2035474E+02  0.7546771E-02  0.1528680E+00
         21   -1    0    0  502  501  0.00000000000E+00  0.00000000000E+00  0.61628299702E+02  0.61628299702E+02  0.00000000000E+00 0.  1.
         21   -1    0    0  503  502 -0.00000000000E+00 -0.00000000000E+00 -0.72116229276E+01  0.72116229276E+01  0.00000000000E+00 0.  1.
         21    1    1    2  503  504  0.10627318066E+02  0.17360165766E+02  0.18247142528E+02  0.27336302880E+02  0.00000000000E+00 0.  1.
         21    1    1    2  504  501 -0.10627318066E+02 -0.17360165766E+02  0.36169534246E+02  0.41503619749E+02  0.00000000000E+00 0.  1.
</event>
<event>
 4    1  0.3035432E+006  0.2770874E+02  0.7546771E-02  0.1440616E+00
         21   -1    0    0  502  501  0.00000000000E+00  0.00000000000E+00  0.38044988932E+01  0.38044988932E+01  0.00000000000E+00 0. -1.
         21   -1    0    0  504  502 -0.00000000000E+00 -0.00000000000E+00 -0.24540903830E+03  0.24540903830E+03  0.00000000000E+00 0. -1.
         21    1    1    2  503  501 -0.25471894360E+02 -0.10906735170E+02 -0.68279205017E+02  0.73687340243E+02  0.00000000000E+00 0. -1.
         21    1    1    2  504  503  0.25471894360E+02  0.10906735170E+02 -0.17332533439E+03  0.17552619695E+03  0.00000000000E+00 0. -1.
</event>
<event>
 4    1  0.3035432E+006  0.2516592E+02  0.7546771E-02  0.1466956E+00
         21   -1    0    0  504  501  0.00000000000E+00  0.00000000000E+00  0.15523940790E+03  0.15523940790E+03  0.00000000000E+00 0.  1.
         21   -1    0    0  501  502 -0.00000000000E+00 -0.00000000000E+00 -0.42507518102E+01  0.42507518102E+01  0.00000000000E+00 0.  1.
         21    1    1    2  503  502  0.52406766574E+00  0.25160467048E+02  0.91493139073E+02  0.94891086233E+02  0.00000000000E+00 0.  1.
         21    1    1    2  504  503 -0.52406766574E+00 -0.25160467048E+02  0.59495517015E+02  0.64599073476E+02  0.00000000000E+00 0.  1.
</event>
<event>
 4    1  0.3035432E+006  0.2656793E+02  0.7546771E-02  0.1451997E+00
         21   -1    0    0  504  501  0.00000000000E+00  0.00000000000E+00  0.29878946701E+02  0.29878946701E+02  0.00000000000E+00 0. -1.
         21   -1    0    0  501  502 -0.00000000000E+00 -0.00000000000E+00 -0.16286121055E+03  0.16286121055E+03  0.00000000000E+00 0. -1.
         21    1    1    2  503  502  0.18269264369E+02  0.19289608042E+02 -0.15559802772E+03  0.15784993262E+03  0.00000000000E+00 0. -1.
         21    1    1    2  504  503 -0.18269264369E+02 -0.19289608042E+02  0.22615763872E+02  0.34890224627E+02  0.00000000000E+00 0. -1.
</event>
<event>
 4    1  0.3035432E+006  0.2030580E+02  0.7546771E-02  0.1529411E+00
         21   -1    0    0  503  501  0.00000000000E+00  0.00000000000E+00  0.13313060404E+03  0.13313060404E+03  0.00000000000E+00 0. -1.
         21   -1    0    0  504  502 -0.00000000000E+00 -0.00000000000E+00 -0.21606328730E+02  0.21606328730E+02  0.00000000000E+00 0.  1.
         21    1    1    2  503  502  0.11918473765E+02 -0.16440062827E+02 -0.15846770616E+02  0.25757442063E+02  0.00000000000E+00 0.  1.
         21    1    1    2  504  501 -0.11918473765E+02  0.16440062827E+02  0.12737104592E+03  0.12897949070E+03  0.00000000000E+00 0. -1.
</event>
<event>
 4    1  0.3035432E+006  0.3335684E+02  0.7546771E-02  0.1392498E+00
         21   -1    0    0  504  501  0.00000000000E+00  0.00000000000E+00  0.63795342726E+02  0.63795342726E+02  0.00000000000E+00 0.  1.
         21   -1    0    0  503  502 -0.00000000000E+00 -0.00000000000E+00 -0.30246642490E+02  0.30246642490E+02  0.00000000000E+00 0. -1.
         21    1    1    2  503  501 -0.15559068308E+02  0.29505835190E+02  0.47369136257E+02  0.57935429459E+02  0.00000000000E+00 0.  1.
         21    1    1    2  504  502  0.15559068308E+02 -0.29505835190E+02 -0.13820436021E+02  0.36106555757E+02  0.00000000000E+00 0. -1.
</event>
<event>
 4    1  0.3035432E+006  0.3819223E+02  0.7546771E-02  0.1359418E+00
         21   -1    0    0  504  501  0.00000000000E+00  0.00000000000E+00  0.74995391311E+03  0.74995391311E+03  0.00000000000E+00 0.  1.
         21   -1    0    0  503  502 -0.00000000000E+00 -0.00000000000E+00 -0.56438329456E+01  0.56438329456E+01  0.00000000000E+00 0.  1.
         21    1    1    2  503  501 -0.80732027880E+01  0.37329212413E+02  0.67800400193E+03  0.67907884177E+03  0.00000000000E+00 0.  1.
         21    1    1    2  504  502  0.80732027880E+01 -0.37329212413E+02  0.66306078231E+02  0.76518904285E+02  0.00000000000E+00 0.  1.
</event>
<event>
 4    1  0.3035432E+006  0.2147238E+02  0.7546771E-02  0.1512626E+00
         21   -1    0    0  503  501  0.00000000000E+00  0.00000000000E+00  0.28875497209E+02  0.28875497209E+02  0.00000000000E+00 0. -1.
         21   -1    0    0  504  502 -0.00000000000E+00 -0.00000000000E+00 -0.83654382720E+02  0.83654382720E+02  0.00000000000E+00 0. -1.
         21    1    1    2  503  502  0.85837101454E+01 -0.19682047142E+02  0.23221739547E+02  0.31627713277E+02  0.00000000000E+00 0. -1.
         21    1    1    2  504  501 -0.85837101454E+01  0.19682047142E+02 -0.78000625058E+02  0.80902166652E+02  0.00000000000E+00 0. -1.
</event>
<event>
 4    1  0.3035432E+006  0.2285236E+02  0.7546771E-02  0.1494360E+00
         21   -1    0    0  502  501  0.00000000000E+00  0.00000000000E+00  0.17096927349E+03  0.17096927349E+03  0.00000000000E+00 0. -1.
         21   -1    0    0  504  502 -0.00000000000E+00 -0.00000000000E+00 -0.45152955996E+01  0.45152955996E+01  0.00000000000E+00 0.  1.
         21    1    1    2  503  501  0.40890543195E+01 -0.22483551757E+02  0.13313340472E+03  0.13508047200E+03  0.00000000000E+00 0. -1.
         21    1    1    2  504  503 -0.40890543195E+01  0.22483551757E+02  0.33320573173E+02  0.40404097087E+02  0.00000000000E+00 0.  1.
</event>
<event>
 4    1  0.3035432E+006  0.2281835E+02  0.7546771E-02  0.1494792E+00
         21   -1    0    0  504  501  0.00000000000E+00  0.00000000000E+00  0.76927145918E+02  0.76927145918E+02  0.00000000000E+00 0. -1.
         21   -1    0    0  503  502 -0.00000000000E+00 -0.00000000000E+00 -0.32935325063E+02  0.32935325063E+02  0.00000000000E+00 0. -1.
         21    1    1    2  503  501 -0.21168830490E+02  0.85180739772E+01  0.70958500349E+02  0.74537143360E+02  0.00000000000E+00 0. -1.
         21    1    1    2  504  502  0.21168830490E+02 -0.85180739772E+01 -0.26966679493E+02  0.35325327620E+02  0.00000000000E+00 0. -1.
</event>
<event>
 4    1  0.3035432E+006  0.2019560E+02  0.7546771E-02  0.1531066E+00
         21   -1    0    0  502  501  0.00000000000E+00  0.00000000000E+00  0.18709153711E+01  0.18709153711E+01  0.00000000000E+00 0.  1.
         21   -1    0    0  503  502 -0.00000000000E+00 -0.00000000000E+00 -0.35088909700E+03  0.35088909700E+03  0.00000000000E+00 0.  1.
         21    1    1    2  503  504 -0.10495389485E+02 -0.17254243727E+02 -0.28305334571E+03  0.28377289977E+03  0.00000000000E+00 0.  1.
         21    1    1    2  504  501  0.10495389485E+02  0.17254243727E+02 -0.65964835918E+02  0.68987112599E+02  0.00000000000E+00 0.  1.
</event>
<event>
 4    1  0.3035432E+006  0.2064789E+02  0.7546771E-02  0.1524352E+00
         21   -1    0    0  503  501  0.00000000000E+00  0.00000000000E+00  0.25299446605E+01  0.25299446605E+01  0.00000000000E+00 0.  1.
         21   -1    0    0  504  502 -0.00000000000E+00 -0.00000000000E+00 -0.18042493817E+03  0.18042493817E+03  0.00000000000E+00 0.  1.
         21    1    1    2  503  502  0.40300186961E+01 -0.20250784310E+02 -0.11244968446E+03  0.11432964117E+03  0.00000000000E+00 0.  1.
         21    1    1    2  504  501 -0.40300186961E+01  0.20250784310E+02 -0.65445309056E+02  0.68625241663E+02  0.00000000000E+00 0.  1.
</event>
<event>
 4    1  0.3035432E+006  0.2076625E+02  0.7546771E-02  0.1522629E+00
         21   -1    0    0  504  501  0.00000000000E+00  0.00000000000E+00  0.51346931669E+01  0.51346931669E+01  0.00000000000E+00 0.  1.
         21   -1    0    0  503  502 -0.00000000000E+00 -0.00000000000E+00 -0.12803809705E+03  0.12803809705E+03  0.00000000000E+00 0.  1.
         21    1    1    2  503  501  0.42994900382E+01 -0.20316283765E+02 -0.10050919082E+03  0.10263203418E+03  0.00000000000E+00 0.  1.
         21    1    1    2  504  502 -0.42994900382E+01  0.20316283765E+02 -0.22394213064E+02  0.30540756037E+02  0.00000000000E+00 0.  1.
</event>
<event>
 4    1  0.3035432E+006  0.2083905E+02  0.7546771E-02  0.1521575E+00
         21   -1    0    0  502  501  0.00000000000E+00  0.00000000000E+00  0.57646276038E+03  0.57646276038E+03  0.00000000000E+00 0. -1.
         21   -1    0    0  504  502 -0.00000000000E+00 -0.00000000000E+00 -0.47280008758E+01  0.47280008758E+01  0.00000000000E+00 0.  1.
         21    1    1    2  503  501  0.20742790080E+02  0.20006702015E+01  0.55230808955E+03  0.55270108721E+03  0.00000000000E+00 0. -1.
         21    1    1    2  504  503 -0.20742790080E+02 -0.20006702015E+01  0.19426669947E+02  0.28489674038E+02  0.00000000000E+00 0.  1.
</event>
<event>
 4    1  0.3035432E+006  0.2172960E+02  0.7546771E-02  0.1509098E+00
         21   -1    0    0  503  501  0.00000000000E+00  0.00000000000E+00  0.29601645418E+03  0.29601645418E+03  0.00000000000E+00 0. -1.
         21   -1    0    0  501  502 -0.00000000000E+00 -0.00000000000E+00 -0.21566646473E+02  0.21566646473E+02  0.00000000000E+00 0. -1.
         21    1    1    2  503  504  0.77906432089E+00  0.21715629830E+02  0.29003144270E+03  0.29084431105E+03  0.00000000000E+00 0. -1.
         21    1    1    2  504  502 -0.77906432089E+00 -0.21715629830E+02 -0.15581634991E+02  0.26738789597E+02  0.00000000000E+00 0. -1.
</event>
<event>
 4    1  0.3035432E+006  0.2715479E+02  0.7546771E-02  0.1446059E+00
         21   -1    0    0  502  501  0.00000000000E+00  0.00000000000E+00  0.13238477689E+03  0.13238477689E+03  0.00000000000E+00 0.  1.
         21   -1    0    0  504  502 -0.00000000000E+00 -0.00000000000E+00 -0.59128102704E+02  0.59128102704E+02  0.00000000000E+00 0. -1.
         21    1    1    2  503  501 -0.10685804461E+02 -0.24963901341E+02  0.12776300674E+03  0.13061687747E+03  0.00000000000E+00 0.  1.
         21    1    1    2  504  503  0.10685804461E+02  0.24963901341E+02 -0.54506332553E+02  0.60896002131E+02  0.00000000000E+00 0. -1.
</event>
<event>
 4    1  0.3035432E+006  0.2234165E+02  0.7546771E-02  0.1500935E+00
         21   -1    0    0  504  501  0.00000000000E+00  0.00000000000E+00  0.44482462367E+01  0.44482462367E+01  0.00000000000E+00 0. -1.
         21   -1    0    0  501  502 -0.00000000000E+00 -0.00000000000E+00 -0.40193813026E+03  0.40193813026E+03  0.00000000000E+00 0. -1.
         21    1    1    2  503  502 -0.37887639456E+01  0.22018052951E+02 -0.37125837001E+03  0.37193000241E+03  0.00000000000E+00 0. -1.
         21    1    1    2  504  503  0.37887639456E+01 -0.22018052951E+02 -0.26231514014E+02  0.34456374090E+02  0.00000000000E+00 0. -1.
</event>
<event>
 4    1  0.3035432E+006  0.2387341E+02  0.7546771E-02  0.1481813E+00
         21   -1    0    0  504  501  0.00000000000E+00  0.00000000000E+00  0.59047442286E+03  0.59047442286E+03  0.00000000000E+00 0. -1.
         21   -1    0    0  503  502 -0.00000000000E+00 -0.00000000000E+00 -0.29020889299E+02  0.29020889299E+02  0.00000000000E+00 0. -1.
         21    1    1    2  503  501  0.20070207184E+02 -0.12927745313E+02  0.58527982144E+03  0.58576651423E+03  0.00000000000E+00 0. -1.
         21    1    1    2  504  502 -0.20070207184E+02  0.12927745313E+02 -0.23826287879E+02  0.33728797924E+02  0.00000000000E+00 0. -1.
</event>
<event>
 4    1  0.3035432E+006  0.4214949E+02  0.7546771E-02  0.1336330E+00
         21   -1    0    0  502  501  0.00000000000E+00  0.00000000000E+00  0.19959455902E+03  0.19959455902E+03  0.00000000000E+00 0.  1.
         21   -1    0    0  503  502 -0.00000000000E+00 -0.00000000000E+00 -0.12959890710E+02  0.12959890710E+02  0.00000000000E+00 0.  1.
         21    1    1    2  503  504  0.40796976856E+02  0.10591789942E+02  0.33840699506E+02  0.54053420593E+02  0.00000000000E+00 0.  1.
         21    1    1    2  504  501 -0.40796976856E+02 -0.10591789942E+02  0.15279396880E+03  0.15850102914E+03  0.00000000000E+00 0.  1.
</event>
<event>
 4    1  0.3035432E+006  0.2274542E+02  0.7546771E-02  0.1495720E+00
         21   -1    0    0  503  501  0.00000000000E+00  0.00000000000E+00  0.19882085140E+03  0.19882085140E+03  0.00000000000E+00 0. -1.
         21   -1    0    0  504  502 -0.00000000000E+00 -0.00000000000E+00 -0.38855738833E+01  0.38855738833E+01  0.00000000000E+00 0. -1.
         21    1    1    2  503  502  0.54451838882E+01  0.22084024630E+02  0.15571836983E+03  0.15737078786E+03  0.00000000000E+00 0. -1.
         21    1    1    2  504  501 -0.54451838882E+01 -0.22084024630E+02  0.39216907690E+02  0.45335637419E+02  0.00000000000E+00 0. -1.
</event>
<event>
 4    1  0.3035432E+006  0.2108230E+02  0.7546771E-02  0.1518093E+00
         21   -1    0    0  504  501  0.00000000000E+00  0.00000000000E+00  0.98923444693E+01  0.98923444693E+01  0.00000000000E+00 0. -1.
         21   -1    0    0  503  502 -0.00000000000E+00 -0.00000000000E+00 -0.44895747351E+03  0.44895747351E+03  0.00000000000E+00 0.  1.
         21    1    1    2  503  501  0.15098647134E+02  0.14713744737E+02 -0.43717490770E+03  0.43768294843E+03  0.00000000000E+00 0.  1.
         21    1    1    2  504  502 -0.15098647134E+02 -0.14713744737E+02 -0.18902213393E+01  0.21166869541E+02  0.00000000000E+00 0. -1.
</event>
<event>
 4    1  0.3035432E+006  0.4085576E+02  0.7546771E-02  0.1343543E+00
         21   -1    0    0  502  501  0.00000000000E+00  0.00000000000E+00  0.15283705030E+03  0.15283705030E+03  0.00000000000E+00 0. -1.
         21   -1    0    0  503  502 -0.00000000000E+00 -0.00000000000E+00 -0.14224350235E+03  0.14224350235E+03  0.00000000000E+00 0. -1.
         21    1    1    2  503  504  0.13262848389E+02  0.38643107909E+02 -0.13646635977E+03  0.14245090482E+03  0.00000000000E+00 0. -1.
         21    1    1    2  504  501 -0.13262848389E+02 -0.38643107909E+02  0.14705990772E+03  0.15262964783E+03  0.00000000000E+00 0. -1.
</event>
<event>
 4    1  0.3035432E+006  0.2411568E+02  0.7546771E-02  0.1478944E+00
         21   -1    0    0  504  501  0.00000000000E+00  0.00000000000E+00  0.88869602130E+01  0.88869602130E+01  0.00000000000E+00 0.  1.
         21   -1    0    0  503  502 -0.00000000000E+00 -0.00000000000E+00 -0.14356430281E+03  0.14356430281E+03  0.00000000000E+00 0.  1.
         21    1    1    2  503  501  0.12178859610E+02  0.20814455995E+02 -0.12356889009E+03  0.12590010642E+03  0.00000000000E+00 0.  1.
         21    1    1    2  504  502 -0.12178859610E+02 -0.20814455995E+02 -0.11108452513E+02  0.26551156604E+02  0.00000000000E+00 0.  1.
</event>
<event>
 4    1  0.3035432E+006  0.2250983E+02  0.7546771E-02  0.1498747E+00
         21   -1    0    0  504  501  0.00000000000E+00  0.00000000000E+00  0.13160039400E+02  0.13160039400E+02  0.00000000000E+00 0.  1.
         21   -1    0    0  503  502 -0.00000000000E+00 -0.00000000000E+00 -0.20203992183E+03  0.20203992183E+03  0.00000000000E+00 0. -1.
         21    1    1    2  503  501 -0.55323584631E+01 -0.21819383433E+02  0.23660788722E+01  0.22633842201E+02  0.00000000000E+00 0.  1.
         21    1    1    2  504  502  0.55323584631E+01  0.21819383433E+02 -0.19124596131E+03  0.19256611903E+03  0.00000000000E+00 0. -1.
</event>
<event>
 4    1  0.3035432E+006  0.2605067E+02  0.7546771E-02  0.1457385E+00
         21   -1    0    0  502  501  0.00000000000E+00  0.00000000000E+00  0.59342289871E+02  0.59342289871E+02  0.00000000000E+00 0.  1.
         21   -1    0    0  504  502 -0.00000000000E+00 -0.00000000000E+00 -0.24857464326E+03  0.24857464326E+03  0.00000000000E+00 0.  1.
         21    1    1    2  503  501  0.32393257606E+01 -0.25848481775E+02  0.55759068380E+02  0.61544381938E+02  0.00000000000E+00 0.  1.
         21    1    1    2  504  503 -0.32393257606E+01  0.25848481775E+02 -0.24499142177E+03  0.24637255120E+03  0.00000000000E+00 0.  1.
</event>
<event>
 4    1  0.3035432E+006  0.3792227E+02  0.7546771E-02  0.1361111E+00
         21   -1    0    0  503  501  0.00000000000E+00  0.00000000000E+00  0.11261503987E+03  0.11261503987E+03  0.00000000000E+00 0. -1.
         21   -1    0    0  501  502 -0.00000000000E+00 -0.00000000000E+00 -0.14928657972E+02  0.14928657972E+02  0.00000000000E+00 0. -1.
         21    1    1    2  503  504 -0.33274044838E+02 -0.18191660573E+02  0.73092898718E+02  0.82344826294E+02  0.00000000000E+00 0. -1.
         21    1    1    2  504  502  0.33274044838E+02  0.18191660573E+02  0.24593483181E+02  0.45198871549E+02  0.00000000000E+00 0. -1.
</event>
<event>
 4    1  0.3035432E+006  0.2449502E+02  0.7546771E-02  0.1474533E+00
         21   -1    0    0  504  501  0.00000000000E+00  0.00000000000E+00  0.18300213184E+03  0.18300213184E+03  0.00000000000E+00 0.  1.
         21   -1    0    0  503  502 -0.00000000000E+00 -0.00000000000E+00 -0.30972600650E+02  0.30972600650E+02  0.00000000000E+00 0. -1.
         21    1    1    2  503  501 -0.18278271216E+01 -0.24426727828E+02 -0.25151532382E+02  0.35108482814E+02  0.00000000000E+00 0. -1.
         21    1    1    2  504  502  0.18278271216E+01  0.24426727828E+02  0.17718106357E+03  0.17886624968E+03  0.00000000000E+00 0.  1.
</event>
<event>
 4    1  0.3035432E+006  0.2101806E+02  0.7546771E-02  0.1519007E+00
         21   -1    0    0  503  501  0.00000000000E+00  0.00000000000E+00  0.16900518348E+03  0.16900518348E+03  0.00000000000E+00 0.  1.
         21   -1    0    0  501  502 -0.00000000000E+00 -0.00000000000E+00 -0.44871646476E+02  0.44871646476E+02  0.00000000000E+00 0.  1.
         21    1    1    2  503  504  0.20884709379E+02  0.23638228776E+01  0.16584374784E+03  0.16717029473E+03  0.00000000000E+00 0.  1.
         21    1    1    2  504  502 -0.20884709379E+02 -0.23638228776E+01 -0.41710210836E+02  0.46706535221E+02  0.00000000000E+00 0.  1.
</event>
<event>
 4    1  0.3035432E+006  0.3351606E+02  0.7546771E-02  0.1391307E+00
         21   -1    0    0  503  501  0.00000000000E+00  0.00000000000E+00  0.13787848627E+02  0.13787848627E+02  0.00000000000E+00 0.  1.
         21   -1    0    0  501  502 -0.00000000000E+00 -0.00000000000E+00 -0.43505830093E+03  0.43505830093E+03  0.00000000000E+00 0. -1.
         21    1    1    2  503  504 -0.29678991961E+02  0.15571881510E+02 -0.83140297072E+01  0.34531856995E+02  0.00000000000E+00 0.  1.
         21    1    1    2  504  502  0.29678991961E+02 -0.15571881510E+02 -0.41295642260E+03  0.41431429256E+03  0.00000000000E+00 0. -1.
</event>
<event>
 4    1  0.3035432E+006  0.2213046E+02  0.7546771E-02  0.1503715E+00
         21   -1    0    0  504  501  0.00000000000E+00  0.00000000000E+00  0.90758626570E+01  0.90758626570E+01  0.00000000000E+00 0. -1.
         21   -1    0    0  501  502 -0.00000000000E+00 -0.00000000000E+00 -0.55450871129E+02  0.55450871129E+02  0.00000000000E+00 0. -1.
         21    1    1    2  503  502  0.20881048770E+02  0.73306856905E+01 -0.17901877860E+02  0.28464616304E+02  0.00000000000E+00 0. -1.
         21    1    1    2  504  503 -0.20881048770E+02 -0.73306856905E+01 -0.28473130612E+02  0.36062117482E+02  0.00000000000E+00 0. -1.
</event>
<event>
 4    1  0.3035432E+006  0.2485581E+02  0.7546771E-02  0.1470423E+00
         21   -1    0    0  502  501  0.00000000000E+00  0.00000000000E+00  0.12099311926E+03  0.12099311926E+03  0.00000000000E+00 0.  1.
         21   -1    0    0  504  502 -0.00000000000E+00 -0.00000000000E+00 -0.29638402179E+02  0.29638402179E+02  0.00000000000E+00 0. -1.
         21    1    1    2  503  501 -0.28939608307E+01  0.24686758895E+02  0.11419888563E+03  0.11687256544E+03  0.00000000000E+00 0.  1.
         21    1    1    2  504  503  0.28939608307E+01 -0.24686758895E+02 -0.22844168542E+02  0.33758956003E+02  0.00000000000E+00 0. -1.
</event>
<event>
 4    1  0.3035432E+006  0.2076709E+02  0.7546771E-02  0.1522616E+00
         21   -1    0    0  503  501  0.00000000000E+00  0.00000000000E+00  0.25941239183E+01  0.25941239183E+01  0.00000000000E+00 0.  1.
         21   -1    0    0  504  502 -0.00000000000E+00 -0.00000000000E+00 -0.22695412565E+03  0.22695412565E+03  0.00000000000E+00 0.  1.
         21    1    1    2  503  502 -0.11517531984E+02  0.17280575642E+02 -0.17153889422E+03  0.17279138887E+03  0.00000000000E+00 0.  1.
         21    1    1    2  504  501  0.11517531984E+02 -0.17280575642E+02 -0.52821107507E+02  0.56756860694E+02  0.00000000000E+00 0.  1.
</event>
<event>
 4    1  0.3035432E+006  0.2199501E+02  0.7546771E-02  0.1505519E+00
         21   -1    0    0  503  501  0.00000000000E+00  0.00000000000E+00  0.49264839291E+02  0.49264839291E+02  0.00000000000E+00 0. -1.
         21   -1    0    0  504  502 -0.00000000000E+00 -0.00000000000E+00 -0.16803547281E+02  0.16803547281E+02  0.00000000000E+00 0. -1.
         21    1    1    2  503  502  0.89493163762E+01 -0.20092044603E+02  0.37526810158E+02  0.43497609136E+02  0.00000000000E+00 0. -1.
         21    1    1    2  504  501 -0.89493163762E+01  0.20092044603E+02 -0.50655181473E+01  0.22570777435E+02  0.00000000000E+00 0. -1.
</event>
<event>
 4    1  0.3035432E+006  0.2037612E+02  0.7546771E-02  0.1528362E+00
         21   -1    0    0  504  501  0.00000000000E+00  0.00000000000E+00  0.20901858881E+02  0.20901858881E+02  0.00000000000E+00 0. -1.
         21   -1    0    0  501  502 -0.00000000000E+00 -0.00000000000E+00 -0.21623801846E+02  0.21623801846E+02  0.00000000000E+00 0. -1.
         21    1    1    2  503  502  0.19888000572E+02 -0.44332670091E+01 -0.64274233348E+01  0.21365818352E+02  0.00000000000E+00 0. -1.
         21    1    1    2  504  503 -0.19888000572E+02  0.44332670091E+01  0.57054803696E+01  0.21159842376E+02  0.00000000000E+00 0. -1.
</event>
<event>
 4    1  0.3035432E+006  0.3910499E+02  0.7546771E-02  0.1353812E+00
         21   -1    0    0  502  501  0.00000000000E+00  0.00000000000E+00  0.31238439482E+02  0.31238439482E+02  0.00000000000E+00 0.  1.
         21   -1    0    0  504  502 -0.00000000000E+00 -0.00000000000E+00 -0.81736609677E+02  0.81736609677E+02  0.00000000000E+00 0.  1.
         21    1    1    2  503  501 -0.87113783216E+00 -0.39095289412E+02  0.10525594687E+02  0.40496773685E+02  0.00000000000E+00 0.  1.
         21    1    1    2  504  503  0.87113783216E+00  0.39095289412E+02 -0.61023764882E+02  0.72478275474E+02  0.00000000000E+00 0.  1.
</event>
<event>
 4    1  0.3035432E+006  0.2665385E+02  0.7546771E-02  0.1451117E+00
         21   -1    0    0  502  501  0.00000000000E+00  0.00000000000E+00  0.67044264731E+02  0.67044264731E+02  0.00000000000E+00 0. -1.
         21   -1    0    0  503  502 -0.00000000000E+00 -0.00000000000E+00 -0.14718744465E+03  0.14718744465E+03  0.00000000000E+00 0. -1.
         21    1    1    2  503  504 -0.71592243495E+01 -0.25674367101E+02 -0.14325966085E+03  0.14571807728E+03  0.00000000000E+00 0. -1.
         21    1    1    2  504  501  0.71592243495E+01  0.25674367101E+02  0.63116480928E+02  0.68513632104E+02  0.00000000000E+00 0. -1.
</event>
<event>
 4    1  0.3035432E+006  0.2445343E+02  0.7546771E-02  0.1475012E+00
         21   -1    0    0  504  501  0.00000000000E+00  0.00000000000E+00  0.68573049270E+02  0.68573049270E+02  0.00000000000E+00 0.  1.
         21   -1    0    0  503  502 -0.00000000000E+00 -0.00000000000E+00 -0.87599688337E+01  0.87599688337E+01  0.00000000000E+00 0.  1.
         21    1    1    2  503  501 -0.13069625965E+02 -0.20667728776E+02  0.27300984386E+02  0.36651246692E+02  0.00000000000E+00 0.  1.
         21    1    1    2  504  502  0.13069625965E+02  0.20667728776E+02  0.32512096050E+02  0.40681771412E+02  0.00000000000E+00 0.  1.
</event>
<event>
 4    1  0.3035432E+006  0.2213352E+02  0.7546771E-02  0.1503675E+00
         21   -1    0    0  504  501  0.00000000000E+00  0.00000000000E+00  0.22924412267E+02  0.22924412267E+02  0.00000000000E+00 0.  1.
         21   -1    0    0  503  502 -0.00000000000E+00 -0.00000000000E+00 -0.35521214909E+02  0.35521214909E+02  0.00000000000E+00 0.  1.
         21    1    1    2  503  501 -0.21307104786E+02 -0.59916516151E+01 -0.24743304594E+02  0.33198248835E+02  0.00000000000E+00 0.  1.
         21    1    1    2  504  502  0.21307104786E+02  0.59916516151E+01  0.12146501952E+02  0.25247378342E+02  0.00000000000E+00 0.  1.
</event>
<event>
 4    1  0.3035432E+006  0.2478463E+02  0.7546771E-02  0.1471227E+00
         21   -1    0    0  502  501  0.00000000000E+00  0.00000000000E+00  0.76888764612E+03  0.76888764612E+03  0.00000000000E+00 0.  1.
         21   -1    0    0  503  502 -0.00000000000E+00 -0.00000000000E+00 -0.38425511390E+01  0.38425511390E+01  0.00000000000E+00 0.  1.
         21    1    1    2  503  504  0.41320249964E+01 -0.24437761978E+02  0.38660500609E+02  0.45922893510E+02  0.00000000000E+00 0.  1.
         21    1    1    2  504  501 -0.41320249964E+01  0.24437761978E+02  0.72638459437E+03  0.72680730375E+03  0.00000000000E+00 0.  1.
</event>
<event>
 4    1  0.3035432E+006  0.2562790E+02  0.7546771E-02  0.1461900E+00
         21   -1    0    0  503  501  0.00000000000E+00  0.00000000000E+00  0.29164444779E+01  0.29164444779E+01  0.00000000000E+00 0. -1.
         21   -1    0    0  504  502 -0.00000000000E+00 -0.00000000000E+00 -0.22817540811E+03  0.22817540811E+03  0.00000000000E+00 0. -1.
         21    1    1    2  503  502 -0.88594281850E+01  0.24047869122E+02 -0.12581929894E+03  0.12840282498E+03  0.00000000000E+00 0. -1.
         21    1    1    2  504  501  0.88594281850E+01 -0.24047869122E+02 -0.99439664695E+02  0.10268902761E+03  0.00000000000E+00 0. -1.
</event>
<event>
 4    1  0.3035432E+006  0.2297966E+02  0.7546771E-02  0.1492754E+00
         21   -1    0    0  503  501  0.00000000000E+00  0.00000000000E+00  0.93450395640E+01  0.93450395640E+01  0.00000000000E+00 0. -1.
         21   -1    0    0  504  502 -0.00000000000E+00 -0.00000000000E+00 -0.58577631157E+02  0.58577631157E+02  0.00000000000E+00 0. -1.
         21    1    1    2  503  502  0.80471099641E+01  0.21524604497E+02 -0.18231889108E+02  0.29333706857E+02  0.00000000000E+00 0. -1.
         21    1    1    2  504  501 -0.80471099641E+01 -0.21524604497E+02 -0.31000702485E+02  0.38588963864E+02  0.00000000000E+00 0. -1.
</event>
<event>
 4    1  0.3035432E+006  0.3291145E+02  0.7546771E-02  0.1395872E+00
         21   -1    0    0  503  501  0.00000000000E+00  0.00000000000E+00  0.47486829066E+02  0.47486829066E+02  0.00000000000E+00 0. -1.
         21   -1    0    0  504  502 -0.00000000000E+00 -0.00000000000E+00 -0.12838862069E+03  0.12838862069E+03  0.00000000000E+00 0. -1.
         21    1    1    2  503  502  0.32909024146E+02  0.39990480548E+00 -0.12019533672E+03  0.12461975270E+03  0.00000000000E+00 0. -1.
         21    1    1    2  504  501 -0.32909024146E+02 -0.39990480548E+00  0.39293545097E+02  0.51255697053E+02  0.00000000000E+00 0. -1.
</event>
<event>
 4    1  0.3035432E+006  0.2099053E+02  0.7546771E-02  0.1519400E+00
         21   -1    0    0  503  501  0.00000000000E+00  0.00000000000E+00  0.54708507036E+02  0.54708507036E+02  0.00000000000E+00 0. -1.
         21   -1    0    0  504  502 -0.00000000000E+00 -0.00000000000E+00 -0.84340289448E+01  0.84340289448E+01  0.00000000000E+00 0. -1.
         21    1    1    2  503  502  0.17336353045E+02 -0.11834404356E+02  0.16432341408E+02  0.26657533785E+02  0.00000000000E+00 0. -1.
         21    1    1    2  504  501 -0.17336353045E+02  0.11834404356E+02  0.29842136684E+02  0.36485002196E+02  0.00000000000E+00 0. -1.
</event>
<event>
 4    1  0.3035432E+006  0.2151037E+02  0.7546771E-02  0.1512101E+00
         21   -1    0    0  503  501  0.00000000000E+00  0.00000000000E+00  0.53026331754E+03  0.53026331754E+03  0.00000000000E+00 0. -1.
         21   -1    0    0  504  502 -0.00000000000E+00 -0.00000000000E+00 -0.32952087769E+02  0.32952087769E+02  0.00000000000E+00 0.  1.
         21    1    1    2  503  502  0.17404880862E+02  0.12639866636E+02 -0.29198557805E+02  0.36266401590E+02  0.00000000000E+00 0.  1.
         21    1    1    2  504  501 -0.17404880862E+02 -0.12639866636E+02  0.52650978758E+03  0.52694900372E+03  0.00000000000E+00 0. -1.
</event>
<event>
 4    1  0.3035432E+006  0.2036641E+02  0.7546771E-02  0.1528506E+00
         21   -1    0    0  504  501  0.00000000000E+00  0.00000000000E+00  0.35624491915E+01  0.35624491915E+01  0.00000000000E+00 0. -1.
         21   -1    0    0  503  502 -0.00000000000E+00 -0.00000000000E+00 -0.16595255222E+03  0.16595255222E+03  0.00000000000E+00 0. -1.
         21    1    1    2  503  501  0.11169902759E+02  0.17030082956E+02 -0.34896239982E+02  0.40404678170E+02  0.00000000000E+00 0. -1.
         21    1    1    2  504  502 -0.11169902759E+02 -0.17030082956E+02 -0.12749386305E+03  0.12911032325E+03  0.00000000000E+00 0. -1.
</event>
<event>
 4    1  0.3035432E+006  0.2301185E+02  0.7546771E-02  0.1492349E+00
         21   -1    0    0  504  501  0.00000000000E+00  0.00000000000E+00  0.25067528324E+02  0.25067528324E+02  0.00000000000E+00 0. -1.
         21   -1    0    0  503  502 -0.00000000000E+00 -0.00000000000E+00 -0.59729162677E+02  0.59729162677E+02  0.00000000000E+00 0. -1.
         21    1    1    2  503  501  0.25253395155E+01  0.22872864501E+02 -0.51416670496E+02  0.56331334753E+02  0.00000000000E+00 0. -1.
         21    1    1    2  504  502 -0.25253395155E+01 -0.22872864501E+02  0.16755036143E+02  0.28465356248E+02  0.00000000000E+00 0. -1.
</event>
<event>
 4    1  0.3035432E+006  0.2134732E+02  0.7546771E-02  0.1514363E+00
         21   -1    0    0  504  501  0.00000000000E+00  0.00000000000E+00  0.28329169241E+02  0.28329169241E+02  0.00000000000E+00 0.  1.
         21   -1    0    0  501  502 -0.00000000000E+00 -0.00000000000E+00 -0.51423956330E+02  0.51423956330E+02  0.00000000000E+00 0. -1.
         21    1    1    2  503  502 -0.15617234210E+02 -0.14553692523E+02 -0.44603721899E+02  0.49448963363E+02  0.00000000000E+00 0. -1.
         21    1    1    2  504  503  0.15617234210E+02  0.14553692523E+02  0.21508934810E+02  0.30304162208E+02  0.00000000000E+00 0.  1.
</event>
<event>
 4    1  0.3035432E+006  0.2629309E+02  0.7546771E-02  0.1454841E+00
         21   -1    0    0  504  501  0.00000000000E+00  0.00000000000E+00  0.18545546088E+02  0.18545546088E+02  0.00000000000E+00 0.  1.
         21   -1    0    0  503  502 -0.00000000000E+00 -0.00000000000E+00 -0.53150720319E+02  0.53150720319E+02  0.00000000000E+00 0.  1.
         21    1    1    2  503  501  0.19319678135E+02  0.17834709098E+02 -0.36893199741E+02  0.45303807776E+02  0.00000000000E+00 0.  1.
         21    1    1    2  504  502 -0.19319678135E+02 -0.17834709098E+02  0.22880255102E+01  0.26392458631E+02  0.00000000000E+00 0.  1.
</event>
<event>
 4    1  0.3035432E+006  0.2684523E+02  0.7546771E-02  0.1449169E+00
         21   -1    0    0  502  501  0.00000000000E+00  0.00000000000E+00  0.17679702212E+03  0.17679702212E+03  0.00000000000E+00 0. -1.
         21   -1    0    0  503  502 -0.00000000000E+00 -0.00000000000E+00 -0.19215255734E+02  0.19215255734E+02  0.00000000000E+00 0.  1.
         21    1    1    2  503  504 -0.20575396852E+02  0.17242958898E+02 -0.82010649567E+01  0.28069984923E+02  0.00000000000E+00 0.  1.
         21    1    1    2  504  501  0.20575396852E+02 -0.17242958898E+02  0.16578283135E+03  0.16794229293E+03  0.00000000000E+00 0. -1.
</event>
<event>
 4    1  0.3035432E+006  0.2611346E+02  0.7546771E-02  0.1456723E+00
         21   -1    0    0  503  501  0.00000000000E+00  0.00000000000E+00  0.26342310978E+02  0.26342310978E+02  0.00000000000E+00 0.  1.
         21   -1    0    0  504  502 -0.00000000000E+00 -0.00000000000E+00 -0.33924264404E+02  0.33924264404E+02  0.00000000000E+00 0.  1.
         21    1    1    2  503  502  0.24516100031E+02 -0.89929719047E+01  0.10876533521E+02  0.28288013112E+02  0.00000000000E+00 0.  1.
         21    1    1    2  504  501 -0.24516100031E+02  0.89929719047E+01 -0.18458486947E+02  0.31978562269E+02  0.00000000000E+00 0.  1.
</event>
<event>
 4    1  0.3035432E+006  0.2604566E+02  0.7546771E-02  0.1457438E+00
         21   -1    0    0  504  501  0.00000000000E+00  0.00000000000E+00  0.90166386941E+01  0.90166386941E+01  0.00000000000E+00 0.  1.
         21   -1    0    0  503  502 -0.00000000000E+00 -0.00000000000E+00 -0.75728440427E+02  0.75728440427E+02  0.00000000000E+00 0. -1.
         21    1    1    2  503  501 -0.25927724763E+02  0.24757328874E+01 -0.36772668203E+02  0.45062237977E+02  0.00000000000E+00 0.  1.
         21    1    1    2  504  502  0.25927724763E+02 -0.24757328874E+01 -0.29939133530E+02  0.39682841144E+02  0.00000000000E+00 0. -1.
</event>
<event>
 4    1  0.3035432E+006  0.2148438E+02  0.7546771E-02  0.1512460E+00
         21   -1    0    0  504  501  0.00000000000E+00  0.00000000000E+00  0.14530107497E+03  0.14530107497E+03  0.00000000000E+00 0.  1.
         21   -1    0    0  503  502 -0.00000000000E+00 -0.00000000000E+00 -0.42145429954E+01  0.42145429954E+01  0.00000000000E+00 0.  1.
         21    1    1    2  503  501 -0.21126434496E+02 -0.39054473217E+01  0.10764087814E+03  0.10976400776E+03  0.00000000000E+00 0.  1.
         21    1    1    2  504  502  0.21126434496E+02  0.39054473217E+01  0.33445653833E+02  0.39751610202E+02  0.00000000000E+00 0.  1.
</event>
<event>
 4    1  0.3035432E+006  0.2299506E+02  0.7546771E-02  0.1492560E+00
         21   -1    0    0  502  501  0.00000000000E+00  0.00000000000E+00  0.39013646042E+02  0.39013646042E+02  0.00000000000E+00 0.  1.
         21   -1    0    0  504  502 -0.00000000000E+00 -0.00000000000E+00 -0.16007703439E+02  0.16007703439E+02  0.00000000000E+00 0.  1.
         21    1    1    2  503  501 -0.20792421339E+01 -0.22900860709E+02  0.22274795239E+02  0.32014671200E+02  0.00000000000E+00 0.  1.
         21    1    1    2  504  503  0.20792421339E+01  0.22900860709E+02  0.73114736379E+00  0.23006678281E+02  0.00000000000E+00 0.  1.
</event>
<event>
 4    1  0.3035432E+006  0.4449230E+02  0.7546771E-02  0.1323998E+00
         21   -1    0    0  504  501  0.00000000000E+00  0.00000000000E+00  0.26286346556E+03  0.26286346556E+03  0.00000000000E+00 0.  1.
         21   -1    0    0  503  502 -0.00000000000E+00 -0.00000000000E+00 -0.51673014318E+02  0.51673014318E+02  0.00000000000E+00 0.  1.
         21    1    1    2  503  501 -0.28823412146E+02  0.33893591829E+02  0.25095235130E+03  0.25486593982E+03  0.00000000000E+00 0.  1.
         21    1    1    2  504  502  0.28823412146E+02 -0.33893591829E+02 -0.39761900059E+02  0.59670540061E+02  0.00000000000E+00 0.  1.
</event>
<event>
 4    1  0.3035432E+006  0.4265009E+02  0.7546771E-02  0.1333619E+00
         21   -1    0    0  503  501  0.00000000000E+00  0.00000000000E+00  0.15722268009E+02  0.15722268009E+02  0.00000000000E+00 0.  1.
         21   -1    0    0  504  502 -0.00000000000E+00 -0.00000000000E+00 -0.53763667966E+03  0.53763667966E+03  0.00000000000E+00 0. -1.
         21    1    1    2  503  502 -0.42594837460E+02  0.21702583046E+01 -0.15849298722E+02  0.45499785377E+02  0.00000000000E+00 0.  1.
         21    1    1    2  504  501  0.42594837460E+02 -0.21702583046E+01 -0.50606511293E+03  0.50785916229E+03  0.00000000000E+00 0. -1.
</event>
<event>
 4    1  0.3035432E+006  0.3030354E+02  0.7546771E-02  0.1416977E+00
         21   -1    0    0  502  501  0.00000000000E+00  0.00000000000E+00  0.17462348016E+01  0.17462348016E+01  0.00000000000E+00 0. -1.
         21   -1    0    0  504  502 -0.00000000000E+00 -0.00000000000E+00 -0.53637782661E+03  0.53637782661E+03  0.00000000000E+00 0. -1.
         21    1    1    2  503  501 -0.13312086568E+02  0.27223022042E+02 -0.30496279984E+03  0.30646470247E+03  0.00000000000E+00 0. -1.
         21    1    1    2  504  503  0.13312086568E+02 -0.27223022042E+02 -0.22966879197E+03  0.23165935894E+03  0.00000000000E+00 0. -1.
</event>
<event>
 4    1  0.3035432E+006  0.2532536E+02  0.7546771E-02  0.1465196E+00
         21   -1    0    0  504  501  0.00000000000E+00  0.00000000000E+00  0.33364355827E+02  0.33364355827E+02  0.00000000000E+00 0.  1.
         21   -1    0    0  503  502 -0.00000000000E+00 -0.00000000000E+00 -0.32450972413E+02  0.32450972413E+02  0.00000000000E+00 0. -1.
         21    1    1    2  503  501  0.51102833650E+01  0.24804414111E+02  0.21466614390E+02  0.33199239281E+02  0.00000000000E+00 0.  1.
         21    1    1    2  504  502 -0.51102833650E+01 -0.24804414111E+02 -0.20553230975E+02  0.32616088959E+02  0.00000000000E+00 0. -1.
</event>
<event>
 4    1  0.3035432E+006  0.2075298E+02  0.7546771E-02  0.1522821E+00
         21   -1    0    0  504  501  0.00000000000E+00  0.00000000000E+00  0.16497512037E+01  0.16497512037E+01  0.00000000000E+00 0.  1.
         21   -1    0    0  503  502 -0.00000000000E+00 -0.00000000000E+00 -0.81050769605E+03  0.81050769605E+03  0.00000000000E+00 0.  1.
         21    1    1    2  503  501 -0.21802651615E+01 -0.20638130558E+02 -0.73877362183E+03  0.73906505147E+03  0.00000000000E+00 0.  1.
         21    1    1    2  504  502  0.21802651615E+01  0.20638130558E+02 -0.70084323015E+02  0.73092395785E+02  0.00000000000E+00 0.  1.
</event>
<event>
 4    1  0.3035432E+006  0.2361721E+02  0.7546771E-02  0.1484890E+00
         21   -1    0    0  503  501  0.00000000000E+00  0.00000000000E+00  0.45319764434E+02  0.45319764434E+02  0.00000000000E+00 0.  1.
         21   -1    0    0  501  502 -0.00000000000E+00 -0.00000000000E+00 -0.13096975216E+02  0.13096975216E+02  0.00000000000E+00 0.  1.
         21    1    1    2  503  504 -0.18928274261E+02 -0.14124200450E+02  0.23282621595E+02  0.33164032825E+02  0.00000000000E+00 0.  1.
         21    1    1    2  504  502  0.18928274261E+02  0.14124200450E+02  0.89401676227E+01  0.25252706825E+02  0.00000000000E+00 0.  1.
</event>
<event>
 4    1  0.3035432E+006  0.2120085E+02  0.7546771E-02  0.1516416E+00
         21   -1    0    0  504  501  0.00000000000E+00  0.00000000000E+00  0.19987534117E+01  0.19987534117E+01  0.00000000000E+00 0. -1.
         21   -1    0    0  501  502 -0.00000000000E+00 -0.00000000000E+00 -0.89304054230E+03  0.89304054230E+03  0.00000000000E+00 0. -1.
         21    1    1    2  503  502  0.13274772974E+02  0.16530474774E+02 -0.83261583670E+03  0.83288571108E+03  0.00000000000E+00 0. -1.
         21    1    1    2  504  503 -0.13274772974E+02 -0.16530474774E+02 -0.58425952191E+02  0.62153584637E+02  0.00000000000E+00 0. -1.
</event>
<event>
 4    1  0.3035432E+006  0.2101892E+02  0.7546771E-02  0.1518995E+00
         21   -1    0    0  504  501  0.00000000000E+00  0.00000000000E+00  0.78906517045E+02  0.78906517045E+02  0.00000000000E+00 0. -1.
         21   -1    0    0  503  502 -0.00000000000E+00 -0.00000000000E+00 -0.36577026525E+03  0.36577026525E+03  0.00000000000E+00 0.  1.
         21    1    1    2  503  501 -0.20818448782E+02  0.28960442834E+01  0.77198251164E+02  0.80008529951E+02  0.00000000000E+00 0. -1.
         21    1    1    2  504  502  0.20818448782E+02 -0.28960442834E+01 -0.36406199937E+03  0.36466825235E+03  0.00000000000E+00 0.  1.
</event>
<event>
 4    1  0.3035432E+006  0.2196396E+02  0.7546771E-02  0.1505934E+00
         21   -1    0    0  503  501  0.00000000000E+00  0.00000000000E+00  0.11632413381E+01  0.11632413381E+01  0.00000000000E+00 0.  1.
         21   -1    0    0  504  502 -0.00000000000E+00 -0.00000000000E+00 -0.48454655513E+03  0.48454655513E+03  0.00000000000E+00 0.  1.
         21    1    1    2  503  502 -0.16753397346E+02  0.14203494381E+02 -0.33388504446E+03  0.33460669224E+03  0.00000000000E+00 0.  1.
         21    1    1    2  504  501  0.16753397346E+02 -0.14203494381E+02 -0.14949826933E+03  0.15110310423E+03  0.00000000000E+00 0.  1.
</event>
<event>
 4    1  0.3035432E+006  0.2535025E+02  0.7546771E-02  0.1464923E+00
         21   -1    0    0  503  501  0.00000000000E+00  0.00000000000E+00  0.26034303752E+03  0.26034303752E+03  0.00000000000E+00 0. -1.
         21   -1    0    0  504  502 -0.00000000000E+00 -0.00000000000E+00 -0.91564629294E+01  0.91564629294E+01  0.00000000000E+00 0.  1.
         21    1    1    2  503  502  0.23709893821E+02  0.89708617764E+01  0.10430096080E+02  0.27412083654E+02  0.00000000000E+00 0.  1.
         21    1    1    2  504  501 -0.23709893821E+02 -0.89708617764E+01  0.24075647851E+03  0.24208741679E+03  0.00000000000E+00 0. -1.
</event>
<event>
 4    1  0.3035432E+006  0.2511685E+02  0.7546771E-02  0.1467500E+00
         21   -1    0    0  503  501  0.00000000000E+00  0.00000000000E+00  0.97324456155E+02  0.97324456155E+02  0.00000000000E+00 0. -1.
         21   -1    0    0  501  502 -0.00000000000E+00 -0.00000000000E+00 -0.57833217602E+02  0.57833217602E+02  0.00000000000E+00 0. -1.
         21    1    1    2  503  504 -0.11765931916E+00  0.25116572019E+02  0.92847745123E+02  0.96185029023E+02  0.00000000000E+00 0. -1.
         21    1    1    2  504  502  0.11765931916E+00 -0.25116572019E+02 -0.53356506569E+02  0.58972644735E+02  0.00000000000E+00 0. -1.
</event>
<event>
 4    1  0.3035432E+006  0.2855926E+02  0.7546771E-02  0.1432544E+00
         21   -1    0    0  503  501  0.00000000000E+00  0.00000000000E+00  0.27736545691E+02  0.27736545691E+02  0.00000000000E+00 0. -1.
         21   -1    0    0  504  502 -0.00000000000E+00 -0.00000000000E+00 -0.47322051091E+02  0.47322051091E+02  0.00000000000E+00 0. -1.
         21    1    1    2  503  502  0.27049747617E+02 -0.91620170266E+01  0.13298910039E+02  0.31503847548E+02  0.00000000000E+00 0. -1.
         21    1    1    2  504  501 -0.27049747617E+02  0.91620170266E+01 -0.32884415439E+02  0.43554749234E+02  0.00000000000E+00 0. -1.
</event>
<event>
 4    1  0.3035432E+006  0.2363091E+02  0.7546771E-02  0.1484724E+00
         21   -1    0    0  503  501  0.00000000000E+00  0.00000000000E+00  0.19433199326E+02  0.19433199326E+02  0.00000000000E+00 0.  1.
         21   -1    0    0  504  502 -0.00000000000E+00 -0.00000000000E+00 -0.35628378852E+02  0.35628378852E+02  0.00000000000E+00 0.  1.
         21    1    1    2  503  502 -0.13512268714E+02  0.19386555251E+02 -0.20207068247E+02  0.31092531860E+02  0.00000000000E+00 0.  1.
         21    1    1    2  504  501  0.13512268714E+02 -0.19386555251E+02  0.40118887210E+01  0.23969046318E+02  0.00000000000E+00 0.  1.
</event>
<event>
 4    1  0.3035432E+006  0.2754651E+02  0.7546771E-02  0.1442194E+00
         21   -1    0    0  504  501  0.00000000000E+00  0.00000000000E+00  0.35342623601E+03  0.35342623601E+03  0.00000000000E+00 0. -1.
         21   -1    0    0  503  502 -0.00000000000E+00 -0.00000000000E+00 -0.34422379100E+01  0.34422379100E+01  0.00000000000E+00 0. -1.
         21    1    1    2  503  501  0.27546376793E+02  0.85852593210E-01  0.65538268758E+02  0.71092017251E+02  0.00000000000E+00 0. -1.
         21    1    1    2  504  502 -0.27546376793E+02 -0.85852593210E-01  0.28444572934E+03  0.28577645667E+03  0.00000000000E+00 0. -1.
</event>
<event>
 4    1  0.3035432E+006  0.2737016E+02  0.7546771E-02  0.1443925E+00
         21   -1    0    0  503  501  0.00000000000E+00  0.00000000000E+00  0.34035816058E+02  0.34035816058E+02  0.00000000000E+00 0.  1.
         21   -1    0    0  504  502 -0.00000000000E+00 -0.00000000000E+00 -0.29575067740E+02  0.29575067740E+02  0.00000000000E+00 0.  1.
         21    1    1    2  503  502  0.76701639388E+01 -0.26273450824E+02 -0.13855594912E+02  0.30677404444E+02  0.00000000000E+00 0.  1.
         21    1    1    2  504  501 -0.76701639388E+01  0.26273450824E+02  0.18316343231E+02  0.32933479354E+02  0.00000000000E+00 0.  1.
</event>
<event>
 4    1  0.3035432E+006  0.3244423E+02  0.7546771E-02  0.1399480E+00
         21   -1    0    0  504  501  0.00000000000E+00  0.00000000000E+00  0.16373294912E+04  0.16373294912E+04  0.00000000000E+00 0. -1.
         21   -1    0    0  503  502 -0.00000000000E+00 -0.00000000000E+00 -0.64345059483E+00  0.64345059483E+00  0.00000000000E+00 0. -1.
         21    1    1    2  503  501  0.30967064383E+02  0.96782643510E+01  0.79423681547E+03  0.79489920552E+03  0.00000000000E+00 0. -1.
         21    1    1    2  504  502 -0.30967064383E+02 -0.96782643510E+01  0.84244922515E+03  0.84307373630E+03  0.00000000000E+00 0. -1.
</event>
<event>
 4    1  0.3035432E+006  0.2657868E+02  0.7546771E-02  0.1451887E+00
         21   -1    0    0  504  501  0.00000000000E+00  0.00000000000E+00  0.47795407492E+02  0.47795407492E+02  0.00000000000E+00 0. -1.
         21   -1    0    0  503  502 -0.00000000000E+00 -0.00000000000E+00 -0.15095848717E+02  0.15095848717E+02  0.00000000000E+00 0. -1.
         21    1    1    2  503  501  0.92820659694E+01  0.24905206733E+02  0.11802748360E+02  0.29081453539E+02  0.00000000000E+00 0. -1.
         21    1    1    2  504  502 -0.92820659694E+01 -0.24905206733E+02  0.20896810415E+02  0.33809802670E+02  0.00000000000E+00 0. -1.
</event>
<event>
 4    1  0.3035432E+006  0.2483407E+02  0.7546771E-02  0.1470668E+00
         21   -1    0    0  502  501  0.00000000000E+00  0.00000000000E+00  0.79624164837E+02  0.79624164837E+02  0.00000000000E+00 0.  1.
         21   -1    0    0  503  502 -0.00000000000E+00 -0.00000000000E+00 -0.27443357660E+03  0.27443357660E+03  0.00000000000E+00 0. -1.
         21    1    1    2  503  504 -0.21845456937E+02  0.11811305126E+02 -0.27191749347E+03  0.27304917904E+03  0.00000000000E+00 0. -1.
         21    1    1    2  504  501  0.21845456937E+02 -0.11811305126E+02  0.77108081707E+02  0.81008562400E+02  0.00000000000E+00 0.  1.
</event>
<event>
 4    1  0.3035432E+006  0.2506362E+02  0.7546771E-02  0.1468093E+00
         21   -1    0    0  503  501  0.00000000000E+00  0.00000000000E+00  0.12485706227E+03  0.12485706227E+03  0.00000000000E+00 0.  1.
         21   -1    0    0  501  502 -0.00000000000E+00 -0.00000000000E+00 -0.34549280619E+02  0.34549280619E+02  0.00000000000E+00 0.  1.
         21    1    1    2  503  504 -0.13605844442E+02 -0.21049128633E+02  0.11882546023E+03  0.12144000502E+03  0.00000000000E+00 0.  1.
         21    1    1    2  504  502  0.13605844442E+02  0.21049128633E+02 -0.28517678585E+02  0.37966337868E+02  0.00000000000E+00 0.  1.
</event>
<event>
 4    1  0.3035432E+006  0.2434577E+02  0.7546771E-02  0.1476257E+00
         21   -1    0    0  503  501  0.00000000000E+00  0.00000000000E+00  0.12046107918E+01  0.12046107918E+01  0.00000000000E+00 0. -1.
         21   -1    0    0  504  502 -0.00000000000E+00 -0.00000000000E+00 -0.51703059301E+03  0.51703059301E+03  0.00000000000E+00 0. -1.
         21    1    1    2  503  502  0.19617139928E+02 -0.14418191135E+02 -0.31488074436E+03  0.31582051799E+03  0.00000000000E+00 0. -1.
         21    1    1    2  504  501 -0.19617139928E+02  0.14418191135E+02 -0.20094523786E+03  0.20241468581E+03  0.00000000000E+00 0. -1.
</event>
<event>
 4    1  0.3035432E+006  0.2141361E+02  0.7546771E-02  0.1513441E+00
         21   -1    0    0  502  501  0.00000000000E+00  0.00000000000E+00  0.35107771496E+03  0.35107771496E+03  0.00000000000E+00 0. -1.
         21   -1    0    0  503  502 -0.00000000000E+00 -0.00000000000E+00 -0.38160828286E+02  0.38160828286E+02  0.00000000000E+00 0. -1.
         21    1    1    2  503  504 -0.12798735980E+02  0.17167851488E+02 -0.34801292083E+02  0.40861628676E+02  0.00000000000E+00 0. -1.
         21    1    1    2  504  501  0.12798735980E+02 -0.17167851488E+02  0.34771817875E+03  0.34837691457E+03  0.00000000000E+00 0. -1.
</event>
<event>
 4    1  0.3035432E+006  0.4000057E+02  0.7546771E-02  0.1348482E+00
         21   -1    0    0  502  501  0.00000000000E+00  0.00000000000E+00  0.98819726500E+02  0.98819726500E+02  0.00000000000E+00 0. -1.
         21   -1    0    0  503  502 -0.00000000000E+00 -0.00000000000E+00 -0.51982814853E+02  0.51982814853E+02  0.00000000000E+00 0.  1.
         21    1    1    2  503  504  0.11736172873E+02  0.38240134071E+02 -0.39147376475E+02  0.55969301339E+02  0.00000000000E+00 0.  1.
         21    1    1    2  504  501 -0.11736172873E+02 -0.38240134071E+02  0.85984288123E+02  0.94833240014E+02  0.00000000000E+00 0. -1.
</event>
<event>
 4    1  0.3035432E+006  0.2314264E+02  0.7546771E-02  0.1490715E+00
         21   -1    0    0  504  501  0.00000000000E+00  0.00000000000E+00  0.36627654940E+03  0.36627654940E+03  0.00000000000E+00 0.  1.
         21   -1    0    0  503  502 -0.00000000000E+00 -0.00000000000E+00 -0.39000199652E+01  0.39000199652E+01  0.00000000000E+00 0.  1.
         21    1    1    2  503  501 -0.15747382235E+02 -0.16958825250E+02  0.32752162847E+03  0.32833823859E+03  0.00000000000E+00 0.  1.
         21    1    1    2  504  502  0.15747382235E+02  0.16958825250E+02  0.34854900957E+02  0.41838330773E+02  0.00000000000E+00 0.  1.
</event>
<event>
 4    1  0.3035432E+006  0.2374631E+02  0.7546771E-02  0.1483334E+00
         21   -1    0    0  504  501  0.00000000000E+00  0.00000000000E+00  0.17707930516E+03  0.17707930516E+03  0.00000000000E+00 0. -1.
         21   -1    0    0  503  502 -0.00000000000E+00 -0.00000000000E+00 -0.36585526805E+01  0.36585526805E+01  0.00000000000E+00 0. -1.
         21    1    1    2  503  501 -0.53706517192E+01  0.23130998991E+02  0.11924417448E+03  0.12158560836E+03  0.00000000000E+00 0. -1.
         21    1    1    2  504  502  0.53706517192E+01 -0.23130998991E+02  0.54176577999E+02  0.59152249475E+02  0.00000000000E+00 0. -1.
</event>
<event>
 4    1  0.3035432E+006  0.2018266E+02  0.7546771E-02  0.1531261E+00
         21   -1    0    0  504  501  0.00000000000E+00  0.00000000000E+00  0.44737121300E+02  0.44737121300E+02  0.00000000000E+00 0.  1.
         21   -1    0    0  503  502 -0.00000000000E+00 -0.00000000000E+00 -0.43099920229E+02  0.43099920229E+02  0.00000000000E+00 0. -1.
         21    1    1    2  503  501 -0.19181554134E+02 -0.62775729988E+01  0.39823151029E+02  0.44645529447E+02  0.00000000000E+00 0.  1.
         21    1    1    2  504  502  0.19181554134E+02  0.62775729988E+01 -0.38185949958E+02  0.43191512082E+02  0.00000000000E+00 0. -1.
</event>
<event>
 4    1  0.3035432E+006  0.3224668E+02  0.7546771E-02  0.1401027E+00
         21   -1    0    0  503  501  0.00000000000E+00  0.00000000000E+00  0.95883591820E+01  0.95883591820E+01  0.00000000000E+00 0. -1.
         21   -1    0    0  504  502 -0.00000000000E+00 -0.00000000000E+00 -0.17483698762E+03  0.17483698762E+03  0.00000000000E+00 0. -1.
         21    1    1    2  503  502 -0.32162827337E+02 -0.23239847438E+01 -0.25802045395E+02  0.41298836715E+02  0.00000000000E+00 0. -1.
         21    1    1    2  504  501  0.32162827337E+02  0.23239847438E+01 -0.13944658304E+03  0.14312651009E+03  0.00000000000E+00 0. -1.
</event>
<event>
 4    1  0.3035432E+006  0.5804122E+02  0.7546771E-02  0.1266637E+00
         21   -1    0    0  502  501  0.00000000000E+00  0.00000000000E+00  0.82360392701E+02  0.82360392701E+02  0.00000000000E+00 0. -1.
         21   -1    0    0  503  502 -0.00000000000E+00 -0.00000000000E+00 -0.71858944193E+02  0.71858944193E+02  0.00000000000E+00 0. -1.
         21    1    1    2  503  504 -0.44822350568E+02  0.36874649771E+02 -0.45359796753E+02  0.73663383493E+02  0.00000000000E+00 0. -1.
         21    1    1    2  504  501  0.44822350568E+02 -0.36874649771E+02  0.55861245262E+02  0.80555953401E+02  0.00000000000E+00 0. -1.
</event>
<event>
 4    1  0.3035432E+006  0.2448075E+02  0.7546771E-02  0.1474697E+00
         21   -1    0    0  504  501  0.00000000000E+00  0.00000000000E+00  0.38010703279E+02  0.38010703279E+02  0.00000000000E+00 0. -1.
         21   -1    0    0  503  502 -0.00000000000E+00 -0.00000000000E+00 -0.55574614087E+02  0.55574614087E+02  0.00000000000E+00 0.  1.
         21    1    1    2  503  501 -0.50480700827E+01 -0.23954620950E+02  0.30820644606E+02  0.39360119542E+02  0.00000000000E+00 0. -1.
         21    1    1    2  504  502  0.50480700827E+01  0.23954620950E+02 -0.48384555414E+02  0.54225197824E+02  0.00000000000E+00 0.  1.
</event>
<event>
 4    1  0.3035432E+006  0.2163942E+02  0.7546771E-02  0.1510328E+00
         21   -1    0    0  503  501  0.00000000000E+00  0.00000000000E+00  0.58727964716E+02  0.58727964716E+02  0.00000000000E+00 0. -1.
         21   -1    0    0  504  502 -0.00000000000E+00 -0.00000000000E+00 -0.93540550224E+01  0.93540550224E+01  0.00000000000E+00 0. -1.
         21    1    1    2  503  502 -0.21448875147E+02  0.28653421021E+01  0.11609074483E+02  0.24556771791E+02  0.00000000000E+00 0. -1.
         21    1    1    2  504  501  0.21448875147E+02 -0.28653421021E+01  0.37764835211E+02  0.43525247948E+02  0.00000000000E+00 0. -1.
</event>
<event>
 4    1  0.3035432E+006  0.2659739E+02  0.7546771E-02  0.1451695E+00
         21   -1    0    0  502  501  0.00000000000E+00  0.00000000000E+00  0.58568946349E+01  0.58568946349E+01  0.00000000000E+00 0.  1.
         21   -1    0    0  503  502 -0.00000000000E+00 -0.00000000000E+00 -0.40461306950E+03  0.40461306950E+03  0.00000000000E+00 0.  1.
         21    1    1    2  503  504  0.23358435372E+02 -0.12720240653E+02 -0.37127165591E+03  0.37222313672E+03  0.00000000000E+00 0.  1.
         21    1    1    2  504  501 -0.23358435372E+02  0.12720240653E+02 -0.27484518953E+02  0.38246827416E+02  0.00000000000E+00 0.  1.
</event>
<event>
 4    1  0.3035432E+006  0.2216701E+02  0.7546771E-02  0.1503232E+00
         21   -1    0    0  502  501  0.00000000000E+00  0.00000000000E+00  0.28253558151E+02  0.28253558151E+02  0.00000000000E+00 0. -1.
         21   -1    0    0  504  502 -0.00000000000E+00 -0.00000000000E+00 -0.21427635454E+02  0.21427635454E+02  0.00000000000E+00 0. -1.
         21    1    1    2  503  501  0.86167599252E+01  0.20423709776E+02  0.14193706679E+02  0.26321811904E+02  0.00000000000E+00 0. -1.
         21    1    1    2  504  503 -0.86167599252E+01 -0.20423709776E+02 -0.73677839819E+01  0.23359381701E+02  0.00000000000E+00 0. -1.
</event>
<event>
 4    1  0.3035432E+006  0.2125586E+02  0.7546771E-02  0.1515643E+00
         21   -1    0    0  502  501  0.00000000000E+00  0.00000000000E+00  0.27014419499E+02  0.27014419499E+02  0.00000000000E+00 0.  1.
         21   -1    0    0  503  502 -0.00000000000E+00 -0.00000000000E+00 -0.36809908284E+02  0.36809908284E+02  0.00000000000E+00 0.  1.
         21    1    1    2  503  504 -0.54528237284E+01  0.20544548635E+02 -0.28470511948E+02  0.35530012888E+02  0.00000000000E+00 0.  1.
         21    1    1    2  504  501  0.54528237284E+01 -0.20544548635E+02  0.18675023163E+02  0.28294314895E+02  0.00000000000E+00 0.  1.
</event>
<event>
 4    1  0.3035432E+006  0.2341099E+02  0.7546771E-02  0.1487401E+00
         21   -1    0    0  502  501  0.00000000000E+00  0.00000000000E+00  0.42656038719E+03  0.42656038719E+03  0.00000000000E+00 0. -1.
         21   -1    0    0  503  502 -0.00000000000E+00 -0.00000000000E+00 -0.15377630493E+02  0.15377630493E+02  0.00000000000E+00 0.  1.
         21    1    1    2  503  504  0.96297895519E+01  0.21338733133E+02 -0.59448235021E+01  0.24153991492E+02  0.00000000000E+00 0.  1.
         21    1    1    2  504  501 -0.96297895519E+01 -0.21338733133E+02  0.41712758020E+03  0.41778402619E+03  0.00000000000E+00 0. -1.
</event>
<event>
 4    1  0.3035432E+006  0.2314394E+02  0.7546771E-02  0.1490699E+00
         21   -1    0    0  503  501  0.00000000000E+00  0.00000000000E+00  0.20949698878E+02  0.20949698878E+02  0.00000000000E+00 0.  1.
         21   -1    0    0  504  502 -0.00000000000E+00 -0.00000000000E+00 -0.25582450726E+02  0.25582450726E+02  0.00000000000E+00 0.  1.
         21    1    1    2  503  502 -0.13488738163E+02 -0.18806804942E+02 -0.17634743834E+01  0.23211027794E+02  0.00000000000E+00 0.  1.
         21    1    1    2  504  501  0.13488738163E+02  0.18806804942E+02 -0.28692774650E+01  0.23321121811E+02  0.00000000000E+00 0.  1.
</event>
<event>
 4    1  0.3035432E+006  0.2178902E+02  0.7546771E-02  0.1508291E+00
         21   -1    0    0  504  501  0.00000000000E+00  0.00000000000E+00  0.42388324567E+01  0.42388324567E+01  0.00000000000E+00 0.  1.
         21   -1    0    0  501  502 -0.00000000000E+00 -0.00000000000E+00 -0.19816280063E+03  0.19816280063E+03  0.00000000000E+00 0. -1.
         21    1    1    2  503  502  0.93067010739E+01 -0.19701434676E+02 -0.16369269209E+03  0.16513648494E+03  0.00000000000E+00 0. -1.
         21    1    1    2  504  503 -0.93067010739E+01  0.19701434676E+02 -0.30231276086E+02  0.37265148154E+02  0.00000000000E+00 0.  1.
</event>
<event>
 4    1  0.3035432E+006  0.2675238E+02  0.7546771E-02  0.1450111E+00
         21   -1    0    0  502  501  0.00000000000E+00  0.00000000000E+00  0.25055113819E+03  0.25055113819E+03  0.00000000000E+00 0. -1.
         21   -1    0    0  503  502 -0.00000000000E+00 -0.00000000000E+00 -0.74680953164E+01  0.74680953164E+01  0.00000000000E+00 0. -1.
         21    1    1    2  503  504 -0.63936109274E+00 -0.26744740651E+02  0.20163334824E+02  0.33500000094E+02  0.00000000000E+00 0. -1.
         21    1    1    2  504  501  0.63936109274E+00  0.26744740651E+02  0.22291970805E+03  0.22451923341E+03  0.00000000000E+00 0. -1.
</event>
<event>
 4    1  0.3035432E+006  0.2078864E+02  0.7546771E-02  0.1522304E+00
         21   -1    0    0  504  501  0.00000000000E+00  0.00000000000E+00  0.31658597811E+01  0.31658597811E+01  0.00000000000E+00 0.  1.
         21   -1    0    0  503  502 -0.00000000000E+00 -0.00000000000E+00 -0.36921783936E+03  0.36921783936E+03  0.00000000000E+00 0. -1.
         21    1    1    2  503  501 -0.11584672063E+02 -0.17261598538E+02 -0.33084355536E+03  0.33149604150E+03  0.00000000000E+00 0. -1.
         21    1    1    2  504  502  0.11584672063E+02  0.17261598538E+02 -0.35208424219E+02  0.40887657635E+02  0.00000000000E+00 0.  1.
</event>
<event>
 4    1  0.3035432E+006  0.3506922E+02  0.7546771E-02  0.1380077E+00
         21   -1    0    0  504  501  0.00000000000E+00  0.00000000000E+00  0.23020966524E+02  0.23020966524E+02  0.00000000000E+00 0. -1.
         21   -1    0    0  503  502 -0.00000000000E+00 -0.00000000000E+00 -0.23854563211E+03  0.23854563211E+03  0.00000000000E+00 0.  1.
         21    1    1    2  503  501 -0.25459518415E+02 -0.24117697335E+02  0.74492774332E+01  0.35851668537E+02  0.00000000000E+00 0. -1.
         21    1    1    2  504  502  0.25459518415E+02  0.24117697335E+02 -0.22297394302E+03  0.22571493010E+03  0.00000000000E+00 0.  1.
</event>
<event>
 4    1  0.3035432E+006  0.2134513E+02  0.7546771E-02  0.1514394E+00
         21   -1    0    0  504  501  0.00000000000E+00  0.00000000000E+00  0.56332800408E+02  0.56332800408E+02  0.00000000000E+00 0.  1.
         21   -1    0    0  503  502 -0.00000000000E+00 -0.00000000000E+00 -0.81072810337E+01  0.81072810337E+01  0.00000000000E+00 0.  1.
         21    1    1    2  503  501  0.20029818188E+02 -0.73770660362E+01  0.25687630481E+02  0.33398638890E+02  0.00000000000E+00 0.  1.
         21    1    1    2  504  502 -0.20029818188E+02  0.73770660362E+01  0.22537888893E+02  0.31041442552E+02  0.00000000000E+00 0.  1.
</event>
<event>
 4    1  0.3035432E+006  0.2426428E+02  0.7546771E-02  0.1477205E+00
         21   -1    0    0  503  501  0.00000000000E+00  0.00000000000E+00  0.18792536544E+03  0.18792536544E+03  0.00000000000E+00 0. -1.
         21   -1    0    0  501  502 -0.00000000000E+00 -0.00000000000E+00 -0.69432305409E+01  0.69432305409E+01  0.00000000000E+00 0. -1.
         21    1    1    2  503  504  0.22313030200E+02 -0.95333136456E+01  0.16267012014E+03  0.16446982511E+03  0.00000000000E+00 0. -1.
         21    1    1    2  504  502 -0.22313030200E+02  0.95333136456E+01  0.18312014757E+02  0.30398770867E+02  0.00000000000E+00 0. -1.
</event>
<event>
 4    1  0.3035432E+006  0.3090609E+02  0.7546771E-02  0.1411882E+00
         21   -1    0    0  503  501  0.00000000000E+00  0.00000000000E+00  0.16726651740E+04  0.16726651740E+04  0.00000000000E+00 0. -1.
         21   -1    0    0  504  502 -0.00000000000E+00 -0.00000000000E+00 -0.42213019762E+01  0.42213019762E+01  0.00000000000E+00 0.  1.
         21    1    1    2  503  502 -0.27614255705E+02  0.13879465039E+02  0.54550759288E+02  0.62697464118E+02  0.00000000000E+00 0.  1.
         21    1    1    2  504  501  0.27614255705E+02 -0.13879465039E+02  0.16138931128E+04  0.16141890119E+04  0.00000000000E+00 0. -1.
</event>
<event>
 4    1  0.3035432E+006  0.2199612E+02  0.7546771E-02  0.1505504E+00
         21   -1    0    0  504  501  0.00000000000E+00  0.00000000000E+00  0.74650638061E+02  0.74650638061E+02  0.00000000000E+00 0.  1.
         21   -1    0    0  503  502 -0.00000000000E+00 -0.00000000000E+00 -0.69657233353E+03  0.69657233353E+03  0.00000000000E+00 0.  1.
         21    1    1    2  503  501  0.15874994298E+02  0.15225428592E+02  0.72852487768E+02  0.76100683924E+02  0.00000000000E+00 0.  1.
         21    1    1    2  504  502 -0.15874994298E+02 -0.15225428592E+02 -0.69477418324E+03  0.69512228767E+03  0.00000000000E+00 0.  1.
</event>
<event>
 4    1  0.3035432E+006  0.2191423E+02  0.7546771E-02  0.1506602E+00
         21   -1    0    0  503  501  0.00000000000E+00  0.00000000000E+00  0.59584839450E+02  0.59584839450E+02  0.00000000000E+00 0. -1.
         21   -1    0    0  501  502 -0.00000000000E+00 -0.00000000000E+00 -0.25842563735E+02  0.25842563735E+02  0.00000000000E+00 0.  1.
         21    1    1    2  503  504  0.21210043924E+02  0.55106673489E+01  0.52303554694E+02  0.56708863959E+02  0.00000000000E+00 0. -1.
         21    1    1    2  504  502 -0.21210043924E+02 -0.55106673489E+01 -0.18561278979E+02  0.28718539226E+02  0.00000000000E+00 0.  1.
</event>
<event>
 4    1  0.3035432E+006  0.3485400E+02  0.7546771E-02  0.1381592E+00
         21   -1    0    0  503  501  0.00000000000E+00  0.00000000000E+00  0.20720170386E+01  0.20720170386E+01  0.00000000000E+00 0.  1.
         21   -1    0    0  501  502 -0.00000000000E+00 -0.00000000000E+00 -0.12269320665E+04  0.12269320665E+04  0.00000000000E+00 0.  1.
         21    1    1    2  503  504  0.19888111360E+02 -0.28622798210E+02 -0.16839112939E+03  0.17196038499E+03  0.00000000000E+00 0.  1.
         21    1    1    2  504  502 -0.19888111360E+02  0.28622798210E+02 -0.10564689200E+04  0.10570436985E+04  0.00000000000E+00 0.  1.
</event>
<event>
 4    1  0.3035432E+006  0.2104945E+02  0.7546771E-02  0.1518560E+00
         21   -1    0    0  504  501  0.00000000000E+00  0.00000000000E+00  0.67776886920E+02  0.67776886920E+02  0.00000000000E+00 0. -1.
         21   -1    0    0  503  502 -0.00000000000E+00 -0.00000000000E+00 -0.11810956724E+02  0.11810956724E+02  0.00000000000E+00 0. -1.
         21    1    1    2  503  501 -0.14093904648E+02  0.15634615140E+02  0.13922986075E+01  0.21095445817E+02  0.00000000000E+00 0. -1.
         21    1    1    2  504  502  0.14093904648E+02 -0.15634615140E+02  0.54573631589E+02  0.58492397827E+02  0.00000000000E+00 0. -1.
</event>
<event>
 4    1  0.3035432E+006  0.2325490E+02  0.7546771E-02  0.1489322E+00
         21   -1    0    0  502  501  0.00000000000E+00  0.00000000000E+00  0.40713535319E+02  0.40713535319E+02  0.00000000000E+00 0.  1.
         21   -1    0    0  504  502 -0.00000000000E+00 -0.00000000000E+00 -0.25758423857E+02  0.25758423857E+02  0.00000000000E+00 0. -1.
         21    1    1    2  503  501  0.13145547920E+02  0.19182938941E+02  0.30607768213E+02  0.38439901815E+02  0.00000000000E+00 0.  1.
         21    1    1    2  504  503 -0.13145547920E+02 -0.19182938941E+02 -0.15652656750E+02  0.28032057361E+02  0.00000000000E+00 0. -1.
</event>
<event>
 4    1  0.3035432E+006  0.2968844E+02  0.7546771E-02  0.1422324E+00
         21   -1    0    0  503  501  0.00000000000E+00  0.00000000000E+00  0.70624389206E+03  0.70624389206E+03  0.00000000000E+00 0.  1.
         21   -1    0    0  501  502 -0.00000000000E+00 -0.00000000000E+00 -0.55638298098E+02  0.55638298098E+02  0.00000000000E+00 0.  1.
         21    1    1    2  503  504  0.28550184755E+02 -0.81418940420E+01  0.70194723987E+03  0.70257478680E+03  0.00000000000E+00 0.  1.
         21    1    1    2  504  502 -0.28550184755E+02  0.81418940420E+01 -0.51341645909E+02  0.59307403355E+02  0.00000000000E+00 0.  1.
</event>
<event>
 4    1  0.3035432E+006  0.2154491E+02  0.7546771E-02  0.1511625E+00
         21   -1    0    0  503  501  0.00000000000E+00  0.00000000000E+00  0.63906056124E+01  0.63906056124E+01  0.00000000000E+00 0.  1.
         21   -1    0    0  504  502 -0.00000000000E+00 -0.00000000000E+00 -0.22117600425E+03  0.22117600425E+03  0.00000000000E+00 0.  1.
         21    1    1    2  503  502  0.10475282893E+02 -0.18826885061E+02 -0.14146235375E+02  0.25774001010E+02  0.00000000000E+00 0.  1.
         21    1    1    2  504  501 -0.10475282893E+02  0.18826885061E+02 -0.20063916326E+03  0.20179260885E+03  0.00000000000E+00 0.  1.
</event>
<event>
 4    1  0.3035432E+006  0.2299449E+02  0.7546771E-02  0.1492567E+00
         21   -1    0    0  504  501  0.00000000000E+00  0.00000000000E+00  0.29793248655E+01  0.29793248655E+01  0.00000000000E+00 0.  1.
         21   -1    0    0  501  502 -0.00000000000E+00 -0.00000000000E+00 -0.20924294099E+03  0.20924294099E+03  0.00000000000E+00 0.  1.
         21    1    1    2  503  502  0.12995371087E+02 -0.18970156820E+02 -0.61784133028E+02  0.65924393159E+02  0.00000000000E+00 0.  1.
         21    1    1    2  504  503 -0.12995371087E+02  0.18970156820E+02 -0.14447948310E+03  0.14629787270E+03  0.00000000000E+00 0.  1.
</event>
<event>
 4    1  0.3035432E+006  0.2223381E+02  0.7546771E-02  0.1502350E+00
         21   -1    0    0  504  501  0.00000000000E+00  0.00000000000E+00  0.54679880154E+00  0.54679880154E+00  0.00000000000E+00 0.  1.
         21   -1    0    0  501  502 -0.00000000000E+00 -0.00000000000E+00 -0.17076635876E+04  0.17076635876E+04  0.00000000000E+00 0.  1.
         21    1    1    2  503  502 -0.17612374699E+02 -0.13570057142E+02 -0.14394665207E+04  0.14396382206E+04  0.00000000000E+00 0.  1.
         21    1    1    2  504  503  0.17612374699E+02  0.13570057142E+02 -0.26765026809E+03  0.26857216572E+03  0.00000000000E+00 0.  1.
</event>
<event>
 4    1  0.3035432E+006  0.2223797E+02  0.7546771E-02  0.1502295E+00
         21   -1    0    0  504  501  0.00000000000E+00  0.00000000000E+00  0.17334164114E+02  0.17334164114E+02  0.00000000000E+00 0.  1.
         21   -1    0    0  503  502 -0.00000000000E+00 -0.00000000000E+00 -0.45517422403E+03  0.45517422403E+03  0.00000000000E+00 0.  1.
         21    1    1    2  503  501  0.11354929100E+02  0.19120480460E+02  0.98104898147E+01  0.24305820256E+02  0.00000000000E+00 0.  1.
         21    1    1    2  504  502 -0.11354929100E+02 -0.19120480460E+02 -0.44765054973E+03  0.44820256789E+03  0.00000000000E+00 0.  1.
</event>
<event>
 4    1  0.3035432E+006  0.2590339E+02  0.7546771E-02  0.1458946E+00
         21   -1    0    0  502  501  0.00000000000E+00  0.00000000000E+00  0.14006106188E+03  0.14006106188E+03  0.00000000000E+00 0. -1.
         21   -1    0    0  504  502 -0.00000000000E+00 -0.00000000000E+00 -0.18536097247E+02  0.18536097247E+02  0.00000000000E+00 0.  1.
         21    1    1    2  503  501  0.24778819323E+02 -0.75495591073E+01  0.12904907571E+03  0.13162313501E+03  0.00000000000E+00 0. -1.
         21    1    1    2  504  503 -0.24778819323E+02  0.75495591073E+01 -0.75241110695E+01  0.26974024119E+02  0.00000000000E+00 0.  1.
</event>
<event>
 4    1  0.3035432E+006  0.2996220E+02  0.7546771E-02  0.1419925E+00
         21   -1    0    0  502  501  0.00000000000E+00  0.00000000000E+00  0.10162773903E+03  0.10162773903E+03  0.00000000000E+00 0. -1.
         21   -1    0    0  504  502 -0.00000000000E+00 -0.00000000000E+00 -0.28001845709E+02  0.28001845709E+02  0.00000000000E+00 0. -1.
         21    1    1    2  503  501  0.29197101832E+02 -0.67277632212E+01  0.90438597141E+02  0.95272626742E+02  0.00000000000E+00 0. -1.
         21    1    1    2  504  503 -0.29197101832E+02  0.67277632212E+01 -0.16812703817E+02  0.34356958000E+02  0.00000000000E+00 0. -1.
</event>
<event>
 4    1  0.3035432E+006  0.3099053E+02  0.7546771E-02  0.1411180E+00
         21   -1    0    0  504  501  0.00000000000E+00  0.00000000000E+00  0.24621695551E+02  0.24621695551E+02  0.00000000000E+00 0. -1.
         21   -1    0    0  503  502 -0.00000000000E+00 -0.00000000000E+00 -0.44435089816E+02  0.44435089816E+02  0.00000000000E+00 0. -1.
         21    1    1    2  503  501 -0.30971541416E+02 -0.10846002411E+01  0.21616050014E+01  0.31065821598E+02  0.00000000000E+00 0. -1.
         21    1    1    2  504  502  0.30971541416E+02  0.10846002411E+01 -0.21974999267E+02  0.37990963769E+02  0.00000000000E+00 0. -1.
</event>
<event>
 4    1  0.3035432E+006  0.2107520E+02  0.7546771E-02  0.1518194E+00
         21   -1    0    0  504  501  0.00000000000E+00  0.00000000000E+00  0.81513531721E+03  0.81513531721E+03  0.00000000000E+00 0. -1.
         21   -1    0    0  501  502 -0.00000000000E+00 -0.00000000000E+00 -0.16282322639E+01  0.16282322639E+01  0.00000000000E+00 0. -1.
         21    1    1    2  503  502 -0.15264658880E+02 -0.14531140484E+02  0.73641875366E+02  0.76598235371E+02  0.00000000000E+00 0. -1.
         21    1    1    2  504  503  0.15264658880E+02  0.14531140484E+02  0.73986520958E+03  0.74016531410E+03  0.00000000000E+00 0. -1.
</event>
<event>
 4    1  0.3035432E+006  0.2405849E+02  0.7546771E-02  0.1479618E+00
         21   -1    0    0  502  501  0.00000000000E+00  0.00000000000E+00  0.51988041014E+03  0.51988041014E+03  0.00000000000E+00 0. -1.
         21   -1    0    0  503  502 -0.00000000000E+00 -0.00000000000E+00 -0.10116728141E+02  0.10116728141E+02  0.00000000000E+00 0. -1.
         21    1    1    2  503  504 -0.18297905353E+02  0.15620420391E+02  0.48898238073E+01  0.24550381878E+02  0.00000000000E+00 0. -1.
         21    1    1    2  504  501  0.18297905353E+02 -0.15620420391E+02  0.50487385819E+03  0.50544675640E+03  0.00000000000E+00 0. -1.
</event>
<event>
 4    1  0.3035432E+006  0.2885194E+02  0.7546771E-02  0.1429842E+00
         21   -1    0    0  502  501  0.00000000000E+00  0.00000000000E+00  0.73759944143E+02  0.73759944143E+02  0.00000000000E+00 0.  1.
         21   -1    0    0  504  502 -0.00000000000E+00 -0.00000000000E+00 -0.15949692126E+02  0.15949692126E+02  0.00000000000E+00 0.  1.
         21    1    1    2  503  501 -0.28727225487E+02 -0.26797807636E+01  0.53160642228E+02  0.60485441151E+02  0.00000000000E+00 0.  1.
         21    1    1    2  504  503  0.28727225487E+02  0.26797807636E+01  0.46496097890E+01  0.29224195119E+02  0.00000000000E+00 0.  1.
</event>
<event>
 4    1  0.3035432E+006  0.3244977E+02  0.7546771E-02  0.1399437E+00
         21   -1    0    0  504  501  0.00000000000E+00  0.00000000000E+00  0.18706349503E+03  0.18706349503E+03  0.00000000000E+00 0. -1.
         21   -1    0    0  503  502 -0.00000000000E+00 -0.00000000000E+00 -0.70789146844E+02  0.70789146844E+02  0.00000000000E+00 0.  1.
         21    1    1    2  503  501 -0.25714274713E+02 -0.19793023831E+02  0.18183132043E+03  0.18470413316E+03  0.00000000000E+00 0. -1.
         21    1    1    2  504  502  0.25714274713E+02  0.19793023831E+02 -0.65556972248E+02  0.73148508712E+02  0.00000000000E+00 0.  1.
</event>
<event>
 4    1  0.3035432E+006  0.2283673E+02  0.7546771E-02  0.1494559E+00
         21   -1    0    0  504  501  0.00000000000E+00  0.00000000000E+00  0.11018737509E+03  0.11018737509E+03  0.00000000000E+00 0. -1.
         21   -1    0    0  503  502 -0.00000000000E+00 -0.00000000000E+00 -0.31477493293E+02  0.31477493293E+02  0.00000000000E+00 0.  1.
         21    1    1    2  503  501 -0.22036684521E+02 -0.59917170196E+01 -0.25935460111E+02  0.34556681391E+02  0.00000000000E+00 0.  1.
         21    1    1    2  504  502  0.22036684521E+02  0.59917170196E+01  0.10464534191E+03  0.10710818699E+03  0.00000000000E+00 0. -1.
</event>
<event>
 4    1  0.3035432E+006  0.2094266E+02  0.7546771E-02  0.1520085E+00
         21   -1    0    0  502  501  0.00000000000E+00  0.00000000000E+00  0.17771684758E+01  0.17771684758E+01  0.00000000000E+00 0.  1.
         21   -1    0    0  504  502 -0.00000000000E+00 -0.00000000000E+00 -0.25537884081E+03  0.25537884081E+03  0.00000000000E+00 0.  1.
         21    1    1    2  503  501  0.20015664483E+02  0.61618422782E+01 -0.10322692224E+03  0.10532992263E+03  0.00000000000E+00 0.  1.
         21    1    1    2  504  503 -0.20015664483E+02 -0.61618422782E+01 -0.15037475009E+03  0.15182608666E+03  0.00000000000E+00 0.  1.
</event>
<event>
 4    1  0.3035432E+006  0.2968874E+02  0.7546771E-02  0.1422321E+00
         21   -1    0    0  504  501  0.00000000000E+00  0.00000000000E+00  0.14160611912E+03  0.14160611912E+03  0.00000000000E+00 0. -1.
         21   -1    0    0  503  502 -0.00000000000E+00 -0.00000000000E+00 -0.63057273618E+01  0.63057273618E+01  0.00000000000E+00 0. -1.
         21    1    1    2  503  501  0.26532111475E+02  0.13321733118E+02  0.59254328777E+02  0.66275915621E+02  0.00000000000E+00 0. -1.
         21    1    1    2  504  502 -0.26532111475E+02 -0.13321733118E+02  0.76046062977E+02  0.81635930857E+02  0.00000000000E+00 0. -1.
</event>
<event>
 4    1  0.3035432E+006  0.2231705E+02  0.7546771E-02  0.1501257E+00
         21   -1    0    0  504  501  0.00000000000E+00  0.00000000000E+00  0.66581811899E+01  0.66581811899E+01  0.00000000000E+00 0. -1.
         21   -1    0    0  503  502 -0.00000000000E+00 -0.00000000000E+00 -0.36451570520E+03  0.36451570520E+03  0.00000000000E+00 0.  1.
         21    1    1    2  503  501  0.13916949541E+02 -0.17446184369E+02 -0.13476316756E+02  0.26070326943E+02  0.00000000000E+00 0. -1.
         21    1    1    2  504  502 -0.13916949541E+02  0.17446184369E+02 -0.34438120725E+03  0.34510355945E+03  0.00000000000E+00 0.  1.
</event>
<event>
 4    1  0.3035432E+006  0.2871908E+02  0.7546771E-02  0.1431064E+00
         21   -1    0    0  503  501  0.00000000000E+00  0.00000000000E+00  0.53318239935E+03  0.53318239935E+03  0.00000000000E+00 0. -1.
         21   -1    0    0  501  502 -0.00000000000E+00 -0.00000000000E+00 -0.30291878601E+02  0.30291878601E+02  0.00000000000E+00 0. -1.
         21    1    1    2  503  504 -0.28230239149E+02  0.52762895868E+01  0.52589442244E+03  0.52667801282E+03  0.00000000000E+00 0. -1.
         21    1    1    2  504  502  0.28230239149E+02 -0.52762895868E+01 -0.23003901695E+02  0.36796265129E+02  0.00000000000E+00 0. -1.
</event>
<event>
 4    1  0.3035432E+006  0.2853649E+02  0.7546771E-02  0.1432756E+00
         21   -1    0    0  502  501  0.00000000000E+00  0.00000000000E+00  0.46881401473E+02  0.46881401473E+02  0.00000000000E+00 0. -1.
         21   -1    0    0  503  502 -0.00000000000E+00 -0.00000000000E+00 -0.10003093803E+03  0.10003093803E+03  0.00000000000E+00 0.  1.
         21    1    1    2  503  504  0.14435516161E+02  0.24615998491E+02 -0.93349351389E+02  0.97613692243E+02  0.00000000000E+00 0.  1.
         21    1    1    2  504  501 -0.14435516161E+02 -0.24615998491E+02  0.40199814835E+02  0.49298647256E+02  0.00000000000E+00 0. -1.
</event>
<event>
 4    1  0.3035432E+006  0.2185907E+02  0.7546771E-02  0.1507344E+00
         21   -1    0    0  503  501  0.00000000000E+00  0.00000000000E+00  0.39224275785E+02  0.39224275785E+02  0.00000000000E+00 0.  1.
         21   -1    0    0  504  502 -0.00000000000E+00 -0.00000000000E+00 -0.28804653441E+03  0.28804653441E+03  0.00000000000E+00 0.  1.
         21    1    1    2  503  502  0.17362999315E+02 -0.13279497467E+02 -0.28454902279E+03  0.28538739491E+03  0.00000000000E+00 0.  1.
         21    1    1    2  504  501 -0.17362999315E+02  0.13279497467E+02  0.35726764170E+02  0.41883415288E+02  0.00000000000E+00 0.  1.
</event>
<event>
 4    1  0.3035432E+006  0.4391347E+02  0.7546771E-02  0.1326963E+00
         21   -1    0    0  502  501  0.00000000000E+00  0.00000000000E+00  0.33314138923E+02  0.33314138923E+02  0.00000000000E+00 0. -1.
         21   -1    0    0  504  502 -0.00000000000E+00 -0.00000000000E+00 -0.22254725214E+03  0.22254725214E+03  0.00000000000E+00 0. -1.
         21    1    1    2  503  501  0.25467900768E+02 -0.35773992868E+02  0.15425963020E+02  0.46544095978E+02  0.00000000000E+00 0. -1.
         21    1    1    2  504  503 -0.25467900768E+02  0.35773992868E+02 -0.20465907624E+03  0.20931729509E+03  0.00000000000E+00 0. -1.
</event>
<event>
 4    1  0.3035432E+006  0.2224326E+02  0.7546771E-02  0.1502226E+00
         21   -1    0    0  504  501  0.00000000000E+00  0.00000000000E+00  0.37770917330E+02  0.37770917330E+02  0.00000000000E+00 0. -1.
         21   -1    0    0  503  502 -0.00000000000E+00 -0.00000000000E+00 -0.18936783491E+02  0.18936783491E+02  0.00000000000E+00 0. -1.
         21    1    1    2  503  501 -0.19478671528E+02  0.10739837265E+02  0.25159847734E+02  0.33582446114E+02  0.00000000000E+00 0. -1.
         21    1    1    2  504  502  0.19478671528E+02 -0.10739837265E+02 -0.63257138954E+01  0.23125254707E+02  0.00000000000E+00 0. -1.
</event>
<event>
 4    1  0.3035432E+006  0.2509369E+02  0.7546771E-02  0.1467758E+00
         21   -1    0    0  503  501  0.00000000000E+00  0.00000000000E+00  0.99663509426E+01  0.99663509426E+01  0.00000000000E+00 0.  1.
         21   -1    0    0  504  502 -0.00000000000E+00 -0.00000000000E+00 -0.36444627148E+03  0.36444627148E+03  0.00000000000E+00 0. -1.
         21    1    1    2  503  502 -0.17319764038E+01 -0.25033850729E+02 -0.34744702623E+03  0.34835201946E+03  0.00000000000E+00 0. -1.
         21    1    1    2  504  501  0.17319764038E+01  0.25033850729E+02 -0.70328943091E+01  0.26060602966E+02  0.00000000000E+00 0.  1.
</event>
<event>
 4    1  0.3035432E+006  0.2187595E+02  0.7546771E-02  0.1507117E+00
         21   -1    0    0  504  501  0.00000000000E+00  0.00000000000E+00  0.11300014257E+02  0.11300014257E+02  0.00000000000E+00 0.  1.
         21   -1    0    0  501  502 -0.00000000000E+00 -0.00000000000E+00 -0.19244986435E+03  0.19244986435E+03  0.00000000000E+00 0. -1.
         21    1    1    2  503  502 -0.14107608913E+02 -0.16719229867E+02 -0.18054508530E+03  0.18186556877E+03  0.00000000000E+00 0. -1.
         21    1    1    2  504  503  0.14107608913E+02  0.16719229867E+02 -0.60476478899E+00  0.21884309837E+02  0.00000000000E+00 0.  1.
</event>
<event>
 4    1  0.3035432E+006  0.2334759E+02  0.7546771E-02  0.1488179E+00
         21   -1    0    0  504  501  0.00000000000E+00  0.00000000000E+00  0.20985621325E+03  0.20985621325E+03  0.00000000000E+00 0.  1.
         21   -1    0    0  501  502 -0.00000000000E+00 -0.00000000000E+00 -0.11016836901E+02  0.11016836901E+02  0.00000000000E+00 0. -1.
         21    1    1    2  503  502 -0.22105636428E+02 -0.75133871239E+01  0.28763845393E+01  0.23524109675E+02  0.00000000000E+00 0. -1.
         21    1    1    2  504  503  0.22105636428E+02  0.75133871239E+01  0.19596299181E+03  0.19734894048E+03  0.00000000000E+00 0.  1.
</event>
<event>
 4    1  0.3035432E+006  0.2434574E+02  0.7546771E-02  0.1476257E+00
         21   -1    0    0  502  501  0.00000000000E+00  0.00000000000E+00  0.13932761524E+02  0.13932761524E+02  0.00000000000E+00 0. -1.
         21   -1    0    0  503  502 -0.00000000000E+00 -0.00000000000E+00 -0.72913619669E+02  0.72913619669E+02  0.00000000000E+00 0.  1.
         21    1    1    2  503  504 -0.79380774860E+01 -0.23015260540E+02 -0.57516206164E+02  0.62456619052E+02  0.00000000000E+00 0.  1.
         21    1    1    2  504  501  0.79380774860E+01  0.23015260540E+02 -0.14646519819E+01  0.24389762141E+02  0.00000000000E+00 0. -1.
</event>
<event>
 4    1  0.3035432E+006  0.2543260E+02  0.7546771E-02  0.1464022E+00
         21   -1    0    0  504  501  0.00000000000E+00  0.00000000000E+00  0.65601882593E+02  0.65601882593E+02  0.00000000000E+00 0. -1.
         21   -1    0    0  503  502 -0.00000000000E+00 -0.00000000000E+00 -0.36406417017E+02  0.36406417017E+02  0.00000000000E+00 0.  1.
         21    1    1    2  503  501  0.24368063528E+02  0.72810997493E+01 -0.28955630445E+02  0.38538882549E+02  0.00000000000E+00 0.  1.
         21    1    1    2  504  502 -0.24368063528E+02 -0.72810997493E+01  0.58151096020E+02  0.63469417061E+02  0.00000000000E+00 0. -1.
</event>
<event>
 4    1  0.3035432E+006  0.2205991E+02  0.7546771E-02  0.1504653E+00
         21   -1    0    0  504  501  0.00000000000E+00  0.00000000000E+00  0.97248079861E+02  0.97248079861E+02  0.00000000000E+00 0. -1.
         21   -1    0    0  503  502 -0.00000000000E+00 -0.00000000000E+00 -0.33270692360E+03  0.33270692360E+03  0.00000000000E+00 0.  1.
         21    1    1    2  503  501 -0.16924123350E+02 -0.14149680628E+02  0.95625262221E+02  0.98136793243E+02  0.00000000000E+00 0. -1.
         21    1    1    2  504  502  0.16924123350E+02  0.14149680628E+02 -0.33108410596E+03  0.33181821022E+03  0.00000000000E+00 0.  1.
</event>
<event>
 4    1  0.3035432E+006  0.5081231E+02  0.7546771E-02  0.1294688E+00
         21   -1    0    0  503  501  0.00000000000E+00  0.00000000000E+00  0.54348424994E+03  0.54348424994E+03  0.00000000000E+00 0.  1.
         21   -1    0    0  504  502 -0.00000000000E+00 -0.00000000000E+00 -0.11292682573E+03  0.11292682573E+03  0.00000000000E+00 0. -1.
         21    1    1    2  503  502 -0.47955747732E+02 -0.16796942943E+02  0.53650657044E+03  0.53890740500E+03  0.00000000000E+00 0.  1.
         21    1    1    2  504  501  0.47955747732E+02  0.16796942943E+02 -0.10594914624E+03  0.11750367067E+03  0.00000000000E+00 0. -1.
</event>
<event>
 4    1  0.3035432E+006  0.2108838E+02  0.7546771E-02  0.1518007E+00
         21   -1    0    0  503  501  0.00000000000E+00  0.00000000000E+00  0.20396045732E+01  0.20396045732E+01  0.00000000000E+00 0.  1.
         21   -1    0    0  501  502 -0.00000000000E+00 -0.00000000000E+00 -0.25586213379E+03  0.25586213379E+03  0.00000000000E+00 0.  1.
         21    1    1    2  503  504 -0.16979446767E+02  0.12506729184E+02 -0.77334110480E+02  0.80157872546E+02  0.00000000000E+00 0.  1.
         21    1    1    2  504  502  0.16979446767E+02 -0.12506729184E+02 -0.17648841873E+03  0.17774386581E+03  0.00000000000E+00 0.  1.
</event>
<event>
 4    1  0.3035432E+006  0.2033778E+02  0.7546771E-02  0.1528933E+00
         21   -1    0    0  503  501  0.00000000000E+00  0.00000000000E+00  0.11905534035E+03  0.11905534035E+03  0.00000000000E+00 0.  1.
         21   -1    0    0  501  502 -0.00000000000E+00 -0.00000000000E+00 -0.65076022692E+02  0.65076022692E+02  0.00000000000E+00 0.  1.
         21    1    1    2  503  504  0.69637518580E+01 -0.19108418431E+02  0.11656406774E+03  0.11832500743E+03  0.00000000000E+00 0.  1.
         21    1    1    2  504  502 -0.69637518580E+01  0.19108418431E+02 -0.62584750088E+02  0.65806355608E+02  0.00000000000E+00 0.  1.
</event>
<event>
 4    1  0.3035432E+006  0.2474664E+02  0.7546771E-02  0.1471658E+00
         21   -1    0    0  503  501  0.00000000000E+00  0.00000000000E+00  0.18582085615E+03  0.18582085615E+03  0.00000000000E+00 0. -1.
         21   -1    0    0  504  502 -0.00000000000E+00 -0.00000000000E+00 -0.63221343631E+01  0.63221343631E+01  0.00000000000E+00 0. -1.
         21    1    1    2  503  502 -0.23755962546E+02 -0.69318281644E+01  0.15622058039E+03  0.15816847264E+03  0.00000000000E+00 0. -1.
         21    1    1    2  504  501  0.23755962546E+02  0.69318281644E+01  0.23278141398E+02  0.33974517880E+02  0.00000000000E+00 0. -1.
</event>
<event>
 4    1  0.3035432E+006  0.2934547E+02  0.7546771E-02  0.1425371E+00
         21   -1    0    0  502  501  0.00000000000E+00  0.00000000000E+00  0.36947613304E+03  0.36947613304E+03  0.00000000000E+00 0. -1.
         21   -1    0    0  503  502 -0.00000000000E+00 -0.00000000000E+00 -0.65603061337E+02  0.65603061337E+02  0.00000000000E+00 0.  1.
         21    1    1    2  503  504 -0.22145770184E+02 -0.19254136116E+02 -0.61703731656E+02  0.68326476530E+02  0.00000000000E+00 0.  1.
         21    1    1    2  504  501  0.22145770184E+02  0.19254136116E+02  0.36557680336E+03  0.36675271785E+03  0.00000000000E+00 0. -1.
</event>
<event>
 4    1  0.3035432E+006  0.2117295E+02  0.7546771E-02  0.1516810E+00
         21   -1    0    0  502  501  0.00000000000E+00  0.00000000000E+00  0.14312862633E+02  0.14312862633E+02  0.00000000000E+00 0.  1.
         21   -1    0    0  504  502 -0.00000000000E+00 -0.00000000000E+00 -0.58483212967E+02  0.58483212967E+02  0.00000000000E+00 0.  1.
         21    1    1    2  503  501  0.12559194935E+02 -0.17045828949E+02  0.27201349057E+01  0.21346962217E+02  0.00000000000E+00 0.  1.
         21    1    1    2  504  503 -0.12559194935E+02  0.17045828949E+02 -0.46890485239E+02  0.51449113383E+02  0.00000000000E+00 0.  1.
</event>
<event>
 4    1  0.3035432E+006  0.2249622E+02  0.7546771E-02  0.1498923E+00
         21   -1    0    0  503  501  0.00000000000E+00  0.00000000000E+00  0.87339494586E+02  0.87339494586E+02  0.00000000000E+00 0.  1.
         21   -1    0    0  504  502 -0.00000000000E+00 -0.00000000000E+00 -0.55586201410E+02  0.55586201410E+02  0.00000000000E+00 0.  1.
         21    1    1    2  503  502 -0.17227509636E+02  0.14466952558E+02  0.83512309232E+02  0.86489222437E+02  0.00000000000E+00 0.  1.
         21    1    1    2  504  501  0.17227509636E+02 -0.14466952558E+02 -0.51759016057E+02  0.56436473558E+02  0.00000000000E+00 0.  1.
</event>
<event>
 4    1  0.3035432E+006  0.3497922E+02  0.7546771E-02  0.1380709E+00
         21   -1    0    0  503  501  0.00000000000E+00  0.00000000000E+00  0.40678743694E+02  0.40678743694E+02  0.00000000000E+00 0.  1.
         21   -1    0    0  501  502 -0.00000000000E+00 -0.00000000000E+00 -0.26667099788E+03  0.26667099788E+03  0.00000000000E+00 0. -1.
         21    1    1    2  503  504  0.26652517693E+02  0.22653676319E+02  0.31752905674E+02  0.47241853995E+02  0.00000000000E+00 0.  1.
         21    1    1    2  504  502 -0.26652517693E+02 -0.22653676319E+02 -0.25774515986E+03  0.26010788758E+03  0.00000000000E+00 0. -1.
</event>
<event>
 4    1  0.3035432E+006  0.2749360E+02  0.7546771E-02  0.1442712E+00
         21   -1    0    0  504  501  0.00000000000E+00  0.00000000000E+00  0.25025583224E+02  0.25025583224E+02  0.00000000000E+00 0. -1.
         21   -1    0    0  503  502 -0.00000000000E+00 -0.00000000000E+00 -0.36304095550E+03  0.36304095550E+03  0.00000000000E+00 0. -1.
         21    1    1    2  503  501  0.27485391195E+02 -0.67176691194E+00  0.16778535215E+02  0.32208962167E+02  0.00000000000E+00 0. -1.
         21    1    1    2  504  502 -0.27485391195E+02  0.67176691194E+00 -0.35479390749E+03  0.35585757655E+03  0.00000000000E+00 0. -1.
</event>
<event>
 4    1  0.3035432E+006  0.2319142E+02  0.7546771E-02  0.1490108E+00
         21   -1    0    0  504  501  0.00000000000E+00  0.00000000000E+00  0.48076080854E+03  0.48076080854E+03  0.00000000000E+00 0.  1.
         21   -1    0    0  501  502 -0.00000000000E+00 -0.00000000000E+00 -0.48807791143E+01  0.48807791143E+01  0.00000000000E+00 0.  1.
         21    1    1    2  503  502  0.19839885558E+02  0.12009199036E+02  0.24756566513E+02  0.33922404189E+02  0.00000000000E+00 0.  1.
         21    1    1    2  504  503 -0.19839885558E+02 -0.12009199036E+02  0.45112346291E+03  0.45171918346E+03  0.00000000000E+00 0.  1.
</event>
<event>
 4    1  0.3035432E+006  0.2138319E+02  0.7546771E-02  0.1513864E+00
         21   -1    0    0  504  501  0.00000000000E+00  0.00000000000E+00  0.42446952741E+02  0.42446952741E+02  0.00000000000E+00 0. -1.
         21   -1    0    0  503  502 -0.00000000000E+00 -0.00000000000E+00 -0.16672700913E+02  0.16672700913E+02  0.00000000000E+00 0. -1.
         21    1    1    2  503  501 -0.17117624940E+02  0.12815139972E+02  0.30472381890E+02  0.37226428168E+02  0.00000000000E+00 0. -1.
         21    1    1    2  504  502  0.17117624940E+02 -0.12815139972E+02 -0.46981300617E+01  0.21893225486E+02  0.00000000000E+00 0. -1.
</event>
<event>
 4    1  0.3035432E+006  0.2369581E+02  0.7546771E-02  0.1483941E+00
         21   -1    0    0  503  501  0.00000000000E+00  0.00000000000E+00  0.58720456775E+02  0.58720456775E+02  0.00000000000E+00 0.  1.
         21   -1    0    0  504  502 -0.00000000000E+00 -0.00000000000E+00 -0.29386136890E+02  0.29386136890E+02  0.00000000000E+00 0.  1.
         21    1    1    2  503  502 -0.20864295884E+02 -0.11232654451E+02 -0.21515719413E+02  0.32006523564E+02  0.00000000000E+00 0.  1.
         21    1    1    2  504  501  0.20864295884E+02  0.11232654451E+02  0.50850039298E+02  0.56100070101E+02  0.00000000000E+00 0.  1.
</event>
<event>
 4    1  0.3035432E+006  0.2285655E+02  0.7546771E-02  0.1494307E+00
         21   -1    0    0  504  501  0.00000000000E+00  0.00000000000E+00  0.96189897799E+02  0.96189897799E+02  0.00000000000E+00 0. -1.
         21   -1    0    0  503  502 -0.00000000000E+00 -0.00000000000E+00 -0.37083712590E+02  0.37083712590E+02  0.00000000000E+00 0.  1.
         21    1    1    2  503  501 -0.98913394296E+01  0.20605421888E+02  0.91117114615E+02  0.93940143616E+02  0.00000000000E+00 0. -1.
         21    1    1    2  504  502  0.98913394296E+01 -0.20605421888E+02 -0.32010929406E+02  0.39333466773E+02  0.00000000000E+00 0.  1.
</event>
<event>
 4    1  0.3035432E+006  0.3690191E+02  0.7546771E-02  0.1367664E+00
         21   -1    0    0  504  501  0.00000000000E+00  0.00000000000E+00  0.72281823534E+01  0.72281823534E+01  0.00000000000E+00 0. -1.
         21   -1    0    0  503  502 -0.00000000000E+00 -0.00000000000E+00 -0.88661324113E+03  0.88661324113E+03  0.00000000000E+00 0. -1.
         21    1    1    2  503  501  0.19145803553E+02  0.31546616157E+02 -0.43086708706E+02  0.56729315629E+02  0.00000000000E+00 0. -1.
         21    1    1    2  504  502 -0.19145803553E+02 -0.31546616157E+02 -0.83629835007E+03  0.83711210786E+03  0.00000000000E+00 0. -1.
</event>
<event>
 4    1  0.3035432E+006  0.2047028E+02  0.7546771E-02  0.1526964E+00
         21   -1    0    0  502  501  0.00000000000E+00  0.00000000000E+00  0.10486327146E+04  0.10486327146E+04  0.00000000000E+00 0. -1.
         21   -1    0    0  503  502 -0.00000000000E+00 -0.00000000000E+00 -0.96396830217E+00  0.96396830217E+00  0.00000000000E+00 0.  1.
         21    1    1    2  503  504  0.18452990876E+02  0.88611175726E+01  0.12228136710E+03  0.12398292228E+03  0.00000000000E+00 0.  1.
         21    1    1    2  504  501 -0.18452990876E+02 -0.88611175726E+01  0.92538737924E+03  0.92561376066E+03  0.00000000000E+00 0. -1.
</event>
<event>
 4    1  0.3035432E+006  0.2467416E+02  0.7546771E-02  0.1472482E+00
         21   -1    0    0  504  501  0.00000000000E+00  0.00000000000E+00  0.53534708544E+03  0.53534708544E+03  0.00000000000E+00 0.  1.
         21   -1    0    0  503  502 -0.00000000000E+00 -0.00000000000E+00 -0.70750727904E+01  0.70750727904E+01  0.00000000000E+00 0.  1.
         21    1    1    2  503  501  0.22917105358E+02 -0.91444261944E+01  0.51259585524E+03  0.51318936569E+03  0.00000000000E+00 0.  1.
         21    1    1    2  504  502 -0.22917105358E+02  0.91444261944E+01  0.15676157405E+02  0.29232792535E+02  0.00000000000E+00 0.  1.
</event>
<event>
 4    1  0.3035432E+006  0.2043945E+02  0.7546771E-02  0.1527421E+00
         21   -1    0    0  503  501  0.00000000000E+00  0.00000000000E+00  0.26862802666E+02  0.26862802666E+02  0.00000000000E+00 0.  1.
         21   -1    0    0  501  502 -0.00000000000E+00 -0.00000000000E+00 -0.30748370492E+02  0.30748370492E+02  0.00000000000E+00 0.  1.
         21    1    1    2  503  504 -0.19278308602E+02  0.67910244389E+01  0.18307687363E+02  0.27439799782E+02  0.00000000000E+00 0.  1.
         21    1    1    2  504  502  0.19278308602E+02 -0.67910244389E+01 -0.22193255189E+02  0.30171373376E+02  0.00000000000E+00 0.  1.
</event>
<event>
 4    1  0.3035432E+006  0.3628276E+02  0.7546771E-02  0.1371763E+00
         21   -1    0    0  504  501  0.00000000000E+00  0.00000000000E+00  0.78166734358E+02  0.78166734358E+02  0.00000000000E+00 0.  1.
         21   -1    0    0  501  502 -0.00000000000E+00 -0.00000000000E+00 -0.36611644618E+02  0.36611644618E+02  0.00000000000E+00 0. -1.
         21    1    1    2  503  502 -0.22129484374E+01  0.36215211397E+02 -0.21394658448E+02  0.42120898464E+02  0.00000000000E+00 0. -1.
         21    1    1    2  504  503  0.22129484374E+01 -0.36215211397E+02  0.62949748188E+02  0.72657480512E+02  0.00000000000E+00 0.  1.
</event>
<event>
 4    1  0.3035432E+006  0.2198686E+02  0.7546771E-02  0.1505628E+00
         21   -1    0    0  503  501  0.00000000000E+00  0.00000000000E+00  0.18895760984E+01  0.18895760984E+01  0.00000000000E+00 0. -1.
         21   -1    0    0  504  502 -0.00000000000E+00 -0.00000000000E+00 -0.32695591612E+03  0.32695591612E+03  0.00000000000E+00 0. -1.
         21    1    1    2  503  502  0.17623194772E+02 -0.13147046040E+02 -0.85847793353E+02  0.88618651745E+02  0.00000000000E+00 0. -1.
         21    1    1    2  504  501 -0.17623194772E+02  0.13147046040E+02 -0.23921854667E+03  0.24022684048E+03  0.00000000000E+00 0. -1.
</event>
<event>
 4    1  0.3035432E+006  0.2195379E+02  0.7546771E-02  0.1506071E+00
         21   -1    0    0  503  501  0.00000000000E+00  0.00000000000E+00  0.19832921920E+03  0.19832921920E+03  0.00000000000E+00 0.  1.
         21   -1    0    0  504  502 -0.00000000000E+00 -0.00000000000E+00 -0.51509213986E+01  0.51509213986E+01  0.00000000000E+00 0.  1.
         21    1    1    2  503  502  0.20942621539E+02  0.65859998371E+01  0.17053196484E+03  0.17193929110E+03  0.00000000000E+00 0.  1.
         21    1    1    2  504  501 -0.20942621539E+02 -0.65859998371E+01  0.22646332966E+02  0.31540849506E+02  0.00000000000E+00 0.  1.
</event>
<event>
 4    1  0.3035432E+006  0.2002433E+02  0.7546771E-02  0.1533664E+00
         21   -1    0    0  504  501  0.00000000000E+00  0.00000000000E+00  0.27109889084E+02  0.27109889084E+02  0.00000000000E+00 0. -1.
         21   -1    0    0  503  502 -0.00000000000E+00 -0.00000000000E+00 -0.16175886949E+02  0.16175886949E+02  0.00000000000E+00 0. -1.
         21    1    1    2  503  501  0.69168729648E+01 -0.18791766136E+02  0.11800431452E+02  0.23242714742E+02  0.00000000000E+00 0. -1.
         21    1    1    2  504  502 -0.69168729648E+01  0.18791766136E+02 -0.86642931639E+00  0.20043061290E+02  0.00000000000E+00 0. -1.
</event>
<event>
 4    1  0.3035432E+006  0.3649490E+02  0.7546771E-02  0.1370348E+00
         21   -1    0    0  504  501  0.00000000000E+00  0.00000000000E+00  0.69933318711E+01  0.69933318711E+01  0.00000000000E+00 0.  1.
         21   -1    0    0  503  502 -0.00000000000E+00 -0.00000000000E+00 -0.24965955120E+03  0.24965955120E+03  0.00000000000E+00 0.  1.
         21    1    1    2  503  501  0.34571031511E+02 -0.11692797789E+02 -0.18382722973E+03  0.18741485568E+03  0.00000000000E+00 0.  1.
         21    1    1    2  504  502 -0.34571031511E+02  0.11692797789E+02 -0.58838989604E+02  0.69238027395E+02  0.00000000000E+00 0.  1.
</event>
<event>
 4    1  0.3035432E+006  0.2132464E+02  0.7546771E-02  0.1514680E+00
         21   -1    0    0  502  501  0.00000000000E+00  0.00000000000E+00  0.13397850913E+02  0.13397850913E+02  0.00000000000E+00 0.  1.
         21   -1    0    0  504  502 -0.00000000000E+00 -0.00000000000E+00 -0.22165982068E+03  0.22165982068E+03  0.00000000000E+00 0. -1.
         21    1    1    2  503  501  0.14303339467E+02 -0.15816274541E+02  0.40259928043E+01  0.21701351994E+02  0.00000000000E+00 0.  1.
         21    1    1    2  504  503 -0.14303339467E+02  0.15816274541E+02 -0.21228796257E+03  0.21335631960E+03  0.00000000000E+00 0. -1.
</event>
<event>
 4    1  0.3035432E+006  0.2159953E+02  0.7546771E-02  0.1510875E+00
         21   -1    0    0  504  501  0.00000000000E+00  0.00000000000E+00  0.47225043979E+01  0.47225043979E+01  0.00000000000E+00 0.  1.
         21   -1    0    0  501  502 -0.00000000000E+00 -0.00000000000E+00 -0.18133766482E+03  0.18133766482E+03  0.00000000000E+00 0. -1.
         21    1    1    2  503  502  0.19280697626E+02 -0.97362439127E+01 -0.15107435774E+03  0.15261061992E+03  0.00000000000E+00 0. -1.
         21    1    1    2  504  503 -0.19280697626E+02  0.97362439127E+01 -0.25540802684E+02  0.33449549298E+02  0.00000000000E+00 0.  1.
</event>
<event>
 4    1  0.3035432E+006  0.3047713E+02  0.7546771E-02  0.1415495E+00
         21   -1    0    0  504  501  0.00000000000E+00  0.00000000000E+00  0.39287361619E+03  0.39287361619E+03  0.00000000000E+00 0. -1.
         21   -1    0    0  503  502 -0.00000000000E+00 -0.00000000000E+00 -0.70473840981E+02  0.70473840981E+02  0.00000000000E+00 0. -1.
         21    1    1    2  503  501  0.65040497802E+01 -0.29775040493E+02  0.38895436257E+03  0.39014657741E+03  0.00000000000E+00 0. -1.
         21    1    1    2  504  502 -0.65040497802E+01  0.29775040493E+02 -0.66554587360E+02  0.73200879766E+02  0.00000000000E+00 0. -1.
</event>
<event>
 4    1  0.3035432E+006  0.2008636E+02  0.7546771E-02  0.1532720E+00
         21   -1    0    0  504  501  0.00000000000E+00  0.00000000000E+00  0.35462417980E+03  0.35462417980E+03  0.00000000000E+00 0.  1.
         21   -1    0    0  503  502 -0.00000000000E+00 -0.00000000000E+00 -0.22781360986E+03  0.22781360986E+03  0.00000000000E+00 0.  1.
         21    1    1    2  503  501  0.18746984001E+01 -0.19998685191E+02  0.35389608602E+03  0.35446565645E+03  0.00000000000E+00 0.  1.
         21    1    1    2  504  502 -0.18746984001E+01  0.19998685191E+02 -0.22708551608E+03  0.22797213321E+03  0.00000000000E+00 0.  1.
</event>
<event>
 4    1  0.3035432E+006  0.2873735E+02  0.7546771E-02  0.1430896E+00
         21   -1    0    0  504  501  0.00000000000E+00  0.00000000000E+00  0.19335761004E+03  0.19335761004E+03  0.00000000000E+00 0. -1.
         21   -1    0    0  501  502 -0.00000000000E+00 -0.00000000000E+00 -0.48083494268E+01  0.48083494268E+01  0.00000000000E+00 0. -1.
         21    1    1    2  503  502  0.21438462893E+02 -0.19137069441E+02  0.61152406799E+02  0.67568128399E+02  0.00000000000E+00 0. -1.
         21    1    1    2  504  503 -0.21438462893E+02  0.19137069441E+02  0.12739685381E+03  0.13059783106E+03  0.00000000000E+00 0. -1.
</event>
<event>
 4    1  0.3035432E+006  0.3849311E+02  0.7546771E-02  0.1357550E+00
         21   -1    0    0  504  501  0.00000000000E+00  0.00000000000E+00  0.43550365094E+03  0.43550365094E+03  0.00000000000E+00 0. -1.
         21   -1    0    0  503  502 -0.00000000000E+00 -0.00000000000E+00 -0.34679307913E+01  0.34679307913E+01  0.00000000000E+00 0. -1.
         21    1    1    2  503  501 -0.10262128757E+02  0.37099973117E+02  0.24620940633E+03  0.24920030309E+03  0.00000000000E+00 0. -1.
         21    1    1    2  504  502  0.10262128757E+02 -0.37099973117E+02  0.18582631382E+03  0.18977127865E+03  0.00000000000E+00 0. -1.
</event>
<event>
 4    1  0.3035432E+006  0.2181544E+02  0.7546771E-02  0.1507934E+00
         21   -1    0    0  504  501  0.00000000000E+00  0.00000000000E+00  0.33253097805E+03  0.33253097805E+03  0.00000000000E+00 0.  1.
         21   -1    0    0  503  502 -0.00000000000E+00 -0.00000000000E+00 -0.21785941618E+01  0.21785941618E+01  0.00000000000E+00 0.  1.
         21    1    1    2  503  501 -0.39809041300E+01  0.21449146656E+02  0.67152951853E+02  0.70607594722E+02  0.00000000000E+00 0.  1.
         21    1    1    2  504  502  0.39809041300E+01 -0.21449146656E+02  0.26319943203E+03  0.26410197749E+03  0.00000000000E+00 0.  1.
</event>
<event>
 4    1  0.3035432E+006  0.2589505E+02  0.7546771E-02  0.1459035E+00
         21   -1    0    0  503  501  0.00000000000E+00  0.00000000000E+00  0.66984782081E+02  0.66984782081E+02  0.00000000000E+00 0. -1.
         21   -1    0    0  504  502 -0.00000000000E+00 -0.00000000000E+00 -0.24458064710E+02  0.24458064710E+02  0.00000000000E+00 0. -1.
         21    1    1    2  503  502 -0.10502861686E+02 -0.23669462370E+02  0.56403660322E+02  0.62063890067E+02  0.00000000000E+00 0. -1.
         21    1    1    2  504  501  0.10502861686E+02  0.23669462370E+02 -0.13876942951E+02  0.29378956723E+02  0.00000000000E+00 0. -1.
</event>
<event>
 4    1  0.3035432E+006  0.2094786E+02  0.7546771E-02  0.1520011E+00
         21   -1    0    0  503  501  0.00000000000E+00  0.00000000000E+00  0.74676737234E+02  0.74676737234E+02  0.00000000000E+00 0.  1.
         21   -1    0    0  504  502 -0.00000000000E+00 -0.00000000000E+00 -0.21734632331E+02  0.21734632331E+02  0.00000000000E+00 0.  1.
         21    1    1    2  503  502  0.88070625244E+01  0.19006538211E+02  0.67647863615E+02  0.70816991582E+02  0.00000000000E+00 0.  1.
         21    1    1    2  504  501 -0.88070625244E+01 -0.19006538211E+02 -0.14705758711E+02  0.25594377983E+02  0.00000000000E+00 0.  1.
</event>
<event>
 4    1  0.3035432E+006  0.2991090E+02  0.7546771E-02  0.1420372E+00
         21   -1    0    0  504  501  0.00000000000E+00  0.00000000000E+00  0.19025362458E+03  0.19025362458E+03  0.00000000000E+00 0.  1.
         21   -1    0    0  503  502 -0.00000000000E+00 -0.00000000000E+00 -0.51423670174E+01  0.51423670174E+01  0.00000000000E+00 0.  1.
         21    1    1    2  503  501 -0.29787370094E+02  0.27155952663E+01  0.12113020872E+03  0.12476854306E+03  0.00000000000E+00 0.  1.
         21    1    1    2  504  502  0.29787370094E+02 -0.27155952663E+01  0.63981048848E+02  0.70627448534E+02  0.00000000000E+00 0.  1.
</event>
<event>
 4    1  0.3035432E+006  0.2420316E+02  0.7546771E-02  0.1477918E+00
         21   -1    0    0  504  501  0.00000000000E+00  0.00000000000E+00  0.44937465634E+02  0.44937465634E+02  0.00000000000E+00 0.  1.
         21   -1    0    0  503  502 -0.00000000000E+00 -0.00000000000E+00 -0.13268584159E+02  0.13268584159E+02  0.00000000000E+00 0.  1.
         21    1    1    2  503  501  0.11714362984E+02  0.21179391066E+02  0.11979098671E+02  0.27005401516E+02  0.00000000000E+00 0.  1.
         21    1    1    2  504  502 -0.11714362984E+02 -0.21179391066E+02  0.19689782804E+02  0.31200648277E+02  0.00000000000E+00 0.  1.
</event>
<event>
 4    1  0.3035432E+006  0.2359808E+02  0.7546771E-02  0.1485121E+00
         21   -1    0    0  504  501  0.00000000000E+00  0.00000000000E+00  0.23312495540E+01  0.23312495540E+01  0.00000000000E+00 0.  1.
         21   -1    0    0  503  502 -0.00000000000E+00 -0.00000000000E+00 -0.46358634653E+03  0.46358634653E+03  0.00000000000E+00 0.  1.
         21    1    1    2  503  501 -0.59507164483E+01 -0.22835465803E+02 -0.68435523318E+02  0.72389849955E+02  0.00000000000E+00 0.  1.
         21    1    1    2  504  502  0.59507164483E+01  0.22835465803E+02 -0.39281957366E+03  0.39352774613E+03  0.00000000000E+00 0.  1.
</event>
<event>
 4    1  0.3035432E+006  0.5638667E+02  0.7546771E-02  0.1272630E+00
         21   -1    0    0  504  501  0.00000000000E+00  0.00000000000E+00  0.31814749953E+03  0.31814749953E+03  0.00000000000E+00 0. -1.
         21   -1    0    0  501  502 -0.00000000000E+00 -0.00000000000E+00 -0.13160662850E+02  0.13160662850E+02  0.00000000000E+00 0. -1.
         21    1    1    2  503  502 -0.54631927077E+02  0.13957388331E+02  0.71231349983E+02  0.90848012447E+02  0.00000000000E+00 0. -1.
         21    1    1    2  504  503  0.54631927077E+02 -0.13957388331E+02  0.23375548670E+03  0.24046014993E+03  0.00000000000E+00 0. -1.
</event>
<event>
 4    1  0.3035432E+006  0.4311494E+02  0.7546771E-02  0.1331139E+00
         21   -1    0    0  502  501  0.00000000000E+00  0.00000000000E+00  0.23889531357E+02  0.23889531357E+02  0.00000000000E+00 0. -1.
         21   -1    0    0  504  502 -0.00000000000E+00 -0.00000000000E+00 -0.31222132968E+03  0.31222132968E+03  0.00000000000E+00 0. -1.
         21    1    1    2  503  501  0.41531423403E+02  0.11577508113E+02  0.14498990591E+01  0.43139309583E+02  0.00000000000E+00 0. -1.
         21    1    1    2  504  503 -0.41531423403E+02 -0.11577508113E+02 -0.28978169738E+03  0.29297155146E+03  0.00000000000E+00 0. -1.
</event>
<event>
 4    1  0.3035432E+006  0.2090121E+02  0.7546771E-02  0.1520680E+00
         21   -1    0    0  503  501  0.00000000000E+00  0.00000000000E+00  0.44331869200E+01  0.44331869200E+01  0.00000000000E+00 0. -1.
         21   -1    0    0  504  502 -0.00000000000E+00 -0.00000000000E+00 -0.97834514949E+03  0.97834514949E+03  0.00000000000E+00 0. -1.
         21    1    1    2  503  502 -0.20894385832E+02 -0.53419268683E+00 -0.95294102142E+03  0.95317021094E+03  0.00000000000E+00 0. -1.
         21    1    1    2  504  501  0.20894385832E+02  0.53419268683E+00 -0.20970941155E+02  0.29608125474E+02  0.00000000000E+00 0. -1.
</event>
<event>
 4    1  0.3035432E+006  0.4965051E+02  0.7546771E-02  0.1299695E+00
         21   -1    0    0  503  501  0.00000000000E+00  0.00000000000E+00  0.31974691539E+03  0.31974691539E+03  0.00000000000E+00 0.  1.
         21   -1    0    0  504  502 -0.00000000000E+00 -0.00000000000E+00 -0.10918525232E+02  0.10918525232E+02  0.00000000000E+00 0.  1.
         21    1    1    2  503  502 -0.31692806912E+02 -0.38219620242E+02  0.24404256442E+03  0.24904205796E+03  0.00000000000E+00 0.  1.
         21    1    1    2  504  501  0.31692806912E+02  0.38219620242E+02  0.64785825735E+02  0.81623382665E+02  0.00000000000E+00 0.  1.
</event>
<event>
 4    1  0.3035432E+006  0.2001879E+02  0.7546771E-02  0.1533749E+00
         21   -1    0    0  503  501  0.00000000000E+00  0.00000000000E+00  0.21742902340E+02  0.21742902340E+02  0.00000000000E+00 0.  1.
         21   -1    0    0  501  502 -0.00000000000E+00 -0.00000000000E+00 -0.83535822612E+02  0.83535822612E+02  0.00000000000E+00 0.  1.
         21    1    1    2  503  504 -0.13812954601E+02 -0.14489798676E+02  0.15574271791E+02  0.25363555001E+02  0.00000000000E+00 0.  1.
         21    1    1    2  504  502  0.13812954601E+02  0.14489798676E+02 -0.77367192063E+02  0.79915169950E+02  0.00000000000E+00 0.  1.
</event>
<event>
 4    1  0.3035432E+006  0.2514711E+02  0.7546771E-02  0.1467164E+00
         21   -1    0    0  504  501  0.00000000000E+00  0.00000000000E+00  0.24979711092E+02  0.24979711092E+02  0.00000000000E+00 0. -1.
         21   -1    0    0  501  502 -0.00000000000E+00 -0.00000000000E+00 -0.31166474602E+02  0.31166474602E+02  0.00000000000E+00 0. -1.
         21    1    1    2  503  502  0.21271456456E+02 -0.13412771393E+02 -0.15256794589E+02  0.29413382624E+02  0.00000000000E+00 0. -1.
         21    1    1    2  504  503 -0.21271456456E+02  0.13412771393E+02  0.90700310791E+01  0.26732803070E+02  0.00000000000E+00 0. -1.
</event>
<event>
 4    1  0.3035432E+006  0.5107585E+02  0.7546771E-02  0.1293574E+00
         21   -1    0    0  504  501  0.00000000000E+00  0.00000000000E+00  0.11948407319E+03  0.11948407319E+03  0.00000000000E+00 0.  1.
         21   -1    0    0  501  502 -0.00000000000E+00 -0.00000000000E+00 -0.12848542875E+03  0.12848542875E+03  0.00000000000E+00 0.  1.
         21    1    1    2  503  502 -0.44021008574E+02 -0.25901607733E+02 -0.11746099779E+03  0.12808523913E+03  0.00000000000E+00 0.  1.
         21    1    1    2  504  503  0.44021008574E+02  0.25901607733E+02  0.10845964223E+03  0.11988426282E+03  0.00000000000E+00 0.  1.
</event>
<event>
 4    1  0.3035432E+006  0.2434978E+02  0.7546771E-02  0.1476211E+00
         21   -1    0    0  502  501  0.00000000000E+00  0.00000000000E+00  0.50076635297E+02  0.50076635297E+02  0.00000000000E+00 0. -1.
         21   -1    0    0  504  502 -0.00000000000E+00 -0.00000000000E+00 -0.21055498099E+03  0.21055498099E+03  0.00000000000E+00 0.  1.
         21    1    1    2  503  501 -0.15825111999E+02 -0.18506145129E+02  0.46359617062E+02  0.52365309810E+02  0.00000000000E+00 0. -1.
         21    1    1    2  504  503  0.15825111999E+02  0.18506145129E+02 -0.20683796276E+03  0.20826630648E+03  0.00000000000E+00 0.  1.
</event>
<event>
 4    1  0.3035432E+006  0.2065042E+02  0.7546771E-02  0.1524315E+00
         21   -1    0    0  503  501  0.00000000000E+00  0.00000000000E+00  0.12391396488E+02  0.12391396488E+02  0.00000000000E+00 0. -1.
         21   -1    0    0  504  502 -0.00000000000E+00 -0.00000000000E+00 -0.58926623510E+02  0.58926623510E+02  0.00000000000E+00 0. -1.
         21    1    1    2  503  502  0.63827838177E+01 -0.19639240560E+02 -0.26872531070E+00  0.20652164834E+02  0.00000000000E+00 0. -1.
         21    1    1    2  504  501 -0.63827838177E+01  0.19639240560E+02 -0.46266501711E+02  0.50665855165E+02  0.00000000000E+00 0. -1.
</event>
<event>
 4    1  0.3035432E+006  0.2141063E+02  0.7546771E-02  0.1513482E+00
         21   -1    0    0  503  501  0.00000000000E+00  0.00000000000E+00  0.27743987606E+03  0.27743987606E+03  0.00000000000E+00 0. -1.
         21   -1    0    0  504  502 -0.00000000000E+00 -0.00000000000E+00 -0.17397097691E+01  0.17397097691E+01  0.00000000000E+00 0. -1.
         21    1    1    2  503  502  0.14435201182E+02  0.15812649075E+02  0.16913869699E+03  0.17048845628E+03  0.00000000000E+00 0. -1.
         21    1    1    2  504  501 -0.14435201182E+02 -0.15812649075E+02  0.10656146930E+03  0.10869112955E+03  0.00000000000E+00 0. -1.
</event>
<event>
 4    1  0.3035432E+006  0.2462474E+02  0.7546771E-02  0.1473045E+00
         21   -1    0    0  504  501  0.00000000000E+00  0.00000000000E+00  0.16106186059E+04  0.16106186059E+04  0.00000000000E+00 0.  1.
         21   -1    0    0  501  502 -0.00000000000E+00 -0.00000000000E+00 -0.26070435158E+02  0.26070435158E+02  0.00000000000E+00 0. -1.
         21    1    1    2  503  502  0.49756606113E+01 -0.24116809324E+02 -0.20140022761E+02  0.31811919264E+02  0.00000000000E+00 0. -1.
         21    1    1    2  504  503 -0.49756606113E+01  0.24116809324E+02  0.16046881935E+04  0.16048771218E+04  0.00000000000E+00 0.  1.
</event>
<event>
 4    1  0.3035432E+006  0.2030805E+02  0.7546771E-02  0.1529378E+00
         21   -1    0    0  504  501  0.00000000000E+00  0.00000000000E+00  0.14925895381E+02  0.14925895381E+02  0.00000000000E+00 0. -1.
         21   -1    0    0  503  502 -0.00000000000E+00 -0.00000000000E+00 -0.31499034495E+02  0.31499034495E+02  0.00000000000E+00 0. -1.
         21    1    1    2  503  501 -0.37024827768E+01 -0.19967681792E+02 -0.16420875796E+02  0.26116313996E+02  0.00000000000E+00 0. -1.
         21    1    1    2  504  502  0.37024827768E+01  0.19967681792E+02 -0.15226331880E+00  0.20308615880E+02  0.00000000000E+00 0. -1.
</event>
<event>
 4    1  0.3035432E+006  0.2649305E+02  0.7546771E-02  0.1452768E+00
         21   -1    0    0  502  501  0.00000000000E+00  0.00000000000E+00  0.79513327707E+02  0.79513327707E+02  0.00000000000E+00 0.  1.
         21   -1    0    0  503  502 -0.00000000000E+00 -0.00000000000E+00 -0.23251669621E+02  0.23251669621E+02  0.00000000000E+00 0. -1.
         21    1    1    2  503  504 -0.26405576636E+02 -0.21511029636E+01 -0.12339595234E+02  0.29225799082E+02  0.00000000000E+00 0. -1.
         21    1    1    2  504  501  0.26405576636E+02  0.21511029636E+01  0.68601253321E+02  0.73539198246E+02  0.00000000000E+00 0.  1.
</event>
<event>
 4    1  0.3035432E+006  0.2333292E+02  0.7546771E-02  0.1488359E+00
         21   -1    0    0  504  501  0.00000000000E+00  0.00000000000E+00  0.50915945324E+01  0.50915945324E+01  0.00000000000E+00 0. -1.
         21   -1    0    0  503  502 -0.00000000000E+00 -0.00000000000E+00 -0.26566195412E+03  0.26566195412E+03  0.00000000000E+00 0.  1.
         21    1    1    2  503  501  0.49204767845E+01  0.22808204093E+02 -0.23492976236E+03  0.23608561690E+03  0.00000000000E+00 0.  1.
         21    1    1    2  504  502 -0.49204767845E+01 -0.22808204093E+02 -0.25640597234E+02  0.34667931756E+02  0.00000000000E+00 0. -1.
</event>
<event>
 4    1  0.3035432E+006  0.2849268E+02  0.7546771E-02  0.1433164E+00
         21   -1    0    0  502  501  0.00000000000E+00  0.00000000000E+00  0.15493599909E+03  0.15493599909E+03  0.00000000000E+00 0.  1.
         21   -1    0    0  503  502 -0.00000000000E+00 -0.00000000000E+00 -0.31889279662E+02  0.31889279662E+02  0.00000000000E+00 0. -1.
         21    1    1    2  503  504 -0.27002293105E+02  0.90944341532E+01 -0.23870710152E+02  0.37170463660E+02  0.00000000000E+00 0. -1.
         21    1    1    2  504  501  0.27002293105E+02 -0.90944341532E+01  0.14691742958E+03  0.14965481509E+03  0.00000000000E+00 0.  1.
</event>
<event>
 4    1  0.3035432E+006  0.2590213E+02  0.7546771E-02  0.1458959E+00
         21   -1    0    0  504  501  0.00000000000E+00  0.00000000000E+00  0.15014624332E+03  0.15014624332E+03  0.00000000000E+00 0.  1.
         21   -1    0    0  501  502 -0.00000000000E+00 -0.00000000000E+00 -0.23181678471E+02  0.23181678471E+02  0.00000000000E+00 0. -1.
         21    1    1    2  503  502 -0.25068449350E+02  0.65186799141E+01 -0.14382397857E+02  0.29627246055E+02  0.00000000000E+00 0. -1.
         21    1    1    2  504  503  0.25068449350E+02 -0.65186799141E+01  0.14134696271E+03  0.14370067574E+03  0.00000000000E+00 0.  1.
</event>
<event>
 4    1  0.3035432E+006  0.2195025E+02  0.7546771E-02  0.1506118E+00
         21   -1    0    0  502  501  0.00000000000E+00  0.00000000000E+00  0.97291000459E+02  0.97291000459E+02  0.00000000000E+00 0.  1.
         21   -1    0    0  504  502 -0.00000000000E+00 -0.00000000000E+00 -0.48224176984E+02  0.48224176984E+02  0.00000000000E+00 0.  1.
         21    1    1    2  503  501  0.20514911398E+02  0.78071557201E+01  0.93453972328E+02  0.95997178156E+02  0.00000000000E+00 0.  1.
         21    1    1    2  504  503 -0.20514911398E+02 -0.78071557201E+01 -0.44387148852E+02  0.49517999287E+02  0.00000000000E+00 0.  1.
</event>
<event>
 4    1  0.3035432E+006  0.3320376E+02  0.7546771E-02  0.1393651E+00
         21   -1    0    0  503  501  0.00000000000E+00  0.00000000000E+00  0.26504692837E+02  0.26504692837E+02  0.00000000000E+00 0. -1.
         21   -1    0    0  504  502 -0.00000000000E+00 -0.00000000000E+00 -0.46263314599E+02  0.46263314599E+02  0.00000000000E+00 0. -1.
         21    1    1    2  503  502 -0.32953927072E+02  0.40654739413E+01 -0.21435784398E+02  0.39521921014E+02  0.00000000000E+00 0. -1.
         21    1    1    2  504  501  0.32953927072E+02 -0.40654739413E+01  0.16771626353E+01  0.33246086422E+02  0.00000000000E+00 0. -1.
</event>
<event>
 4    1  0.3035432E+006  0.2268818E+02  0.7546771E-02  0.1496451E+00
         21   -1    0    0  504  501  0.00000000000E+00  0.00000000000E+00  0.72239759455E+02  0.72239759455E+02  0.00000000000E+00 0.  1.
         21   -1    0    0  501  502 -0.00000000000E+00 -0.00000000000E+00 -0.83474122585E+01  0.83474122585E+01  0.00000000000E+00 0. -1.
         21    1    1    2  503  502 -0.13043315766E+02 -0.18564088852E+02  0.16530671600E+02  0.28071633095E+02  0.00000000000E+00 0. -1.
         21    1    1    2  504  503  0.13043315766E+02  0.18564088852E+02  0.47361675597E+02  0.52515538619E+02  0.00000000000E+00 0.  1.
</event>
<event>
 4    1  0.3035432E+006  0.4268548E+02  0.7546771E-02  0.1333429E+00
         21   -1    0    0  502  501  0.00000000000E+00  0.00000000000E+00  0.29248349480E+02  0.29248349480E+02  0.00000000000E+00 0. -1.
         21   -1    0    0  504  502 -0.00000000000E+00 -0.00000000000E+00 -0.20525236722E+03  0.20525236722E+03  0.00000000000E+00 0.  1.
         21    1    1    2  503  501 -0.79604628383E+01 -0.41936635402E+02  0.98505289265E+01  0.43807342736E+02  0.00000000000E+00 0. -1.
         21    1    1    2  504  503  0.79604628383E+01  0.41936635402E+02 -0.18585454666E+03  0.19069337396E+03  0.00000000000E+00 0.  1.
</event>
<event>
 4    1  0.3035432E+006  0.6061506E+02  0.7546771E-02  0.1257757E+00
         21   -1    0    0  503  501  0.00000000000E+00  0.00000000000E+00  0.78321994208E+01  0.78321994208E+01  0.00000000000E+00 0. -1.
         21   -1    0    0  504  502 -0.00000000000E+00 -0.00000000000E+00 -0.49924047557E+03  0.49924047557E+03  0.00000000000E+00 0. -1.
         21    1    1    2  503  502  0.57234639429E+02 -0.19959491907E+02 -0.18342137298E+03  0.19317760049E+03  0.00000000000E+00 0. -1.
         21    1    1    2  504  501 -0.57234639429E+02  0.19959491907E+02 -0.30798690317E+03  0.31389507450E+03  0.00000000000E+00 0. -1.
</event>
<event>
 4    1  0.3035432E+006  0.2106468E+02  0.7546771E-02  0.1518343E+00
         21   -1    0    0  504  501  0.00000000000E+00  0.00000000000E+00  0.75115267031E+02  0.75115267031E+02  0.00000000000E+00 0. -1.
         21   -1    0    0  501  502 -0.00000000000E+00 -0.00000000000E+00 -0.90843165136E+02  0.90843165136E+02  0.00000000000E+00 0. -1.
         21    1    1    2  503  502 -0.70905915217E+01  0.19835431927E+02 -0.88099901807E+02  0.90583185782E+02  0.00000000000E+00 0. -1.
         21    1    1    2  504  503  0.70905915217E+01 -0.19835431927E+02  0.72372003702E+02  0.75375246385E+02  0.00000000000E+00 0. -1.
</event>
<event>
 4    1  0.3035432E+006  0.2015151E+02  0.7546771E-02  0.1531732E+00
         21   -1    0    0  503  501  0.00000000000E+00  0.00000000000E+00  0.32158975626E+01  0.32158975626E+01  0.00000000000E+00 0.  1.
         21   -1    0    0  504  502 -0.00000000000E+00 -0.00000000000E+00 -0.13020874556E+03  0.13020874556E+03  0.00000000000E+00 0. -1.
         21    1    1    2  503  502 -0.10629652517E+02  0.17119983581E+02 -0.75093799522E+02  0.77750640365E+02  0.00000000000E+00 0. -1.
         21    1    1    2  504  501  0.10629652517E+02 -0.17119983581E+02 -0.51899048474E+02  0.55674002757E+02  0.00000000000E+00 0.  1.
</event>
<event>
 4    1  0.3035432E+006  0.2007127E+02  0.7546771E-02  0.1532949E+00
         21   -1    0    0  503  501  0.00000000000E+00  0.00000000000E+00  0.13501692239E+03  0.13501692239E+03  0.00000000000E+00 0.  1.
         21   -1    0    0  504  502 -0.00000000000E+00 -0.00000000000E+00 -0.18166427466E+02  0.18166427466E+02  0.00000000000E+00 0.  1.
         21    1    1    2  503  502 -0.49055257961E+01 -0.19462571715E+02 -0.11594586505E+02  0.23179523665E+02  0.00000000000E+00 0.  1.
         21    1    1    2  504  501  0.49055257961E+01  0.19462571715E+02  0.12844508143E+03  0.13000382619E+03  0.00000000000E+00 0.  1.
</event>
<event>
 4    1  0.3035432E+006  0.2070334E+02  0.7546771E-02  0.1523543E+00
         21   -1    0    0  504  501  0.00000000000E+00  0.00000000000E+00  0.77129419442E+03  0.77129419442E+03  0.00000000000E+00 0.  1.
         21   -1    0    0  503  502 -0.00000000000E+00 -0.00000000000E+00 -0.15479614680E+01  0.15479614680E+01  0.00000000000E+00 0.  1.
         21    1    1    2  503  501  0.20500335199E+02  0.28921638426E+01  0.69425015284E+03  0.69455878303E+03  0.00000000000E+00 0.  1.
         21    1    1    2  504  502 -0.20500335199E+02 -0.28921638426E+01  0.75496080108E+02  0.78283372862E+02  0.00000000000E+00 0.  1.
</event>
<event>
 4    1  0.3035432E+006  0.2124737E+02  0.7546771E-02  0.1515762E+00
         21   -1    0    0  502  501  0.00000000000E+00  0.00000000000E+00  0.45208351405E+01  0.45208351405E+01  0.00000000000E+00 0. -1.
         21   -1    0    0  503  502 -0.00000000000E+00 -0.00000000000E+00 -0.17255047670E+03  0.17255047670E+03  0.00000000000E+00 0.  1.
         21    1    1    2  503  504  0.21129854455E+02 -0.22315954309E+01 -0.14147920713E+03  0.14306577794E+03  0.00000000000E+00 0.  1.
         21    1    1    2  504  501 -0.21129854455E+02  0.22315954309E+01 -0.26550434429E+02  0.34005533900E+02  0.00000000000E+00 0. -1.
</event>
<event>
 4    1  0.3035432E+006  0.4266986E+02  0.7546771E-02  0.1333513E+00
         21   -1    0    0  504  501  0.00000000000E+00  0.00000000000E+00  0.10497513754E+03  0.10497513754E+03  0.00000000000E+00 0. -1.
         21   -1    0    0  501  502 -0.00000000000E+00 -0.00000000000E+00 -0.19326194218E+03  0.19326194218E+03  0.00000000000E+00 0.  1.
         21    1    1    2  503  502 -0.27188767931E+02 -0.32885982520E+02 -0.18641336239E+03  0.19123456441E+03  0.00000000000E+00 0.  1.
         21    1    1    2  504  503  0.27188767931E+02  0.32885982520E+02  0.98126557751E+02  0.10700251532E+03  0.00000000000E+00 0. -1.
</event>
<event>
 4    1  0.3035432E+006  0.2475045E+02  0.7546771E-02  0.1471615E+00
         21   -1    0    0  503  501  0.00000000000E+00  0.00000000000E+00  0.16848101453E+02  0.16848101453E+02  0.00000000000E+00 0. -1.
         21   -1    0    0  504  502 -0.00000000000E+00 -0.00000000000E+00 -0.38384690854E+02  0.38384690854E+02  0.00000000000E+00 0. -1.
         21    1    1    2  503  502 -0.17588352340E+02 -0.17413630994E+02 -0.17112037081E+02  0.30089973338E+02  0.00000000000E+00 0. -1.
         21    1    1    2  504  501  0.17588352340E+02  0.17413630994E+02 -0.44245523198E+01  0.25142818969E+02  0.00000000000E+00 0. -1.
</event>
<event>
 4    1  0.3035432E+006  0.7516527E+02  0.7546771E-02  0.1215539E+00
         21   -1    0    0  503  501  0.00000000000E+00  0.00000000000E+00  0.14173351374E+03  0.14173351374E+03  0.00000000000E+00 0.  1.
         21   -1    0    0  504  502 -0.00000000000E+00 -0.00000000000E+00 -0.40574343332E+02  0.40574343332E+02  0.00000000000E+00 0.  1.
         21    1    1    2  503  502 -0.28587808691E+02 -0.69516576737E+02  0.62655416816E+02  0.97854578346E+02  0.00000000000E+00 0.  1.
         21    1    1    2  504  501  0.28587808691E+02  0.69516576737E+02  0.38503753593E+02  0.84453278727E+02  0.00000000000E+00 0.  1.
</event>
<event>
 4    1  0.3035432E+006  0.2039219E+02  0.7546771E-02  0.1528122E+00
         21   -1    0    0  503  501  0.00000000000E+00  0.00000000000E+00  0.10969165718E+01  0.10969165718E+01  0.00000000000E+00 0. -1.
         21   -1    0    0  501  502 -0.00000000000E+00 -0.00000000000E+00 -0.86926805984E+03  0.86926805984E+03  0.00000000000E+00 0. -1.
         21    1    1    2  503  504  0.77981625760E+01 -0.18842242626E+02 -0.10729696781E+03  0.10921758443E+03  0.00000000000E+00 0. -1.
         21    1    1    2  504  502 -0.77981625760E+01  0.18842242626E+02 -0.76087417546E+03  0.76114739198E+03  0.00000000000E+00 0. -1.
</event>
<event>
 4    1  0.3035432E+006  0.2682310E+02  0.7546771E-02  0.1449393E+00
         21   -1    0    0  502  501  0.00000000000E+00  0.00000000000E+00  0.12290587621E+02  0.12290587621E+02  0.00000000000E+00 0. -1.
         21   -1    0    0  504  502 -0.00000000000E+00 -0.00000000000E+00 -0.13200812205E+03  0.13200812205E+03  0.00000000000E+00 0. -1.
         21    1    1    2  503  501  0.18887357679E+02  0.19045897122E+02 -0.60336968495E+01  0.27493344194E+02  0.00000000000E+00 0. -1.
         21    1    1    2  504  503 -0.18887357679E+02 -0.19045897122E+02 -0.11368383758E+03  0.11680536548E+03  0.00000000000E+00 0. -1.
</event>
<event>
 4    1  0.3035432E+006  0.2250274E+02  0.7546771E-02  0.1498839E+00
         21   -1    0    0  503  501  0.00000000000E+00  0.00000000000E+00  0.43731211047E+03  0.43731211047E+03  0.00000000000E+00 0.  1.
         21   -1    0    0  504  502 -0.00000000000E+00 -0.00000000000E+00 -0.12086126807E+01  0.12086126807E+01  0.00000000000E+00 0.  1.
         21    1    1    2  503  502 -0.48959474193E+01 -0.21963670231E+02  0.17314800036E+03  0.17460413265E+03  0.00000000000E+00 0.  1.
         21    1    1    2  504  501  0.48959474193E+01  0.21963670231E+02  0.26295549743E+03  0.26391659050E+03  0.00000000000E+00 0.  1.
</event>
<event>
 4    1  0.3035432E+006  0.2087559E+02  0.7546771E-02  0.1521049E+00
         21   -1    0    0  503  501  0.00000000000E+00  0.00000000000E+00  0.10535064195E+03  0.10535064195E+03  0.00000000000E+00 0.  1.
         21   -1    0    0  501  502 -0.00000000000E+00 -0.00000000000E+00 -0.44574780406E+02  0.44574780406E+02  0.00000000000E+00 0.  1.
         21    1    1    2  503  504 -0.15913400554E+01  0.20814845471E+02  0.10178767410E+03  0.10390630758E+03  0.00000000000E+00 0.  1.
         21    1    1    2  504  502  0.15913400554E+01 -0.20814845471E+02 -0.41011812561E+02  0.46019114775E+02  0.00000000000E+00 0.  1.
</event>
<event>
 4    1  0.3035432E+006  0.2206001E+02  0.7546771E-02  0.1504651E+00
         21   -1    0    0  503  501  0.00000000000E+00  0.00000000000E+00  0.19576560153E+01  0.19576560153E+01  0.00000000000E+00 0. -1.
         21   -1    0    0  504  502 -0.00000000000E+00 -0.00000000000E+00 -0.25982922297E+03  0.25982922297E+03  0.00000000000E+00 0.  1.
         21    1    1    2  503  502  0.13347042530E+02 -0.17564180895E+02 -0.10170639586E+03  0.10407129745E+03  0.00000000000E+00 0. -1.
         21    1    1    2  504  501 -0.13347042530E+02  0.17564180895E+02 -0.15616517110E+03  0.15771558154E+03  0.00000000000E+00 0.  1.
</event>
<event>
 4    1  0.3035432E+006  0.3125902E+02  0.7546771E-02  0.1408962E+00
         21   -1    0    0  503  501  0.00000000000E+00  0.00000000000E+00  0.24076313391E+03  0.24076313391E+03  0.00000000000E+00 0.  1.
         21   -1    0    0  501  502 -0.00000000000E+00 -0.00000000000E+00 -0.38942353638E+02  0.38942353638E+02  0.00000000000E+00 0. -1.
         21    1    1    2  503  504  0.20958113206E+02 -0.23192328486E+02  0.23327515551E+03  0.23536020222E+03  0.00000000000E+00 0.  1.
         21    1    1    2  504  502 -0.20958113206E+02  0.23192328486E+02 -0.31454375236E+02  0.44345285333E+02  0.00000000000E+00 0. -1.
</event>
<event>
 4    1  0.3035432E+006  0.2393545E+02  0.7546771E-02  0.1481074E+00
         21   -1    0    0  503  501  0.00000000000E+00  0.00000000000E+00  0.21999912339E+02  0.21999912339E+02  0.00000000000E+00 0.  1.
         21   -1    0    0  501  502 -0.00000000000E+00 -0.00000000000E+00 -0.45822029743E+02  0.45822029743E+02  0.00000000000E+00 0.  1.
         21    1    1    2  503  504 -0.23256649690E+02 -0.56598589581E+01  0.10369419004E+02  0.26085064860E+02  0.00000000000E+00 0.  1.
         21    1    1    2  504  502  0.23256649690E+02  0.56598589581E+01 -0.34191536409E+02  0.41736877222E+02  0.00000000000E+00 0.  1.
</event>
<event>
 4    1  0.3035432E+006  0.2132770E+02  0.7546771E-02  0.1514637E+00
         21   -1    0    0  502  501  0.00000000000E+00  0.00000000000E+00  0.36568268555E+02  0.36568268555E+02  0.00000000000E+00 0. -1.
         21   -1    0    0  503  502 -0.00000000000E+00 -0.00000000000E+00 -0.47488190701E+02  0.47488190701E+02  0.00000000000E+00 0.  1.
         21    1    1    2  503  504 -0.17260466529E+02  0.12527860511E+02 -0.41566642137E+02  0.46718911934E+02  0.00000000000E+00 0.  1.
         21    1    1    2  504  501  0.17260466529E+02 -0.12527860511E+02  0.30646719991E+02  0.37337547321E+02  0.00000000000E+00 0. -1.
</event>
<event>
 4    1  0.3035432E+006  0.2622477E+02  0.7546771E-02  0.1455555E+00
         21   -1    0    0  504  501  0.00000000000E+00  0.00000000000E+00  0.10054616933E+02  0.10054616933E+02  0.00000000000E+00 0. -1.
         21   -1    0    0  503  502 -0.00000000000E+00 -0.00000000000E+00 -0.72567470224E+02  0.72567470224E+02  0.00000000000E+00 0. -1.
         21    1    1    2  503  501 -0.17886745403E+02 -0.19178187777E+02 -0.41156015984E+02  0.48801190551E+02  0.00000000000E+00 0. -1.
         21    1    1    2  504  502  0.17886745403E+02  0.19178187777E+02 -0.21356837307E+02  0.33820896606E+02  0.00000000000E+00 0. -1.
</event>
<event>
 4    1  0.3035432E+006  0.2173981E+02  0.7546771E-02  0.1508959E+00
         21   -1    0    0  504  501  0.00000000000E+00  0.00000000000E+00  0.57002041620E+01  0.57002041620E+01  0.00000000000E+00 0.  1.
         21   -1    0    0  503  502 -0.00000000000E+00 -0.00000000000E+00 -0.10681052152E+03  0.10681052152E+03  0.00000000000E+00 0.  1.
         21    1    1    2  503  501 -0.15850398143E+02 -0.14878989291E+02 -0.77164606846E+02  0.80168547406E+02  0.00000000000E+00 0.  1.
         21    1    1    2  504  502  0.15850398143E+02  0.14878989291E+02 -0.23945710509E+02  0.32342178272E+02  0.00000000000E+00 0.  1.
</event>
<event>
 4    1  0.3035432E+006  0.2397931E+02  0.7546771E-02  0.1480554E+00
         21   -1    0    0  504  501  0.00000000000E+00  0.00000000000E+00  0.48418874099E+01  0.48418874099E+01  0.00000000000E+00 0.  1.
         21   -1    0    0  503  502 -0.00000000000E+00 -0.00000000000E+00 -0.15650597196E+03  0.15650597196E+03  0.00000000000E+00 0.  1.
         21    1    1    2  503  501 -0.14216408582E+02 -0.19310644864E+02 -0.36211427971E+02  0.43431265163E+02  0.00000000000E+00 0.  1.
         21    1    1    2  504  502  0.14216408582E+02  0.19310644864E+02 -0.11545265658E+03  0.11791659420E+03  0.00000000000E+00 0.  1.
</event>
<event>
 4    1  0.3035432E+006  0.2356398E+02  0.7546771E-02  0.1485535E+00
         21   -1    0    0  502  501  0.00000000000E+00  0.00000000000E+00  0.55391561353E+03  0.55391561353E+03  0.00000000000E+00 0. -1.
         21   -1    0    0  504  502 -0.00000000000E+00 -0.00000000000E+00 -0.46378670961E+03  0.46378670961E+03  0.00000000000E+00 0.  1.
         21    1    1    2  503  501 -0.15428380913E+02  0.17810843258E+02  0.55336540038E+03  0.55386688601E+03  0.00000000000E+00 0. -1.
         21    1    1    2  504  503  0.15428380913E+02 -0.17810843258E+02 -0.46323649647E+03  0.46383543713E+03  0.00000000000E+00 0.  1.
</event>
<event>
 4    1  0.3035432E+006  0.3414540E+02  0.7546771E-02  0.1386673E+00
         21   -1    0    0  503  501  0.00000000000E+00  0.00000000000E+00  0.17133991992E+02  0.17133991992E+02  0.00000000000E+00 0.  1.
         21   -1    0    0  504  502 -0.00000000000E+00 -0.00000000000E+00 -0.43481226552E+03  0.43481226552E+03  0.00000000000E+00 0. -1.
         21    1    1    2  503  502  0.17278449272E+02  0.29451041548E+02 -0.12998667652E+01  0.34170137710E+02  0.00000000000E+00 0.  1.
         21    1    1    2  504  501 -0.17278449272E+02 -0.29451041548E+02 -0.41637840676E+03  0.41777611980E+03  0.00000000000E+00 0. -1.
</event>
<event>
 4    1  0.3035432E+006  0.2776789E+02  0.7546771E-02  0.1440043E+00
         21   -1    0    0  504  501  0.00000000000E+00  0.00000000000E+00  0.17590234806E+02  0.17590234806E+02  0.00000000000E+00 0.  1.
         21   -1    0    0  501  502 -0.00000000000E+00 -0.00000000000E+00 -0.30473933072E+03  0.30473933072E+03  0.00000000000E+00 0.  1.
         21    1    1    2  503  502 -0.11243395296E+02 -0.25389801812E+02 -0.29269839631E+03  0.29401259697E+03  0.00000000000E+00 0.  1.
         21    1    1    2  504  503  0.11243395296E+02  0.25389801812E+02  0.55493003897E+01  0.28316968564E+02  0.00000000000E+00 0.  1.
</event>
<event>
 4    1  0.3035432E+006  0.2274197E+02  0.7546771E-02  0.1495764E+00
         21   -1    0    0  502  501  0.00000000000E+00  0.00000000000E+00  0.66090830353E+01  0.66090830353E+01  0.00000000000E+00 0. -1.
         21   -1    0    0  504  502 -0.00000000000E+00 -0.00000000000E+00 -0.38484706237E+03  0.38484706237E+03  0.00000000000E+00 0. -1.
         21    1    1    2  503  501  0.18785027259E+02  0.12818729330E+02 -0.14420506608E+02  0.26928573702E+02  0.00000000000E+00 0. -1.
         21    1    1    2  504  503 -0.18785027259E+02 -0.12818729330E+02 -0.36381747273E+03  0.36452757171E+03  0.00000000000E+00 0. -1.
</event>
<event>
 4    1  0.3035432E+006  0.2421996E+02  0.7546771E-02  0.1477722E+00
         21   -1    0    0  503  501  0.00000000000E+00  0.00000000000E+00  0.46825822897E+02  0.46825822897E+02  0.00000000000E+00 0. -1.
         21   -1    0    0  504  502 -0.00000000000E+00 -0.00000000000E+00 -0.28297368269E+02  0.28297368269E+02  0.00000000000E+00 0.  1.
         21    1    1    2  503  502 -0.74392633665E+01  0.23049156623E+02 -0.18776307161E+02  0.30645651748E+02  0.00000000000E+00 0.  1.
         21    1    1    2  504  501  0.74392633665E+01 -0.23049156623E+02  0.37304761790E+02  0.44477539418E+02  0.00000000000E+00 0. -1.
</event>
<event>
 4    1  0.3035432E+006  0.3032924E+02  0.7546771E-02  0.1416756E+00
         21   -1    0    0  503  501  0.00000000000E+00  0.00000000000E+00  0.11124258549E+02  0.11124258549E+02  0.00000000000E+00 0.  1.
         21   -1    0    0  504  502 -0.00000000000E+00 -0.00000000000E+00 -0.85262449477E+02  0.85262449477E+02  0.00000000000E+00 0.  1.
         21    1    1    2  503  502  0.13716197498E+01 -0.30298205898E+02 -0.45440518042E+02  0.54632438178E+02  0.00000000000E+00 0.  1.
         21    1    1    2  504  501 -0.13716197498E+01  0.30298205898E+02 -0.28697672887E+02  0.41754269848E+02  0.00000000000E+00 0.  1.
</event>
<event>
 4    1  0.3035432E+006  0.2596029E+02  0.7546771E-02  0.1458341E+00
         21   -1    0    0  504  501  0.00000000000E+00  0.00000000000E+00  0.36366513218E+03  0.36366513218E+03  0.00000000000E+00 0.  1.
         21   -1    0    0  503  502 -0.00000000000E+00 -0.00000000000E+00 -0.20080522744E+01  0.20080522744E+01  0.00000000000E+00 0.  1.
         21    1    1    2  503  501 -0.43468218975E+01 -0.25593786532E+02  0.23160508453E+03  0.23305546968E+03  0.00000000000E+00 0.  1.
         21    1    1    2  504  502  0.43468218975E+01  0.25593786532E+02  0.13005199538E+03  0.13261771478E+03  0.00000000000E+00 0.  1.
</event>
<event>
 4    1  0.3035432E+006  0.2010651E+02  0.7546771E-02  0.1532414E+00
         21   -1    0    0  503  501  0.00000000000E+00  0.00000000000E+00  0.25399146109E+00  0.25399146109E+00  0.00000000000E+00 0. -1.
         21   -1    0    0  504  502 -0.00000000000E+00 -0.00000000000E+00 -0.17961759116E+04  0.17961759116E+04  0.00000000000E+00 0. -1.
         21    1    1    2  503  502 -0.18323386713E+02 -0.82779992671E+01 -0.59488336593E+03  0.59522305973E+03  0.00000000000E+00 0. -1.
         21    1    1    2  504  501  0.18323386713E+02  0.82779992671E+01 -0.12010385542E+04  0.12012068433E+04  0.00000000000E+00 0. -1.
</event>
<event>
 4    1  0.3035432E+006  0.2053019E+02  0.7546771E-02  0.1526079E+00
         21   -1    0    0  504  501  0.00000000000E+00  0.00000000000E+00  0.89767389311E+01  0.89767389311E+01  0.00000000000E+00 0.  1.
         21   -1    0    0  503  502 -0.00000000000E+00 -0.00000000000E+00 -0.59171486770E+02  0.59171486770E+02  0.00000000000E+00 0.  1.
         21    1    1    2  503  501 -0.20524320653E+02 -0.49085347388E+00 -0.40580883280E+02  0.45478530794E+02  0.00000000000E+00 0.  1.
         21    1    1    2  504  502  0.20524320653E+02  0.49085347388E+00 -0.96138645594E+01  0.22669694907E+02  0.00000000000E+00 0.  1.
</event>
<event>
 4    1  0.3035432E+006  0.3799551E+02  0.7546771E-02  0.1360650E+00
         21   -1    0    0  503  501  0.00000000000E+00  0.00000000000E+00  0.56443904069E+03  0.56443904069E+03  0.00000000000E+00 0. -1.
         21   -1    0    0  504  502 -0.00000000000E+00 -0.00000000000E+00 -0.11950692301E+03  0.11950692301E+03  0.00000000000E+00 0.  1.
         21    1    1    2  503  502  0.11011837792E+02  0.36364792209E+02  0.56075979504E+03  0.56204555547E+03  0.00000000000E+00 0. -1.
         21    1    1    2  504  501 -0.11011837792E+02 -0.36364792209E+02 -0.11582767737E+03  0.12190040824E+03  0.00000000000E+00 0.  1.
</event>
<event>
 4    1  0.3035432E+006  0.2094035E+02  0.7546771E-02  0.1520118E+00
         21   -1    0    0  503  501  0.00000000000E+00  0.00000000000E+00  0.71126996824E+01  0.71126996824E+01  0.00000000000E+00 0.  1.
         21   -1    0    0  501  502 -0.00000000000E+00 -0.00000000000E+00 -0.13970275019E+03  0.13970275019E+03  0.00000000000E+00 0.  1.
         21    1    1    2  503  504  0.13119497521E+02 -0.16321056979E+02 -0.11425232349E+02  0.23854434605E+02  0.00000000000E+00 0.  1.
         21    1    1    2  504  502 -0.13119497521E+02  0.16321056979E+02 -0.12116481816E+03  0.12296101527E+03  0.00000000000E+00 0.  1.
</event>
<event>
 4    1  0.3035432E+006  0.2405406E+02  0.7546771E-02  0.1479670E+00
         21   -1    0    0  504  501  0.00000000000E+00  0.00000000000E+00  0.13296203912E+04  0.13296203912E+04  0.00000000000E+00 0. -1.
         21   -1    0    0  503  502 -0.00000000000E+00 -0.00000000000E+00 -0.10471922788E+01  0.10471922788E+01  0.00000000000E+00 0.  1.
         21    1    1    2  503  501 -0.22377674852E+02  0.88225520192E+01  0.11729300895E+04  0.11731767099E+04  0.00000000000E+00 0. -1.
         21    1    1    2  504  502  0.22377674852E+02 -0.88225520192E+01  0.15564310944E+03  0.15749087362E+03  0.00000000000E+00 0.  1.
</event>
<event>
 4    1  0.3035432E+006  0.3412315E+02  0.7546771E-02  0.1386835E+00
         21   -1    0    0  502  501  0.00000000000E+00  0.00000000000E+00  0.37109909897E+02  0.37109909897E+02  0.00000000000E+00 0. -1.
         21   -1    0    0  503  502 -0.00000000000E+00 -0.00000000000E+00 -0.60785714936E+02  0.60785714936E+02  0.00000000000E+00 0.  1.
         21    1    1    2  503  504  0.14057803520E+02 -0.31092883080E+02 -0.45884382903E+02  0.57181866116E+02  0.00000000000E+00 0.  1.
         21    1    1    2  504  501 -0.14057803520E+02  0.31092883080E+02  0.22208577864E+02  0.40713758716E+02  0.00000000000E+00 0. -1.
</event>
<event>
 4    1  0.3035432E+006  0.2025078E+02  0.7546771E-02  0.1530236E+00
         21   -1    0    0  503  501  0.00000000000E+00  0.00000000000E+00  0.78913342466E+02  0.78913342466E+02  0.00000000000E+00 0. -1.
         21   -1    0    0  501  502 -0.00000000000E+00 -0.00000000000E+00 -0.52422241761E+01  0.52422241761E+01  0.00000000000E+00 0. -1.
         21    1    1    2  503  504  0.14807717081E+02 -0.13813970541E+02  0.40753839259E+02  0.45507907902E+02  0.00000000000E+00 0. -1.
         21    1    1    2  504  502 -0.14807717081E+02  0.13813970541E+02  0.32917279031E+02  0.38647658740E+02  0.00000000000E+00 0. -1.
</event>
<event>
 4    1  0.3035432E+006  0.3818651E+02  0.7546771E-02  0.1359453E+00
         21   -1    0    0  503  501  0.00000000000E+00  0.00000000000E+00  0.17730741251E+02  0.17730741251E+02  0.00000000000E+00 0. -1.
         21   -1    0    0  504  502 -0.00000000000E+00 -0.00000000000E+00 -0.15873318969E+03  0.15873318969E+03  0.00000000000E+00 0. -1.
         21    1    1    2  503  502  0.75374204912E+01 -0.37435240032E+02 -0.13175009201E+03  0.13717250689E+03  0.00000000000E+00 0. -1.
         21    1    1    2  504  501 -0.75374204912E+01  0.37435240032E+02 -0.92523564316E+01  0.39291424045E+02  0.00000000000E+00 0. -1.
</event>
<event>
 4    1  0.3035432E+006  0.2416478E+02  0.7546771E-02  0.1478368E+00
         21   -1    0    0  504  501  0.00000000000E+00  0.00000000000E+00  0.16753589782E+01  0.16753589782E+01  0.00000000000E+00 0.  1.
         21   -1    0    0  503  502 -0.00000000000E+00 -0.00000000000E+00 -0.52339328882E+03  0.52339328882E+03  0.00000000000E+00 0.  1.
         21    1    1    2  503  501  0.23446381287E+02  0.58483860581E+01 -0.41260029309E+03  0.41330731698E+03  0.00000000000E+00 0.  1.
         21    1    1    2  504  502 -0.23446381287E+02 -0.58483860581E+01 -0.10911763675E+03  0.11176133081E+03  0.00000000000E+00 0.  1.
</event>
<event>
 4    1  0.3035432E+006  0.2500760E+02  0.7546771E-02  0.1468718E+00
         21   -1    0    0  503  501  0.00000000000E+00  0.00000000000E+00  0.52386467639E+02  0.52386467639E+02  0.00000000000E+00 0.  1.
         21   -1    0    0  504  502 -0.00000000000E+00 -0.00000000000E+00 -0.12343838598E+03  0.12343838598E+03  0.00000000000E+00 0.  1.
         21    1    1    2  503  502  0.14276100749E+02 -0.20532243856E+02  0.48027357195E+02  0.54148011316E+02  0.00000000000E+00 0.  1.
         21    1    1    2  504  501 -0.14276100749E+02  0.20532243856E+02 -0.11907927554E+03  0.12167684231E+03  0.00000000000E+00 0.  1.
</event>
<event>
 4    1  0.3035432E+006  0.2347772E+02  0.7546771E-02  0.1486585E+00
         21   -1    0    0  504  501  0.00000000000E+00  0.00000000000E+00  0.25966006225E+02  0.25966006225E+02  0.00000000000E+00 0.  1.
         21   -1    0    0  503  502 -0.00000000000E+00 -0.00000000000E+00 -0.36516287559E+02  0.36516287559E+02  0.00000000000E+00 0.  1.
         21    1    1    2  503  501  0.22781111966E+02 -0.56766556163E+01  0.14939436740E+02  0.27827868253E+02  0.00000000000E+00 0.  1.
         21    1    1    2  504  502 -0.22781111966E+02  0.56766556163E+01 -0.25489718075E+02  0.34654425531E+02  0.00000000000E+00 0.  1.
</event>
<event>
 4    1  0.3035432E+006  0.4324852E+02  0.7546771E-02  0.1330434E+00
         21   -1    0    0  504  501  0.00000000000E+00  0.00000000000E+00  0.73137384416E+02  0.73137384416E+02  0.00000000000E+00 0. -1.
         21   -1    0    0  503  502 -0.00000000000E+00 -0.00000000000E+00 -0.66618089471E+02  0.66618089471E+02  0.00000000000E+00 0. -1.
         21    1    1    2  503  501  0.62723261362E+01  0.42791265604E+02 -0.51589095882E+02  0.67319159985E+02  0.00000000000E+00 0. -1.
         21    1    1    2  504  502 -0.62723261362E+01 -0.42791265604E+02  0.58108390827E+02  0.72436313901E+02  0.00000000000E+00 0. -1.
</event>
<event>
 4    1  0.3035432E+006  0.3282115E+02  0.7546771E-02  0.1396564E+00
         21   -1    0    0  502  501  0.00000000000E+00  0.00000000000E+00  0.89996802982E+02  0.89996802982E+02  0.00000000000E+00 0. -1.
         21   -1    0    0  504  502 -0.00000000000E+00 -0.00000000000E+00 -0.52679468025E+02  0.52679468025E+02  0.00000000000E+00 0.  1.
         21    1    1    2  503  501  0.43197446554E+01 -0.32535637873E+02  0.81370686238E+02  0.87740620607E+02  0.00000000000E+00 0. -1.
         21    1    1    2  504  503 -0.43197446554E+01  0.32535637873E+02 -0.44053351281E+02  0.54935650399E+02  0.00000000000E+00 0.  1.
</event>
<event>
 4    1  0.3035432E+006  0.2318951E+02  0.7546771E-02  0.1490132E+00
         21   -1    0    0  504  501  0.00000000000E+00  0.00000000000E+00  0.84518610319E+02  0.84518610319E+02  0.00000000000E+00 0. -1.
         21   -1    0    0  503  502 -0.00000000000E+00 -0.00000000000E+00 -0.66620481218E+01  0.66620481218E+01  0.00000000000E+00 0. -1.
         21    1    1    2  503  501 -0.20054191683E+02  0.11644005384E+02  0.48594786293E+02  0.53844282150E+02  0.00000000000E+00 0. -1.
         21    1    1    2  504  502  0.20054191683E+02 -0.11644005384E+02  0.29261775904E+02  0.37336376290E+02  0.00000000000E+00 0. -1.
</event>
<event>
 4    1  0.3035432E+006  0.3953621E+02  0.7546771E-02  0.1351225E+00
         21   -1    0    0  502  501  0.00000000000E+00  0.00000000000E+00  0.78001296723E+02  0.78001296723E+02  0.00000000000E+00 0. -1.
         21   -1    0    0  504  502 -0.00000000000E+00 -0.00000000000E+00 -0.57214993773E+02  0.57214993773E+02  0.00000000000E+00 0. -1.
         21    1    1    2  503  501  0.39459134652E+02 -0.24675752707E+01  0.64890086026E+02  0.75985758531E+02  0.00000000000E+00 0. -1.
         21    1    1    2  504  503 -0.39459134652E+02  0.24675752707E+01 -0.44103783076E+02  0.59230531964E+02  0.00000000000E+00 0. -1.
</event>
<event>
 4    1  0.3035432E+006  0.3159946E+02  0.7546771E-02  0.1406188E+00
         21   -1    0    0  504  501  0.00000000000E+00  0.00000000000E+00  0.12435997719E+04  0.12435997719E+04  0.00000000000E+00 0.  1.
         21   -1    0    0  501  502 -0.00000000000E+00 -0.00000000000E+00 -0.56027471648E+03  0.56027471648E+03  0.00000000000E+00 0. -1.
         21    1    1    2  503  502  0.16708935304E+02  0.26820468847E+02 -0.55962819977E+03  0.56051962324E+03  0.00000000000E+00 0. -1.
         21    1    1    2  504  503 -0.16708935304E+02 -0.26820468847E+02  0.12429532552E+04  0.12433548651E+04  0.00000000000E+00 0.  1.
</event>
<event>
 4    1  0.3035432E+006  0.2880610E+02  0.7546771E-02  0.1430263E+00
         21   -1    0    0  504  501  0.00000000000E+00  0.00000000000E+00  0.65899833957E+00  0.65899833957E+00  0.00000000000E+00 0. -1.
         21   -1    0    0  501  502 -0.00000000000E+00 -0.00000000000E+00 -0.12619096002E+04  0.12619096002E+04  0.00000000000E+00 0. -1.
         21    1    1    2  503  502  0.26336070194E+02 -0.11670586142E+02 -0.66003741263E+03  0.66066570763E+03  0.00000000000E+00 0. -1.
         21    1    1    2  504  503 -0.26336070194E+02  0.11670586142E+02 -0.60121318924E+03  0.60190289091E+03  0.00000000000E+00 0. -1.
</event>
<event>
 4    1  0.3035432E+006  0.2587662E+02  0.7546771E-02  0.1459231E+00
         21   -1    0    0  504  501  0.00000000000E+00  0.00000000000E+00  0.27470186315E+03  0.27470186315E+03  0.00000000000E+00 0. -1.
         21   -1    0    0  501  502 -0.00000000000E+00 -0.00000000000E+00 -0.25130818368E+02  0.25130818368E+02  0.00000000000E+00 0. -1.
         21    1    1    2  503  502 -0.28337345470E+00  0.25875066711E+02 -0.17674886730E+02  0.31336895167E+02  0.00000000000E+00 0. -1.
         21    1    1    2  504  503  0.28337345470E+00 -0.25875066711E+02  0.26724593151E+03  0.26849578635E+03  0.00000000000E+00 0. -1.
</event>
<event>
 4    1  0.3035432E+006  0.2114894E+02  0.7546771E-02  0.1517149E+00
         21   -1    0    0  504  501  0.00000000000E+00  0.00000000000E+00  0.11200735737E+03  0.11200735737E+03  0.00000000000E+00 0. -1.
         21   -1    0    0  503  502 -0.00000000000E+00 -0.00000000000E+00 -0.41110931469E+01  0.41110931469E+01  0.00000000000E+00 0. -1.
         21    1    1    2  503  501 -0.92542808909E+01  0.19016725822E+02  0.63776370972E+02  0.67191540168E+02  0.00000000000E+00 0. -1.
         21    1    1    2  504  502  0.92542808909E+01 -0.19016725822E+02  0.44119893250E+02  0.48926910348E+02  0.00000000000E+00 0. -1.
</event>
<event>
 4    1  0.3035432E+006  0.3354308E+02  0.7546771E-02  0.1391106E+00
         21   -1    0    0  504  501  0.00000000000E+00  0.00000000000E+00  0.71122723000E+01  0.71122723000E+01  0.00000000000E+00 0. -1.
         21   -1    0    0  503  502 -0.00000000000E+00 -0.00000000000E+00 -0.16013613528E+03  0.16013613528E+03  0.00000000000E+00 0. -1.
         21    1    1    2  503  501 -0.30391171932E+02  0.14195589629E+02 -0.67309055501E+02  0.75204036120E+02  0.00000000000E+00 0. -1.
         21    1    1    2  504  502  0.30391171932E+02 -0.14195589629E+02 -0.85714807478E+02  0.92044371459E+02  0.00000000000E+00 0. -1.
</event>
<event>
 4    1  0.3035432E+006  0.2924283E+02  0.7546771E-02  0.1426292E+00
         21   -1    0    0  504  501  0.00000000000E+00  0.00000000000E+00  0.25534163044E+03  0.25534163044E+03  0.00000000000E+00 0. -1.
         21   -1    0    0  503  502 -0.00000000000E+00 -0.00000000000E+00 -0.37495471647E+02  0.37495471647E+02  0.00000000000E+00 0.  1.
         21    1    1    2  503  501 -0.19081678960E+02 -0.22159255102E+02 -0.30803656444E+02  0.42473618976E+02  0.00000000000E+00 0.  1.
         21    1    1    2  504  502  0.19081678960E+02  0.22159255102E+02  0.24864981524E+03  0.25036348311E+03  0.00000000000E+00 0. -1.
</event>
<event>
 4    1  0.3035432E+006  0.2248318E+02  0.7546771E-02  0.1499092E+00
         21   -1    0    0  503  501  0.00000000000E+00  0.00000000000E+00  0.68748280243E+01  0.68748280243E+01  0.00000000000E+00 0. -1.
         21   -1    0    0  501  502 -0.00000000000E+00 -0.00000000000E+00 -0.12150339779E+03  0.12150339779E+03  0.00000000000E+00 0. -1.
         21    1    1    2  503  504  0.13442347915E+02  0.18022117992E+02 -0.16979872831E+02  0.28174625742E+02  0.00000000000E+00 0. -1.
         21    1    1    2  504  502 -0.13442347915E+02 -0.18022117992E+02 -0.97648696935E+02  0.10020360007E+03  0.00000000000E+00 0. -1.
</event>
<event>
 4    1  0.3035432E+006  0.2005624E+02  0.7546771E-02  0.1533178E+00
         21   -1    0    0  504  501  0.00000000000E+00  0.00000000000E+00  0.31873307984E+02  0.31873307984E+02  0.00000000000E+00 0. -1.
         21   -1    0    0  503  502 -0.00000000000E+00 -0.00000000000E+00 -0.44129686307E+02  0.44129686307E+02  0.00000000000E+00 0. -1.
         21    1    1    2  503  501 -0.55044570496E+01  0.19286098085E+02  0.25982885797E+02  0.32823207964E+02  0.00000000000E+00 0. -1.
         21    1    1    2  504  502  0.55044570496E+01 -0.19286098085E+02 -0.38239264120E+02  0.43179786326E+02  0.00000000000E+00 0. -1.
</event>
<event>
 4    1  0.3035432E+006  0.2643924E+02  0.7546771E-02  0.1453324E+00
         21   -1    0    0  504  501  0.00000000000E+00  0.00000000000E+00  0.26363900580E+03  0.26363900580E+03  0.00000000000E+00 0.  1.
         21   -1    0    0  501  502 -0.00000000000E+00 -0.00000000000E+00 -0.33751205559E+02  0.33751205559E+02  0.00000000000E+00 0. -1.
         21    1    1    2  503  502  0.23303112080E+02  0.12489929598E+02 -0.27791044830E+02  0.38358513354E+02  0.00000000000E+00 0. -1.
         21    1    1    2  504  503 -0.23303112080E+02 -0.12489929598E+02  0.25767884507E+03  0.25903169800E+03  0.00000000000E+00 0.  1.
</event>
<event>
 4    1  0.3035432E+006  0.3531202E+02  0.7546771E-02  0.1378383E+00
         21   -1    0    0  503  501  0.00000000000E+00  0.00000000000E+00  0.19780276413E+03  0.19780276413E+03  0.00000000000E+00 0.  1.
         21   -1    0    0  504  502 -0.00000000000E+00 -0.00000000000E+00 -0.63153602713E+01  0.63153602713E+01  0.00000000000E+00 0.  1.
         21    1    1    2  503  502 -0.22261115212E+02  0.27411336948E+02  0.10008189892E+03  0.10612881388E+03  0.00000000000E+00 0.  1.
         21    1    1    2  504  501  0.22261115212E+02 -0.27411336948E+02  0.91405504940E+02  0.97989310524E+02  0.00000000000E+00 0.  1.
</event>
<event>
 4    1  0.3035432E+006  0.2541692E+02  0.7546771E-02  0.1464193E+00
         21   -1    0    0  502  501  0.00000000000E+00  0.00000000000E+00  0.96797147858E+02  0.96797147858E+02  0.00000000000E+00 0.  1.
         21   -1    0    0  504  502 -0.00000000000E+00 -0.00000000000E+00 -0.82933258366E+02  0.82933258366E+02  0.00000000000E+00 0. -1.
         21    1    1    2  503  501  0.23266714321E+02 -0.10231312005E+02  0.93105421374E+02  0.96512378636E+02  0.00000000000E+00 0.  1.
         21    1    1    2  504  503 -0.23266714321E+02  0.10231312005E+02 -0.79241531882E+02  0.83218027588E+02  0.00000000000E+00 0. -1.
</event>
<event>
 4    1  0.3035432E+006  0.2233296E+02  0.7546771E-02  0.1501048E+00
         21   -1    0    0  504  501  0.00000000000E+00  0.00000000000E+00  0.30816532205E+01  0.30816532205E+01  0.00000000000E+00 0. -1.
         21   -1    0    0  503  502 -0.00000000000E+00 -0.00000000000E+00 -0.42274799214E+03  0.42274799214E+03  0.00000000000E+00 0. -1.
         21    1    1    2  503  501  0.22215769365E+02  0.22848913797E+01 -0.37709686467E+03  0.37775760281E+03  0.00000000000E+00 0. -1.
         21    1    1    2  504  502 -0.22215769365E+02 -0.22848913797E+01 -0.42569474251E+02  0.48072042552E+02  0.00000000000E+00 0. -1.
</event>
<event>
 4    1  0.3035432E+006  0.2196867E+02  0.7546771E-02  0.1505871E+00
         21   -1    0    0  504  501  0.00000000000E+00  0.00000000000E+00  0.16268506808E+03  0.16268506808E+03  0.00000000000E+00 0.  1.
         21   -1    0    0  503  502 -0.00000000000E+00 -0.00000000000E+00 -0.56071220996E+01  0.56071220996E+01  0.00000000000E+00 0. -1.
         21    1    1    2  503  501  0.12462650772E+02 -0.18091565287E+02  0.20794766104E+02  0.30249705719E+02  0.00000000000E+00 0. -1.
         21    1    1    2  504  502 -0.12462650772E+02  0.18091565287E+02  0.13628317988E+03  0.13804248446E+03  0.00000000000E+00 0.  1.
</event>
<event>
 4    1  0.3035432E+006  0.2162998E+02  0.7546771E-02  0.1510457E+00
         21   -1    0    0  504  501  0.00000000000E+00  0.00000000000E+00  0.15496127487E+03  0.15496127487E+03  0.00000000000E+00 0. -1.
         21   -1    0    0  501  502 -0.00000000000E+00 -0.00000000000E+00 -0.68244691572E+01  0.68244691572E+01  0.00000000000E+00 0. -1.
         21    1    1    2  503  502 -0.13064883230E+02  0.17238468306E+02  0.13663852506E+02  0.25584308251E+02  0.00000000000E+00 0. -1.
         21    1    1    2  504  503  0.13064883230E+02 -0.17238468306E+02  0.13447295321E+03  0.13620143578E+03  0.00000000000E+00 0. -1.
</event>
<event>
 4    1  0.3035432E+006  0.2220365E+02  0.7546771E-02  0.1502748E+00
         21   -1    0    0  502  501  0.00000000000E+00  0.00000000000E+00  0.60670888998E+02  0.60670888998E+02  0.00000000000E+00 0. -1.
         21   -1    0    0  504  502 -0.00000000000E+00 -0.00000000000E+00 -0.21411899905E+02  0.21411899905E+02  0.00000000000E+00 0. -1.
         21    1    1    2  503  501  0.17115871989E+02 -0.14143863621E+02  0.51958519391E+02  0.56503890923E+02  0.00000000000E+00 0. -1.
         21    1    1    2  504  503 -0.17115871989E+02  0.14143863621E+02 -0.12699530298E+02  0.25578897980E+02  0.00000000000E+00 0. -1.
</event>
<event>
 4    1  0.3035432E+006  0.2275255E+02  0.7546771E-02  0.1495629E+00
         21   -1    0    0  503  501  0.00000000000E+00  0.00000000000E+00  0.15295922137E+02  0.15295922137E+02  0.00000000000E+00 0. -1.
         21   -1    0    0  504  502 -0.00000000000E+00 -0.00000000000E+00 -0.58183500187E+02  0.58183500187E+02  0.00000000000E+00 0.  1.
         21    1    1    2  503  502  0.16472988944E+02  0.15694554607E+02 -0.45206159649E+02  0.50609043454E+02  0.00000000000E+00 0.  1.
         21    1    1    2  504  501 -0.16472988944E+02 -0.15694554607E+02  0.23185815995E+01  0.22870378871E+02  0.00000000000E+00 0. -1.
</event>
<event>
 4    1  0.3035432E+006  0.2310908E+02  0.7546771E-02  0.1491133E+00
         21   -1    0    0  503  501  0.00000000000E+00  0.00000000000E+00  0.32734978479E+02  0.32734978479E+02  0.00000000000E+00 0.  1.
         21   -1    0    0  504  502 -0.00000000000E+00 -0.00000000000E+00 -0.73239670301E+02  0.73239670301E+02  0.00000000000E+00 0. -1.
         21    1    1    2  503  502  0.79242518795E+01  0.21707965422E+02 -0.66967083604E+02  0.70842217759E+02  0.00000000000E+00 0. -1.
         21    1    1    2  504  501 -0.79242518795E+01 -0.21707965422E+02  0.26462391782E+02  0.35132431021E+02  0.00000000000E+00 0.  1.
</event>
<event>
 4    1  0.3035432E+006  0.2356929E+02  0.7546771E-02  0.1485471E+00
         21   -1    0    0  504  501  0.00000000000E+00  0.00000000000E+00  0.10087289223E+03  0.10087289223E+03  0.00000000000E+00 0.  1.
         21   -1    0    0  503  502 -0.00000000000E+00 -0.00000000000E+00 -0.63289690643E+01  0.63289690643E+01  0.00000000000E+00 0. -1.
         21    1    1    2  503  501 -0.13028184086E+02 -0.19641229302E+02  0.27955751438E+02  0.36565496134E+02  0.00000000000E+00 0. -1.
         21    1    1    2  504  502  0.13028184086E+02  0.19641229302E+02  0.66588171732E+02  0.70636365165E+02  0.00000000000E+00 0.  1.
</event>
<event>
 4    1  0.3035432E+006  0.2078161E+02  0.7546771E-02  0.1522406E+00
         21   -1    0    0  504  501  0.00000000000E+00  0.00000000000E+00  0.30530913978E+03  0.30530913978E+03  0.00000000000E+00 0.  1.
         21   -1    0    0  503  502 -0.00000000000E+00 -0.00000000000E+00 -0.22289420117E+01  0.22289420117E+01  0.00000000000E+00 0.  1.
         21    1    1    2  503  501 -0.13271328499E+02 -0.15992097558E+02  0.24448723448E+03  0.24536887163E+03  0.00000000000E+00 0.  1.
         21    1    1    2  504  502  0.13271328499E+02  0.15992097558E+02  0.58592963293E+02  0.62169210160E+02  0.00000000000E+00 0.  1.
</event>
<event>
 4    1  0.3035432E+006  0.2053416E+02  0.7546771E-02  0.1526021E+00
         21   -1    0    0  503  501  0.00000000000E+00  0.00000000000E+00  0.15846664496E+01  0.15846664496E+01  0.00000000000E+00 0. -1.
         21   -1    0    0  504  502 -0.00000000000E+00 -0.00000000000E+00 -0.30289377150E+03  0.30289377150E+03  0.00000000000E+00 0. -1.
         21    1    1    2  503  502 -0.54517524043E+01 -0.19797225283E+02 -0.97581652671E+02  0.99718757870E+02  0.00000000000E+00 0. -1.
         21    1    1    2  504  501  0.54517524043E+01  0.19797225283E+02 -0.20372745238E+03  0.20475968008E+03  0.00000000000E+00 0. -1.
</event>
<event>
 4    1  0.3035432E+006  0.6233640E+02  0.7546771E-02  0.1252094E+00
         21   -1    0    0  503  501  0.00000000000E+00  0.00000000000E+00  0.38930791705E+03  0.38930791705E+03  0.00000000000E+00 0. -1.
         21   -1    0    0  504  502 -0.00000000000E+00 -0.00000000000E+00 -0.14457361420E+02  0.14457361420E+02  0.00000000000E+00 0. -1.
         21    1    1    2  503  502  0.98099279936E+01  0.61559659361E+02  0.29975613664E+03  0.30616918167E+03  0.00000000000E+00 0. -1.
         21    1    1    2  504  501 -0.98099279936E+01 -0.61559659361E+02  0.75094418983E+02  0.97596096799E+02  0.00000000000E+00 0. -1.
</event>
<event>
 4    1  0.3035432E+006  0.2587194E+02  0.7546771E-02  0.1459281E+00
         21   -1    0    0  502  501  0.00000000000E+00  0.00000000000E+00  0.76301065634E+02  0.76301065634E+02  0.00000000000E+00 0. -1.
         21   -1    0    0  504  502 -0.00000000000E+00 -0.00000000000E+00 -0.21800953372E+02  0.21800953372E+02  0.00000000000E+00 0. -1.
         21    1    1    2  503  501  0.32970543330E+01  0.25660998311E+02  0.65168915198E+02  0.70116652157E+02  0.00000000000E+00 0. -1.
         21    1    1    2  504  503 -0.32970543330E+01 -0.25660998311E+02 -0.10668802936E+02  0.27985366849E+02  0.00000000000E+00 0. -1.
</event>
<event>
 4    1  0.3035432E+006  0.2927588E+02  0.7546771E-02  0.1425995E+00
         21   -1    0    0  504  501  0.00000000000E+00  0.00000000000E+00  0.24402355672E+03  0.24402355672E+03  0.00000000000E+00 0. -1.
         21   -1    0    0  503  502 -0.00000000000E+00 -0.00000000000E+00 -0.27508209116E+02  0.27508209116E+02  0.00000000000E+00 0. -1.
         21    1    1    2  503  501 -0.21393909952E+02  0.19984438551E+02  0.23506032824E+03  0.23687641309E+03  0.00000000000E+00 0. -1.
         21    1    1    2  504  502  0.21393909952E+02 -0.19984438551E+02 -0.18544980633E+02  0.34655352746E+02  0.00000000000E+00 0. -1.
</event>
<event>
 4    1  0.3035432E+006  0.2315960E+02  0.7546771E-02  0.1490504E+00
         21   -1    0    0  502  501  0.00000000000E+00  0.00000000000E+00  0.27850240425E+02  0.27850240425E+02  0.00000000000E+00 0. -1.
         21   -1    0    0  503  502 -0.00000000000E+00 -0.00000000000E+00 -0.15887329218E+03  0.15887329218E+03  0.00000000000E+00 0.  1.
         21    1    1    2  503  504 -0.16330227905E+02 -0.16422257546E+02 -0.15303178630E+03  0.15477433413E+03  0.00000000000E+00 0.  1.
         21    1    1    2  504  501  0.16330227905E+02  0.16422257546E+02  0.22008734553E+02  0.31949198471E+02  0.00000000000E+00 0. -1.
</event>
<event>
 4    1  0.3035432E+006  0.2147601E+02  0.7546771E-02  0.1512576E+00
         21   -1    0    0  504  501  0.00000000000E+00  0.00000000000E+00  0.12393551523E+02  0.12393551523E+02  0.00000000000E+00 0. -1.
         21   -1    0    0  501  502 -0.00000000000E+00 -0.00000000000E+00 -0.11657362853E+04  0.11657362853E+04  0.00000000000E+00 0. -1.
         21    1    1    2  503  502 -0.12797976707E+02  0.17246187328E+02 -0.11562574989E+04  0.11564569265E+04  0.00000000000E+00 0. -1.
         21    1    1    2  504  503  0.12797976707E+02 -0.17246187328E+02  0.29147651055E+01  0.21672910298E+02  0.00000000000E+00 0. -1.
</event>
<event>
 4    1  0.3035432E+006  0.2233977E+02  0.7546771E-02  0.1500959E+00
         21   -1    0    0  504  501  0.00000000000E+00  0.00000000000E+00  0.11717058536E+03  0.11717058536E+03  0.00000000000E+00 0. -1.
         21   -1    0    0  503  502 -0.00000000000E+00 -0.00000000000E+00 -0.88609107796E+01  0.88609107796E+01  0.00000000000E+00 0. -1.
         21    1    1    2  503  501  0.14177849325E+02  0.17264243109E+02  0.87434758829E+01  0.23989870198E+02  0.00000000000E+00 0. -1.
         21    1    1    2  504  502 -0.14177849325E+02 -0.17264243109E+02  0.99566198693E+02  0.10204162594E+03  0.00000000000E+00 0. -1.
</event>
<event>
 4    1  0.3035432E+006  0.2678626E+02  0.7546771E-02  0.1449767E+00
         21   -1    0    0  502  501  0.00000000000E+00  0.00000000000E+00  0.37731506049E+02  0.37731506049E+02  0.00000000000E+00 0. -1.
         21   -1    0    0  503  502 -0.00000000000E+00 -0.00000000000E+00 -0.63033586725E+02  0.63033586725E+02  0.00000000000E+00 0. -1.
         21    1    1    2  503  504 -0.23339707703E+02  0.13143893074E+02 -0.54753455898E+02  0.60954448678E+02  0.00000000000E+00 0. -1.
         21    1    1    2  504  501  0.23339707703E+02 -0.13143893074E+02  0.29451375222E+02  0.39810644095E+02  0.00000000000E+00 0. -1.
</event>
<event>
 4    1  0.3035432E+006  0.3790007E+02  0.7546771E-02  0.1361251E+00
         21   -1    0    0  503  501  0.00000000000E+00  0.00000000000E+00  0.38421642448E+03  0.38421642448E+03  0.00000000000E+00 0.  1.
         21   -1    0    0  504  502 -0.00000000000E+00 -0.00000000000E+00 -0.96376588466E+01  0.96376588466E+01  0.00000000000E+00 0. -1.
         21    1    1    2  503  502  0.16307197729E+02  0.34212437418E+02  0.33221372195E+02  0.50399158151E+02  0.00000000000E+00 0. -1.
         21    1    1    2  504  501 -0.16307197729E+02 -0.34212437418E+02  0.34135739344E+03  0.34345492517E+03  0.00000000000E+00 0.  1.
</event>
<event>
 4    1  0.3035432E+006  0.3127056E+02  0.7546771E-02  0.1408867E+00
         21   -1    0    0  504  501  0.00000000000E+00  0.00000000000E+00  0.67984531384E+01  0.67984531384E+01  0.00000000000E+00 0. -1.
         21   -1    0    0  503  502 -0.00000000000E+00 -0.00000000000E+00 -0.16116695193E+03  0.16116695193E+03  0.00000000000E+00 0. -1.
         21    1    1    2  503  501 -0.29360421100E+02 -0.10761676872E+02 -0.10472586369E+03  0.10929480565E+03  0.00000000000E+00 0. -1.
         21    1    1    2  504  502  0.29360421100E+02  0.10761676872E+02 -0.49642635095E+02  0.58670599412E+02  0.00000000000E+00 0. -1.
</event>
<event>
 4    1  0.3035432E+006  0.2642368E+02  0.7546771E-02  0.1453485E+00
         21   -1    0    0  504  501  0.00000000000E+00  0.00000000000E+00  0.44249526670E+03  0.44249526670E+03  0.00000000000E+00 0.  1.
         21   -1    0    0  503  502 -0.00000000000E+00 -0.00000000000E+00 -0.78346557244E+02  0.78346557244E+02  0.00000000000E+00 0.  1.
         21    1    1    2  503  501 -0.14150964864E+02  0.22315039048E+02  0.43985949843E+03  0.44065245844E+03  0.00000000000E+00 0.  1.
         21    1    1    2  504  502  0.14150964864E+02 -0.22315039048E+02 -0.75710788967E+02  0.80189365506E+02  0.00000000000E+00 0.  1.
</event>
<event>
 4    1  0.3035432E+006  0.2126656E+02  0.7546771E-02  0.1515493E+00
         21   -1    0    0  503  501  0.00000000000E+00  0.00000000000E+00  0.24986892167E+03  0.24986892167E+03  0.00000000000E+00 0. -1.
         21   -1    0    0  504  502 -0.00000000000E+00 -0.00000000000E+00 -0.36834548703E+02  0.36834548703E+02  0.00000000000E+00 0. -1.
         21    1    1    2  503  502 -0.20418795026E+02  0.59446883494E+01 -0.33268099160E+02  0.39484591065E+02  0.00000000000E+00 0. -1.
         21    1    1    2  504  501  0.20418795026E+02 -0.59446883494E+01  0.24630247212E+03  0.24721887930E+03  0.00000000000E+00 0. -1.
</event>
<event>
 4    1  0.3035432E+006  0.3113072E+02  0.7546771E-02  0.1410018E+00
         21   -1    0    0  504  501  0.00000000000E+00  0.00000000000E+00  0.37024628692E+03  0.37024628692E+03  0.00000000000E+00 0.  1.
         21   -1    0    0  501  502 -0.00000000000E+00 -0.00000000000E+00 -0.33347537641E+01  0.33347537641E+01  0.00000000000E+00 0.  1.
         21    1    1    2  503  502  0.23411919576E+02 -0.20518376025E+02  0.96827890636E+02  0.10170920380E+03  0.00000000000E+00 0.  1.
         21    1    1    2  504  503 -0.23411919576E+02  0.20518376025E+02  0.27008364252E+03  0.27187183688E+03  0.00000000000E+00 0.  1.
</event>
<event>
 4    1  0.3035432E+006  0.2257616E+02  0.7546771E-02  0.1497890E+00
         21   -1    0    0  503  501  0.00000000000E+00  0.00000000000E+00  0.32498136506E+03  0.32498136506E+03  0.00000000000E+00 0. -1.
         21   -1    0    0  504  502 -0.00000000000E+00 -0.00000000000E+00 -0.25944950543E+01  0.25944950543E+01  0.00000000000E+00 0. -1.
         21    1    1    2  503  502  0.14796887913E+02 -0.17050949859E+02  0.58187800295E+02  0.62413963872E+02  0.00000000000E+00 0. -1.
         21    1    1    2  504  501 -0.14796887913E+02  0.17050949859E+02  0.26419906971E+03  0.26516189624E+03  0.00000000000E+00 0. -1.
</event>
<event>
 4    1  0.3035432E+006  0.3519867E+02  0.7546771E-02  0.1379172E+00
         21   -1    0    0  502  501  0.00000000000E+00  0.00000000000E+00  0.71706863311E+01  0.71706863311E+01  0.00000000000E+00 0. -1.
         21   -1    0    0  503  502 -0.00000000000E+00 -0.00000000000E+00 -0.20616324566E+03  0.20616324566E+03  0.00000000000E+00 0. -1.
         21    1    1    2  503  504  0.24039779226E+02 -0.25710607134E+02 -0.56572987282E+02  0.66629191760E+02  0.00000000000E+00 0. -1.
         21    1    1    2  504  501 -0.24039779226E+02  0.25710607134E+02 -0.14241957204E+03  0.14670474023E+03  0.00000000000E+00 0. -1.
</event>
<event>
 4    1  0.3035432E+006  0.2927772E+02  0.7546771E-02  0.1425979E+00
         21   -1    0    0  504  501  0.00000000000E+00  0.00000000000E+00  0.16835637497E+04  0.16835637497E+04  0.00000000000E+00 0. -1.
         21   -1    0    0  503  502 -0.00000000000E+00 -0.00000000000E+00 -0.60427508790E+00  0.60427508790E+00  0.00000000000E+00 0. -1.
         21    1    1    2  503  501 -0.20581418828E+02  0.20822831205E+02  0.11755882087E+04  0.11759527293E+04  0.00000000000E+00 0. -1.
         21    1    1    2  504  502  0.20581418828E+02 -0.20822831205E+02  0.50737126591E+03  0.50821529549E+03  0.00000000000E+00 0. -1.
</event>
<event>
 4    1  0.3035432E+006  0.2178202E+02  0.7546771E-02  0.1508386E+00
         21   -1    0    0  502  501  0.00000000000E+00  0.00000000000E+00  0.77947712386E+01  0.77947712386E+01  0.00000000000E+00 0.  1.
         21   -1    0    0  503  502 -0.00000000000E+00 -0.00000000000E+00 -0.21745736960E+03  0.21745736960E+03  0.00000000000E+00 0.  1.
         21    1    1    2  503  504  0.13154907921E+02  0.17361010016E+02 -0.20040364999E+03  0.20158392595E+03  0.00000000000E+00 0.  1.
         21    1    1    2  504  501 -0.13154907921E+02 -0.17361010016E+02 -0.92589483723E+01  0.23668214892E+02  0.00000000000E+00 0.  1.
</event>
<event>
 4    1  0.3035432E+006  0.2551017E+02  0.7546771E-02  0.1463176E+00
         21   -1    0    0  504  501  0.00000000000E+00  0.00000000000E+00  0.10366551839E+03  0.10366551839E+03  0.00000000000E+00 0. -1.
         21   -1    0    0  503  502 -0.00000000000E+00 -0.00000000000E+00 -0.67451772822E+03  0.67451772822E+03  0.00000000000E+00 0. -1.
         21    1    1    2  503  501  0.22606950365E+02  0.11819251152E+02  0.10185069236E+03  0.10499682108E+03  0.00000000000E+00 0. -1.
         21    1    1    2  504  502 -0.22606950365E+02 -0.11819251152E+02 -0.67270290219E+03  0.67318642553E+03  0.00000000000E+00 0. -1.
</event>
<event>
 4    1  0.3035432E+006  0.3345647E+02  0.7546771E-02  0.1391752E+00
         21   -1    0    0  503  501  0.00000000000E+00  0.00000000000E+00  0.40988657689E+01  0.40988657689E+01  0.00000000000E+00 0.  1.
         21   -1    0    0  504  502 -0.00000000000E+00 -0.00000000000E+00 -0.29302226859E+03  0.29302226859E+03  0.00000000000E+00 0.  1.
         21    1    1    2  503  502 -0.78715623383E+01  0.32517287046E+02 -0.18321376689E+03  0.18624344238E+03  0.00000000000E+00 0.  1.
         21    1    1    2  504  501  0.78715623383E+01 -0.32517287046E+02 -0.10570963593E+03  0.11087769198E+03  0.00000000000E+00 0.  1.
</event>
<event>
 4    1  0.3035432E+006  0.2692832E+02  0.7546771E-02  0.1448330E+00
         21   -1    0    0  504  501  0.00000000000E+00  0.00000000000E+00  0.11874360638E+03  0.11874360638E+03  0.00000000000E+00 0.  1.
         21   -1    0    0  501  502 -0.00000000000E+00 -0.00000000000E+00 -0.81232324873E+01  0.81232324873E+01  0.00000000000E+00 0.  1.
         21    1    1    2  503  502 -0.25645498089E+02 -0.82123480772E+01  0.23705325697E+02  0.35875851203E+02  0.00000000000E+00 0.  1.
         21    1    1    2  504  503  0.25645498089E+02  0.82123480772E+01  0.86915048192E+02  0.90990987660E+02  0.00000000000E+00 0.  1.
</event>
<event>
 4    1  0.3035432E+006  0.2020642E+02  0.7546771E-02  0.1530903E+00
         21   -1    0    0  503  501  0.00000000000E+00  0.00000000000E+00  0.11654083743E+01  0.11654083743E+01  0.00000000000E+00 0. -1.
         21   -1    0    0  504  502 -0.00000000000E+00 -0.00000000000E+00 -0.39401325934E+03  0.39401325934E+03  0.00000000000E+00 0. -1.
         21    1    1    2  503  502  0.17508343327E+02 -0.10087489329E+02 -0.26220056601E+03  0.26297801495E+03  0.00000000000E+00 0. -1.
         21    1    1    2  504  501 -0.17508343327E+02  0.10087489329E+02 -0.13064728495E+03  0.13220065277E+03  0.00000000000E+00 0. -1.
</event>
<event>
 4    1  0.3035432E+006  0.2016385E+02  0.7546771E-02  0.1531546E+00
         21   -1    0    0  503  501  0.00000000000E+00  0.00000000000E+00  0.25775149546E+02  0.25775149546E+02  0.00000000000E+00 0. -1.
         21   -1    0    0  501  502 -0.00000000000E+00 -0.00000000000E+00 -0.93332772819E+02  0.93332772819E+02  0.00000000000E+00 0. -1.
         21    1    1    2  503  504 -0.15524177755E+02 -0.12867811556E+02  0.20509790320E+02  0.28761644045E+02  0.00000000000E+00 0. -1.
         21    1    1    2  504  502  0.15524177755E+02  0.12867811556E+02 -0.88067413593E+02  0.90346278320E+02  0.00000000000E+00 0. -1.
</event>
<event>
 4    1  0.3035432E+006  0.3420008E+02  0.7546771E-02  0.1386276E+00
         21   -1    0    0  503  501  0.00000000000E+00  0.00000000000E+00  0.49784944745E+02  0.49784944745E+02  0.00000000000E+00 0.  1.
         21   -1    0    0  504  502 -0.00000000000E+00 -0.00000000000E+00 -0.32600761377E+02  0.32600761377E+02  0.00000000000E+00 0. -1.
         21    1    1    2  503  502  0.11007301113E+01 -0.34182361657E+02 -0.13179538822E+02  0.36651680709E+02  0.00000000000E+00 0. -1.
         21    1    1    2  504  501 -0.11007301113E+01  0.34182361657E+02  0.30363722190E+02  0.45734025413E+02  0.00000000000E+00 0.  1.
</event>
<event>
 4    1  0.3035432E+006  0.2182659E+02  0.7546771E-02  0.1507783E+00
         21   -1    0    0  503  501  0.00000000000E+00  0.00000000000E+00  0.12977589943E+03  0.12977589943E+03  0.00000000000E+00 0.  1.
         21   -1    0    0  504  502 -0.00000000000E+00 -0.00000000000E+00 -0.41120053391E+01  0.41120053391E+01  0.00000000000E+00 0.  1.
         21    1    1    2  503  502  0.13721711056E+00  0.21826156011E+02  0.84756692457E+02  0.87521979131E+02  0.00000000000E+00 0.  1.
         21    1    1    2  504  501 -0.13721711056E+00 -0.21826156011E+02  0.40907201631E+02  0.46365925635E+02  0.00000000000E+00 0.  1.
</event>
<event>
 4    1  0.3035432E+006  0.4140468E+02  0.7546771E-02  0.1340445E+00
         21   -1    0    0  502  501  0.00000000000E+00  0.00000000000E+00  0.29796504689E+03  0.29796504689E+03  0.00000000000E+00 0.  1.
         21   -1    0    0  503  502 -0.00000000000E+00 -0.00000000000E+00 -0.21177173475E+02  0.21177173475E+02  0.00000000000E+00 0. -1.
         21    1    1    2  503  504 -0.40871249803E+02  0.66248518533E+01  0.22137562126E+01  0.41463820845E+02  0.00000000000E+00 0. -1.
         21    1    1    2  504  501  0.40871249803E+02 -0.66248518533E+01  0.27457411721E+03  0.27767839952E+03  0.00000000000E+00 0.  1.
</event>
<event>
 4    1  0.3035432E+006  0.2821328E+02  0.7546771E-02  0.1435787E+00
         21   -1    0    0  503  501  0.00000000000E+00  0.00000000000E+00  0.93327948686E+02  0.93327948686E+02  0.00000000000E+00 0. -1.
         21   -1    0    0  504  502 -0.00000000000E+00 -0.00000000000E+00 -0.85500476983E+01  0.85500476983E+01  0.00000000000E+00 0. -1.
         21    1    1    2  503  502 -0.27931169344E+02  0.39798466517E+01  0.39858577673E+02  0.48833345313E+02  0.00000000000E+00 0. -1.
         21    1    1    2  504  501  0.27931169344E+02 -0.39798466517E+01  0.44919323314E+02  0.53044651071E+02  0.00000000000E+00 0. -1.
</event>
<event>
 4    1  0.3035432E+006  0.2495322E+02  0.7546771E-02  0.1469327E+00
         21   -1    0    0  504  501  0.00000000000E+00  0.00000000000E+00  0.62875376500E+02  0.62875376500E+02  0.00000000000E+00 0. -1.
         21   -1    0    0  501  502 -0.00000000000E+00 -0.00000000000E+00 -0.32126134301E+02  0.32126134301E+02  0.00000000000E+00 0. -1.
         21    1    1    2  503  502 -0.21982297013E+02 -0.11808545408E+02 -0.24132251389E+02  0.34713523067E+02  0.00000000000E+00 0. -1.
         21    1    1    2  504  503  0.21982297013E+02  0.11808545408E+02  0.54881493588E+02  0.60287987734E+02  0.00000000000E+00 0. -1.
</event>
<event>
 4    1  0.3035432E+006  0.2119147E+02  0.7546771E-02  0.1516549E+00
         21   -1    0    0  503  501  0.00000000000E+00  0.00000000000E+00  0.34702437559E+02  0.34702437559E+02  0.00000000000E+00 0. -1.
         21   -1    0    0  504  502 -0.00000000000E+00 -0.00000000000E+00 -0.96323586224E+02  0.96323586224E+02  0.00000000000E+00 0.  1.
         21    1    1    2  503  502  0.20406225806E+02  0.57152613640E+01 -0.91764176170E+02  0.94179309258E+02  0.00000000000E+00 0.  1.
         21    1    1    2  504  501 -0.20406225806E+02 -0.57152613640E+01  0.30143027505E+02  0.36846714525E+02  0.00000000000E+00 0. -1.
</event>
<event>
 4    1  0.3035432E+006  0.2441972E+02  0.7546771E-02  0.1475401E+00
         21   -1    0    0  503  501  0.00000000000E+00  0.00000000000E+00  0.69292643148E+02  0.69292643148E+02  0.00000000000E+00 0.  1.
         21   -1    0    0  504  502 -0.00000000000E+00 -0.00000000000E+00 -0.21548918410E+03  0.21548918410E+03  0.00000000000E+00 0. -1.
         21    1    1    2  503  502 -0.22362868055E+01 -0.24317111488E+02  0.66420384059E+02  0.70767155577E+02  0.00000000000E+00 0.  1.
         21    1    1    2  504  501  0.22362868055E+01  0.24317111488E+02 -0.21261692501E+03  0.21401467167E+03  0.00000000000E+00 0. -1.
</event>
<event>
 4    1  0.3035432E+006  0.2304031E+02  0.7546771E-02  0.1491993E+00
         21   -1    0    0  504  501  0.00000000000E+00  0.00000000000E+00  0.29822245591E+03  0.29822245591E+03  0.00000000000E+00 0. -1.
         21   -1    0    0  501  502 -0.00000000000E+00 -0.00000000000E+00 -0.20832993341E+02  0.20832993341E+02  0.00000000000E+00 0.  1.
         21    1    1    2  503  502 -0.12479373944E+02 -0.19368048344E+02 -0.13865441887E+02  0.26890640554E+02  0.00000000000E+00 0.  1.
         21    1    1    2  504  503  0.12479373944E+02  0.19368048344E+02  0.29125490445E+03  0.29216480869E+03  0.00000000000E+00 0. -1.
</event>
<event>
 4    1  0.3035432E+006  0.2221488E+02  0.7546771E-02  0.1502599E+00
         21   -1    0    0  503  501  0.00000000000E+00  0.00000000000E+00  0.15304151255E+02  0.15304151255E+02  0.00000000000E+00 0.  1.
         21   -1    0    0  501  502 -0.00000000000E+00 -0.00000000000E+00 -0.51803569759E+02  0.51803569759E+02  0.00000000000E+00 0.  1.
         21    1    1    2  503  504 -0.20469849825E+02  0.86305382163E+01  0.23669225550E+01  0.22340619153E+02  0.00000000000E+00 0.  1.
         21    1    1    2  504  502  0.20469849825E+02 -0.86305382163E+01 -0.38866341059E+02  0.44767101861E+02  0.00000000000E+00 0.  1.
</event>
<event>
 4    1  0.3035432E+006  0.2000235E+02  0.7546771E-02  0.1534000E+00
         21   -1    0    0  504  501  0.00000000000E+00  0.00000000000E+00  0.22614426857E+01  0.22614426857E+01  0.00000000000E+00 0.  1.
         21   -1    0    0  503  502 -0.00000000000E+00 -0.00000000000E+00 -0.20644421567E+03  0.20644421567E+03  0.00000000000E+00 0.  1.
         21    1    1    2  503  501 -0.14248010670E+02 -0.14038815056E+02 -0.62628119032E+02  0.65744774924E+02  0.00000000000E+00 0.  1.
         21    1    1    2  504  502  0.14248010670E+02  0.14038815056E+02 -0.14155465395E+03  0.14296088343E+03  0.00000000000E+00 0.  1.
</event>
<event>
 4    1  0.3035432E+006  0.2164488E+02  0.7546771E-02  0.1510253E+00
         21   -1    0    0  502  501  0.00000000000E+00  0.00000000000E+00  0.42658061463E+03  0.42658061463E+03  0.00000000000E+00 0.  1.
         21   -1    0    0  504  502 -0.00000000000E+00 -0.00000000000E+00 -0.38720031201E+01  0.38720031201E+01  0.00000000000E+00 0.  1.
         21    1    1    2  503  501 -0.19540462489E+02 -0.93097417419E+01  0.39351714814E+03  0.39411197247E+03  0.00000000000E+00 0.  1.
         21    1    1    2  504  503  0.19540462489E+02  0.93097417419E+01  0.29191463374E+02  0.36340645282E+02  0.00000000000E+00 0.  1.
</event>
<event>
 4    1  0.3035432E+006  0.2049233E+02  0.7546771E-02  0.1526638E+00
         21   -1    0    0  502  501  0.00000000000E+00  0.00000000000E+00  0.13075646829E+03  0.13075646829E+03  0.00000000000E+00 0.  1.
         21   -1    0    0  503  502 -0.00000000000E+00 -0.00000000000E+00 -0.12857888784E+02  0.12857888784E+02  0.00000000000E+00 0. -1.
         21    1    1    2  503  504 -0.14788619477E+02  0.14185643332E+02 -0.32468538844E+01  0.20747959006E+02  0.00000000000E+00 0. -1.
         21    1    1    2  504  501  0.14788619477E+02 -0.14185643332E+02  0.12114543339E+03  0.12286639807E+03  0.00000000000E+00 0.  1.
</event>
<event>
 4    1  0.3035432E+006  0.2052082E+02  0.7546771E-02  0.1526217E+00
         21   -1    0    0  503  501  0.00000000000E+00  0.00000000000E+00  0.10874466071E+03  0.10874466071E+03  0.00000000000E+00 0.  1.
         21   -1    0    0  504  502 -0.00000000000E+00 -0.00000000000E+00 -0.47432382573E+01  0.47432382573E+01  0.00000000000E+00 0.  1.
         21    1    1    2  503  502  0.14718928818E+02 -0.14298854345E+02  0.76314235326E+02  0.79025101168E+02  0.00000000000E+00 0.  1.
         21    1    1    2  504  501 -0.14718928818E+02  0.14298854345E+02  0.27687187123E+02  0.34462797796E+02  0.00000000000E+00 0.  1.
</event>
<event>
 4    1  0.3035432E+006  0.2313373E+02  0.7546771E-02  0.1490826E+00
         21   -1    0    0  504  501  0.00000000000E+00  0.00000000000E+00  0.62988628202E+02  0.62988628202E+02  0.00000000000E+00 0. -1.
         21   -1    0    0  503  502 -0.00000000000E+00 -0.00000000000E+00 -0.60850746054E+02  0.60850746054E+02  0.00000000000E+00 0.  1.
         21    1    1    2  503  501 -0.50305792867E+01  0.22580140055E+02  0.58503413830E+02  0.62911198388E+02  0.00000000000E+00 0. -1.
         21    1    1    2  504  502  0.50305792867E+01 -0.22580140055E+02 -0.56365531682E+02  0.60928175868E+02  0.00000000000E+00 0.  1.
</event>
<event>
 4    1  0.3035432E+006  0.2544959E+02  0.7546771E-02  0.1463836E+00
         21   -1    0    0  503  501  0.00000000000E+00  0.00000000000E+00  0.16530833199E+03  0.16530833199E+03  0.00000000000E+00 0.  1.
         21   -1    0    0  504  502 -0.00000000000E+00 -0.00000000000E+00 -0.40646644991E+01  0.40646644991E+01  0.00000000000E+00 0. -1.
         21    1    1    2  503  502 -0.10534579028E+02  0.23166884048E+02  0.96707166346E+02  0.99999789472E+02  0.00000000000E+00 0. -1.
         21    1    1    2  504  501  0.10534579028E+02 -0.23166884048E+02  0.64536501146E+02  0.69373207018E+02  0.00000000000E+00 0.  1.
</event>
<event>
 4    1  0.3035432E+006  0.2099120E+02  0.7546771E-02  0.1519390E+00
         21   -1    0    0  504  501  0.00000000000E+00  0.00000000000E+00  0.14091067111E+03  0.14091067111E+03  0.00000000000E+00 0.  1.
         21   -1    0    0  501  502 -0.00000000000E+00 -0.00000000000E+00 -0.17784659740E+02  0.17784659740E+02  0.00000000000E+00 0. -1.
         21    1    1    2  503  502  0.73579492542E+00 -0.20978302418E+02 -0.10471965433E+02  0.23458316788E+02  0.00000000000E+00 0. -1.
         21    1    1    2  504  503 -0.73579492542E+00  0.20978302418E+02  0.13359797680E+03  0.13523701406E+03  0.00000000000E+00 0.  1.
</event>
<event>
 4    1  0.3035432E+006  0.2198908E+02  0.7546771E-02  0.1505598E+00
         21   -1    0    0  502  501  0.00000000000E+00  0.00000000000E+00  0.49108828739E+02  0.49108828739E+02  0.00000000000E+00 0. -1.
         21   -1    0    0  504  502 -0.00000000000E+00 -0.00000000000E+00 -0.27982951306E+02  0.27982951306E+02  0.00000000000E+00 0.  1.
         21    1    1    2  503  501 -0.17448794208E+02  0.13381298433E+02  0.41595306685E+02  0.47049857654E+02  0.00000000000E+00 0. -1.
         21    1    1    2  504  503  0.17448794208E+02 -0.13381298433E+02 -0.20469429252E+02  0.30041922391E+02  0.00000000000E+00 0.  1.
</event>
<event>
 4    1  0.3035432E+006  0.3053444E+02  0.7546771E-02  0.1415008E+00
         21   -1    0    0  502  501  0.00000000000E+00  0.00000000000E+00  0.43708691840E+03  0.43708691840E+03  0.00000000000E+00 0. -1.
         21   -1    0    0  503  502 -0.00000000000E+00 -0.00000000000E+00 -0.84283894392E+01  0.84283894392E+01  0.00000000000E+00 0. -1.
         21    1    1    2  503  504 -0.30210571255E+02  0.44354893156E+01  0.21812734288E+02  0.37525292246E+02  0.00000000000E+00 0. -1.
         21    1    1    2  504  501  0.30210571255E+02 -0.44354893156E+01  0.40684579467E+03  0.40799001559E+03  0.00000000000E+00 0. -1.
</event>
<event>
 4    1  0.3035432E+006  0.2995614E+02  0.7546771E-02  0.1419978E+00
         21   -1    0    0  502  501  0.00000000000E+00  0.00000000000E+00  0.25504623203E+01  0.25504623203E+01  0.00000000000E+00 0. -1.
         21   -1    0    0  503  502 -0.00000000000E+00 -0.00000000000E+00 -0.46671098892E+03  0.46671098892E+03  0.00000000000E+00 0.  1.
         21    1    1    2  503  504 -0.16797285163E+02 -0.24803654839E+02 -0.34848070315E+03  0.34976587963E+03  0.00000000000E+00 0.  1.
         21    1    1    2  504  501  0.16797285163E+02  0.24803654839E+02 -0.11567982345E+03  0.11949557161E+03  0.00000000000E+00 0. -1.
</event>
<event>
 4    1  0.3035432E+006  0.2202101E+02  0.7546771E-02  0.1505171E+00
         21   -1    0    0  503  501  0.00000000000E+00  0.00000000000E+00  0.22556194916E+02  0.22556194916E+02  0.00000000000E+00 0. -1.
         21   -1    0    0  504  502 -0.00000000000E+00 -0.00000000000E+00 -0.34138221868E+02  0.34138221868E+02  0.00000000000E+00 0. -1.
         21    1    1    2  503  502 -0.13582662785E+02  0.17333096703E+02  0.11457756866E+02  0.24823480055E+02  0.00000000000E+00 0. -1.
         21    1    1    2  504  501  0.13582662785E+02 -0.17333096703E+02 -0.23039783817E+02  0.31870936729E+02  0.00000000000E+00 0. -1.
</event>
<event>
 4    1  0.3035432E+006  0.2603127E+02  0.7546771E-02  0.1457590E+00
         21   -1    0    0  503  501  0.00000000000E+00  0.00000000000E+00  0.71620132071E+03  0.71620132071E+03  0.00000000000E+00 0. -1.
         21   -1    0    0  504  502 -0.00000000000E+00 -0.00000000000E+00 -0.29832883518E+01  0.29832883518E+01  0.00000000000E+00 0. -1.
         21    1    1    2  503  502  0.17116068912E+02  0.19612936314E+02  0.65375786113E+03  0.65427591127E+03  0.00000000000E+00 0. -1.
         21    1    1    2  504  501 -0.17116068912E+02 -0.19612936314E+02  0.59460171226E+02  0.64908697785E+02  0.00000000000E+00 0. -1.
</event>
<event>
 4    1  0.3035432E+006  0.2458950E+02  0.7546771E-02  0.1473448E+00
         21   -1    0    0  504  501  0.00000000000E+00  0.00000000000E+00  0.89355777282E+01  0.89355777282E+01  0.00000000000E+00 0. -1.
         21   -1    0    0  503  502 -0.00000000000E+00 -0.00000000000E+00 -0.17298599829E+03  0.17298599829E+03  0.00000000000E+00 0.  1.
         21    1    1    2  503  501  0.24588366407E+02  0.23596659079E+00 -0.11050738992E+02  0.26958528800E+02  0.00000000000E+00 0. -1.
         21    1    1    2  504  502 -0.24588366407E+02 -0.23596659079E+00 -0.15299968157E+03  0.15496304722E+03  0.00000000000E+00 0.  1.
</event>
<event>
 4    1  0.3035432E+006  0.2432670E+02  0.7546771E-02  0.1476478E+00
         21   -1    0    0  504  501  0.00000000000E+00  0.00000000000E+00  0.45830613578E+02  0.45830613578E+02  0.00000000000E+00 0.  1.
         21   -1    0    0  503  502 -0.00000000000E+00 -0.00000000000E+00 -0.13055984417E+02  0.13055984417E+02  0.00000000000E+00 0. -1.
         21    1    1    2  503  501 -0.10810950991E+02 -0.21792468681E+02  0.19473810511E+02  0.31161156082E+02  0.00000000000E+00 0.  1.
         21    1    1    2  504  502  0.10810950991E+02  0.21792468681E+02  0.13300818650E+02  0.27725441913E+02  0.00000000000E+00 0. -1.
</event>
<event>
 4    1  0.3035432E+006  0.2153280E+02  0.7546771E-02  0.1511792E+00
         21   -1    0    0  504  501  0.00000000000E+00  0.00000000000E+00  0.11590048949E+03  0.11590048949E+03  0.00000000000E+00 0. -1.
         21   -1    0    0  503  502 -0.00000000000E+00 -0.00000000000E+00 -0.16443432443E+03  0.16443432443E+03  0.00000000000E+00 0. -1.
         21    1    1    2  503  501 -0.13999284947E+02 -0.16360979561E+02 -0.16271876264E+03  0.16413731247E+03  0.00000000000E+00 0. -1.
         21    1    1    2  504  502  0.13999284947E+02  0.16360979561E+02  0.11418492769E+03  0.11619750145E+03  0.00000000000E+00 0. -1.
</event>
<event>
 4    1  0.3035432E+006  0.2078126E+02  0.7546771E-02  0.1522411E+00
         21   -1    0    0  503  501  0.00000000000E+00  0.00000000000E+00  0.18023640820E+03  0.18023640820E+03  0.00000000000E+00 0.  1.
         21   -1    0    0  504  502 -0.00000000000E+00 -0.00000000000E+00 -0.42412928041E+02  0.42412928041E+02  0.00000000000E+00 0.  1.
         21    1    1    2  503  502 -0.15625569460E+02  0.13700452105E+02  0.17704610193E+03  0.17826155788E+03  0.00000000000E+00 0.  1.
         21    1    1    2  504  501  0.15625569460E+02 -0.13700452105E+02 -0.39222621774E+02  0.44387778359E+02  0.00000000000E+00 0.  1.
</event>
<event>
 4    1  0.3035432E+006  0.2224111E+02  0.7546771E-02  0.1502254E+00
         21   -1    0    0  502  501  0.00000000000E+00  0.00000000000E+00  0.11466233195E+03  0.11466233195E+03  0.00000000000E+00 0.  1.
         21   -1    0    0  504  502 -0.00000000000E+00 -0.00000000000E+00 -0.26316512568E+02  0.26316512568E+02  0.00000000000E+00 0.  1.
         21    1    1    2  503  501 -0.24230191033E+01 -0.22108730685E+02  0.10862614808E+03  0.11087969625E+03  0.00000000000E+00 0.  1.
         21    1    1    2  504  503  0.24230191033E+01  0.22108730685E+02 -0.20280328700E+02  0.30099148264E+02  0.00000000000E+00 0.  1.
</event>
<event>
 4    1  0.3035432E+006  0.2723750E+02  0.7546771E-02  0.1445237E+00
         21   -1    0    0  504  501  0.00000000000E+00  0.00000000000E+00  0.16367146757E+03  0.16367146757E+03  0.00000000000E+00 0. -1.
         21   -1    0    0  503  502 -0.00000000000E+00 -0.00000000000E+00 -0.53781472977E+02  0.53781472977E+02  0.00000000000E+00 0. -1.
         21    1    1    2  503  501 -0.93807256670E+01  0.25571147189E+02  0.15898885269E+03  0.16130510489E+03  0.00000000000E+00 0. -1.
         21    1    1    2  504  502  0.93807256670E+01 -0.25571147189E+02 -0.49098858099E+02  0.56147835659E+02  0.00000000000E+00 0. -1.
</event>
<event>
 4    1  0.3035432E+006  0.2019786E+02  0.7546771E-02  0.1531032E+00
         21   -1    0    0  504  501  0.00000000000E+00  0.00000000000E+00  0.75266168906E+02  0.75266168906E+02  0.00000000000E+00 0.  1.
         21   -1    0    0  503  502 -0.00000000000E+00 -0.00000000000E+00 -0.64659131015E+02  0.64659131015E+02  0.00000000000E+00 0.  1.
         21    1    1    2  503  501  0.19302876530E+02  0.59457804209E+01  0.72269638968E+02  0.75039016943E+02  0.00000000000E+00 0.  1.
         21    1    1    2  504  502 -0.19302876530E+02 -0.59457804209E+01 -0.61662601077E+02  0.64886282979E+02  0.00000000000E+00 0.  1.
</event>
<event>
 4    1  0.3035432E+006  0.3876784E+02  0.7546771E-02  0.1355861E+00
         21   -1    0    0  502  501  0.00000000000E+00  0.00000000000E+00  0.12486328409E+02  0.12486328409E+02  0.00000000000E+00 0. -1.
         21   -1    0    0  504  502 -0.00000000000E+00 -0.00000000000E+00 -0.20139005390E+03  0.20139005390E+03  0.00000000000E+00 0. -1.
         21    1    1    2  503  501 -0.20192488377E+02 -0.33093936696E+02 -0.26622550778E+02  0.47028772500E+02  0.00000000000E+00 0. -1.
         21    1    1    2  504  503  0.20192488377E+02  0.33093936696E+02 -0.16228117471E+03  0.16684760981E+03  0.00000000000E+00 0. -1.
</event>
<event>
 4    1  0.3035432E+006  0.3569896E+02  0.7546771E-02  0.1375715E+00
         21   -1    0    0  502  501  0.00000000000E+00  0.00000000000E+00  0.21659833624E+04  0.21659833624E+04  0.00000000000E+00 0.  1.
         21   -1    0    0  503  502 -0.00000000000E+00 -0.00000000000E+00 -0.44274279451E+01  0.44274279451E+01  0.00000000000E+00 0. -1.
         21    1    1    2  503  504 -0.16845493468E+02  0.31474510376E+02  0.70250520780E+02  0.78800705095E+02  0.00000000000E+00 0. -1.
         21    1    1    2  504  501  0.16845493468E+02 -0.31474510376E+02  0.20913054137E+04  0.20916100852E+04  0.00000000000E+00 0.  1.
</event>
<event>
 4    1  0.3035432E+006  0.3004485E+02  0.7546771E-02  0.1419207E+00
         21   -1    0    0  502  501  0.00000000000E+00  0.00000000000E+00  0.40478550660E+02  0.40478550660E+02  0.00000000000E+00 0.  1.
         21   -1    0    0  504  502 -0.00000000000E+00 -0.00000000000E+00 -0.17918869909E+03  0.17918869909E+03  0.00000000000E+00 0. -1.
         21    1    1    2  503  501 -0.20492626781E+02 -0.21971461152E+02  0.33416998513E+02  0.44937608383E+02  0.00000000000E+00 0.  1.
         21    1    1    2  504  503  0.20492626781E+02  0.21971461152E+02 -0.17212714694E+03  0.17472964137E+03  0.00000000000E+00 0. -1.
</event>
<event>
 4    1  0.3035432E+006  0.2142459E+02  0.7546771E-02  0.1513288E+00
         21   -1    0    0  503  501  0.00000000000E+00  0.00000000000E+00  0.11814072164E+03  0.11814072164E+03  0.00000000000E+00 0.  1.
         21   -1    0    0  504  502 -0.00000000000E+00 -0.00000000000E+00 -0.50423000901E+01  0.50423000901E+01  0.00000000000E+00 0. -1.
         21    1    1    2  503  502 -0.19344188202E+02 -0.92095198142E+01  0.27045811600E+02  0.34503460660E+02  0.00000000000E+00 0. -1.
         21    1    1    2  504  501  0.19344188202E+02  0.92095198142E+01  0.86052609953E+02  0.88679561073E+02  0.00000000000E+00 0.  1.
</event>
<event>
 4    1  0.3035432E+006  0.2102142E+02  0.7546771E-02  0.1518959E+00
         21   -1    0    0  504  501  0.00000000000E+00  0.00000000000E+00  0.24223809821E+03  0.24223809821E+03  0.00000000000E+00 0. -1.
         21   -1    0    0  503  502 -0.00000000000E+00 -0.00000000000E+00 -0.19198847037E+01  0.19198847037E+01  0.00000000000E+00 0. -1.
         21    1    1    2  503  501 -0.12165828946E+02 -0.17143293731E+02  0.92910855041E+02  0.95259261483E+02  0.00000000000E+00 0. -1.
         21    1    1    2  504  502  0.12165828946E+02  0.17143293731E+02  0.14740735846E+03  0.14889872143E+03  0.00000000000E+00 0. -1.
</event>
<event>
 4    1  0.3035432E+006  0.2159517E+02  0.7546771E-02  0.1510934E+00
         21   -1    0    0  503  501  0.00000000000E+00  0.00000000000E+00  0.17385230636E+01  0.17385230636E+01  0.00000000000E+00 0. -1.
         21   -1    0    0  504  502 -0.00000000000E+00 -0.00000000000E+00 -0.27211224958E+03  0.27211224958E+03  0.00000000000E+00 0. -1.
         21    1    1    2  503  502  0.21003516012E+02  0.50203445754E+01 -0.11886517834E+03  0.12081093562E+03  0.00000000000E+00 0. -1.
         21    1    1    2  504  501 -0.21003516012E+02 -0.50203445754E+01 -0.15150854817E+03  0.15303983702E+03  0.00000000000E+00 0. -1.
</event>
<event>
 4    1  0.3035432E+006  0.2108796E+02  0.7546771E-02  0.1518013E+00
         21   -1    0    0  503  501  0.00000000000E+00  0.00000000000E+00  0.23552049896E+02  0.23552049896E+02  0.00000000000E+00 0. -1.
         21   -1    0    0  504  502 -0.00000000000E+00 -0.00000000000E+00 -0.18964858341E+02  0.18964858341E+02  0.00000000000E+00 0. -1.
         21    1    1    2  503  502  0.13459385580E+02 -0.16234132674E+02  0.88567523869E+00  0.21106552170E+02  0.00000000000E+00 0. -1.
         21    1    1    2  504  501 -0.13459385580E+02  0.16234132674E+02  0.37015163160E+01  0.21410356067E+02  0.00000000000E+00 0. -1.
</event>
<event>
 4    1  0.3035432E+006  0.2660042E+02  0.7546771E-02  0.1451664E+00
         21   -1    0    0  504  501  0.00000000000E+00  0.00000000000E+00  0.69971423906E+02  0.69971423906E+02  0.00000000000E+00 0.  1.
         21   -1    0    0  503  502 -0.00000000000E+00 -0.00000000000E+00 -0.10967509320E+02  0.10967509320E+02  0.00000000000E+00 0.  1.
         21    1    1    2  503  501 -0.19991326147E+02  0.17547912313E+02  0.40801795961E+02  0.48706969741E+02  0.00000000000E+00 0.  1.
         21    1    1    2  504  502  0.19991326147E+02 -0.17547912313E+02  0.18202118625E+02  0.32231963485E+02  0.00000000000E+00 0.  1.
</event>
<event>
 4    1  0.3035432E+006  0.2254120E+02  0.7546771E-02  0.1498341E+00
         21   -1    0    0  504  501  0.00000000000E+00  0.00000000000E+00  0.33152002048E+02  0.33152002048E+02  0.00000000000E+00 0.  1.
         21   -1    0    0  503  502 -0.00000000000E+00 -0.00000000000E+00 -0.12801309064E+03  0.12801309064E+03  0.00000000000E+00 0. -1.
         21    1    1    2  503  501 -0.18528688074E+02 -0.12837189435E+02 -0.12303542361E+03  0.12508325698E+03  0.00000000000E+00 0. -1.
         21    1    1    2  504  502  0.18528688074E+02  0.12837189435E+02  0.28174335017E+02  0.36081835707E+02  0.00000000000E+00 0.  1.
</event>
<event>
 4    1  0.3035432E+006  0.2801072E+02  0.7546771E-02  0.1437711E+00
         21   -1    0    0  503  501  0.00000000000E+00  0.00000000000E+00  0.21524449462E+03  0.21524449462E+03  0.00000000000E+00 0.  1.
         21   -1    0    0  504  502 -0.00000000000E+00 -0.00000000000E+00 -0.40881169507E+01  0.40881169507E+01  0.00000000000E+00 0.  1.
         21    1    1    2  503  502  0.27508838832E+02  0.52786444765E+01  0.69479365251E+02  0.74913166380E+02  0.00000000000E+00 0.  1.
         21    1    1    2  504  501 -0.27508838832E+02 -0.52786444765E+01  0.14167701242E+03  0.14441944519E+03  0.00000000000E+00 0.  1.
</event>
<event>
 4    1  0.3035432E+006  0.2245860E+02  0.7546771E-02  0.1499411E+00
         21   -1    0    0  503  501  0.00000000000E+00  0.00000000000E+00  0.19703763135E+02  0.19703763135E+02  0.00000000000E+00 0. -1.
         21   -1    0    0  504  502 -0.00000000000E+00 -0.00000000000E+00 -0.26737494485E+03  0.26737494485E+03  0.00000000000E+00 0.  1.
         21    1    1    2  503  502 -0.18084335247E+02 -0.13317114279E+02 -0.26033084103E+03  0.26129779086E+03  0.00000000000E+00 0.  1.
         21    1    1    2  504  501  0.18084335247E+02  0.13317114279E+02  0.12659659316E+02  0.25780917130E+02  0.00000000000E+00 0. -1.
</event>
<event>
 4    1  0.3035432E+006  0.2168102E+02  0.7546771E-02  0.1509760E+00
         21   -1    0    0  503  501  0.00000000000E+00  0.00000000000E+00  0.21338554676E+03  0.21338554676E+03  0.00000000000E+00 0. -1.
         21   -1    0    0  504  502 -0.00000000000E+00 -0.00000000000E+00 -0.56731331242E+01  0.56731331242E+01  0.00000000000E+00 0.  1.
         21    1    1    2  503  502  0.21550207490E+02 -0.23781008767E+01  0.18952021114E+03  0.19075632948E+03  0.00000000000E+00 0. -1.
         21    1    1    2  504  501 -0.21550207490E+02  0.23781008767E+01  0.18192202493E+02  0.28302350401E+02  0.00000000000E+00 0.  1.
</event>
<event>
 4    1  0.3035432E+006  0.3246558E+02  0.7546771E-02  0.1399314E+00
         21   -1    0    0  503  501  0.00000000000E+00  0.00000000000E+00  0.73835505141E+03  0.73835505141E+03  0.00000000000E+00 0.  1.
         21   -1    0    0  501  502 -0.00000000000E+00 -0.00000000000E+00 -0.65925515559E+01  0.65925515559E+01  0.00000000000E+00 0. -1.
         21    1    1    2  503  504 -0.11905216102E+02 -0.30203970416E+02  0.69557111883E+03  0.69632836748E+03  0.00000000000E+00 0.  1.
         21    1    1    2  504  502  0.11905216102E+02  0.30203970416E+02  0.36191381025E+02  0.48619235492E+02  0.00000000000E+00 0. -1.
</event>
<event>
 4    1  0.3035432E+006  0.2372618E+02  0.7546771E-02  0.1483575E+00
         21   -1    0    0  503  501  0.00000000000E+00  0.00000000000E+00  0.88584911396E+01  0.88584911396E+01  0.00000000000E+00 0. -1.
         21   -1    0    0  501  502 -0.00000000000E+00 -0.00000000000E+00 -0.19615237642E+03  0.19615237642E+03  0.00000000000E+00 0. -1.
         21    1    1    2  503  504 -0.60783135066E+01 -0.22934381295E+02 -0.93657942483E+01  0.25507838842E+02  0.00000000000E+00 0. -1.
         21    1    1    2  504  502  0.60783135066E+01  0.22934381295E+02 -0.17792809103E+03  0.17950302872E+03  0.00000000000E+00 0. -1.
</event>
<event>
 4    1  0.3035432E+006  0.2119386E+02  0.7546771E-02  0.1516515E+00
         21   -1    0    0  502  501  0.00000000000E+00  0.00000000000E+00  0.68515158814E+03  0.68515158814E+03  0.00000000000E+00 0.  1.
         21   -1    0    0  504  502 -0.00000000000E+00 -0.00000000000E+00 -0.14914586390E+01  0.14914586390E+01  0.00000000000E+00 0.  1.
         21    1    1    2  503  501 -0.82512531049E+01  0.19521695770E+02  0.59884831586E+03  0.59922323485E+03  0.00000000000E+00 0.  1.
         21    1    1    2  504  503  0.82512531049E+01 -0.19521695770E+02  0.84811813645E+02  0.87419811926E+02  0.00000000000E+00 0.  1.
</event>
<event>
 4    1  0.3035432E+006  0.2193586E+02  0.7546771E-02  0.1506311E+00
         21   -1    0    0  503  501  0.00000000000E+00  0.00000000000E+00  0.16016548747E+02  0.16016548747E+02  0.00000000000E+00 0. -1.
         21   -1    0    0  501  502 -0.00000000000E+00 -0.00000000000E+00 -0.10003075234E+03  0.10003075234E+03  0.00000000000E+00 0. -1.
         21    1    1    2  503  504 -0.12239050070E+02 -0.18204051186E+02  0.65273303734E+01  0.22886412301E+02  0.00000000000E+00 0. -1.
         21    1    1    2  504  502  0.12239050070E+02  0.18204051186E+02 -0.90541533963E+02  0.93160888782E+02  0.00000000000E+00 0. -1.
</event>
<event>
 4    1  0.3035432E+006  0.2186097E+02  0.7546771E-02  0.1507319E+00
         21   -1    0    0  502  501  0.00000000000E+00  0.00000000000E+00  0.18772515271E+02  0.18772515271E+02  0.00000000000E+00 0.  1.
         21   -1    0    0  504  502 -0.00000000000E+00 -0.00000000000E+00 -0.57559566795E+02  0.57559566795E+02  0.00000000000E+00 0.  1.
         21    1    1    2  503  501  0.21841252123E+02 -0.92822643425E+00  0.91090847722E+01  0.23682848731E+02  0.00000000000E+00 0.  1.
         21    1    1    2  504  503 -0.21841252123E+02  0.92822643425E+00 -0.47896136296E+02  0.52649233335E+02  0.00000000000E+00 0.  1.
</event>
<event>
 4    1  0.3035432E+006  0.3217145E+02  0.7546771E-02  0.1401620E+00
         21   -1    0    0  503  501  0.00000000000E+00  0.00000000000E+00  0.25085935245E+03  0.25085935245E+03  0.00000000000E+00 0.  1.
         21   -1    0    0  504  502 -0.00000000000E+00 -0.00000000000E+00 -0.22991460581E+02  0.22991460581E+02  0.00000000000E+00 0.  1.
         21    1    1    2  503  502 -0.30294878430E+02  0.10826942532E+02 -0.10098827033E+02  0.33719262316E+02  0.00000000000E+00 0.  1.
         21    1    1    2  504  501  0.30294878430E+02 -0.10826942532E+02  0.23796671890E+03  0.24013155071E+03  0.00000000000E+00 0.  1.
</event>
<event>
 4    1  0.3035432E+006  0.3649931E+02  0.7546771E-02  0.1370318E+00
         21   -1    0    0  503  501  0.00000000000E+00  0.00000000000E+00  0.99993147384E+02  0.99993147384E+02  0.00000000000E+00 0.  1.
         21   -1    0    0  504  502 -0.00000000000E+00 -0.00000000000E+00 -0.15349027070E+02  0.15349027070E+02  0.00000000000E+00 0.  1.
         21    1    1    2  503  502 -0.32457279038E+01  0.36354707630E+02  0.21368868730E+02  0.42294539450E+02  0.00000000000E+00 0.  1.
         21    1    1    2  504  501  0.32457279038E+01 -0.36354707630E+02  0.63275251584E+02  0.73047635003E+02  0.00000000000E+00 0.  1.
</event>
<event>
 4    1  0.3035432E+006  0.3200148E+02  0.7546771E-02  0.1402965E+00
         21   -1    0    0  502  501  0.00000000000E+00  0.00000000000E+00  0.67399482599E+02  0.67399482599E+02  0.00000000000E+00 0.  1.
         21   -1    0    0  504  502 -0.00000000000E+00 -0.00000000000E+00 -0.69412626151E+02  0.69412626151E+02  0.00000000000E+00 0. -1.
         21    1    1    2  503  501 -0.14854129103E+02  0.28345181262E+02  0.59450619995E+02  0.67516447404E+02  0.00000000000E+00 0.  1.
         21    1    1    2  504  503  0.14854129103E+02 -0.28345181262E+02 -0.61463763547E+02  0.69295661347E+02  0.00000000000E+00 0. -1.
</event>
<event>
 4    1  0.3035432E+006  0.2062824E+02  0.7546771E-02  0.1524639E+00
         21   -1    0    0  504  501  0.00000000000E+00  0.00000000000E+00  0.78048736067E+02  0.78048736067E+02  0.00000000000E+00 0.  1.
         21   -1    0    0  503  502 -0.00000000000E+00 -0.00000000000E+00 -0.97588903310E+01  0.97588903310E+01  0.00000000000E+00 0.  1.
         21    1    1    2  503  501  0.19842561581E+02 -0.56388740179E+01  0.49785547608E+01  0.21220512665E+02  0.00000000000E+00 0.  1.
         21    1    1    2  504  502 -0.19842561581E+02  0.56388740179E+01  0.63311290975E+02  0.66587113732E+02  0.00000000000E+00 0.  1.
</event>
<event>
 4    1  0.3035432E+006  0.2542492E+02  0.7546771E-02  0.1464106E+00
         21   -1    0    0  503  501  0.00000000000E+00  0.00000000000E+00  0.48232757429E+03  0.48232757429E+03  0.00000000000E+00 0.  1.
         21   -1    0    0  504  502 -0.00000000000E+00 -0.00000000000E+00 -0.41502279888E+01  0.41502279888E+01  0.00000000000E+00 0. -1.
         21    1    1    2  503  502 -0.16974700628E+02 -0.18928442886E+02  0.43923637894E+03  0.43997161612E+03  0.00000000000E+00 0.  1.
         21    1    1    2  504  501  0.16974700628E+02  0.18928442886E+02  0.38940967360E+02  0.46506186153E+02  0.00000000000E+00 0. -1.
</event>
<event>
 4    1  0.3035432E+006  0.2560082E+02  0.7546771E-02  0.1462193E+00
         21   -1    0    0  503  501  0.00000000000E+00  0.00000000000E+00  0.15594768098E+03  0.15594768098E+03  0.00000000000E+00 0.  1.
         21   -1    0    0  501  502 -0.00000000000E+00 -0.00000000000E+00 -0.47913764318E+01  0.47913764318E+01  0.00000000000E+00 0.  1.
         21    1    1    2  503  504  0.10282814104E+02 -0.23444948199E+02  0.10374889616E+03  0.10686082218E+03  0.00000000000E+00 0.  1.
         21    1    1    2  504  502 -0.10282814104E+02  0.23444948199E+02  0.47407408392E+02  0.53878235239E+02  0.00000000000E+00 0.  1.
</event>
<event>
 4    1  0.3035432E+006  0.2083872E+02  0.7546771E-02  0.1521580E+00
         21   -1    0    0  503  501  0.00000000000E+00  0.00000000000E+00  0.32033520165E+03  0.32033520165E+03  0.00000000000E+00 0.  1.
         21   -1    0    0  501  502 -0.00000000000E+00 -0.00000000000E+00 -0.22291168071E+01  0.22291168071E+01  0.00000000000E+00 0. -1.
         21    1    1    2  503  504 -0.19428561069E+02 -0.75354667193E+01  0.26001343092E+03  0.26084715161E+03  0.00000000000E+00 0.  1.
         21    1    1    2  504  502  0.19428561069E+02  0.75354667193E+01  0.58092653919E+02  0.61717166844E+02  0.00000000000E+00 0. -1.
</event>
<event>
 4    1  0.3035432E+006  0.2260150E+02  0.7546771E-02  0.1497564E+00
         21   -1    0    0  502  501  0.00000000000E+00  0.00000000000E+00  0.15746585542E+03  0.15746585542E+03  0.00000000000E+00 0. -1.
         21   -1    0    0  504  502 -0.00000000000E+00 -0.00000000000E+00 -0.95406187593E+01  0.95406187593E+01  0.00000000000E+00 0.  1.
         21    1    1    2  503  501  0.39971988032E+01 -0.22245228006E+02  0.14179965550E+03  0.14358958899E+03  0.00000000000E+00 0. -1.
         21    1    1    2  504  503 -0.39971988032E+01  0.22245228006E+02  0.61255811624E+01  0.23416885188E+02  0.00000000000E+00 0.  1.
</event>
<event>
 4    1  0.3035432E+006  0.2380741E+02  0.7546771E-02  0.1482601E+00
         21   -1    0    0  504  501  0.00000000000E+00  0.00000000000E+00  0.97459527653E+02  0.97459527653E+02  0.00000000000E+00 0. -1.
         21   -1    0    0  501  502 -0.00000000000E+00 -0.00000000000E+00 -0.20326735792E+02  0.20326735792E+02  0.00000000000E+00 0. -1.
         21    1    1    2  503  502 -0.21314461460E+02  0.10605958506E+02 -0.11193613868E+02  0.26307596139E+02  0.00000000000E+00 0. -1.
         21    1    1    2  504  503  0.21314461460E+02 -0.10605958506E+02  0.88326405729E+02  0.91478667307E+02  0.00000000000E+00 0. -1.
</event>
<event>
 4    1  0.3035432E+006  0.9682320E+02  0.7546771E-02  0.1169430E+00
         21   -1    0    0  504  501  0.00000000000E+00  0.00000000000E+00  0.14412997286E+03  0.14412997286E+03  0.00000000000E+00 0. -1.
         21   -1    0    0  503  502 -0.00000000000E+00 -0.00000000000E+00 -0.10143949751E+03  0.10143949751E+03  0.00000000000E+00 0. -1.
         21    1    1    2  503  501 -0.28636632333E+02 -0.92491483056E+02  0.94892599287E+02  0.13557041177E+03  0.00000000000E+00 0. -1.
         21    1    1    2  504  502  0.28636632333E+02  0.92491483056E+02 -0.52202123935E+02  0.10999905860E+03  0.00000000000E+00 0. -1.
</event>
<event>
 4    1  0.3035432E+006  0.2941800E+02  0.7546771E-02  0.1424722E+00
         21   -1    0    0  503  501  0.00000000000E+00  0.00000000000E+00  0.97467707457E+02  0.97467707457E+02  0.00000000000E+00 0. -1.
         21   -1    0    0  504  502 -0.00000000000E+00 -0.00000000000E+00 -0.81431677821E+02  0.81431677821E+02  0.00000000000E+00 0.  1.
         21    1    1    2  503  502  0.54023733959E+01  0.28917698719E+02  0.92450347311E+02  0.97017965632E+02  0.00000000000E+00 0. -1.
         21    1    1    2  504  501 -0.54023733959E+01 -0.28917698719E+02 -0.76414317675E+02  0.81881419646E+02  0.00000000000E+00 0.  1.
</event>
<event>
 4    1  0.3035432E+006  0.2210929E+02  0.7546771E-02  0.1503996E+00
         21   -1    0    0  504  501  0.00000000000E+00  0.00000000000E+00  0.19954847609E+02  0.19954847609E+02  0.00000000000E+00 0. -1.
         21   -1    0    0  503  502 -0.00000000000E+00 -0.00000000000E+00 -0.25853499637E+02  0.25853499637E+02  0.00000000000E+00 0. -1.
         21    1    1    2  503  501 -0.11317699441E+02 -0.18992900869E+02  0.22984035786E+01  0.22228433662E+02  0.00000000000E+00 0. -1.
         21    1    1    2  504  502  0.11317699441E+02  0.18992900869E+02 -0.81970556063E+01  0.23579913585E+02  0.00000000000E+00 0. -1.
</event>
<event>
 4    1  0.3035432E+006  0.2392252E+02  0.7546771E-02  0.1481228E+00
         21   -1    0    0  503  501  0.00000000000E+00  0.00000000000E+00  0.20926305589E+02  0.20926305589E+02  0.00000000000E+00 0. -1.
         21   -1    0    0  501  502 -0.00000000000E+00 -0.00000000000E+00 -0.54225960271E+02  0.54225960271E+02  0.00000000000E+00 0. -1.
         21    1    1    2  503  504 -0.17940786031E+02 -0.15824504493E+02  0.98052401435E+01  0.25854003175E+02  0.00000000000E+00 0. -1.
         21    1    1    2  504  502  0.17940786031E+02  0.15824504493E+02 -0.43104894826E+02  0.49298262685E+02  0.00000000000E+00 0. -1.
</event>
<event>
 4    1  0.3035432E+006  0.2765663E+02  0.7546771E-02  0.1441121E+00
         21   -1    0    0  504  501  0.00000000000E+00  0.00000000000E+00  0.39239819296E+02  0.39239819296E+02  0.00000000000E+00 0. -1.
         21   -1    0    0  501  502 -0.00000000000E+00 -0.00000000000E+00 -0.24425996140E+02  0.24425996140E+02  0.00000000000E+00 0. -1.
         21    1    1    2  503  502  0.31846392720E+01 -0.27472663632E+02 -0.68991376885E+01  0.28504162418E+02  0.00000000000E+00 0. -1.
         21    1    1    2  504  503 -0.31846392720E+01  0.27472663632E+02  0.21712960844E+02  0.35161653018E+02  0.00000000000E+00 0. -1.
</event>
<event>
 4    1  0.3035432E+006  0.2026429E+02  0.7546771E-02  0.1530033E+00
         21   -1    0    0  504  501  0.00000000000E+00  0.00000000000E+00  0.46951856290E+01  0.46951856290E+01  0.00000000000E+00 0.  1.
         21   -1    0    0  503  502 -0.00000000000E+00 -0.00000000000E+00 -0.33550269731E+03  0.33550269731E+03  0.00000000000E+00 0.  1.
         21    1    1    2  503  501 -0.11754429365E+02 -0.16506808863E+02 -0.31166078532E+03  0.31231888585E+03  0.00000000000E+00 0.  1.
         21    1    1    2  504  502  0.11754429365E+02  0.16506808863E+02 -0.19146726353E+02  0.27878997087E+02  0.00000000000E+00 0.  1.
</event>
<event>
 4    1  0.3035432E+006  0.3612480E+02  0.7546771E-02  0.1372823E+00
         21   -1    0    0  504  501  0.00000000000E+00  0.00000000000E+00  0.93933457116E+03  0.93933457116E+03  0.00000000000E+00 0.  1.
         21   -1    0    0  501  502 -0.00000000000E+00 -0.00000000000E+00 -0.11123821224E+02  0.11123821224E+02  0.00000000000E+00 0. -1.
         21    1    1    2  503  502 -0.19690123685E+02 -0.30286959547E+02  0.19541870851E+02  0.41071712963E+02  0.00000000000E+00 0. -1.
         21    1    1    2  504  503  0.19690123685E+02  0.30286959547E+02  0.90866887909E+03  0.90938667942E+03  0.00000000000E+00 0.  1.
</event>
<event>
 4    1  0.3035432E+006  0.3505765E+02  0.7546771E-02  0.1380158E+00
         21   -1    0    0  504  501  0.00000000000E+00  0.00000000000E+00  0.92211156903E+02  0.92211156903E+02  0.00000000000E+00 0.  1.
         21   -1    0    0  501  502 -0.00000000000E+00 -0.00000000000E+00 -0.13330287661E+02  0.13330287661E+02  0.00000000000E+00 0.  1.
         21    1    1    2  503  502  0.10896726843E+02 -0.33321165198E+02  0.38833610220E+02  0.52317186361E+02  0.00000000000E+00 0.  1.
         21    1    1    2  504  503 -0.10896726843E+02  0.33321165198E+02  0.40047259022E+02  0.53224258202E+02  0.00000000000E+00 0.  1.
</event>
<event>
 4    1  0.3035432E+006  0.2321870E+02  0.7546771E-02  0.1489770E+00
         21   -1    0    0  503  501  0.00000000000E+00  0.00000000000E+00  0.10214378841E+03  0.10214378841E+03  0.00000000000E+00 0. -1.
         21   -1    0    0  504  502 -0.00000000000E+00 -0.00000000000E+00 -0.97495346631E+01  0.97495346631E+01  0.00000000000E+00 0. -1.
         21    1    1    2  503  502 -0.22983264081E+02  0.32981198115E+01  0.84086185091E+02  0.87232990005E+02  0.00000000000E+00 0. -1.
         21    1    1    2  504  501  0.22983264081E+02 -0.32981198115E+01  0.83080686517E+01  0.24660333064E+02  0.00000000000E+00 0. -1.
</event>
<event>
 4    1  0.3035432E+006  0.2052120E+02  0.7546771E-02  0.1526212E+00
         21   -1    0    0  503  501  0.00000000000E+00  0.00000000000E+00  0.15596517650E+02  0.15596517650E+02  0.00000000000E+00 0.  1.
         21   -1    0    0  504  502 -0.00000000000E+00 -0.00000000000E+00 -0.28423637120E+02  0.28423637120E+02  0.00000000000E+00 0.  1.
         21    1    1    2  503  502  0.17639674541E+02  0.10486255860E+02 -0.14892275696E+01  0.20575166551E+02  0.00000000000E+00 0.  1.
         21    1    1    2  504  501 -0.17639674541E+02 -0.10486255860E+02 -0.11337891900E+02  0.23444988219E+02  0.00000000000E+00 0.  1.
</event>
<event>
 4    1  0.3035432E+006  0.7631228E+02  0.7546771E-02  0.1212678E+00
         21   -1    0    0  502  501  0.00000000000E+00  0.00000000000E+00  0.31066644695E+02  0.31066644695E+02  0.00000000000E+00 0. -1.
         21   -1    0    0  504  502 -0.00000000000E+00 -0.00000000000E+00 -0.26567047905E+03  0.26567047905E+03  0.00000000000E+00 0. -1.
         21    1    1    2  503  501 -0.36104690189E+02  0.67231058555E+02 -0.36797514820E+02  0.84720841503E+02  0.00000000000E+00 0. -1.
         21    1    1    2  504  503  0.36104690189E+02 -0.67231058555E+02 -0.19780631953E+03  0.21201628224E+03  0.00000000000E+00 0. -1.
</event>
<event>
 4    1  0.3035432E+006  0.2752582E+02  0.7546771E-02  0.1442396E+00
         21   -1    0    0  504  501  0.00000000000E+00  0.00000000000E+00  0.27621920234E+02  0.27621920234E+02  0.00000000000E+00 0.  1.
         21   -1    0    0  501  502 -0.00000000000E+00 -0.00000000000E+00 -0.40732033938E+02  0.40732033938E+02  0.00000000000E+00 0. -1.
         21    1    1    2  503  502  0.44300241607E+01 -0.27166993157E+02 -0.26086027225E+02  0.37922967284E+02  0.00000000000E+00 0. -1.
         21    1    1    2  504  503 -0.44300241607E+01  0.27166993157E+02  0.12975913522E+02  0.30430986888E+02  0.00000000000E+00 0.  1.
</event>
<event>
 4    1  0.3035432E+006  0.2138374E+02  0.7546771E-02  0.1513856E+00
         21   -1    0    0  503  501  0.00000000000E+00  0.00000000000E+00  0.82124134873E+02  0.82124134873E+02  0.00000000000E+00 0.  1.
         21   -1    0    0  501  502 -0.00000000000E+00 -0.00000000000E+00 -0.26489285991E+02  0.26489285991E+02  0.00000000000E+00 0. -1.
         21    1    1    2  503  504 -0.21331081188E+02  0.14997452725E+01  0.76080270434E+02  0.79028297526E+02  0.00000000000E+00 0.  1.
         21    1    1    2  504  502  0.21331081188E+02 -0.14997452725E+01 -0.20445421551E+02  0.29585123338E+02  0.00000000000E+00 0. -1.
</event>
<event>
 4    1  0.3035432E+006  0.2006010E+02  0.7546771E-02  0.1533119E+00
         21   -1    0    0  502  501  0.00000000000E+00  0.00000000000E+00  0.27576409899E+02  0.27576409899E+02  0.00000000000E+00 0. -1.
         21   -1    0    0  503  502 -0.00000000000E+00 -0.00000000000E+00 -0.36948278014E+02  0.36948278014E+02  0.00000000000E+00 0. -1.
         21    1    1    2  503  504 -0.62440619910E+01 -0.19063563916E+02 -0.29781330212E+02  0.35907316922E+02  0.00000000000E+00 0. -1.
         21    1    1    2  504  501  0.62440619910E+01  0.19063563916E+02  0.20409462097E+02  0.28617370991E+02  0.00000000000E+00 0. -1.
</event>
<event>
 4    1  0.3035432E+006  0.2243924E+02  0.7546771E-02  0.1499662E+00
         21   -1    0    0  504  501  0.00000000000E+00  0.00000000000E+00  0.42432068089E+02  0.42432068089E+02  0.00000000000E+00 0.  1.
         21   -1    0    0  503  502 -0.00000000000E+00 -0.00000000000E+00 -0.14434926474E+02  0.14434926474E+02  0.00000000000E+00 0.  1.
         21    1    1    2  503  501  0.12965601050E+02 -0.18314273595E+02  0.20047385057E+01  0.22528613015E+02  0.00000000000E+00 0.  1.
         21    1    1    2  504  502 -0.12965601050E+02  0.18314273595E+02  0.25992403109E+02  0.34338381548E+02  0.00000000000E+00 0.  1.
</event>
<event>
 4    1  0.3035432E+006  0.2178245E+02  0.7546771E-02  0.1508380E+00
         21   -1    0    0  503  501  0.00000000000E+00  0.00000000000E+00  0.14157736148E+02  0.14157736148E+02  0.00000000000E+00 0. -1.
         21   -1    0    0  504  502 -0.00000000000E+00 -0.00000000000E+00 -0.31840723603E+03  0.31840723603E+03  0.00000000000E+00 0. -1.
         21    1    1    2  503  502 -0.16093428976E+02  0.14679127612E+02  0.51635786126E+01  0.22386107025E+02  0.00000000000E+00 0. -1.
         21    1    1    2  504  501  0.16093428976E+02 -0.14679127612E+02 -0.30941307849E+03  0.31017886515E+03  0.00000000000E+00 0. -1.
</event>
<event>
 4    1  0.3035432E+006  0.3567970E+02  0.7546771E-02  0.1375847E+00
         21   -1    0    0  502  501  0.00000000000E+00  0.00000000000E+00  0.24014706952E+03  0.24014706952E+03  0.00000000000E+00 0.  1.
         21   -1    0    0  503  502 -0.00000000000E+00 -0.00000000000E+00 -0.18293114757E+03  0.18293114757E+03  0.00000000000E+00 0.  1.
         21    1    1    2  503  504  0.71621008957E+01  0.34953469593E+02 -0.17984356142E+03  0.18334870414E+03  0.00000000000E+00 0.  1.
         21    1    1    2  504  501 -0.71621008957E+01 -0.34953469593E+02  0.23705948337E+03  0.23972951295E+03  0.00000000000E+00 0.  1.
</event>
<event>
 4    1  0.3035432E+006  0.2290828E+02  0.7546771E-02  0.1493653E+00
         21   -1    0    0  502  501  0.00000000000E+00  0.00000000000E+00  0.88722984221E+03  0.88722984221E+03  0.00000000000E+00 0.  1.
         21   -1    0    0  504  502 -0.00000000000E+00 -0.00000000000E+00 -0.42379398597E+02  0.42379398597E+02  0.00000000000E+00 0.  1.
         21    1    1    2  503  501 -0.18895771134E+02 -0.12951416339E+02  0.88397479054E+03  0.88427157574E+03  0.00000000000E+00 0.  1.
         21    1    1    2  504  503  0.18895771134E+02  0.12951416339E+02 -0.39124346922E+02  0.45337665070E+02  0.00000000000E+00 0.  1.
</event>
<event>
 4    1  0.3035432E+006  0.2058807E+02  0.7546771E-02  0.1525228E+00
         21   -1    0    0  504  501  0.00000000000E+00  0.00000000000E+00  0.25948254756E+03  0.25948254756E+03  0.00000000000E+00 0.  1.
         21   -1    0    0  503  502 -0.00000000000E+00 -0.00000000000E+00 -0.27644987243E+01  0.27644987243E+01  0.00000000000E+00 0.  1.
         21    1    1    2  503  501 -0.12610078260E+01  0.20549418004E+02  0.21222784307E+03  0.21322412175E+03  0.00000000000E+00 0.  1.
         21    1    1    2  504  502  0.12610078260E+01 -0.20549418004E+02  0.44490205768E+02  0.49022924538E+02  0.00000000000E+00 0.  1.
</event>
<event>
 4    1  0.3035432E+006  0.2374138E+02  0.7546771E-02  0.1483393E+00
         21   -1    0    0  503  501  0.00000000000E+00  0.00000000000E+00  0.54887606810E+02  0.54887606810E+02  0.00000000000E+00 0.  1.
         21   -1    0    0  504  502 -0.00000000000E+00 -0.00000000000E+00 -0.26802782085E+02  0.26802782085E+02  0.00000000000E+00 0. -1.
         21    1    1    2  503  502  0.20548450068E+02  0.11891779763E+02 -0.18037573610E+02  0.29816225245E+02  0.00000000000E+00 0. -1.
         21    1    1    2  504  501 -0.20548450068E+02 -0.11891779763E+02  0.46122398336E+02  0.51874163649E+02  0.00000000000E+00 0.  1.
</event>
<event>
 4    1  0.3035432E+006  0.3391356E+02  0.7546771E-02  0.1388366E+00
         21   -1    0    0  503  501  0.00000000000E+00  0.00000000000E+00  0.15034797276E+02  0.15034797276E+02  0.00000000000E+00 0. -1.
         21   -1    0    0  504  502 -0.00000000000E+00 -0.00000000000E+00 -0.11639278272E+03  0.11639278272E+03  0.00000000000E+00 0. -1.
         21    1    1    2  503  502 -0.27238109784E+02 -0.20204326585E+02 -0.12206312617E+02  0.36043355907E+02  0.00000000000E+00 0. -1.
         21    1    1    2  504  501  0.27238109784E+02  0.20204326585E+02 -0.89151672829E+02  0.95384224092E+02  0.00000000000E+00 0. -1.
</event>
<event>
 4    1  0.3035432E+006  0.2623682E+02  0.7546771E-02  0.1455429E+00
         21   -1    0    0  503  501  0.00000000000E+00  0.00000000000E+00  0.52165798504E+03  0.52165798504E+03  0.00000000000E+00 0.  1.
         21   -1    0    0  504  502 -0.00000000000E+00 -0.00000000000E+00 -0.95067690905E+01  0.95067690905E+01  0.00000000000E+00 0. -1.
         21    1    1    2  503  502  0.16937572490E+02 -0.20037203644E+02  0.50253769276E+03  0.50322212147E+03  0.00000000000E+00 0.  1.
         21    1    1    2  504  501 -0.16937572490E+02  0.20037203644E+02  0.96135231847E+01  0.27942632656E+02  0.00000000000E+00 0. -1.
</event>
<event>
 4    1  0.3035432E+006  0.2207126E+02  0.7546771E-02  0.1504502E+00
         21   -1    0    0  502  501  0.00000000000E+00  0.00000000000E+00  0.85975603203E+02  0.85975603203E+02  0.00000000000E+00 0. -1.
         21   -1    0    0  504  502 -0.00000000000E+00 -0.00000000000E+00 -0.98109575936E+01  0.98109575936E+01  0.00000000000E+00 0. -1.
         21    1    1    2  503  501  0.12723218320E+02 -0.18034971335E+02  0.69212190955E+02  0.72646182641E+02  0.00000000000E+00 0. -1.
         21    1    1    2  504  503 -0.12723218320E+02  0.18034971335E+02  0.69524546539E+01  0.23140378156E+02  0.00000000000E+00 0. -1.
</event>
<event>
 4    1  0.3035432E+006  0.2006989E+02  0.7546771E-02  0.1532970E+00
         21   -1    0    0  503  501  0.00000000000E+00  0.00000000000E+00  0.24163881701E+01  0.24163881701E+01  0.00000000000E+00 0.  1.
         21   -1    0    0  504  502 -0.00000000000E+00 -0.00000000000E+00 -0.18125830470E+03  0.18125830470E+03  0.00000000000E+00 0. -1.
         21    1    1    2  503  502 -0.11161279658E+02  0.16680117591E+02 -0.11545228256E+03  0.11718374475E+03  0.00000000000E+00 0. -1.
         21    1    1    2  504  501  0.11161279658E+02 -0.16680117591E+02 -0.63389633974E+02  0.66490948119E+02  0.00000000000E+00 0.  1.
</event>
<event>
 4    1  0.3035432E+006  0.2264240E+02  0.7546771E-02  0.1497038E+00
         21   -1    0    0  502  501  0.00000000000E+00  0.00000000000E+00  0.53505939723E+02  0.53505939723E+02  0.00000000000E+00 0. -1.
         21   -1    0    0  504  502 -0.00000000000E+00 -0.00000000000E+00 -0.19322383600E+02  0.19322383600E+02  0.00000000000E+00 0.  1.
         21    1    1    2  503  501  0.22626294060E+02  0.85390633615E+00  0.42946179393E+02  0.48549486747E+02  0.00000000000E+00 0. -1.
         21    1    1    2  504  503 -0.22626294060E+02 -0.85390633615E+00 -0.87626232708E+01  0.24278836576E+02  0.00000000000E+00 0.  1.
</event>
<event>
 4    1  0.3035432E+006  0.2779954E+02  0.7546771E-02  0.1439738E+00
         21   -1    0    0  503  501  0.00000000000E+00  0.00000000000E+00  0.16883152099E+02  0.16883152099E+02  0.00000000000E+00 0.  1.
         21   -1    0    0  504  502 -0.00000000000E+00 -0.00000000000E+00 -0.58671528204E+02  0.58671528204E+02  0.00000000000E+00 0.  1.
         21    1    1    2  503  502 -0.18617591284E+01 -0.27737124615E+02 -0.31822490412E+01  0.27981081786E+02  0.00000000000E+00 0.  1.
         21    1    1    2  504  501  0.18617591284E+01  0.27737124615E+02 -0.38606127064E+02  0.47573598517E+02  0.00000000000E+00 0.  1.
</event>
<event>
 4    1  0.3035432E+006  0.2060167E+02  0.7546771E-02  0.1525029E+00
         21   -1    0    0  504  501  0.00000000000E+00  0.00000000000E+00  0.47543378886E+03  0.47543378886E+03  0.00000000000E+00 0. -1.
         21   -1    0    0  503  502 -0.00000000000E+00 -0.00000000000E+00 -0.14605901356E+02  0.14605901356E+02  0.00000000000E+00 0. -1.
         21    1    1    2  503  501  0.35900276387E+00  0.20598544776E+02  0.46782787526E+03  0.46828127210E+03  0.00000000000E+00 0. -1.
         21    1    1    2  504  502 -0.35900276387E+00 -0.20598544776E+02 -0.69999877631E+01  0.21758418108E+02  0.00000000000E+00 0. -1.
</event>
<event>
 4    1  0.3035432E+006  0.3868923E+02  0.7546771E-02  0.1356343E+00
         21   -1    0    0  502  501  0.00000000000E+00  0.00000000000E+00  0.80701848212E+02  0.80701848212E+02  0.00000000000E+00 0. -1.
         21   -1    0    0  504  502 -0.00000000000E+00 -0.00000000000E+00 -0.33118126398E+03  0.33118126398E+03  0.00000000000E+00 0.  1.
         21    1    1    2  503  501 -0.36530325023E+02  0.12743315274E+02  0.74851825579E+02  0.84259435810E+02  0.00000000000E+00 0. -1.
         21    1    1    2  504  503  0.36530325023E+02 -0.12743315274E+02 -0.32533124134E+03  0.32762367638E+03  0.00000000000E+00 0.  1.
</event>
<event>
 4    1  0.3035432E+006  0.2038745E+02  0.7546771E-02  0.1528193E+00
         21   -1    0    0  503  501  0.00000000000E+00  0.00000000000E+00  0.32783299146E+03  0.32783299146E+03  0.00000000000E+00 0. -1.
         21   -1    0    0  504  502 -0.00000000000E+00 -0.00000000000E+00 -0.54630537667E+01  0.54630537667E+01  0.00000000000E+00 0. -1.
         21    1    1    2  503  502 -0.98971574612E+01  0.17823980278E+02  0.15149557818E+02  0.25399942930E+02  0.00000000000E+00 0. -1.
         21    1    1    2  504  501  0.98971574612E+01 -0.17823980278E+02  0.30722037987E+03  0.30789610229E+03  0.00000000000E+00 0. -1.
</event>
<event>
 4    1  0.3035432E+006  0.2604682E+02  0.7546771E-02  0.1457425E+00
         21   -1    0    0  503  501  0.00000000000E+00  0.00000000000E+00  0.24802940374E+04  0.24802940374E+04  0.00000000000E+00 0. -1.
         21   -1    0    0  504  502 -0.00000000000E+00 -0.00000000000E+00 -0.31808293842E+00  0.31808293842E+00  0.00000000000E+00 0.  1.
         21    1    1    2  503  502 -0.12960241690E+02  0.22593556818E+02  0.17041752477E+04  0.17043742874E+04  0.00000000000E+00 0. -1.
         21    1    1    2  504  501  0.12960241690E+02 -0.22593556818E+02  0.77580070677E+03  0.77623783295E+03  0.00000000000E+00 0.  1.
</event>
<event>
 4    1  0.3035432E+006  0.3086895E+02  0.7546771E-02  0.1412192E+00
         21   -1    0    0  504  501  0.00000000000E+00  0.00000000000E+00  0.81819815423E+02  0.81819815423E+02  0.00000000000E+00 0. -1.
         21   -1    0    0  503  502 -0.00000000000E+00 -0.00000000000E+00 -0.15034796324E+02  0.15034796324E+02  0.00000000000E+00 0. -1.
         21    1    1    2  503  501 -0.27676231396E+02 -0.13671795715E+02  0.56383093626E+02  0.64280207134E+02  0.00000000000E+00 0. -1.
         21    1    1    2  504  502  0.27676231396E+02  0.13671795715E+02  0.10401925473E+02  0.32574404613E+02  0.00000000000E+00 0. -1.
</event>
<event>
 4    1  0.3035432E+006  0.2521737E+02  0.7546771E-02  0.1466386E+00
         21   -1    0    0  503  501  0.00000000000E+00  0.00000000000E+00  0.16825390290E+03  0.16825390290E+03  0.00000000000E+00 0.  1.
         21   -1    0    0  501  502 -0.00000000000E+00 -0.00000000000E+00 -0.84975267496E+01  0.84975267496E+01  0.00000000000E+00 0. -1.
         21    1    1    2  503  504  0.53919894468E+01 -0.24634165767E+02  0.14572986760E+03  0.14789560502E+03  0.00000000000E+00 0.  1.
         21    1    1    2  504  502 -0.53919894468E+01  0.24634165767E+02  0.14026508558E+02  0.28855824638E+02  0.00000000000E+00 0. -1.
</event>
<event>
 4    1  0.3035432E+006  0.2175567E+02  0.7546771E-02  0.1508744E+00
         21   -1    0    0  504  501  0.00000000000E+00  0.00000000000E+00  0.16007191945E+03  0.16007191945E+03  0.00000000000E+00 0. -1.
         21   -1    0    0  503  502 -0.00000000000E+00 -0.00000000000E+00 -0.63654424840E+01  0.63654424840E+01  0.00000000000E+00 0.  1.
         21    1    1    2  503  501  0.14335597530E+01 -0.21708390018E+02  0.13774994660E+03  0.13945736653E+03  0.00000000000E+00 0. -1.
         21    1    1    2  504  502 -0.14335597530E+01  0.21708390018E+02  0.15956530364E+02  0.26979995404E+02  0.00000000000E+00 0.  1.
</event>
<event>
 4    1  0.3035432E+006  0.2212973E+02  0.7546771E-02  0.1503725E+00
         21   -1    0    0  503  501  0.00000000000E+00  0.00000000000E+00  0.11797336564E+04  0.11797336564E+04  0.00000000000E+00 0. -1.
         21   -1    0    0  504  502 -0.00000000000E+00 -0.00000000000E+00 -0.20794680882E+01  0.20794680882E+01  0.00000000000E+00 0. -1.
         21    1    1    2  503  502 -0.25729595349E+00 -0.22128231778E+02  0.60180487794E+02  0.64120324032E+02  0.00000000000E+00 0. -1.
         21    1    1    2  504  501  0.25729595349E+00  0.22128231778E+02  0.11174737005E+04  0.11176928004E+04  0.00000000000E+00 0. -1.
</event>
<event>
 4    1  0.3035432E+006  0.2288338E+02  0.7546771E-02  0.1493968E+00
         21   -1    0    0  503  501  0.00000000000E+00  0.00000000000E+00  0.10245955630E+02  0.10245955630E+02  0.00000000000E+00 0. -1.
         21   -1    0    0  504  502 -0.00000000000E+00 -0.00000000000E+00 -0.51190675431E+02  0.51190675431E+02  0.00000000000E+00 0. -1.
         21    1    1    2  503  502 -0.22689962709E+02 -0.29689474869E+01 -0.19236956719E+02  0.29894975510E+02  0.00000000000E+00 0. -1.
         21    1    1    2  504  501  0.22689962709E+02  0.29689474869E+01 -0.21707763082E+02  0.31541655551E+02  0.00000000000E+00 0. -1.
</event>
<event>
 4    1  0.3035432E+006  0.2217006E+02  0.7546771E-02  0.1503191E+00
         21   -1    0    0  503  501  0.00000000000E+00  0.00000000000E+00  0.18651022545E+03  0.18651022545E+03  0.00000000000E+00 0. -1.
         21   -1    0    0  504  502 -0.00000000000E+00 -0.00000000000E+00 -0.37274205833E+03  0.37274205833E+03  0.00000000000E+00 0.  1.
         21    1    1    2  503  502  0.84562462108E+01  0.20493983544E+02 -0.37175181929E+03  0.37241230727E+03  0.00000000000E+00 0.  1.
         21    1    1    2  504  501 -0.84562462108E+01 -0.20493983544E+02  0.18551998642E+03  0.18683997651E+03  0.00000000000E+00 0. -1.
</event>
<event>
 4    1  0.3035432E+006  0.3138193E+02  0.7546771E-02  0.1407956E+00
         21   -1    0    0  502  501  0.00000000000E+00  0.00000000000E+00  0.12142456775E+04  0.12142456775E+04  0.00000000000E+00 0. -1.
         21   -1    0    0  503  502 -0.00000000000E+00 -0.00000000000E+00 -0.24491776861E+01  0.24491776861E+01  0.00000000000E+00 0. -1.
         21    1    1    2  503  504  0.31099240783E+02  0.42026973067E+01  0.10837411832E+03  0.11282630439E+03  0.00000000000E+00 0. -1.
         21    1    1    2  504  501 -0.31099240783E+02 -0.42026973067E+01  0.11034223815E+04  0.11038685508E+04  0.00000000000E+00 0. -1.
</event>
<event>
 4    1  0.3035432E+006  0.2567816E+02  0.7546771E-02  0.1461358E+00
         21   -1    0    0  504  501  0.00000000000E+00  0.00000000000E+00  0.20807392015E+02  0.20807392015E+02  0.00000000000E+00 0.  1.
         21   -1    0    0  503  502 -0.00000000000E+00 -0.00000000000E+00 -0.15016778341E+03  0.15016778341E+03  0.00000000000E+00 0. -1.
         21    1    1    2  503  501  0.25677178266E+02  0.22450504907E+00  0.11253538062E+02  0.28035869972E+02  0.00000000000E+00 0.  1.
         21    1    1    2  504  502 -0.25677178266E+02 -0.22450504907E+00 -0.14061392946E+03  0.14293930546E+03  0.00000000000E+00 0. -1.
</event>
<event>
 4    1  0.3035432E+006  0.3007944E+02  0.7546771E-02  0.1418907E+00
         21   -1    0    0  504  501  0.00000000000E+00  0.00000000000E+00  0.21158666698E+03  0.21158666698E+03  0.00000000000E+00 0. -1.
         21   -1    0    0  503  502 -0.00000000000E+00 -0.00000000000E+00 -0.83137592712E+01  0.83137592712E+01  0.00000000000E+00 0. -1.
         21    1    1    2  503  501 -0.20491191169E+02 -0.22020078797E+02  0.17825967360E+03  0.18077965599E+03  0.00000000000E+00 0. -1.
         21    1    1    2  504  502  0.20491191169E+02  0.22020078797E+02  0.25013234109E+02  0.39120770267E+02  0.00000000000E+00 0. -1.
</event>
<event>
 4    1  0.3035432E+006  0.2075986E+02  0.7546771E-02  0.1522721E+00
         21   -1    0    0  504  501  0.00000000000E+00  0.00000000000E+00  0.58490903573E+02  0.58490903573E+02  0.00000000000E+00 0.  1.
         21   -1    0    0  503  502 -0.00000000000E+00 -0.00000000000E+00 -0.75464409175E+01  0.75464409175E+01  0.00000000000E+00 0. -1.
         21    1    1    2  503  501 -0.12021215065E+02 -0.16925192189E+02  0.20397516258E+02  0.29103786897E+02  0.00000000000E+00 0.  1.
         21    1    1    2  504  502  0.12021215065E+02  0.16925192189E+02  0.30546946398E+02  0.36933557593E+02  0.00000000000E+00 0. -1.
</event>
<event>
 4    1  0.3035432E+006  0.3191762E+02  0.7546771E-02  0.1403633E+00
         21   -1    0    0  502  501  0.00000000000E+00  0.00000000000E+00  0.74970743053E+02  0.74970743053E+02  0.00000000000E+00 0.  1.
         21   -1    0    0  503  502 -0.00000000000E+00 -0.00000000000E+00 -0.16714499271E+03  0.16714499271E+03  0.00000000000E+00 0. -1.
         21    1    1    2  503  504  0.21318060440E+02  0.23754465390E+02 -0.16211986096E+03  0.16523190867E+03  0.00000000000E+00 0. -1.
         21    1    1    2  504  501 -0.21318060440E+02 -0.23754465390E+02  0.69945611304E+02  0.76883827087E+02  0.00000000000E+00 0.  1.
</event>
<event>
 4    1  0.3035432E+006  0.3656606E+02  0.7546771E-02  0.1369875E+00
         21   -1    0    0  503  501  0.00000000000E+00  0.00000000000E+00  0.26645735573E+03  0.26645735573E+03  0.00000000000E+00 0.  1.
         21   -1    0    0  501  502 -0.00000000000E+00 -0.00000000000E+00 -0.63534522806E+02  0.63534522806E+02  0.00000000000E+00 0.  1.
         21    1    1    2  503  504 -0.30436848799E+02  0.20265112634E+02  0.25980764187E+03  0.26236822851E+03  0.00000000000E+00 0.  1.
         21    1    1    2  504  502  0.30436848799E+02 -0.20265112634E+02 -0.56884808945E+02  0.67623650031E+02  0.00000000000E+00 0.  1.
</event>
<event>
 4    1  0.3035432E+006  0.3808534E+02  0.7546771E-02  0.1360086E+00
         21   -1    0    0  503  501  0.00000000000E+00  0.00000000000E+00  0.13142106556E+02  0.13142106556E+02  0.00000000000E+00 0.  1.
         21   -1    0    0  504  502 -0.00000000000E+00 -0.00000000000E+00 -0.13976293549E+04  0.13976293549E+04  0.00000000000E+00 0.  1.
         21    1    1    2  503  502 -0.34974258080E+02  0.15076283092E+02 -0.13692047149E+04  0.13697342970E+04  0.00000000000E+00 0.  1.
         21    1    1    2  504  501  0.34974258080E+02 -0.15076283092E+02 -0.15282533462E+02  0.41037164487E+02  0.00000000000E+00 0.  1.
</event>
<event>
 4    1  0.3035432E+006  0.3452190E+02  0.7546771E-02  0.1383956E+00
         21   -1    0    0  504  501  0.00000000000E+00  0.00000000000E+00  0.69965892560E+01  0.69965892560E+01  0.00000000000E+00 0. -1.
         21   -1    0    0  501  502 -0.00000000000E+00 -0.00000000000E+00 -0.21333285976E+03  0.21333285976E+03  0.00000000000E+00 0. -1.
         21    1    1    2  503  502 -0.32382110801E+02 -0.11964957417E+02 -0.15262642124E+03  0.15648190236E+03  0.00000000000E+00 0. -1.
         21    1    1    2  504  503  0.32382110801E+02  0.11964957417E+02 -0.53709849266E+02  0.63847546657E+02  0.00000000000E+00 0. -1.
</event>
<event>
 4    1  0.3035432E+006  0.2045106E+02  0.7546771E-02  0.1527248E+00
         21   -1    0    0  504  501  0.00000000000E+00  0.00000000000E+00  0.10855748603E+03  0.10855748603E+03  0.00000000000E+00 0.  1.
         21   -1    0    0  503  502 -0.00000000000E+00 -0.00000000000E+00 -0.76436077921E+01  0.76436077921E+01  0.00000000000E+00 0.  1.
         21    1    1    2  503  501 -0.19367854633E+02  0.65675056771E+01  0.91373507729E+02  0.93634202291E+02  0.00000000000E+00 0.  1.
         21    1    1    2  504  502  0.19367854633E+02 -0.65675056771E+01  0.95403705079E+01  0.22566891530E+02  0.00000000000E+00 0.  1.
</event>
<event>
 4    1  0.3035432E+006  0.2123543E+02  0.7546771E-02  0.1515930E+00
         21   -1    0    0  502  501  0.00000000000E+00  0.00000000000E+00  0.12178571178E+02  0.12178571178E+02  0.00000000000E+00 0. -1.
         21   -1    0    0  504  502 -0.00000000000E+00 -0.00000000000E+00 -0.70108383986E+02  0.70108383986E+02  0.00000000000E+00 0. -1.
         21    1    1    2  503  501  0.21232826442E+02 -0.33263340185E+00 -0.70285039224E+00  0.21247060088E+02  0.00000000000E+00 0. -1.
         21    1    1    2  504  503 -0.21232826442E+02  0.33263340185E+00 -0.57226962415E+02  0.61039895076E+02  0.00000000000E+00 0. -1.
</event>
<event>
 4    1  0.3035432E+006  0.2455472E+02  0.7546771E-02  0.1473847E+00
         21   -1    0    0  503  501  0.00000000000E+00  0.00000000000E+00  0.31856615377E+01  0.31856615377E+01  0.00000000000E+00 0.  1.
         21   -1    0    0  504  502 -0.00000000000E+00 -0.00000000000E+00 -0.81659494023E+03  0.81659494023E+03  0.00000000000E+00 0. -1.
         21    1    1    2  503  502  0.17580524164E+02  0.17142321880E+02 -0.47441774177E+02  0.53419621549E+02  0.00000000000E+00 0.  1.
         21    1    1    2  504  501 -0.17580524164E+02 -0.17142321880E+02 -0.76596750451E+03  0.76636098022E+03  0.00000000000E+00 0. -1.
</event>
<event>
 4    1  0.3035432E+006  0.2489024E+02  0.7546771E-02  0.1470035E+00
         21   -1    0    0  503  501  0.00000000000E+00  0.00000000000E+00  0.81351579125E+02  0.81351579125E+02  0.00000000000E+00 0.  1.
         21   -1    0    0  504  502 -0.00000000000E+00 -0.00000000000E+00 -0.12395718624E+03  0.12395718624E+03  0.00000000000E+00 0.  1.
         21    1    1    2  503  502  0.17416526839E+02 -0.17781697019E+02  0.78148280118E+02  0.82016326676E+02  0.00000000000E+00 0.  1.
         21    1    1    2  504  501 -0.17416526839E+02  0.17781697019E+02 -0.12075388723E+03  0.12329243869E+03  0.00000000000E+00 0.  1.
</event>
<event>
 4    1  0.3035432E+006  0.4100975E+02  0.7546771E-02  0.1342668E+00
         21   -1    0    0  504  501  0.00000000000E+00  0.00000000000E+00  0.58027197794E+02  0.58027197794E+02  0.00000000000E+00 0. -1.
         21   -1    0    0  503  502 -0.00000000000E+00 -0.00000000000E+00 -0.31072045842E+02  0.31072045842E+02  0.00000000000E+00 0. -1.
         21    1    1    2  503  501 -0.27977143180E+02  0.29984641172E+02  0.25029079221E+02  0.48044292620E+02  0.00000000000E+00 0. -1.
         21    1    1    2  504  502  0.27977143180E+02 -0.29984641172E+02  0.19260727309E+01  0.41054951016E+02  0.00000000000E+00 0. -1.
</event>
<event>
 4    1  0.3035432E+006  0.2118841E+02  0.7546771E-02  0.1516592E+00
         21   -1    0    0  504  501  0.00000000000E+00  0.00000000000E+00  0.30268398189E+03  0.30268398189E+03  0.00000000000E+00 0. -1.
         21   -1    0    0  503  502 -0.00000000000E+00 -0.00000000000E+00 -0.96519325285E+01  0.96519325285E+01  0.00000000000E+00 0. -1.
         21    1    1    2  503  501  0.12618899244E+02 -0.17020929183E+02  0.29018448805E+03  0.29095701702E+03  0.00000000000E+00 0. -1.
         21    1    1    2  504  502 -0.12618899244E+02  0.17020929183E+02  0.28475613072E+01  0.21378897394E+02  0.00000000000E+00 0. -1.
</event>
<event>
 4    1  0.3035432E+006  0.2028447E+02  0.7546771E-02  0.1529731E+00
         21   -1    0    0  503  501  0.00000000000E+00  0.00000000000E+00  0.24700177211E+02  0.24700177211E+02  0.00000000000E+00 0. -1.
         21   -1    0    0  504  502 -0.00000000000E+00 -0.00000000000E+00 -0.43068719559E+02  0.43068719559E+02  0.00000000000E+00 0. -1.
         21    1    1    2  503  502 -0.58444510926E+01  0.19424260988E+02 -0.35718607815E+02  0.41076495319E+02  0.00000000000E+00 0. -1.
         21    1    1    2  504  501  0.58444510926E+01 -0.19424260988E+02  0.17350065467E+02  0.26692401451E+02  0.00000000000E+00 0. -1.
</event>
<event>
 4    1  0.3035432E+006  0.2411617E+02  0.7546771E-02  0.1478939E+00
         21   -1    0    0  504  501  0.00000000000E+00  0.00000000000E+00  0.18168453524E+03  0.18168453524E+03  0.00000000000E+00 0. -1.
         21   -1    0    0  501  502 -0.00000000000E+00 -0.00000000000E+00 -0.99179831887E+01  0.99179831887E+01  0.00000000000E+00 0. -1.
         21    1    1    2  503  502  0.11839092977E+02  0.21010132733E+02  0.70438357907E+01  0.25123801914E+02  0.00000000000E+00 0. -1.
         21    1    1    2  504  503 -0.11839092977E+02 -0.21010132733E+02  0.16472271626E+03  0.16647871651E+03  0.00000000000E+00 0. -1.
</event>
<event>
 4    1  0.3035432E+006  0.2103166E+02  0.7546771E-02  0.1518813E+00
         21   -1    0    0  504  501  0.00000000000E+00  0.00000000000E+00  0.55189622883E+02  0.55189622883E+02  0.00000000000E+00 0.  1.
         21   -1    0    0  503  502 -0.00000000000E+00 -0.00000000000E+00 -0.99985090243E+02  0.99985090243E+02  0.00000000000E+00 0. -1.
         21    1    1    2  503  501 -0.18693646570E+02 -0.96373350726E+01  0.52014997862E+02  0.56106066089E+02  0.00000000000E+00 0.  1.
         21    1    1    2  504  502  0.18693646570E+02  0.96373350726E+01 -0.96810465222E+02  0.99068647038E+02  0.00000000000E+00 0. -1.
</event>
<event>
 4    1  0.3035432E+006  0.2878083E+02  0.7546771E-02  0.1430495E+00
         21   -1    0    0  502  501  0.00000000000E+00  0.00000000000E+00  0.72421549605E+01  0.72421549605E+01  0.00000000000E+00 0. -1.
         21   -1    0    0  504  502 -0.00000000000E+00 -0.00000000000E+00 -0.24094229365E+03  0.24094229365E+03  0.00000000000E+00 0. -1.
         21    1    1    2  503  501  0.28152359329E+02 -0.59816889178E+01 -0.26911625428E+02  0.39402684188E+02  0.00000000000E+00 0. -1.
         21    1    1    2  504  503 -0.28152359329E+02  0.59816889178E+01 -0.20678851326E+03  0.20878176442E+03  0.00000000000E+00 0. -1.
</event>
<event>
 4    1  0.3035432E+006  0.2042270E+02  0.7546771E-02  0.1527669E+00
         21   -1    0    0  503  501  0.00000000000E+00  0.00000000000E+00  0.21445237090E+02  0.21445237090E+02  0.00000000000E+00 0.  1.
         21   -1    0    0  504  502 -0.00000000000E+00 -0.00000000000E+00 -0.23040477666E+02  0.23040477666E+02  0.00000000000E+00 0.  1.
         21    1    1    2  503  502  0.19880594296E+02  0.46742652829E+01 -0.95794703988E+01  0.22557771136E+02  0.00000000000E+00 0.  1.
         21    1    1    2  504  501 -0.19880594296E+02 -0.46742652829E+01  0.79842298236E+01  0.21927943620E+02  0.00000000000E+00 0.  1.
</event>
<event>
 4    1  0.3035432E+006  0.4367917E+02  0.7546771E-02  0.1328177E+00
         21   -1    0    0  502  501  0.00000000000E+00  0.00000000000E+00  0.94422172407E+02  0.94422172407E+02  0.00000000000E+00 0.  1.
         21   -1    0    0  503  502 -0.00000000000E+00 -0.00000000000E+00 -0.53633368192E+03  0.53633368192E+03  0.00000000000E+00 0.  1.
         21    1    1    2  503  504 -0.79399009832E+01 -0.42951454913E+02 -0.53033590490E+03  0.53213160171E+03  0.00000000000E+00 0.  1.
         21    1    1    2  504  501  0.79399009832E+01  0.42951454913E+02  0.88424395384E+02  0.98624252625E+02  0.00000000000E+00 0.  1.
</event>
<event>
 4    1  0.3035432E+006  0.2831835E+02  0.7546771E-02  0.1434796E+00
         21   -1    0    0  504  501  0.00000000000E+00  0.00000000000E+00  0.75988946280E+02  0.75988946280E+02  0.00000000000E+00 0. -1.
         21   -1    0    0  503  502 -0.00000000000E+00 -0.00000000000E+00 -0.10598887646E+02  0.10598887646E+02  0.00000000000E+00 0. -1.
         21    1    1    2  503  501  0.19155227560E+02 -0.20856807978E+02  0.29853636267E+02  0.41148132161E+02  0.00000000000E+00 0. -1.
         21    1    1    2  504  502 -0.19155227560E+02  0.20856807978E+02  0.35536422367E+02  0.45439701766E+02  0.00000000000E+00 0. -1.
</event>
<event>
 4    1  0.3035432E+006  0.2126283E+02  0.7546771E-02  0.1515545E+00
         21   -1    0    0  504  501  0.00000000000E+00  0.00000000000E+00  0.20590513931E+02  0.20590513931E+02  0.00000000000E+00 0. -1.
         21   -1    0    0  503  502 -0.00000000000E+00 -0.00000000000E+00 -0.38185604022E+02  0.38185604022E+02  0.00000000000E+00 0. -1.
         21    1    1    2  503  501  0.76806904321E+01 -0.19827128215E+02 -0.27955991286E+02  0.35123289531E+02  0.00000000000E+00 0. -1.
         21    1    1    2  504  502 -0.76806904321E+01  0.19827128215E+02  0.10360901194E+02  0.23652828421E+02  0.00000000000E+00 0. -1.
</event>
<event>
 4    1  0.3035432E+006  0.3230251E+02  0.7546771E-02  0.1400589E+00
         21   -1    0    0  504  501  0.00000000000E+00  0.00000000000E+00  0.25081275117E+02  0.25081275117E+02  0.00000000000E+00 0. -1.
         21   -1    0    0  503  502 -0.00000000000E+00 -0.00000000000E+00 -0.94972101198E+02  0.94972101198E+02  0.00000000000E+00 0. -1.
         21    1    1    2  503  501  0.31535508221E+02 -0.69973987110E+01  0.10052463632E+02  0.33830517178E+02  0.00000000000E+00 0. -1.
         21    1    1    2  504  502 -0.31535508221E+02  0.69973987110E+01 -0.79943289714E+02  0.86222859137E+02  0.00000000000E+00 0. -1.
</event>
<event>
 4    1  0.3035432E+006  0.3521409E+02  0.7546771E-02  0.1379064E+00
         21   -1    0    0  504  501  0.00000000000E+00  0.00000000000E+00  0.75557597756E+02  0.75557597756E+02  0.00000000000E+00 0.  1.
         21   -1    0    0  503  502 -0.00000000000E+00 -0.00000000000E+00 -0.20262750881E+02  0.20262750881E+02  0.00000000000E+00 0.  1.
         21    1    1    2  503  501 -0.35144493968E+02 -0.22128733055E+01  0.67609334439E+01  0.35857251506E+02  0.00000000000E+00 0.  1.
         21    1    1    2  504  502  0.35144493968E+02  0.22128733055E+01  0.48533913431E+02  0.59963097131E+02  0.00000000000E+00 0.  1.
</event>
<event>
 4    1  0.3035432E+006  0.3825625E+02  0.7546771E-02  0.1359019E+00
         21   -1    0    0  503  501  0.00000000000E+00  0.00000000000E+00  0.49232156977E+02  0.49232156977E+02  0.00000000000E+00 0.  1.
         21   -1    0    0  504  502 -0.00000000000E+00 -0.00000000000E+00 -0.24231188219E+03  0.24231188219E+03  0.00000000000E+00 0. -1.
         21    1    1    2  503  502 -0.36907865590E+02  0.10067288213E+02 -0.23307758724E+03  0.23619632196E+03  0.00000000000E+00 0. -1.
         21    1    1    2  504  501  0.36907865590E+02 -0.10067288213E+02  0.39997862020E+02  0.55347717212E+02  0.00000000000E+00 0.  1.
</event>
<event>
 4    1  0.3035432E+006  0.4259263E+02  0.7546771E-02  0.1333928E+00
         21   -1    0    0  503  501  0.00000000000E+00  0.00000000000E+00  0.57607944254E+02  0.57607944254E+02  0.00000000000E+00 0.  1.
         21   -1    0    0  501  502 -0.00000000000E+00 -0.00000000000E+00 -0.37337539789E+02  0.37337539789E+02  0.00000000000E+00 0.  1.
         21    1    1    2  503  504  0.27018020545E+02  0.32926569749E+02  0.28920604490E+02  0.51483335107E+02  0.00000000000E+00 0.  1.
         21    1    1    2  504  502 -0.27018020545E+02 -0.32926569749E+02 -0.86502000250E+01  0.43462148936E+02  0.00000000000E+00 0.  1.
</event>
<event>
 4    1  0.3035432E+006  0.3131780E+02  0.7546771E-02  0.1408480E+00
         21   -1    0    0  502  501  0.00000000000E+00  0.00000000000E+00  0.13156230105E+02  0.13156230105E+02  0.00000000000E+00 0. -1.
         21   -1    0    0  504  502 -0.00000000000E+00 -0.00000000000E+00 -0.75077224853E+02  0.75077224853E+02  0.00000000000E+00 0. -1.
         21    1    1    2  503  501  0.13635003547E+02  0.28193818656E+02 -0.27265590529E+02  0.41523693947E+02  0.00000000000E+00 0. -1.
         21    1    1    2  504  503 -0.13635003547E+02 -0.28193818656E+02 -0.34655404220E+02  0.46709761011E+02  0.00000000000E+00 0. -1.
</event>
<event>
 4    1  0.3035432E+006  0.3054237E+02  0.7546771E-02  0.1414941E+00
         21   -1    0    0  502  501  0.00000000000E+00  0.00000000000E+00  0.60770093301E+02  0.60770093301E+02  0.00000000000E+00 0.  1.
         21   -1    0    0  504  502 -0.00000000000E+00 -0.00000000000E+00 -0.53223076540E+02  0.53223076540E+02  0.00000000000E+00 0. -1.
         21    1    1    2  503  501 -0.29060780014E+02 -0.93971984282E+01  0.51853312814E+02  0.60179750109E+02  0.00000000000E+00 0.  1.
         21    1    1    2  504  503  0.29060780014E+02  0.93971984282E+01 -0.44306296054E+02  0.53813419733E+02  0.00000000000E+00 0. -1.
</event>
<event>
 4    1  0.3035432E+006  0.2384889E+02  0.7546771E-02  0.1482105E+00
         21   -1    0    0  503  501  0.00000000000E+00  0.00000000000E+00  0.31399141551E+03  0.31399141551E+03  0.00000000000E+00 0. -1.
         21   -1    0    0  504  502 -0.00000000000E+00 -0.00000000000E+00 -0.32366345240E+01  0.32366345240E+01  0.00000000000E+00 0. -1.
         21    1    1    2  503  502 -0.82555663341E+00 -0.23834598310E+02  0.50124212215E+02  0.55508614381E+02  0.00000000000E+00 0. -1.
         21    1    1    2  504  501  0.82555663341E+00  0.23834598310E+02  0.26063056877E+03  0.26171943565E+03  0.00000000000E+00 0. -1.
</event>
<event>
 4    1  0.3035432E+006  0.2335087E+02  0.7546771E-02  0.1488139E+00
         21   -1    0    0  504  501  0.00000000000E+00  0.00000000000E+00  0.22152894607E+02  0.22152894607E+02  0.00000000000E+00 0. -1.
         21   -1    0    0  503  502 -0.00000000000E+00 -0.00000000000E+00 -0.24742008487E+02  0.24742008487E+02  0.00000000000E+00 0. -1.
         21    1    1    2  503  501 -0.23346191693E+02  0.46724816795E+00 -0.29835847838E+01  0.23540704441E+02  0.00000000000E+00 0. -1.
         21    1    1    2  504  502  0.23346191693E+02 -0.46724816795E+00  0.39447090325E+00  0.23354198653E+02  0.00000000000E+00 0. -1.
</event>
<event>
 4    1  0.3035432E+006  0.2287953E+02  0.7546771E-02  0.1494017E+00
         21   -1    0    0  503  501  0.00000000000E+00  0.00000000000E+00  0.25462176683E+02  0.25462176683E+02  0.00000000000E+00 0. -1.
         21   -1    0    0  504  502 -0.00000000000E+00 -0.00000000000E+00 -0.43776215299E+02  0.43776215299E+02  0.00000000000E+00 0. -1.
         21    1    1    2  503  502  0.11326957611E+02  0.19878952310E+02  0.16054816504E+02  0.27950489202E+02  0.00000000000E+00 0. -1.
         21    1    1    2  504  501 -0.11326957611E+02 -0.19878952310E+02 -0.34368855120E+02  0.41287902780E+02  0.00000000000E+00 0. -1.
</event>
<event>
 4    1  0.3035432E+006  0.2422409E+02  0.7546771E-02  0.1477674E+00
         21   -1    0    0  502  501  0.00000000000E+00  0.00000000000E+00  0.18163223312E+02  0.18163223312E+02  0.00000000000E+00 0.  1.
         21   -1    0    0  503  502 -0.00000000000E+00 -0.00000000000E+00 -0.10512156000E+03  0.10512156000E+03  0.00000000000E+00 0.  1.
         21    1    1    2  503  504 -0.23773461472E+02  0.46507121262E+01 -0.94782018341E+02  0.97828613373E+02  0.00000000000E+00 0.  1.
         21    1    1    2  504  501  0.23773461472E+02 -0.46507121262E+01  0.78236816499E+01  0.25456169943E+02  0.00000000000E+00 0.  1.
</event>
<event>
 4    1  0.3035432E+006  0.2332265E+02  0.7546771E-02  0.1488486E+00
         21   -1    0    0  504  501  0.00000000000E+00  0.00000000000E+00  0.30844536349E+03  0.30844536349E+03  0.00000000000E+00 0.  1.
         21   -1    0    0  503  502 -0.00000000000E+00 -0.00000000000E+00 -0.43947101729E+01  0.43947101729E+01  0.00000000000E+00 0.  1.
         21    1    1    2  503  501 -0.10390226662E+02 -0.20880357230E+02  0.30992185746E+02  0.38787391062E+02  0.00000000000E+00 0.  1.
         21    1    1    2  504  502  0.10390226662E+02  0.20880357230E+02  0.27305846757E+03  0.27405268260E+03  0.00000000000E+00 0.  1.
</event>
<event>
 4    1  0.3035432E+006  0.3600375E+02  0.7546771E-02  0.1373641E+00
         21   -1    0    0  504  501  0.00000000000E+00  0.00000000000E+00  0.99885676044E+02  0.99885676044E+02  0.00000000000E+00 0.  1.
         21   -1    0    0  503  502 -0.00000000000E+00 -0.00000000000E+00 -0.18500940235E+02  0.18500940235E+02  0.00000000000E+00 0.  1.
         21    1    1    2  503  501 -0.26869354845E+02 -0.23964721356E+02  0.73035276255E+02  0.81427401267E+02  0.00000000000E+00 0.  1.
         21    1    1    2  504  502  0.26869354845E+02  0.23964721356E+02  0.83494595537E+01  0.36959215012E+02  0.00000000000E+00 0.  1.
</event>
<event>
 4    1  0.3035432E+006  0.3713327E+02  0.7546771E-02  0.1366156E+00
         21   -1    0    0  503  501  0.00000000000E+00  0.00000000000E+00  0.57351932947E+02  0.57351932947E+02  0.00000000000E+00 0.  1.
         21   -1    0    0  501  502 -0.00000000000E+00 -0.00000000000E+00 -0.40249122466E+02  0.40249122466E+02  0.00000000000E+00 0.  1.
         21    1    1    2  503  504  0.35624585307E+02  0.10477054573E+02  0.39518005296E+02  0.54226861364E+02  0.00000000000E+00 0.  1.
         21    1    1    2  504  502 -0.35624585307E+02 -0.10477054573E+02 -0.22415194815E+02  0.43374194049E+02  0.00000000000E+00 0.  1.
</event>
<event>
 4    1  0.3035432E+006  0.2942682E+02  0.7546771E-02  0.1424644E+00
         21   -1    0    0  504  501  0.00000000000E+00  0.00000000000E+00  0.16675196445E+02  0.16675196445E+02  0.00000000000E+00 0.  1.
         21   -1    0    0  503  502 -0.00000000000E+00 -0.00000000000E+00 -0.14850427529E+03  0.14850427529E+03  0.00000000000E+00 0. -1.
         21    1    1    2  503  501 -0.16185768135E+02  0.24575569652E+02 -0.13251665645E+03  0.13574462033E+03  0.00000000000E+00 0. -1.
         21    1    1    2  504  502  0.16185768135E+02 -0.24575569652E+02  0.68757760384E+00  0.29434851398E+02  0.00000000000E+00 0.  1.
</event>
<event>
 4    1  0.3035432E+006  0.2164636E+02  0.7546771E-02  0.1510233E+00
         21   -1    0    0  502  501  0.00000000000E+00  0.00000000000E+00  0.45762798961E+01  0.45762798961E+01  0.00000000000E+00 0. -1.
         21   -1    0    0  503  502 -0.00000000000E+00 -0.00000000000E+00 -0.21613040397E+03  0.21613040397E+03  0.00000000000E+00 0.  1.
         21    1    1    2  503  504  0.18954776606E+02 -0.10453766846E+02 -0.18583145145E+03  0.18708792892E+03  0.00000000000E+00 0.  1.
         21    1    1    2  504  501 -0.18954776606E+02  0.10453766846E+02 -0.25722672616E+02  0.33618754943E+02  0.00000000000E+00 0. -1.
</event>
<event>
 4    1  0.3035432E+006  0.2918364E+02  0.7546771E-02  0.1426826E+00
         21   -1    0    0  504  501  0.00000000000E+00  0.00000000000E+00  0.56350483487E+02  0.56350483487E+02  0.00000000000E+00 0. -1.
         21   -1    0    0  501  502 -0.00000000000E+00 -0.00000000000E+00 -0.15460941270E+03  0.15460941270E+03  0.00000000000E+00 0.  1.
         21    1    1    2  503  502 -0.18523013714E+02 -0.22551782995E+02 -0.14932117757E+03  0.15214630795E+03  0.00000000000E+00 0.  1.
         21    1    1    2  504  503  0.18523013714E+02  0.22551782995E+02  0.51062248358E+02  0.58813588231E+02  0.00000000000E+00 0. -1.
</event>
<event>
 4    1  0.3035432E+006  0.2099365E+02  0.7546771E-02  0.1519355E+00
         21   -1    0    0  503  501  0.00000000000E+00  0.00000000000E+00  0.78570055416E+00  0.78570055416E+00  0.00000000000E+00 0. -1.
         21   -1    0    0  504  502 -0.00000000000E+00 -0.00000000000E+00 -0.86177761850E+03  0.86177761850E+03  0.00000000000E+00 0. -1.
         21    1    1    2  503  502 -0.20461834917E+02  0.46953695559E+01 -0.68531233167E+03  0.68563381270E+03  0.00000000000E+00 0. -1.
         21    1    1    2  504  501  0.20461834917E+02 -0.46953695559E+01 -0.17567958628E+03  0.17692950635E+03  0.00000000000E+00 0. -1.
</event>
<event>
 4    1  0.3035432E+006  0.2680311E+02  0.7546771E-02  0.1449596E+00
         21   -1    0    0  504  501  0.00000000000E+00  0.00000000000E+00  0.73521901297E+02  0.73521901297E+02  0.00000000000E+00 0.  1.
         21   -1    0    0  503  502 -0.00000000000E+00 -0.00000000000E+00 -0.98643730110E+01  0.98643730110E+01  0.00000000000E+00 0.  1.
         21    1    1    2  503  501 -0.20437556574E+01 -0.26725078894E+02  0.27779546720E+02  0.38601942892E+02  0.00000000000E+00 0.  1.
         21    1    1    2  504  502  0.20437556574E+01  0.26725078894E+02  0.35877981565E+02  0.44784331415E+02  0.00000000000E+00 0.  1.
</event>
<event>
 4    1  0.3035432E+006  0.2532468E+02  0.7546771E-02  0.1465204E+00
         21   -1    0    0  503  501  0.00000000000E+00  0.00000000000E+00  0.58533559370E+03  0.58533559370E+03  0.00000000000E+00 0.  1.
         21   -1    0    0  504  502 -0.00000000000E+00 -0.00000000000E+00 -0.12022783871E+01  0.12022783871E+01  0.00000000000E+00 0.  1.
         21    1    1    2  503  502 -0.14971608026E+02  0.20425235457E+02  0.20474075538E+03  0.20630103297E+03  0.00000000000E+00 0.  1.
         21    1    1    2  504  501  0.14971608026E+02 -0.20425235457E+02  0.37939255994E+03  0.38023683912E+03  0.00000000000E+00 0.  1.
</event>
<event>
 4    1  0.3035432E+006  0.2053898E+02  0.7546771E-02  0.1525950E+00
         21   -1    0    0  502  501  0.00000000000E+00  0.00000000000E+00  0.12091439277E+03  0.12091439277E+03  0.00000000000E+00 0.  1.
         21   -1    0    0  503  502 -0.00000000000E+00 -0.00000000000E+00 -0.10265896798E+02  0.10265896798E+02  0.00000000000E+00 0. -1.
         21    1    1    2  503  504  0.17091444328E+01 -0.20467738555E+02  0.20323612964E+01  0.20639282660E+02  0.00000000000E+00 0. -1.
         21    1    1    2  504  501 -0.17091444328E+01  0.20467738555E+02  0.10861613468E+03  0.11054100691E+03  0.00000000000E+00 0.  1.
</event>
<event>
 4    1  0.3035432E+006  0.2326615E+02  0.7546771E-02  0.1489183E+00
         21   -1    0    0  503  501  0.00000000000E+00  0.00000000000E+00  0.21174931549E+03  0.21174931549E+03  0.00000000000E+00 0.  1.
         21   -1    0    0  504  502 -0.00000000000E+00 -0.00000000000E+00 -0.85589512804E+02  0.85589512804E+02  0.00000000000E+00 0.  1.
         21    1    1    2  503  502  0.13690372415E+02  0.18811901008E+02  0.20951225321E+03  0.21080013795E+03  0.00000000000E+00 0.  1.
         21    1    1    2  504  501 -0.13690372415E+02 -0.18811901008E+02 -0.83352450527E+02  0.86538690337E+02  0.00000000000E+00 0.  1.
</event>
<event>
 4    1  0.3035432E+006  0.3900441E+02  0.7546771E-02  0.1354421E+00
         21   -1    0    0  504  501  0.00000000000E+00  0.00000000000E+00  0.82923012080E+02  0.82923012080E+02  0.00000000000E+00 0. -1.
         21   -1    0    0  501  502 -0.00000000000E+00 -0.00000000000E+00 -0.36329771987E+02  0.36329771987E+02  0.00000000000E+00 0.  1.
         21    1    1    2  503  502 -0.34092449016E+02 -0.18948584081E+02 -0.18654349861E+02  0.43235733917E+02  0.00000000000E+00 0.  1.
         21    1    1    2  504  503  0.34092449016E+02  0.18948584081E+02  0.65247589955E+02  0.76017050150E+02  0.00000000000E+00 0. -1.
</event>
<event>
 4    1  0.3035432E+006  0.2133214E+02  0.7546771E-02  0.1514575E+00
         21   -1    0    0  504  501  0.00000000000E+00  0.00000000000E+00  0.63560124636E+02  0.63560124636E+02  0.00000000000E+00 0.  1.
         21   -1    0    0  503  502 -0.00000000000E+00 -0.00000000000E+00 -0.12757550127E+02  0.12757550127E+02  0.00000000000E+00 0.  1.
         21    1    1    2  503  501 -0.14018743905E+02  0.16079019033E+02  0.12408068690E+00  0.21332497035E+02  0.00000000000E+00 0.  1.
         21    1    1    2  504  502  0.14018743905E+02 -0.16079019033E+02  0.50678493823E+02  0.54985177729E+02  0.00000000000E+00 0.  1.
</event>
<event>
 4    1  0.3035432E+006  0.4264974E+02  0.7546771E-02  0.1333621E+00
         21   -1    0    0  504  501  0.00000000000E+00  0.00000000000E+00  0.10198915846E+02  0.10198915846E+02  0.00000000000E+00 0. -1.
         21   -1    0    0  503  502 -0.00000000000E+00 -0.00000000000E+00 -0.77296673230E+03  0.77296673230E+03  0.00000000000E+00 0. -1.
         21    1    1    2  503  501  0.39582656983E+02 -0.15881238052E+02 -0.37935946703E+02  0.57080088544E+02  0.00000000000E+00 0. -1.
         21    1    1    2  504  502 -0.39582656983E+02  0.15881238052E+02 -0.72483186976E+03  0.72608555961E+03  0.00000000000E+00 0. -1.
</event>
<event>
 4    1  0.3035432E+006  0.5432272E+02  0.7546771E-02  0.1280445E+00
         21   -1    0    0  503  501  0.00000000000E+00  0.00000000000E+00  0.20503302808E+02  0.20503302808E+02  0.00000000000E+00 0.  1.
         21   -1    0    0  504  502 -0.00000000000E+00 -0.00000000000E+00 -0.68707887054E+03  0.68707887054E+03  0.00000000000E+00 0.  1.
         21    1    1    2  503  502  0.19042657862E+02 -0.50875677523E+02 -0.18726948642E+02  0.57460038177E+02  0.00000000000E+00 0.  1.
         21    1    1    2  504  501 -0.19042657862E+02  0.50875677523E+02 -0.64784861909E+03  0.65012213517E+03  0.00000000000E+00 0.  1.
</event>
<event>
 4    1  0.3035432E+006  0.2283500E+02  0.7546771E-02  0.1494581E+00
         21   -1    0    0  503  501  0.00000000000E+00  0.00000000000E+00  0.14817715552E+03  0.14817715552E+03  0.00000000000E+00 0.  1.
         21   -1    0    0  504  502 -0.00000000000E+00 -0.00000000000E+00 -0.12901982123E+02  0.12901982123E+02  0.00000000000E+00 0.  1.
         21    1    1    2  503  502  0.22129610882E+02 -0.56318204349E+01  0.13632090453E+03  0.13822020869E+03  0.00000000000E+00 0.  1.
         21    1    1    2  504  501 -0.22129610882E+02  0.56318204349E+01 -0.10457311313E+01  0.22858928952E+02  0.00000000000E+00 0.  1.
</event>
<event>
 4    1  0.3035432E+006  0.2317732E+02  0.7546771E-02  0.1490283E+00
         21   -1    0    0  504  501  0.00000000000E+00  0.00000000000E+00  0.52979995485E+02  0.52979995485E+02  0.00000000000E+00 0.  1.
         21   -1    0    0  503  502 -0.00000000000E+00 -0.00000000000E+00 -0.10429555870E+03  0.10429555870E+03  0.00000000000E+00 0.  1.
         21    1    1    2  503  501 -0.23021271103E+02  0.26849782706E+01  0.49059759492E+02  0.54259082493E+02  0.00000000000E+00 0.  1.
         21    1    1    2  504  502  0.23021271103E+02 -0.26849782706E+01 -0.10037532271E+03  0.10301647169E+03  0.00000000000E+00 0.  1.
</event>
<event>
 4    1  0.3035432E+006  0.2133043E+02  0.7546771E-02  0.1514599E+00
         21   -1    0    0  504  501  0.00000000000E+00  0.00000000000E+00  0.43320930722E+01  0.43320930722E+01  0.00000000000E+00 0.  1.
         21   -1    0    0  503  502 -0.00000000000E+00 -0.00000000000E+00 -0.16130240049E+03  0.16130240049E+03  0.00000000000E+00 0. -1.
         21    1    1    2  503  501 -0.20187107246E+02  0.68896962995E+01 -0.12740208982E+03  0.12917538351E+03  0.00000000000E+00 0. -1.
         21    1    1    2  504  502  0.20187107246E+02 -0.68896962995E+01 -0.29568217602E+02  0.36459110058E+02  0.00000000000E+00 0.  1.
</event>
<event>
 4    1  0.3035432E+006  0.2507617E+02  0.7546771E-02  0.1467953E+00
         21   -1    0    0  502  501  0.00000000000E+00  0.00000000000E+00  0.73276075343E+02  0.73276075343E+02  0.00000000000E+00 0. -1.
         21   -1    0    0  503  502 -0.00000000000E+00 -0.00000000000E+00 -0.35693503713E+03  0.35693503713E+03  0.00000000000E+00 0.  1.
         21    1    1    2  503  504 -0.24902792124E+02 -0.29437110035E+01 -0.35433351829E+03  0.35521973013E+03  0.00000000000E+00 0.  1.
         21    1    1    2  504  501  0.24902792124E+02  0.29437110035E+01  0.70674556499E+02  0.74991382347E+02  0.00000000000E+00 0. -1.
</event>
<event>
 4    1  0.3035432E+006  0.2348564E+02  0.7546771E-02  0.1486488E+00
         21   -1    0    0  503  501  0.00000000000E+00  0.00000000000E+00  0.49860827220E+03  0.49860827220E+03  0.00000000000E+00 0.  1.
         21   -1    0    0  504  502 -0.00000000000E+00 -0.00000000000E+00 -0.36890052001E+01  0.36890052001E+01  0.00000000000E+00 0. -1.
         21    1    1    2  503  502 -0.23401197614E+02  0.19898299819E+01  0.45760484152E+03  0.45820712179E+03  0.00000000000E+00 0.  1.
         21    1    1    2  504  501  0.23401197614E+02 -0.19898299819E+01  0.37314425477E+02  0.44090155611E+02  0.00000000000E+00 0. -1.
</event>
<event>
 4    1  0.3035432E+006  0.3380317E+02  0.7546771E-02  0.1389178E+00
         21   -1    0    0  503  501  0.00000000000E+00  0.00000000000E+00  0.31414072026E+01  0.31414072026E+01  0.00000000000E+00 0. -1.
         21   -1    0    0  504  502 -0.00000000000E+00 -0.00000000000E+00 -0.62891622847E+03  0.62891622847E+03  0.00000000000E+00 0. -1.
         21    1    1    2  503  502  0.80881930948E+01 -0.32821268200E+02 -0.10767773862E+03  0.11285898240E+03  0.00000000000E+00 0. -1.
         21    1    1    2  504  501 -0.80881930948E+01  0.32821268200E+02 -0.51809708264E+03  0.51919865327E+03  0.00000000000E+00 0. -1.
</event>
<event>
 4    1  0.3035432E+006  0.2441471E+02  0.7546771E-02  0.1475459E+00
         21   -1    0    0  504  501  0.00000000000E+00  0.00000000000E+00  0.10725229545E+02  0.10725229545E+02  0.00000000000E+00 0.  1.
         21   -1    0    0  503  502 -0.00000000000E+00 -0.00000000000E+00 -0.17887605808E+03  0.17887605808E+03  0.00000000000E+00 0. -1.
         21    1    1    2  503  501  0.23923363897E+02 -0.48734635862E+01 -0.53681630099E+01  0.24997903143E+02  0.00000000000E+00 0.  1.
         21    1    1    2  504  502 -0.23923363897E+02  0.48734635862E+01 -0.16278266552E+03  0.16460338448E+03  0.00000000000E+00 0. -1.
</event>
<event>
 4    1  0.3035432E+006  0.2819630E+02  0.7546771E-02  0.1435948E+00
         21   -1    0    0  503  501  0.00000000000E+00  0.00000000000E+00  0.66428033595E+02  0.66428033595E+02  0.00000000000E+00 0.  1.
         21   -1    0    0  501  502 -0.00000000000E+00 -0.00000000000E+00 -0.50745708359E+02  0.50745708359E+02  0.00000000000E+00 0.  1.
         21    1    1    2  503  504  0.32972567479E+01  0.28002844979E+02  0.59055314380E+02  0.65441281967E+02  0.00000000000E+00 0.  1.
         21    1    1    2  504  502 -0.32972567479E+01 -0.28002844979E+02 -0.43372989144E+02  0.51732459987E+02  0.00000000000E+00 0.  1.
</event>
<event>
 4    1  0.3035432E+006  0.2014909E+02  0.7546771E-02  0.1531769E+00
         21   -1    0    0  504  501  0.00000000000E+00  0.00000000000E+00  0.17349517937E+02  0.17349517937E+02  0.00000000000E+00 0.  1.
         21   -1    0    0  503  502 -0.00000000000E+00 -0.00000000000E+00 -0.26243870238E+02  0.26243870238E+02  0.00000000000E+00 0.  1.
         21    1    1    2  503  501 -0.15029437557E+02  0.13420200295E+02 -0.11621823325E+02  0.23260536250E+02  0.00000000000E+00 0.  1.
         21    1    1    2  504  502  0.15029437557E+02 -0.13420200295E+02  0.27274710243E+01  0.20332851925E+02  0.00000000000E+00 0.  1.
</event>
<event>
 4    1  0.3035432E+006  0.2818189E+02  0.7546771E-02  0.1436084E+00
         21   -1    0    0  503  501  0.00000000000E+00  0.00000000000E+00  0.11998025319E+04  0.11998025319E+04  0.00000000000E+00 0. -1.
         21   -1    0    0  501  502 -0.00000000000E+00 -0.00000000000E+00 -0.64900093829E+01  0.64900093829E+01  0.00000000000E+00 0.  1.
         21    1    1    2  503  504 -0.64305009869E+01 -0.27438433210E+02  0.11682160515E+04  0.11685559302E+04  0.00000000000E+00 0. -1.
         21    1    1    2  504  502  0.64305009869E+01  0.27438433210E+02  0.25096470995E+02  0.37736611088E+02  0.00000000000E+00 0.  1.
</event>
<event>
 4    1  0.3035432E+006  0.3355820E+02  0.7546771E-02  0.1390993E+00
         21   -1    0    0  503  501  0.00000000000E+00  0.00000000000E+00  0.35337676910E+02  0.35337676910E+02  0.00000000000E+00 0.  1.
         21   -1    0    0  504  502 -0.00000000000E+00 -0.00000000000E+00 -0.33341101192E+02  0.33341101192E+02  0.00000000000E+00 0.  1.
         21    1    1    2  503  502 -0.19046415700E+02  0.27629458968E+02 -0.62189227820E+01  0.34129575948E+02  0.00000000000E+00 0.  1.
         21    1    1    2  504  501  0.19046415700E+02 -0.27629458968E+02  0.82154985000E+01  0.34549202154E+02  0.00000000000E+00 0.  1.
</event>
<event>
 4    1  0.3035432E+006  0.5162692E+02  0.7546771E-02  0.1291269E+00
         21   -1    0    0  502  501  0.00000000000E+00  0.00000000000E+00  0.55676186714E+03  0.55676186714E+03  0.00000000000E+00 0. -1.
         21   -1    0    0  503  502 -0.00000000000E+00 -0.00000000000E+00 -0.13262928156E+02  0.13262928156E+02  0.00000000000E+00 0.  1.
         21    1    1    2  503  504  0.76669467753E+01  0.51054451169E+02  0.43908324365E+02  0.67773741269E+02  0.00000000000E+00 0.  1.
         21    1    1    2  504  501 -0.76669467753E+01 -0.51054451169E+02  0.49959061462E+03  0.50225105403E+03  0.00000000000E+00 0. -1.
</event>
<event>
 4    1  0.3035432E+006  0.2229585E+02  0.7546771E-02  0.1501535E+00
         21   -1    0    0  503  501  0.00000000000E+00  0.00000000000E+00  0.32324780084E+03  0.32324780084E+03  0.00000000000E+00 0. -1.
         21   -1    0    0  504  502 -0.00000000000E+00 -0.00000000000E+00 -0.14713605577E+02  0.14713605577E+02  0.00000000000E+00 0. -1.
         21    1    1    2  503  502 -0.22212470427E+02 -0.19264658105E+01 -0.56391382648E+01  0.22997934546E+02  0.00000000000E+00 0. -1.
         21    1    1    2  504  501  0.22212470427E+02  0.19264658105E+01  0.31417333353E+03  0.31496347187E+03  0.00000000000E+00 0. -1.
</event>
<event>
 4    1  0.3035432E+006  0.2003168E+02  0.7546771E-02  0.1533552E+00
         21   -1    0    0  503  501  0.00000000000E+00  0.00000000000E+00  0.49203451645E+02  0.49203451645E+02  0.00000000000E+00 0.  1.
         21   -1    0    0  501  502 -0.00000000000E+00 -0.00000000000E+00 -0.86240416488E+02  0.86240416488E+02  0.00000000000E+00 0. -1.
         21    1    1    2  503  504  0.12202246201E+02  0.15886264778E+02  0.45921898676E+02  0.50100788406E+02  0.00000000000E+00 0.  1.
         21    1    1    2  504  502 -0.12202246201E+02 -0.15886264778E+02 -0.82958863519E+02  0.85343079727E+02  0.00000000000E+00 0. -1.
</event>
<event>
 4    1  0.3035432E+006  0.2074566E+02  0.7546771E-02  0.1522927E+00
         21   -1    0    0  504  501  0.00000000000E+00  0.00000000000E+00  0.23499142563E+02  0.23499142563E+02  0.00000000000E+00 0.  1.
         21   -1    0    0  503  502 -0.00000000000E+00 -0.00000000000E+00 -0.24784030626E+02  0.24784030626E+02  0.00000000000E+00 0.  1.
         21    1    1    2  503  501  0.30637592183E+01  0.20518177288E+02 -0.12976501869E+02  0.24469814477E+02  0.00000000000E+00 0.  1.
         21    1    1    2  504  502 -0.30637592183E+01 -0.20518177288E+02  0.11691613807E+02  0.23813358713E+02  0.00000000000E+00 0.  1.
</event>
<event>
 4    1  0.3035432E+006  0.4102884E+02  0.7546771E-02  0.1342560E+00
         21   -1    0    0  504  501  0.00000000000E+00  0.00000000000E+00  0.17783236875E+02  0.17783236875E+02  0.00000000000E+00 0.  1.
         21   -1    0    0  501  502 -0.00000000000E+00 -0.00000000000E+00 -0.96587919891E+02  0.96587919891E+02  0.00000000000E+00 0.  1.
         21    1    1    2  503  502  0.92188534573E+01  0.39979730317E+02 -0.47480988145E+02  0.62751974714E+02  0.00000000000E+00 0.  1.
         21    1    1    2  504  503 -0.92188534573E+01 -0.39979730317E+02 -0.31323694871E+02  0.51619182051E+02  0.00000000000E+00 0.  1.
</event>
<event>
 4    1  0.3035432E+006  0.3164166E+02  0.7546771E-02  0.1405847E+00
         21   -1    0    0  503  501  0.00000000000E+00  0.00000000000E+00  0.68209073200E+02  0.68209073200E+02  0.00000000000E+00 0. -1.
         21   -1    0    0  504  502 -0.00000000000E+00 -0.00000000000E+00 -0.19117643563E+02  0.19117643563E+02  0.00000000000E+00 0. -1.
         21    1    1    2  503  502 -0.22942146702E+02 -0.21791104650E+02  0.45586335516E+02  0.55491515775E+02  0.00000000000E+00 0. -1.
         21    1    1    2  504  501  0.22942146702E+02  0.21791104650E+02  0.35050941205E+01  0.31835200988E+02  0.00000000000E+00 0. -1.
</event>
<event>
 4    1  0.3035432E+006  0.2419452E+02  0.7546771E-02  0.1478020E+00
         21   -1    0    0  504  501  0.00000000000E+00  0.00000000000E+00  0.15595840459E+03  0.15595840459E+03  0.00000000000E+00 0. -1.
         21   -1    0    0  503  502 -0.00000000000E+00 -0.00000000000E+00 -0.11563968921E+02  0.11563968921E+02  0.00000000000E+00 0. -1.
         21    1    1    2  503  501  0.18859258867E+02  0.15155967552E+02  0.33588491634E+01  0.24426560649E+02  0.00000000000E+00 0. -1.
         21    1    1    2  504  502 -0.18859258867E+02 -0.15155967552E+02  0.14103558651E+03  0.14309581286E+03  0.00000000000E+00 0. -1.
</event>
<event>
 4    1  0.3035432E+006  0.7954616E+02  0.7546771E-02  0.1204905E+00
         21   -1    0    0  504  501  0.00000000000E+00  0.00000000000E+00  0.35291561287E+03  0.35291561287E+03  0.00000000000E+00 0.  1.
         21   -1    0    0  503  502 -0.00000000000E+00 -0.00000000000E+00 -0.19035814521E+02  0.19035814521E+02  0.00000000000E+00 0. -1.
         21    1    1    2  503  501  0.72783633816E+02 -0.32095711149E+02  0.21177462421E+03  0.22622131528E+03  0.00000000000E+00 0.  1.
         21    1    1    2  504  502 -0.72783633816E+02  0.32095711149E+02  0.12210517414E+03  0.14573011211E+03  0.00000000000E+00 0. -1.
</event>
<event>
 4    1  0.3035432E+006  0.2134038E+02  0.7546771E-02  0.1514460E+00
         21   -1    0    0  504  501  0.00000000000E+00  0.00000000000E+00  0.14294696469E+03  0.14294696469E+03  0.00000000000E+00 0. -1.
         21   -1    0    0  503  502 -0.00000000000E+00 -0.00000000000E+00 -0.32467168228E+01  0.32467168228E+01  0.00000000000E+00 0. -1.
         21    1    1    2  503  501  0.82275236483E+01 -0.19690602108E+02  0.79856058159E+02  0.82658344899E+02  0.00000000000E+00 0. -1.
         21    1    1    2  504  502 -0.82275236483E+01  0.19690602108E+02  0.59844189704E+02  0.63535336609E+02  0.00000000000E+00 0. -1.
</event>
<event>
 4    1  0.3035432E+006  0.2708669E+02  0.7546771E-02  0.1446739E+00
         21   -1    0    0  504  501  0.00000000000E+00  0.00000000000E+00  0.19049803806E+03  0.19049803806E+03  0.00000000000E+00 0.  1.
         21   -1    0    0  503  502 -0.00000000000E+00 -0.00000000000E+00 -0.53264421992E+01  0.53264421992E+01  0.00000000000E+00 0. -1.
         21    1    1    2  503  501  0.24323716482E+02  0.11918282804E+02  0.14411069335E+03  0.14663417264E+03  0.00000000000E+00 0.  1.
         21    1    1    2  504  502 -0.24323716482E+02 -0.11918282804E+02  0.41060902510E+02  0.49190307616E+02  0.00000000000E+00 0. -1.
</event>
<event>
 4    1  0.3035432E+006  0.4355423E+02  0.7546771E-02  0.1328829E+00
         21   -1    0    0  504  501  0.00000000000E+00  0.00000000000E+00  0.43916708209E+03  0.43916708209E+03  0.00000000000E+00 0.  1.
         21   -1    0    0  503  502 -0.00000000000E+00 -0.00000000000E+00 -0.60650539336E+03  0.60650539336E+03  0.00000000000E+00 0. -1.
         21    1    1    2  503  501  0.37660193482E+02 -0.21878782024E+02  0.43730195978E+03  0.43946555644E+03  0.00000000000E+00 0.  1.
         21    1    1    2  504  502 -0.37660193482E+02  0.21878782024E+02 -0.60464027105E+03  0.60620691901E+03  0.00000000000E+00 0. -1.
</event>
<event>
 4    1  0.3035432E+006  0.3250250E+02  0.7546771E-02  0.1399026E+00
         21   -1    0    0  504  501  0.00000000000E+00  0.00000000000E+00  0.10759968647E+02  0.10759968647E+02  0.00000000000E+00 0.  1.
         21   -1    0    0  503  502 -0.00000000000E+00 -0.00000000000E+00 -0.10640414191E+03  0.10640414191E+03  0.00000000000E+00 0.  1.
         21    1    1    2  503  501  0.24254987706E+02 -0.21635798957E+02 -0.64108832053E+02  0.71877357855E+02  0.00000000000E+00 0.  1.
         21    1    1    2  504  502 -0.24254987706E+02  0.21635798957E+02 -0.31535341213E+02  0.45286752704E+02  0.00000000000E+00 0.  1.
</event>
<event>
 4    1  0.3035432E+006  0.2516339E+02  0.7546771E-02  0.1466984E+00
         21   -1    0    0  503  501  0.00000000000E+00  0.00000000000E+00  0.11792339662E+01  0.11792339662E+01  0.00000000000E+00 0. -1.
         21   -1    0    0  504  502 -0.00000000000E+00 -0.00000000000E+00 -0.74165446092E+03  0.74165446092E+03  0.00000000000E+00 0. -1.
         21    1    1    2  503  502 -0.20869627335E+02  0.14058984308E+02 -0.17511014370E+03  0.17690889975E+03  0.00000000000E+00 0. -1.
         21    1    1    2  504  501  0.20869627335E+02 -0.14058984308E+02 -0.56536508326E+03  0.56592479514E+03  0.00000000000E+00 0. -1.
</event>
<event>
 4    1  0.3035432E+006  0.2032823E+02  0.7546771E-02  0.1529076E+00
         21   -1    0    0  503  501  0.00000000000E+00  0.00000000000E+00  0.17809037234E+02  0.17809037234E+02  0.00000000000E+00 0.  1.
         21   -1    0    0  504  502 -0.00000000000E+00 -0.00000000000E+00 -0.19984288261E+03  0.19984288261E+03  0.00000000000E+00 0. -1.
         21    1    1    2  503  502  0.33755948914E+01  0.20045999764E+02 -0.19333010781E+03  0.19439590359E+03  0.00000000000E+00 0. -1.
         21    1    1    2  504  501 -0.33755948914E+01 -0.20045999764E+02  0.11296262428E+02  0.23256016259E+02  0.00000000000E+00 0.  1.
</event>
<event>
 4    1  0.3035432E+006  0.2208013E+02  0.7546771E-02  0.1504384E+00
         21   -1    0    0  504  501  0.00000000000E+00  0.00000000000E+00  0.29876882235E+03  0.29876882235E+03  0.00000000000E+00 0. -1.
         21   -1    0    0  501  502 -0.00000000000E+00 -0.00000000000E+00 -0.52738715668E+01  0.52738715668E+01  0.00000000000E+00 0. -1.
         21    1    1    2  503  502  0.22080092434E+02  0.40801164446E-01  0.20415349821E+02  0.30071891443E+02  0.00000000000E+00 0. -1.
         21    1    1    2  504  503 -0.22080092434E+02 -0.40801164446E-01  0.27307960096E+03  0.27397080247E+03  0.00000000000E+00 0. -1.
</event>
<event>
 4    1  0.3035432E+006  0.2240148E+02  0.7546771E-02  0.1500154E+00
         21   -1    0    0  503  501  0.00000000000E+00  0.00000000000E+00  0.15252471896E+01  0.15252471896E+01  0.00000000000E+00 0. -1.
         21   -1    0    0  501  502 -0.00000000000E+00 -0.00000000000E+00 -0.34570670682E+03  0.34570670682E+03  0.00000000000E+00 0. -1.
         21    1    1    2  503  504 -0.49610492349E+01  0.21845233381E+02 -0.13393923865E+03  0.13579965347E+03  0.00000000000E+00 0. -1.
         21    1    1    2  504  502  0.49610492349E+01 -0.21845233381E+02 -0.21024222098E+03  0.21143230054E+03  0.00000000000E+00 0. -1.
</event>
<event>
 4    1  0.3035432E+006  0.3152201E+02  0.7546771E-02  0.1406816E+00
         21   -1    0    0  504  501  0.00000000000E+00  0.00000000000E+00  0.21136810113E+02  0.21136810113E+02  0.00000000000E+00 0. -1.
         21   -1    0    0  503  502 -0.00000000000E+00 -0.00000000000E+00 -0.47865726967E+02  0.47865726967E+02  0.00000000000E+00 0. -1.
         21    1    1    2  503  501  0.17571812494E+02 -0.26169997744E+02 -0.17978050218E+02  0.36288395747E+02  0.00000000000E+00 0. -1.
         21    1    1    2  504  502 -0.17571812494E+02  0.26169997744E+02 -0.87508666358E+01  0.32714141332E+02  0.00000000000E+00 0. -1.
</event>
<event>
 4    1  0.3035432E+006  0.2134070E+02  0.7546771E-02  0.1514456E+00
         21   -1    0    0  503  501  0.00000000000E+00  0.00000000000E+00  0.13952330040E+02  0.13952330040E+02  0.00000000000E+00 0. -1.
         21   -1    0    0  504  502 -0.00000000000E+00 -0.00000000000E+00 -0.43376696446E+02  0.43376696446E+02  0.00000000000E+00 0. -1.
         21    1    1    2  503  502 -0.19870735642E+02 -0.77832770628E+01 -0.28972216088E+02  0.35983535705E+02  0.00000000000E+00 0. -1.
         21    1    1    2  504  501  0.19870735642E+02  0.77832770628E+01 -0.45215031811E+00  0.21345490781E+02  0.00000000000E+00 0. -1.
</event>
<event>
 4    1  0.3035432E+006  0.2009647E+02  0.7546771E-02  0.1532566E+00
         21   -1    0    0  502  501  0.00000000000E+00  0.00000000000E+00  0.55849515938E+02  0.55849515938E+02  0.00000000000E+00 0. -1.
         21   -1    0    0  504  502 -0.00000000000E+00 -0.00000000000E+00 -0.78040857766E+03  0.78040857766E+03  0.00000000000E+00 0.  1.
         21    1    1    2  503  501 -0.13516056554E+02  0.14872260944E+02  0.53907790437E+02  0.57531885074E+02  0.00000000000E+00 0. -1.
         21    1    1    2  504  503  0.13516056554E+02 -0.14872260944E+02 -0.77846685216E+03  0.77872620853E+03  0.00000000000E+00 0.  1.
</event>
<event>
 4    1  0.3035432E+006  0.2963385E+02  0.7546771E-02  0.1422805E+00
         21   -1    0    0  503  501  0.00000000000E+00  0.00000000000E+00  0.79706235000E+02  0.79706235000E+02  0.00000000000E+00 0. -1.
         21   -1    0    0  501  502 -0.00000000000E+00 -0.00000000000E+00 -0.21845477068E+02  0.21845477068E+02  0.00000000000E+00 0.  1.
         21    1    1    2  503  504 -0.28006919655E+01 -0.29501202550E+02  0.64678218753E+02  0.71143775613E+02  0.00000000000E+00 0. -1.
         21    1    1    2  504  502  0.28006919655E+01  0.29501202550E+02 -0.68174608207E+01  0.30407936455E+02  0.00000000000E+00 0.  1.
</event>
<event>
 4    1  0.3035432E+006  0.2309527E+02  0.7546771E-02  0.1491305E+00
         21   -1    0    0  503  501  0.00000000000E+00  0.00000000000E+00  0.68616364522E+01  0.68616364522E+01  0.00000000000E+00 0. -1.
         21   -1    0    0  504  502 -0.00000000000E+00 -0.00000000000E+00 -0.14466717107E+03  0.14466717107E+03  0.00000000000E+00 0. -1.
         21    1    1    2  503  502  0.21544722975E+02 -0.83196492861E+01 -0.17368445650E+02  0.28897310543E+02  0.00000000000E+00 0. -1.
         21    1    1    2  504  501 -0.21544722975E+02  0.83196492861E+01 -0.12043708897E+03  0.12263149698E+03  0.00000000000E+00 0. -1.
</event>
<event>
 4    1  0.3035432E+006  0.3160155E+02  0.7546771E-02  0.1406171E+00
         21   -1    0    0  502  501  0.00000000000E+00  0.00000000000E+00  0.49137636354E+01  0.49137636354E+01  0.00000000000E+00 0. -1.
         21   -1    0    0  503  502 -0.00000000000E+00 -0.00000000000E+00 -0.26971922376E+03  0.26971922376E+03  0.00000000000E+00 0. -1.
         21    1    1    2  503  504 -0.18349273476E+02 -0.25728624112E+02 -0.20057691461E+03  0.20305111821E+03  0.00000000000E+00 0. -1.
         21    1    1    2  504  501  0.18349273476E+02  0.25728624112E+02 -0.64228545518E+02  0.71581869179E+02  0.00000000000E+00 0. -1.
</event>
<event>
 4    1  0.3035432E+006  0.3366218E+02  0.7546771E-02  0.1390220E+00
         21   -1    0    0  504  501  0.00000000000E+00  0.00000000000E+00  0.65299719075E+03  0.65299719075E+03  0.00000000000E+00 0. -1.
         21   -1    0    0  503  502 -0.00000000000E+00 -0.00000000000E+00 -0.19867747022E+01  0.19867747022E+01  0.00000000000E+00 0. -1.
         21    1    1    2  503  501  0.16698579886E+02 -0.29228407500E+02  0.44201926902E+03  0.44329919531E+03  0.00000000000E+00 0. -1.
         21    1    1    2  504  502 -0.16698579886E+02  0.29228407500E+02  0.20899114702E+03  0.21168477014E+03  0.00000000000E+00 0. -1.
</event>
<event>
 4    1  0.3035432E+006  0.2175271E+02  0.7546771E-02  0.1508784E+00
         21   -1    0    0  503  501  0.00000000000E+00  0.00000000000E+00  0.52953347933E+01  0.52953347933E+01  0.00000000000E+00 0.  1.
         21   -1    0    0  504  502 -0.00000000000E+00 -0.00000000000E+00 -0.19879575831E+03  0.19879575831E+03  0.00000000000E+00 0.  1.
         21    1    1    2  503  502  0.13748818602E+02 -0.16856758564E+02 -0.17246385947E+03  0.17383027109E+03  0.00000000000E+00 0.  1.
         21    1    1    2  504  501 -0.13748818602E+02  0.16856758564E+02 -0.21036564041E+02  0.30260822012E+02  0.00000000000E+00 0.  1.
</event>
<event>
 4    1  0.3035432E+006  0.2040699E+02  0.7546771E-02  0.1527902E+00
         21   -1    0    0  503  501  0.00000000000E+00  0.00000000000E+00  0.30185525155E+01  0.30185525155E+01  0.00000000000E+00 0.  1.
         21   -1    0    0  501  502 -0.00000000000E+00 -0.00000000000E+00 -0.84018776040E+03  0.84018776040E+03  0.00000000000E+00 0. -1.
         21    1    1    2  503  504 -0.42375981451E+01 -0.19962167321E+02 -0.33147006678E+02  0.38925177121E+02  0.00000000000E+00 0.  1.
         21    1    1    2  504  502  0.42375981451E+01  0.19962167321E+02 -0.80402220121E+03  0.80428113580E+03  0.00000000000E+00 0. -1.
</event>
<event>
 4    1  0.3035432E+006  0.2148257E+02  0.7546771E-02  0.1512485E+00
         21   -1    0    0  504  501  0.00000000000E+00  0.00000000000E+00  0.70997262568E+02  0.70997262568E+02  0.00000000000E+00 0.  1.
         21   -1    0    0  501  502 -0.00000000000E+00 -0.00000000000E+00 -0.87223883333E+01  0.87223883333E+01  0.00000000000E+00 0.  1.
         21    1    1    2  503  502  0.20022488814E+02  0.77846543715E+01  0.11018643895E+02  0.24143558464E+02  0.00000000000E+00 0.  1.
         21    1    1    2  504  503 -0.20022488814E+02 -0.77846543715E+01  0.51256230339E+02  0.55576092437E+02  0.00000000000E+00 0.  1.
</event>
<event>
 4    1  0.3035432E+006  0.2561188E+02  0.7546771E-02  0.1462073E+00
         21   -1    0    0  502  501  0.00000000000E+00  0.00000000000E+00  0.65518410776E+02  0.65518410776E+02  0.00000000000E+00 0.  1.
         21   -1    0    0  504  502 -0.00000000000E+00 -0.00000000000E+00 -0.40136438732E+02  0.40136438732E+02  0.00000000000E+00 0. -1.
         21    1    1    2  503  501 -0.59992151337E+01  0.24899351484E+02  0.58457699753E+02  0.63822182248E+02  0.00000000000E+00 0.  1.
         21    1    1    2  504  503  0.59992151337E+01 -0.24899351484E+02 -0.33075727709E+02  0.41832667259E+02  0.00000000000E+00 0. -1.
</event>
<event>
 4    1  0.3035432E+006  0.2103476E+02  0.7546771E-02  0.1518769E+00
         21   -1    0    0  503  501  0.00000000000E+00  0.00000000000E+00  0.33185708864E+02  0.33185708864E+02  0.00000000000E+00 0. -1.
         21   -1    0    0  504  502 -0.00000000000E+00 -0.00000000000E+00 -0.16494973295E+02  0.16494973295E+02  0.00000000000E+00 0. -1.
         21    1    1    2  503  502 -0.93452771086E+00 -0.21013986230E+02  0.19221370901E+02  0.28494246062E+02  0.00000000000E+00 0. -1.
         21    1    1    2  504  501  0.93452771086E+00  0.21013986230E+02 -0.25306353309E+01  0.21186436097E+02  0.00000000000E+00 0. -1.
</event>
<event>
 4    1  0.3035432E+006  0.3345304E+02  0.7546771E-02  0.1391777E+00
         21   -1    0    0  503  501  0.00000000000E+00  0.00000000000E+00  0.78648533302E+03  0.78648533302E+03  0.00000000000E+00 0. -1.
         21   -1    0    0  504  502 -0.00000000000E+00 -0.00000000000E+00 -0.18182704896E+01  0.18182704896E+01  0.00000000000E+00 0. -1.
         21    1    1    2  503  502 -0.24691915145E+02 -0.22570228310E+02  0.20854208586E+03  0.21120820878E+03  0.00000000000E+00 0. -1.
         21    1    1    2  504  501  0.24691915145E+02  0.22570228310E+02  0.57612497667E+03  0.57709539473E+03  0.00000000000E+00 0. -1.
</event>
<event>
 4    1  0.3035432E+006  0.2718528E+02  0.7546771E-02  0.1445756E+00
         21   -1    0    0  502  501  0.00000000000E+00  0.00000000000E+00  0.40914338422E+02  0.40914338422E+02  0.00000000000E+00 0. -1.
         21   -1    0    0  503  502 -0.00000000000E+00 -0.00000000000E+00 -0.10969558937E+03  0.10969558937E+03  0.00000000000E+00 0. -1.
         21    1    1    2  503  504  0.19539666776E+02  0.18900814554E+02 -0.10321682489E+03  0.10673683671E+03  0.00000000000E+00 0. -1.
         21    1    1    2  504  501 -0.19539666776E+02 -0.18900814554E+02  0.34435573947E+02  0.43873091087E+02  0.00000000000E+00 0. -1.
</event>
<event>
 4    1  0.3035432E+006  0.2233497E+02  0.7546771E-02  0.1501022E+00
         21   -1    0    0  503  501  0.00000000000E+00  0.00000000000E+00  0.38880705716E+03  0.38880705716E+03  0.00000000000E+00 0. -1.
         21   -1    0    0  504  502 -0.00000000000E+00 -0.00000000000E+00 -0.13578750864E+01  0.13578750864E+01  0.00000000000E+00 0. -1.
         21    1    1    2  503  502  0.22094325945E+02  0.32697825307E+01  0.14792380071E+03  0.14960047303E+03  0.00000000000E+00 0. -1.
         21    1    1    2  504  501 -0.22094325945E+02 -0.32697825307E+01  0.23952538137E+03  0.24056445921E+03  0.00000000000E+00 0. -1.
</event>
<event>
 4    1  0.3035432E+006  0.2549031E+02  0.7546771E-02  0.1463392E+00
         21   -1    0    0  504  501  0.00000000000E+00  0.00000000000E+00  0.16744280621E+03  0.16744280621E+03  0.00000000000E+00 0.  1.
         21   -1    0    0  501  502 -0.00000000000E+00 -0.00000000000E+00 -0.50893301917E+01  0.50893301917E+01  0.00000000000E+00 0.  1.
         21    1    1    2  503  502  0.19561500270E+02  0.16343311394E+02  0.39133278645E+02  0.46702993669E+02  0.00000000000E+00 0.  1.
         21    1    1    2  504  503 -0.19561500270E+02 -0.16343311394E+02  0.12322019737E+03  0.12582914273E+03  0.00000000000E+00 0.  1.
</event>
<event>
 4    1  0.3035432E+006  0.2099832E+02  0.7546771E-02  0.1519289E+00
         21   -1    0    0  503  501  0.00000000000E+00  0.00000000000E+00  0.80540092683E+02  0.80540092683E+02  0.00000000000E+00 0. -1.
         21   -1    0    0  504  502 -0.00000000000E+00 -0.00000000000E+00 -0.62124701716E+01  0.62124701716E+01  0.00000000000E+00 0. -1.
         21    1    1    2  503  502 -0.18083369902E+02 -0.10673387144E+02  0.52112155027E+02  0.56183682343E+02  0.00000000000E+00 0. -1.
         21    1    1    2  504  501  0.18083369902E+02  0.10673387144E+02  0.22215467484E+02  0.30568880511E+02  0.00000000000E+00 0. -1.
</event>
<event>
 4    1  0.3035432E+006  0.3536262E+02  0.7546771E-02  0.1378032E+00
         21   -1    0    0  503  501  0.00000000000E+00  0.00000000000E+00  0.46835402023E+03  0.46835402023E+03  0.00000000000E+00 0. -1.
         21   -1    0    0  504  502 -0.00000000000E+00 -0.00000000000E+00 -0.72568543313E+01  0.72568543313E+01  0.00000000000E+00 0.  1.
         21    1    1    2  503  502  0.94315337497E+01  0.34081685987E+02  0.41961049660E+03  0.42109795061E+03  0.00000000000E+00 0. -1.
         21    1    1    2  504  501 -0.94315337497E+01 -0.34081685987E+02  0.41486669301E+02  0.54512923956E+02  0.00000000000E+00 0.  1.
</event>
<event>
 4    1  0.3035432E+006  0.2146703E+02  0.7546771E-02  0.1512700E+00
         21   -1    0    0  503  501  0.00000000000E+00  0.00000000000E+00  0.91378822213E+02  0.91378822213E+02  0.00000000000E+00 0.  1.
         21   -1    0    0  501  502 -0.00000000000E+00 -0.00000000000E+00 -0.25010308203E+02  0.25010308203E+02  0.00000000000E+00 0. -1.
         21    1    1    2  503  504 -0.14037868474E+02 -0.16241047775E+02  0.85181639067E+02  0.87845005653E+02  0.00000000000E+00 0.  1.
         21    1    1    2  504  502  0.14037868474E+02  0.16241047775E+02 -0.18813125056E+02  0.28544124763E+02  0.00000000000E+00 0. -1.
</event>
<event>
 4    1  0.3035432E+006  0.2062359E+02  0.7546771E-02  0.1524707E+00
         21   -1    0    0  504  501  0.00000000000E+00  0.00000000000E+00  0.40154150102E+02  0.40154150102E+02  0.00000000000E+00 0.  1.
         21   -1    0    0  501  502 -0.00000000000E+00 -0.00000000000E+00 -0.29445585473E+02  0.29445585473E+02  0.00000000000E+00 0. -1.
         21    1    1    2  503  502  0.23237576131E+01  0.20492253881E+02 -0.22491464072E+02  0.30515541527E+02  0.00000000000E+00 0. -1.
         21    1    1    2  504  503 -0.23237576131E+01 -0.20492253881E+02  0.33200028701E+02  0.39084194047E+02  0.00000000000E+00 0.  1.
</event>
<event>
 4    1  0.3035432E+006  0.2778485E+02  0.7546771E-02  0.1439880E+00
         21   -1    0    0  504  501  0.00000000000E+00  0.00000000000E+00  0.11841673900E+03  0.11841673900E+03  0.00000000000E+00 0.  1.
         21   -1    0    0  503  502 -0.00000000000E+00 -0.00000000000E+00 -0.10970573341E+02  0.10970573341E+02  0.00000000000E+00 0.  1.
         21    1    1    2  503  501  0.27379444661E+02 -0.47290482373E+01  0.94931664363E+02  0.98914199112E+02  0.00000000000E+00 0.  1.
         21    1    1    2  504  502 -0.27379444661E+02  0.47290482373E+01  0.12514501297E+02  0.30473113230E+02  0.00000000000E+00 0.  1.
</event>
<event>
 4    1  0.3035432E+006  0.3422861E+02  0.7546771E-02  0.1386069E+00
         21   -1    0    0  504  501  0.00000000000E+00  0.00000000000E+00  0.49203020744E+03  0.49203020744E+03  0.00000000000E+00 0.  1.
         21   -1    0    0  503  502 -0.00000000000E+00 -0.00000000000E+00 -0.37523515405E+01  0.37523515405E+01  0.00000000000E+00 0.  1.
         21    1    1    2  503  501  0.19269150532E+02 -0.28289537276E+02  0.39399005800E+03  0.39547410014E+03  0.00000000000E+00 0.  1.
         21    1    1    2  504  502 -0.19269150532E+02  0.28289537276E+02  0.94287797901E+02  0.10030845884E+03  0.00000000000E+00 0.  1.
</event>
<event>
 4    1  0.3035432E+006  0.2197205E+02  0.7546771E-02  0.1505826E+00
         21   -1    0    0  503  501  0.00000000000E+00  0.00000000000E+00  0.90954700221E+02  0.90954700221E+02  0.00000000000E+00 0. -1.
         21   -1    0    0  504  502 -0.00000000000E+00 -0.00000000000E+00 -0.76356583838E+01  0.76356583838E+01  0.00000000000E+00 0. -1.
         21    1    1    2  503  502 -0.15847359170E+02  0.15219474430E+02  0.14441433788E+02  0.26293082825E+02  0.00000000000E+00 0. -1.
         21    1    1    2  504  501  0.15847359170E+02 -0.15219474430E+02  0.68877608050E+02  0.72297275780E+02  0.00000000000E+00 0. -1.
</event>
<event>
 4    1  0.3035432E+006  0.2961031E+02  0.7546771E-02  0.1423013E+00
         21   -1    0    0  504  501  0.00000000000E+00  0.00000000000E+00  0.96225017964E+01  0.96225017964E+01  0.00000000000E+00 0. -1.
         21   -1    0    0  503  502 -0.00000000000E+00 -0.00000000000E+00 -0.99753666776E+02  0.99753666776E+02  0.00000000000E+00 0. -1.
         21    1    1    2  503  501 -0.26134087023E+02 -0.13920493501E+02 -0.28973627442E+02  0.41427547972E+02  0.00000000000E+00 0. -1.
         21    1    1    2  504  502  0.26134087023E+02  0.13920493501E+02 -0.61157537537E+02  0.67948620600E+02  0.00000000000E+00 0. -1.
</event>
<event>
 4    1  0.3035432E+006  0.2074666E+02  0.7546771E-02  0.1522913E+00
         21   -1    0    0  502  501  0.00000000000E+00  0.00000000000E+00  0.10236074450E+03  0.10236074450E+03  0.00000000000E+00 0.  1.
         21   -1    0    0  504  502 -0.00000000000E+00 -0.00000000000E+00 -0.49858292143E+01  0.49858292143E+01  0.00000000000E+00 0.  1.
         21    1    1    2  503  501  0.88398739886E+01  0.18769139288E+02  0.69928488280E+02  0.72941191620E+02  0.00000000000E+00 0.  1.
         21    1    1    2  504  503 -0.88398739886E+01 -0.18769139288E+02  0.27446427008E+02  0.34405382097E+02  0.00000000000E+00 0.  1.
</event>
<event>
 4    1  0.3035432E+006  0.2157868E+02  0.7546771E-02  0.1511161E+00
         21   -1    0    0  504  501  0.00000000000E+00  0.00000000000E+00  0.22899458408E+03  0.22899458408E+03  0.00000000000E+00 0. -1.
         21   -1    0    0  501  502 -0.00000000000E+00 -0.00000000000E+00 -0.37605406204E+01  0.37605406204E+01  0.00000000000E+00 0. -1.
         21    1    1    2  503  502  0.14958253678E+02  0.15552815094E+02  0.33747907682E+02  0.40056967975E+02  0.00000000000E+00 0. -1.
         21    1    1    2  504  503 -0.14958253678E+02 -0.15552815094E+02  0.19148613578E+03  0.19269815673E+03  0.00000000000E+00 0. -1.
</event>
<event>
 4    1  0.3035432E+006  0.2040520E+02  0.7546771E-02  0.1527929E+00
         21   -1    0    0  504  501  0.00000000000E+00  0.00000000000E+00  0.21757915503E+01  0.21757915503E+01  0.00000000000E+00 0.  1.
         21   -1    0    0  501  502 -0.00000000000E+00 -0.00000000000E+00 -0.33438190014E+03  0.33438190014E+03  0.00000000000E+00 0. -1.
         21    1    1    2  503  502  0.64026698565E+01 -0.19374676415E+02 -0.27615569966E+03  0.27690854577E+03  0.00000000000E+00 0. -1.
         21    1    1    2  504  503 -0.64026698565E+01  0.19374676415E+02 -0.56050408932E+02  0.59649145919E+02  0.00000000000E+00 0.  1.
</event>
<event>
 4    1  0.3035432E+006  0.3384221E+02  0.7546771E-02  0.1388891E+00
         21   -1    0    0  502  501  0.00000000000E+00  0.00000000000E+00  0.14589828874E+01  0.14589828874E+01  0.00000000000E+00 0.  1.
         21   -1    0    0  503  502 -0.00000000000E+00 -0.00000000000E+00 -0.91359757705E+03  0.91359757705E+03  0.00000000000E+00 0.  1.
         21    1    1    2  503  504 -0.19752381137E+02 -0.27479781232E+02 -0.62772749113E+03  0.62863908410E+03  0.00000000000E+00 0.  1.
         21    1    1    2  504  501  0.19752381137E+02  0.27479781232E+02 -0.28441110303E+03  0.28641747583E+03  0.00000000000E+00 0.  1.
</event>
<event>
 4    1  0.3035432E+006  0.2063795E+02  0.7546771E-02  0.1524497E+00
         21   -1    0    0  503  501  0.00000000000E+00  0.00000000000E+00  0.14549602821E+03  0.14549602821E+03  0.00000000000E+00 0.  1.
         21   -1    0    0  504  502 -0.00000000000E+00 -0.00000000000E+00 -0.29710098531E+01  0.29710098531E+01  0.00000000000E+00 0.  1.
         21    1    1    2  503  502  0.91318054248E+01  0.18507698613E+02  0.62268560592E+02  0.65599530612E+02  0.00000000000E+00 0.  1.
         21    1    1    2  504  501 -0.91318054248E+01 -0.18507698613E+02  0.80256457763E+02  0.82867507449E+02  0.00000000000E+00 0.  1.
</event>
<event>
 4    1  0.3035432E+006  0.2797684E+02  0.7546771E-02  0.1438035E+00
         21   -1    0    0  503  501  0.00000000000E+00  0.00000000000E+00  0.23565939174E+02  0.23565939174E+02  0.00000000000E+00 0. -1.
         21   -1    0    0  501  502 -0.00000000000E+00 -0.00000000000E+00 -0.13888194941E+03  0.13888194941E+03  0.00000000000E+00 0. -1.
         21    1    1    2  503  504 -0.27882778166E+02 -0.22922318081E+01  0.13191066084E+02  0.30930694615E+02  0.00000000000E+00 0. -1.
         21    1    1    2  504  502  0.27882778166E+02  0.22922318081E+01 -0.12850707632E+03  0.13151719397E+03  0.00000000000E+00 0. -1.
</event>
<event>
 4    1  0.3035432E+006  0.2001251E+02  0.7546771E-02  0.1533844E+00
         21   -1    0    0  503  501  0.00000000000E+00  0.00000000000E+00  0.19489226479E+02  0.19489226479E+02  0.00000000000E+00 0.  1.
         21   -1    0    0  504  502 -0.00000000000E+00 -0.00000000000E+00 -0.26807068983E+02  0.26807068983E+02  0.00000000000E+00 0.  1.
         21    1    1    2  503  502 -0.13497221422E+02 -0.14775849466E+02  0.75246934966E+01  0.21380405182E+02  0.00000000000E+00 0.  1.
         21    1    1    2  504  501  0.13497221422E+02  0.14775849466E+02 -0.14842536000E+02  0.24915890280E+02  0.00000000000E+00 0.  1.
</event>
<event>
 4    1  0.3035432E+006  0.2080831E+02  0.7546771E-02  0.1522019E+00
         21   -1    0    0  503  501  0.00000000000E+00  0.00000000000E+00  0.20451898882E+02  0.20451898882E+02  0.00000000000E+00 0.  1.
         21   -1    0    0  504  502 -0.00000000000E+00 -0.00000000000E+00 -0.59307123490E+02  0.59307123490E+02  0.00000000000E+00 0.  1.
         21    1    1    2  503  502 -0.90210565941E+01 -0.18751168073E+02  0.12551400612E+02  0.24300687717E+02  0.00000000000E+00 0.  1.
         21    1    1    2  504  501  0.90210565941E+01  0.18751168073E+02 -0.51406625220E+02  0.55458334655E+02  0.00000000000E+00 0.  1.
</event>
<event>
 4    1  0.3035432E+006  0.2348221E+02  0.7546771E-02  0.1486530E+00
         21   -1    0    0  502  501  0.00000000000E+00  0.00000000000E+00  0.45250163616E+01  0.45250163616E+01  0.00000000000E+00 0.  1.
         21   -1    0    0  503  502 -0.00000000000E+00 -0.00000000000E+00 -0.67616334096E+03  0.67616334096E+03  0.00000000000E+00 0. -1.
         21    1    1    2  503  504 -0.39336436078E+01 -0.23150395150E+02 -0.64397232055E+03  0.64440031345E+03  0.00000000000E+00 0. -1.
         21    1    1    2  504  501  0.39336436078E+01  0.23150395150E+02 -0.27666004050E+02  0.36288043868E+02  0.00000000000E+00 0.  1.
</event>
<event>
 4    1  0.3035432E+006  0.2147744E+02  0.7546771E-02  0.1512556E+00
         21   -1    0    0  503  501  0.00000000000E+00  0.00000000000E+00  0.13001264857E+03  0.13001264857E+03  0.00000000000E+00 0. -1.
         21   -1    0    0  504  502 -0.00000000000E+00 -0.00000000000E+00 -0.11745827011E+02  0.11745827011E+02  0.00000000000E+00 0.  1.
         21    1    1    2  503  502 -0.11833625094E+02  0.17923324343E+02  0.11834784150E+03  0.12028088720E+03  0.00000000000E+00 0. -1.
         21    1    1    2  504  501  0.11833625094E+02 -0.17923324343E+02 -0.81019940961E-01  0.21477588379E+02  0.00000000000E+00 0.  1.
</event>
<event>
 4    1  0.3035432E+006  0.2995780E+02  0.7546771E-02  0.1419964E+00
         21   -1    0    0  503  501  0.00000000000E+00  0.00000000000E+00  0.98262861393E+01  0.98262861393E+01  0.00000000000E+00 0. -1.
         21   -1    0    0  501  502 -0.00000000000E+00 -0.00000000000E+00 -0.16361676855E+03  0.16361676855E+03  0.00000000000E+00 0.  1.
         21    1    1    2  503  504 -0.19634474048E+02 -0.22626468939E+02 -0.19254211325E+02  0.35611716071E+02  0.00000000000E+00 0. -1.
         21    1    1    2  504  502  0.19634474048E+02  0.22626468939E+02 -0.13453627109E+03  0.13783133862E+03  0.00000000000E+00 0.  1.
</event>
<event>
 4    1  0.3035432E+006  0.2173806E+02  0.7546771E-02  0.1508983E+00
         21   -1    0    0  504  501  0.00000000000E+00  0.00000000000E+00  0.60201853759E+02  0.60201853759E+02  0.00000000000E+00 0.  1.
         21   -1    0    0  503  502 -0.00000000000E+00 -0.00000000000E+00 -0.64744615288E+02  0.64744615288E+02  0.00000000000E+00 0.  1.
         21    1    1    2  503  501 -0.17393331390E+02 -0.13038985961E+02  0.56292570845E+02  0.60343986147E+02  0.00000000000E+00 0.  1.
         21    1    1    2  504  502  0.17393331390E+02  0.13038985961E+02 -0.60835332375E+02  0.64602482900E+02  0.00000000000E+00 0.  1.
</event>
<event>
 4    1  0.3035432E+006  0.2423822E+02  0.7546771E-02  0.1477509E+00
         21   -1    0    0  504  501  0.00000000000E+00  0.00000000000E+00  0.66654960741E+02  0.66654960741E+02  0.00000000000E+00 0. -1.
         21   -1    0    0  503  502 -0.00000000000E+00 -0.00000000000E+00 -0.37082564333E+02  0.37082564333E+02  0.00000000000E+00 0. -1.
         21    1    1    2  503  501 -0.11154500499E+02 -0.21519026123E+02 -0.30500797686E+02  0.38958824753E+02  0.00000000000E+00 0. -1.
         21    1    1    2  504  502  0.11154500499E+02  0.21519026123E+02  0.60073194094E+02  0.64778700321E+02  0.00000000000E+00 0. -1.
</event>
<event>
 4    1  0.3035432E+006  0.2208507E+02  0.7546771E-02  0.1504318E+00
         21   -1    0    0  503  501  0.00000000000E+00  0.00000000000E+00  0.31463983209E+02  0.31463983209E+02  0.00000000000E+00 0.  1.
         21   -1    0    0  504  502 -0.00000000000E+00 -0.00000000000E+00 -0.47636843587E+02  0.47636843587E+02  0.00000000000E+00 0. -1.
         21    1    1    2  503  502  0.12770055830E+02 -0.18018763267E+02 -0.40570362945E+02  0.46192039412E+02  0.00000000000E+00 0. -1.
         21    1    1    2  504  501 -0.12770055830E+02  0.18018763267E+02  0.24397502567E+02  0.32908787384E+02  0.00000000000E+00 0.  1.
</event>
<event>
 4    1  0.3035432E+006  0.6156771E+02  0.7546771E-02  0.1254597E+00
         21   -1    0    0  504  501  0.00000000000E+00  0.00000000000E+00  0.44640811395E+01  0.44640811395E+01  0.00000000000E+00 0.  1.
         21   -1    0    0  503  502 -0.00000000000E+00 -0.00000000000E+00 -0.92438482572E+03  0.92438482572E+03  0.00000000000E+00 0.  1.
         21    1    1    2  503  501  0.43665006950E+02  0.43404498678E+02 -0.32744780517E+03  0.33318560660E+03  0.00000000000E+00 0.  1.
         21    1    1    2  504  502 -0.43665006950E+02 -0.43404498678E+02 -0.59247293941E+03  0.59566330026E+03  0.00000000000E+00 0.  1.
</event>
<event>
 4    1  0.3035432E+006  0.2504287E+02  0.7546771E-02  0.1468324E+00
         21   -1    0    0  503  501  0.00000000000E+00  0.00000000000E+00  0.24615118406E+02  0.24615118406E+02  0.00000000000E+00 0. -1.
         21   -1    0    0  501  502 -0.00000000000E+00 -0.00000000000E+00 -0.22643218113E+03  0.22643218113E+03  0.00000000000E+00 0.  1.
         21    1    1    2  503  504 -0.23147776814E+02 -0.95564601368E+01  0.17342500835E+02  0.30461579687E+02  0.00000000000E+00 0. -1.
         21    1    1    2  504  502  0.23147776814E+02  0.95564601368E+01 -0.21915956356E+03  0.22058571985E+03  0.00000000000E+00 0.  1.
</event>
<event>
 4    1  0.3035432E+006  0.2256781E+02  0.7546771E-02  0.1497998E+00
         21   -1    0    0  502  501  0.00000000000E+00  0.00000000000E+00  0.26267410321E+02  0.26267410321E+02  0.00000000000E+00 0.  1.
         21   -1    0    0  503  502 -0.00000000000E+00 -0.00000000000E+00 -0.51444377554E+03  0.51444377554E+03  0.00000000000E+00 0. -1.
         21    1    1    2  503  504 -0.89339976208E+01  0.20724134777E+02 -0.50930002096E+03  0.50979978170E+03  0.00000000000E+00 0. -1.
         21    1    1    2  504  501  0.89339976208E+01 -0.20724134777E+02  0.21123655735E+02  0.30911404164E+02  0.00000000000E+00 0.  1.
</event>
<event>
 4    1  0.3035432E+006  0.2923109E+02  0.7546771E-02  0.1426398E+00
         21   -1    0    0  504  501  0.00000000000E+00  0.00000000000E+00  0.22234202875E+02  0.22234202875E+02  0.00000000000E+00 0. -1.
         21   -1    0    0  503  502 -0.00000000000E+00 -0.00000000000E+00 -0.39407065174E+02  0.39407065174E+02  0.00000000000E+00 0. -1.
         21    1    1    2  503  501  0.11792849940E+01  0.29207295172E+02 -0.13439901627E+02  0.32172779800E+02  0.00000000000E+00 0. -1.
         21    1    1    2  504  502 -0.11792849940E+01 -0.29207295172E+02 -0.37329606718E+01  0.29468488250E+02  0.00000000000E+00 0. -1.
</event>
<event>
 4    1  0.3035432E+006  0.2625339E+02  0.7546771E-02  0.1455256E+00
         21   -1    0    0  504  501  0.00000000000E+00  0.00000000000E+00  0.12116083084E+03  0.12116083084E+03  0.00000000000E+00 0. -1.
         21   -1    0    0  503  502 -0.00000000000E+00 -0.00000000000E+00 -0.58625388515E+01  0.58625388515E+01  0.00000000000E+00 0. -1.
         21    1    1    2  503  501 -0.19924202920E+02  0.17095804371E+02  0.68587669598E+02  0.73440512048E+02  0.00000000000E+00 0. -1.
         21    1    1    2  504  502  0.19924202920E+02 -0.17095804371E+02  0.46710622393E+02  0.53582857645E+02  0.00000000000E+00 0. -1.
</event>
<event>
 4    1  0.3035432E+006  0.2465223E+02  0.7546771E-02  0.1472732E+00
         21   -1    0    0  502  501  0.00000000000E+00  0.00000000000E+00  0.96514928587E+01  0.96514928587E+01  0.00000000000E+00 0. -1.
         21   -1    0    0  504  502 -0.00000000000E+00 -0.00000000000E+00 -0.15238110413E+03  0.15238110413E+03  0.00000000000E+00 0. -1.
         21    1    1    2  503  501  0.24384650226E+02  0.36223181835E+01 -0.93053243124E+01  0.26349979435E+02  0.00000000000E+00 0. -1.
         21    1    1    2  504  503 -0.24384650226E+02 -0.36223181835E+01 -0.13342428696E+03  0.13568261755E+03  0.00000000000E+00 0. -1.
</event>
<event>
 4    1  0.3035432E+006  0.3829676E+02  0.7546771E-02  0.1358766E+00
         21   -1    0    0  504  501  0.00000000000E+00  0.00000000000E+00  0.16814100108E+03  0.16814100108E+03  0.00000000000E+00 0. -1.
         21   -1    0    0  503  502 -0.00000000000E+00 -0.00000000000E+00 -0.88258438239E+01  0.88258438239E+01  0.00000000000E+00 0. -1.
         21    1    1    2  503  501 -0.38054528813E+02 -0.43005731613E+01  0.89223419549E+02  0.97095111559E+02  0.00000000000E+00 0. -1.
         21    1    1    2  504  502  0.38054528813E+02  0.43005731613E+01  0.70091737706E+02  0.79871733343E+02  0.00000000000E+00 0. -1.
</event>
<event>
 4    1  0.3035432E+006  0.2804218E+02  0.7546771E-02  0.1437411E+00
         21   -1    0    0  503  501  0.00000000000E+00  0.00000000000E+00  0.68569013274E+01  0.68569013274E+01  0.00000000000E+00 0. -1.
         21   -1    0    0  504  502 -0.00000000000E+00 -0.00000000000E+00 -0.12015656403E+03  0.12015656403E+03  0.00000000000E+00 0. -1.
         21    1    1    2  503  502  0.27908617803E+02 -0.27336905877E+01 -0.43094321733E+02  0.51414828382E+02  0.00000000000E+00 0. -1.
         21    1    1    2  504  501 -0.27908617803E+02  0.27336905877E+01 -0.70205340974E+02  0.75598636980E+02  0.00000000000E+00 0. -1.
</event>
<event>
 4    1  0.3035432E+006  0.2317168E+02  0.7546771E-02  0.1490354E+00
         21   -1    0    0  503  501  0.00000000000E+00  0.00000000000E+00  0.93996004818E+01  0.93996004818E+01  0.00000000000E+00 0.  1.
         21   -1    0    0  504  502 -0.00000000000E+00 -0.00000000000E+00 -0.93247828603E+02  0.93247828603E+02  0.00000000000E+00 0.  1.
         21    1    1    2  503  502 -0.15477588191E+02  0.17244443737E+02 -0.99788880787E+01  0.25229046421E+02  0.00000000000E+00 0.  1.
         21    1    1    2  504  501  0.15477588191E+02 -0.17244443737E+02 -0.73869340042E+02  0.77418382664E+02  0.00000000000E+00 0.  1.
</event>
<event>
 4    1  0.3035432E+006  0.2472559E+02  0.7546771E-02  0.1471897E+00
         21   -1    0    0  503  501  0.00000000000E+00  0.00000000000E+00  0.11615549032E+03  0.11615549032E+03  0.00000000000E+00 0.  1.
         21   -1    0    0  504  502 -0.00000000000E+00 -0.00000000000E+00 -0.25286620098E+02  0.25286620098E+02  0.00000000000E+00 0. -1.
         21    1    1    2  503  502  0.25576213928E+01 -0.24592952447E+02  0.10836650088E+03  0.11115148785E+03  0.00000000000E+00 0.  1.
         21    1    1    2  504  501 -0.25576213928E+01  0.24592952447E+02 -0.17497630657E+02  0.30290622573E+02  0.00000000000E+00 0. -1.
</event>
<event>
 4    1  0.3035432E+006  0.2265745E+02  0.7546771E-02  0.1496845E+00
         21   -1    0    0  504  501  0.00000000000E+00  0.00000000000E+00  0.10962799381E+02  0.10962799381E+02  0.00000000000E+00 0. -1.
         21   -1    0    0  503  502 -0.00000000000E+00 -0.00000000000E+00 -0.11933605808E+03  0.11933605808E+03  0.00000000000E+00 0. -1.
         21    1    1    2  503  501 -0.91967811040E+00 -0.22638775637E+02 -0.10496976856E+03  0.10738720726E+03  0.00000000000E+00 0. -1.
         21    1    1    2  504  502  0.91967811040E+00  0.22638775637E+02 -0.34034901401E+01  0.22911650209E+02  0.00000000000E+00 0. -1.
</event>
<event>
 4    1  0.3035432E+006  0.4241259E+02  0.7546771E-02  0.1334900E+00
         21   -1    0    0  503  501  0.00000000000E+00  0.00000000000E+00  0.74090125395E+02  0.74090125395E+02  0.00000000000E+00 0. -1.
         21   -1    0    0  504  502 -0.00000000000E+00 -0.00000000000E+00 -0.34203208301E+02  0.34203208301E+02  0.00000000000E+00 0. -1.
         21    1    1    2  503  502 -0.28908059893E+01 -0.42313960778E+02  0.49110209102E+02  0.64889449636E+02  0.00000000000E+00 0. -1.
         21    1    1    2  504  501  0.28908059893E+01  0.42313960778E+02 -0.92232920078E+01  0.43403884060E+02  0.00000000000E+00 0. -1.
</event>
<event>
 4    1  0.3035432E+006  0.2381987E+02  0.7546771E-02  0.1482452E+00
         21   -1    0    0  502  501  0.00000000000E+00  0.00000000000E+00  0.17451797176E+03  0.17451797176E+03  0.00000000000E+00 0.  1.
         21   -1    0    0  504  502 -0.00000000000E+00 -0.00000000000E+00 -0.16890398916E+03  0.16890398916E+03  0.00000000000E+00 0. -1.
         21    1    1    2  503  501  0.20002689371E+02 -0.12933619829E+02  0.17285734574E+03  0.17449082520E+03  0.00000000000E+00 0.  1.
         21    1    1    2  504  503 -0.20002689371E+02  0.12933619829E+02 -0.16724336314E+03  0.16893113573E+03  0.00000000000E+00 0. -1.
</event>
<event>
 4    1  0.3035432E+006  0.2524955E+02  0.7546771E-02  0.1466031E+00
         21   -1    0    0  502  501  0.00000000000E+00  0.00000000000E+00  0.27671902108E+03  0.27671902108E+03  0.00000000000E+00 0. -1.
         21   -1    0    0  504  502 -0.00000000000E+00 -0.00000000000E+00 -0.41641923190E+01  0.41641923190E+01  0.00000000000E+00 0. -1.
         21    1    1    2  503  501  0.16710541271E+02 -0.18928745661E+02  0.23014554987E+03  0.23152648602E+03  0.00000000000E+00 0. -1.
         21    1    1    2  504  503 -0.16710541271E+02  0.18928745661E+02  0.42409278887E+02  0.49356727379E+02  0.00000000000E+00 0. -1.
</event>
<event>
 4    1  0.3035432E+006  0.3076572E+02  0.7546771E-02  0.1413057E+00
         21   -1    0    0  503  501  0.00000000000E+00  0.00000000000E+00  0.49798390485E+02  0.49798390485E+02  0.00000000000E+00 0.  1.
         21   -1    0    0  504  502 -0.00000000000E+00 -0.00000000000E+00 -0.39722077187E+02  0.39722077187E+02  0.00000000000E+00 0.  1.
         21    1    1    2  503  502  0.30565942166E+02 -0.35003619943E+01  0.37361573324E+02  0.48398517703E+02  0.00000000000E+00 0.  1.
         21    1    1    2  504  501 -0.30565942166E+02  0.35003619943E+01 -0.27285260026E+02  0.41121949969E+02  0.00000000000E+00 0.  1.
</event>
<event>
 4    1  0.3035432E+006  0.2586721E+02  0.7546771E-02  0.1459331E+00
         21   -1    0    0  503  501  0.00000000000E+00  0.00000000000E+00  0.12520428420E+03  0.12520428420E+03  0.00000000000E+00 0. -1.
         21   -1    0    0  504  502 -0.00000000000E+00 -0.00000000000E+00 -0.29048566865E+02  0.29048566865E+02  0.00000000000E+00 0.  1.
         21    1    1    2  503  502  0.10340471408E+02 -0.23710492265E+02  0.11774938376E+03  0.12055716556E+03  0.00000000000E+00 0. -1.
         21    1    1    2  504  501 -0.10340471408E+02  0.23710492265E+02 -0.21593666420E+02  0.33695685508E+02  0.00000000000E+00 0.  1.
</event>
<event>
 4    1  0.3035432E+006  0.2794418E+02  0.7546771E-02  0.1438347E+00
         21   -1    0    0  502  501  0.00000000000E+00  0.00000000000E+00  0.24197487191E+03  0.24197487191E+03  0.00000000000E+00 0. -1.
         21   -1    0    0  503  502 -0.00000000000E+00 -0.00000000000E+00 -0.10437019375E+02  0.10437019375E+02  0.00000000000E+00 0.  1.
         21    1    1    2  503  504 -0.20946762484E+02 -0.18496219603E+02  0.10873442948E+02  0.29985142316E+02  0.00000000000E+00 0.  1.
         21    1    1    2  504  501  0.20946762484E+02  0.18496219603E+02  0.22066440959E+03  0.22242674897E+03  0.00000000000E+00 0. -1.
</event>
<event>
 4    1  0.3035432E+006  0.2020870E+02  0.7546771E-02  0.1530869E+00
         21   -1    0    0  503  501  0.00000000000E+00  0.00000000000E+00  0.45893098762E+00  0.45893098762E+00  0.00000000000E+00 0.  1.
         21   -1    0    0  504  502 -0.00000000000E+00 -0.00000000000E+00 -0.10031320365E+04  0.10031320365E+04  0.00000000000E+00 0.  1.
         21    1    1    2  503  502 -0.78737115005E+01  0.18611725985E+02 -0.66994462189E+03  0.67024934768E+03  0.00000000000E+00 0.  1.
         21    1    1    2  504  501  0.78737115005E+01 -0.18611725985E+02 -0.33272848362E+03  0.33334161980E+03  0.00000000000E+00 0.  1.
</event>
<event>
 4    1  0.3035432E+006  0.3685272E+02  0.7546771E-02  0.1367986E+00
         21   -1    0    0  503  501  0.00000000000E+00  0.00000000000E+00  0.14453085574E+02  0.14453085574E+02  0.00000000000E+00 0. -1.
         21   -1    0    0  501  502 -0.00000000000E+00 -0.00000000000E+00 -0.13266979613E+03  0.13266979613E+03  0.00000000000E+00 0. -1.
         21    1    1    2  503  504  0.31973417877E+02  0.18325479546E+02 -0.19377157624E+02  0.41636485069E+02  0.00000000000E+00 0. -1.
         21    1    1    2  504  502 -0.31973417877E+02 -0.18325479546E+02 -0.98839552929E+02  0.10548639663E+03  0.00000000000E+00 0. -1.
</event>
<event>
 4    1  0.3035432E+006  0.7273785E+02  0.7546771E-02  0.1221791E+00
         21   -1    0    0  502  501  0.00000000000E+00  0.00000000000E+00  0.25707087541E+02  0.25707087541E+02  0.00000000000E+00 0.  1.
         21   -1    0    0  503  502 -0.00000000000E+00 -0.00000000000E+00 -0.23188015383E+03  0.23188015383E+03  0.00000000000E+00 0.  1.
         21    1    1    2  503  504  0.58865384047E+00  0.72735465574E+02 -0.14627107085E+03  0.16335856462E+03  0.00000000000E+00 0.  1.
         21    1    1    2  504  501 -0.58865384047E+00 -0.72735465574E+02 -0.59901995440E+02  0.94228676757E+02  0.00000000000E+00 0.  1.
</event>
<event>
 4    1  0.3035432E+006  0.2066366E+02  0.7546771E-02  0.1524121E+00
         21   -1    0    0  503  501  0.00000000000E+00  0.00000000000E+00  0.46565653879E+02  0.46565653879E+02  0.00000000000E+00 0.  1.
         21   -1    0    0  501  502 -0.00000000000E+00 -0.00000000000E+00 -0.57902772090E+02  0.57902772090E+02  0.00000000000E+00 0. -1.
         21    1    1    2  503  504  0.11017609356E+02  0.17481396802E+02  0.42251556672E+02  0.47033828159E+02  0.00000000000E+00 0.  1.
         21    1    1    2  504  502 -0.11017609356E+02 -0.17481396802E+02 -0.53588674883E+02  0.57434597811E+02  0.00000000000E+00 0. -1.
</event>
<event>
 4    1  0.3035432E+006  0.2148876E+02  0.7546771E-02  0.1512400E+00
         21   -1    0    0  504  501  0.00000000000E+00  0.00000000000E+00  0.54280310260E+03  0.54280310260E+03  0.00000000000E+00 0.  1.
         21   -1    0    0  503  502 -0.00000000000E+00 -0.00000000000E+00 -0.97713351852E+00  0.97713351852E+00  0.00000000000E+00 0.  1.
         21    1    1    2  503  501  0.13702970835E+02 -0.16552804437E+02  0.36871199577E+03  0.36933765387E+03  0.00000000000E+00 0.  1.
         21    1    1    2  504  502 -0.13702970835E+02  0.16552804437E+02  0.17311397331E+03  0.17444258224E+03  0.00000000000E+00 0.  1.
</event>
<event>
 4    1  0.3035432E+006  0.2676145E+02  0.7546771E-02  0.1450019E+00
         21   -1    0    0  504  501  0.00000000000E+00  0.00000000000E+00  0.40384494317E+03  0.40384494317E+03  0.00000000000E+00 0. -1.
         21   -1    0    0  503  502 -0.00000000000E+00 -0.00000000000E+00 -0.19463512908E+01  0.19463512908E+01  0.00000000000E+00 0. -1.
         21    1    1    2  503  501 -0.26688229926E+02 -0.19782793671E+01  0.26143247935E+03  0.26279862341E+03  0.00000000000E+00 0. -1.
         21    1    1    2  504  502  0.26688229926E+02  0.19782793671E+01  0.14046611253E+03  0.14299267105E+03  0.00000000000E+00 0. -1.
</event>
<event>
 4    1  0.3035432E+006  0.2066170E+02  0.7546771E-02  0.1524150E+00
         21   -1    0    0  504  501  0.00000000000E+00  0.00000000000E+00  0.71769508298E+01  0.71769508298E+01  0.00000000000E+00 0. -1.
         21   -1    0    0  503  502 -0.00000000000E+00 -0.00000000000E+00 -0.18844340920E+03  0.18844340920E+03  0.00000000000E+00 0. -1.
         21    1    1    2  503  501  0.12877325591E+02  0.16157974821E+02 -0.17154691684E+03  0.17278671923E+03  0.00000000000E+00 0. -1.
         21    1    1    2  504  502 -0.12877325591E+02 -0.16157974821E+02 -0.97195415324E+01  0.22833640803E+02  0.00000000000E+00 0. -1.
</event>
<event>
 4    1  0.3035432E+006  0.2457368E+02  0.7546771E-02  0.1473629E+00
         21   -1    0    0  503  501  0.00000000000E+00  0.00000000000E+00  0.16471396621E+02  0.16471396621E+02  0.00000000000E+00 0.  1.
         21   -1    0    0  504  502 -0.00000000000E+00 -0.00000000000E+00 -0.51577099913E+02  0.51577099913E+02  0.00000000000E+00 0.  1.
         21    1    1    2  503  502 -0.24247308904E+02 -0.39917153874E+01 -0.35849887139E+02  0.43463550116E+02  0.00000000000E+00 0.  1.
         21    1    1    2  504  501  0.24247308904E+02  0.39917153874E+01  0.74418384677E+00  0.24584946419E+02  0.00000000000E+00 0.  1.
</event>
<event>
 4    1  0.3035432E+006  0.4401442E+02  0.7546771E-02  0.1326442E+00
         21   -1    0    0  502  501  0.00000000000E+00  0.00000000000E+00  0.15596482991E+03  0.15596482991E+03  0.00000000000E+00 0. -1.
         21   -1    0    0  503  502 -0.00000000000E+00 -0.00000000000E+00 -0.14883851869E+02  0.14883851869E+02  0.00000000000E+00 0. -1.
         21    1    1    2  503  504  0.18612478513E+01 -0.43975051773E+02  0.35792794063E+02  0.56730886904E+02  0.00000000000E+00 0. -1.
         21    1    1    2  504  501 -0.18612478513E+01  0.43975051773E+02  0.10528818398E+03  0.11411779488E+03  0.00000000000E+00 0. -1.
</event>
<event>
 4    1  0.3035432E+006  0.3827689E+02  0.7546771E-02  0.1358890E+00
         21   -1    0    0  504  501  0.00000000000E+00  0.00000000000E+00  0.16873241320E+03  0.16873241320E+03  0.00000000000E+00 0.  1.
         21   -1    0    0  503  502 -0.00000000000E+00 -0.00000000000E+00 -0.10611468527E+02  0.10611468527E+02  0.00000000000E+00 0.  1.
         21    1    1    2  503  501  0.19799190208E+02  0.32758389834E+02  0.40834011132E+02  0.55969067372E+02  0.00000000000E+00 0.  1.
         21    1    1    2  504  502 -0.19799190208E+02 -0.32758389834E+02  0.11728693354E+03  0.12337481435E+03  0.00000000000E+00 0.  1.
</event>
<event>
 4    1  0.3035432E+006  0.2210177E+02  0.7546771E-02  0.1504096E+00
         21   -1    0    0  503  501  0.00000000000E+00  0.00000000000E+00  0.11773026407E+03  0.11773026407E+03  0.00000000000E+00 0.  1.
         21   -1    0    0  504  502 -0.00000000000E+00 -0.00000000000E+00 -0.40542401095E+03  0.40542401095E+03  0.00000000000E+00 0.  1.
         21    1    1    2  503  502 -0.13538417470E+02  0.17469965641E+02  0.11638829669E+03  0.11846824070E+03  0.00000000000E+00 0.  1.
         21    1    1    2  504  501  0.13538417470E+02 -0.17469965641E+02 -0.40408204356E+03  0.40468603433E+03  0.00000000000E+00 0.  1.
</event>
<event>
 4    1  0.3035432E+006  0.2005949E+02  0.7546771E-02  0.1533128E+00
         21   -1    0    0  503  501  0.00000000000E+00  0.00000000000E+00  0.60898439439E+03  0.60898439439E+03  0.00000000000E+00 0.  1.
         21   -1    0    0  504  502 -0.00000000000E+00 -0.00000000000E+00 -0.70119065261E+00  0.70119065261E+00  0.00000000000E+00 0. -1.
         21    1    1    2  503  502  0.17728141981E+02 -0.93859446085E+01  0.37735616804E+03  0.37788895264E+03  0.00000000000E+00 0.  1.
         21    1    1    2  504  501 -0.17728141981E+02  0.93859446085E+01  0.23092703570E+03  0.23179663240E+03  0.00000000000E+00 0. -1.
</event>
<event>
 4    1  0.3035432E+006  0.3846337E+02  0.7546771E-02  0.1357733E+00
         21   -1    0    0  503  501  0.00000000000E+00  0.00000000000E+00  0.65223353807E+02  0.65223353807E+02  0.00000000000E+00 0. -1.
         21   -1    0    0  501  502 -0.00000000000E+00 -0.00000000000E+00 -0.18094779064E+03  0.18094779064E+03  0.00000000000E+00 0.  1.
         21    1    1    2  503  504  0.36712974455E+02  0.11471200750E+02  0.57250497296E+02  0.68971373631E+02  0.00000000000E+00 0. -1.
         21    1    1    2  504  502 -0.36712974455E+02 -0.11471200750E+02 -0.17297493413E+03  0.17719977081E+03  0.00000000000E+00 0.  1.
</event>
<event>
 4    1  0.3035432E+006  0.3309873E+02  0.7546771E-02  0.1394446E+00
         21   -1    0    0  503  501  0.00000000000E+00  0.00000000000E+00  0.35484729719E+01  0.35484729719E+01  0.00000000000E+00 0. -1.
         21   -1    0    0  504  502 -0.00000000000E+00 -0.00000000000E+00 -0.35408039214E+03  0.35408039214E+03  0.00000000000E+00 0.  1.
         21    1    1    2  503  502 -0.18205892563E+02 -0.27641836837E+02 -0.11127264768E+03  0.11609103234E+03  0.00000000000E+00 0. -1.
         21    1    1    2  504  501  0.18205892563E+02  0.27641836837E+02 -0.23925927149E+03  0.24153783277E+03  0.00000000000E+00 0.  1.
</event>
<event>
 4    1  0.3035432E+006  0.3650672E+02  0.7546771E-02  0.1370269E+00
         21   -1    0    0  503  501  0.00000000000E+00  0.00000000000E+00  0.66548226178E+03  0.66548226178E+03  0.00000000000E+00 0. -1.
         21   -1    0    0  501  502 -0.00000000000E+00 -0.00000000000E+00 -0.75063823039E+01  0.75063823039E+01  0.00000000000E+00 0. -1.
         21    1    1    2  503  504  0.15144602718E+02 -0.33217192971E+02  0.61711914103E+03  0.61819800641E+03  0.00000000000E+00 0. -1.
         21    1    1    2  504  502 -0.15144602718E+02  0.33217192971E+02  0.40856738440E+02  0.54790637671E+02  0.00000000000E+00 0. -1.
</event>
<event>
 4    1  0.3035432E+006  0.2180948E+02  0.7546771E-02  0.1508014E+00
         21   -1    0    0  502  501  0.00000000000E+00  0.00000000000E+00  0.29524585800E+03  0.29524585800E+03  0.00000000000E+00 0.  1.
         21   -1    0    0  503  502 -0.00000000000E+00 -0.00000000000E+00 -0.73247520477E+03  0.73247520477E+03  0.00000000000E+00 0. -1.
         21    1    1    2  503  504  0.14265798093E+02 -0.16496680951E+02 -0.73190978863E+03  0.73223465650E+03  0.00000000000E+00 0. -1.
         21    1    1    2  504  501 -0.14265798093E+02  0.16496680951E+02  0.29468044187E+03  0.29548640628E+03  0.00000000000E+00 0.  1.
</event>
<event>
 4    1  0.3035432E+006  0.2020284E+02  0.7546771E-02  0.1530957E+00
         21   -1    0    0  502  501  0.00000000000E+00  0.00000000000E+00  0.21900991362E+03  0.21900991362E+03  0.00000000000E+00 0. -1.
         21   -1    0    0  503  502 -0.00000000000E+00 -0.00000000000E+00 -0.19808452701E+01  0.19808452701E+01  0.00000000000E+00 0. -1.
         21    1    1    2  503  504  0.15529352138E+02  0.12922612749E+02  0.81636324332E+02  0.84099013957E+02  0.00000000000E+00 0. -1.
         21    1    1    2  504  501 -0.15529352138E+02 -0.12922612749E+02  0.13539274402E+03  0.13689174493E+03  0.00000000000E+00 0. -1.
</event>
<event>
 4    1  0.3035432E+006  0.2930299E+02  0.7546771E-02  0.1425752E+00
         21   -1    0    0  504  501  0.00000000000E+00  0.00000000000E+00  0.96010043723E+02  0.96010043723E+02  0.00000000000E+00 0. -1.
         21   -1    0    0  503  502 -0.00000000000E+00 -0.00000000000E+00 -0.23330205147E+02  0.23330205147E+02  0.00000000000E+00 0. -1.
         21    1    1    2  503  501  0.11859074796E+02  0.26796040313E+02 -0.10517503495E+02  0.31133315134E+02  0.00000000000E+00 0. -1.
         21    1    1    2  504  502 -0.11859074796E+02 -0.26796040313E+02  0.83197342071E+02  0.88206933736E+02  0.00000000000E+00 0. -1.
</event>
<event>
 4    1  0.3035432E+006  0.2329919E+02  0.7546771E-02  0.1488775E+00
         21   -1    0    0  504  501  0.00000000000E+00  0.00000000000E+00  0.69365746151E+01  0.69365746151E+01  0.00000000000E+00 0.  1.
         21   -1    0    0  503  502 -0.00000000000E+00 -0.00000000000E+00 -0.82425653916E+02  0.82425653916E+02  0.00000000000E+00 0.  1.
         21    1    1    2  503  501 -0.59214220884E+01 -0.22534179202E+02 -0.47789850358E+02  0.53166928340E+02  0.00000000000E+00 0.  1.
         21    1    1    2  504  502  0.59214220884E+01  0.22534179202E+02 -0.27699228942E+02  0.36195300191E+02  0.00000000000E+00 0.  1.
</event>
<event>
 4    1  0.3035432E+006  0.2461867E+02  0.7546771E-02  0.1473115E+00
         21   -1    0    0  503  501  0.00000000000E+00  0.00000000000E+00  0.89968117162E+02  0.89968117162E+02  0.00000000000E+00 0. -1.
         21   -1    0    0  504  502 -0.00000000000E+00 -0.00000000000E+00 -0.12227157405E+02  0.12227157405E+02  0.00000000000E+00 0.  1.
         21    1    1    2  503  502  0.20733142536E+02  0.13274632432E+02  0.46294867199E+01  0.25050173910E+02  0.00000000000E+00 0.  1.
         21    1    1    2  504  501 -0.20733142536E+02 -0.13274632432E+02  0.73111473037E+02  0.77145100657E+02  0.00000000000E+00 0. -1.
</event>
<event>
 4    1  0.3035432E+006  0.2779813E+02  0.7546771E-02  0.1439751E+00
         21   -1    0    0  504  501  0.00000000000E+00  0.00000000000E+00  0.42190673968E+03  0.42190673968E+03  0.00000000000E+00 0.  1.
         21   -1    0    0  503  502 -0.00000000000E+00 -0.00000000000E+00 -0.54144766746E+01  0.54144766746E+01  0.00000000000E+00 0. -1.
         21    1    1    2  503  501 -0.22217646634E+02  0.16706651711E+02  0.38205271355E+03  0.38306267367E+03  0.00000000000E+00 0.  1.
         21    1    1    2  504  502  0.22217646634E+02 -0.16706651711E+02  0.34439549459E+02  0.44258542681E+02  0.00000000000E+00 0. -1.
</event>
<event>
 4    1  0.3035432E+006  0.2003194E+02  0.7546771E-02  0.1533548E+00
         21   -1    0    0  503  501  0.00000000000E+00  0.00000000000E+00  0.40403601299E+01  0.40403601299E+01  0.00000000000E+00 0.  1.
         21   -1    0    0  504  502 -0.00000000000E+00 -0.00000000000E+00 -0.11392213762E+03  0.11392213762E+03  0.00000000000E+00 0.  1.
         21    1    1    2  503  502  0.38479973205E+01 -0.19658877986E+02 -0.76058992855E+02  0.78652711086E+02  0.00000000000E+00 0.  1.
         21    1    1    2  504  501 -0.38479973205E+01  0.19658877986E+02 -0.33822784633E+02  0.39309786662E+02  0.00000000000E+00 0.  1.
</event>
<event>
 4    1  0.3035432E+006  0.2012557E+02  0.7546771E-02  0.1532125E+00
         21   -1    0    0  503  501  0.00000000000E+00  0.00000000000E+00  0.98220216297E+01  0.98220216297E+01  0.00000000000E+00 0.  1.
         21   -1    0    0  504  502 -0.00000000000E+00 -0.00000000000E+00 -0.81858664270E+02  0.81858664270E+02  0.00000000000E+00 0.  1.
         21    1    1    2  503  502 -0.13268161394E+02  0.15132569025E+02 -0.37266882953E+01  0.20467705238E+02  0.00000000000E+00 0.  1.
         21    1    1    2  504  501  0.13268161394E+02 -0.15132569025E+02 -0.68309954345E+02  0.71212980661E+02  0.00000000000E+00 0.  1.
</event>
<event>
 4    1  0.3035432E+006  0.5751456E+02  0.7546771E-02  0.1268519E+00
         21   -1    0    0  503  501  0.00000000000E+00  0.00000000000E+00  0.44776718712E+02  0.44776718712E+02  0.00000000000E+00 0. -1.
         21   -1    0    0  504  502 -0.00000000000E+00 -0.00000000000E+00 -0.96893786363E+02  0.96893786363E+02  0.00000000000E+00 0.  1.
         21    1    1    2  503  502  0.30424269748E+02  0.48808695217E+02 -0.60583499100E+02  0.83536131594E+02  0.00000000000E+00 0.  1.
         21    1    1    2  504  501 -0.30424269748E+02 -0.48808695217E+02  0.84664314488E+01  0.58134373480E+02  0.00000000000E+00 0. -1.
</event>
<event>
 4    1  0.3035432E+006  0.2956695E+02  0.7546771E-02  0.1423397E+00
         21   -1    0    0  502  501  0.00000000000E+00  0.00000000000E+00  0.34559310559E+02  0.34559310559E+02  0.00000000000E+00 0.  1.
         21   -1    0    0  504  502 -0.00000000000E+00 -0.00000000000E+00 -0.29060271739E+02  0.29060271739E+02  0.00000000000E+00 0.  1.
         21    1    1    2  503  501 -0.29138210631E+02  0.50168911402E+01  0.14198438665E+02  0.32799392922E+02  0.00000000000E+00 0.  1.
         21    1    1    2  504  503  0.29138210631E+02 -0.50168911402E+01 -0.86993998454E+01  0.30820189376E+02  0.00000000000E+00 0.  1.
</event>
<event>
 4    1  0.3035432E+006  0.4056260E+02  0.7546771E-02  0.1345220E+00
         21   -1    0    0  504  501  0.00000000000E+00  0.00000000000E+00  0.15992895363E+02  0.15992895363E+02  0.00000000000E+00 0. -1.
         21   -1    0    0  503  502 -0.00000000000E+00 -0.00000000000E+00 -0.10567532900E+03  0.10567532900E+03  0.00000000000E+00 0. -1.
         21    1    1    2  503  501 -0.40157516676E+02 -0.57182623720E+01 -0.54738029366E+02  0.68129116602E+02  0.00000000000E+00 0. -1.
         21    1    1    2  504  502  0.40157516676E+02  0.57182623720E+01 -0.34944404272E+02  0.53539107763E+02  0.00000000000E+00 0. -1.
</event>
<event>
 4    1  0.3035432E+006  0.2187763E+02  0.7546771E-02  0.1507094E+00
         21   -1    0    0  502  501  0.00000000000E+00  0.00000000000E+00  0.31535558201E+02  0.31535558201E+02  0.00000000000E+00 0. -1.
         21   -1    0    0  504  502 -0.00000000000E+00 -0.00000000000E+00 -0.16648196557E+02  0.16648196557E+02  0.00000000000E+00 0. -1.
         21    1    1    2  503  501  0.21844380636E+02  0.12057153378E+01  0.14604284108E+02  0.26304292979E+02  0.00000000000E+00 0. -1.
         21    1    1    2  504  503 -0.21844380636E+02 -0.12057153378E+01  0.28307753621E+00  0.21879461779E+02  0.00000000000E+00 0. -1.
</event>
<event>
 4    1  0.3035432E+006  0.2718930E+02  0.7546771E-02  0.1445716E+00
         21   -1    0    0  502  501  0.00000000000E+00  0.00000000000E+00  0.90302446084E+02  0.90302446084E+02  0.00000000000E+00 0. -1.
         21   -1    0    0  503  502 -0.00000000000E+00 -0.00000000000E+00 -0.11063854641E+02  0.11063854641E+02  0.00000000000E+00 0.  1.
         21    1    1    2  503  504 -0.26764594217E+02  0.47869019604E+01  0.13772327486E+02  0.30478433988E+02  0.00000000000E+00 0.  1.
         21    1    1    2  504  501  0.26764594217E+02 -0.47869019604E+01  0.65466263957E+02  0.70887866737E+02  0.00000000000E+00 0. -1.
</event>
<event>
 4    1  0.3035432E+006  0.2395127E+02  0.7546771E-02  0.1480886E+00
         21   -1    0    0  504  501  0.00000000000E+00  0.00000000000E+00  0.86169352560E+01  0.86169352560E+01  0.00000000000E+00 0. -1.
         21   -1    0    0  503  502 -0.00000000000E+00 -0.00000000000E+00 -0.11166700597E+03  0.11166700597E+03  0.00000000000E+00 0. -1.
         21    1    1    2  503  501  0.21521820962E+02 -0.10510679520E+02 -0.89743232391E+02  0.92884395468E+02  0.00000000000E+00 0. -1.
         21    1    1    2  504  502 -0.21521820962E+02  0.10510679520E+02 -0.13306838320E+02  0.27399545755E+02  0.00000000000E+00 0. -1.
</event>
<event>
 4    1  0.3035432E+006  0.2768400E+02  0.7546771E-02  0.1440856E+00
         21   -1    0    0  504  501  0.00000000000E+00  0.00000000000E+00  0.83418090930E+01  0.83418090930E+01  0.00000000000E+00 0. -1.
         21   -1    0    0  501  502 -0.00000000000E+00 -0.00000000000E+00 -0.13304850355E+04  0.13304850355E+04  0.00000000000E+00 0.  1.
         21    1    1    2  503  502  0.10612737627E+02 -0.25569002275E+02 -0.13069588586E+04  0.13072520270E+04  0.00000000000E+00 0.  1.
         21    1    1    2  504  503 -0.10612737627E+02  0.25569002275E+02 -0.15184367753E+02  0.31574817518E+02  0.00000000000E+00 0. -1.
</event>
<event>
 4    1  0.3035432E+006  0.2235340E+02  0.7546771E-02  0.1500781E+00
         21   -1    0    0  503  501  0.00000000000E+00  0.00000000000E+00  0.55189394749E+02  0.55189394749E+02  0.00000000000E+00 0. -1.
         21   -1    0    0  504  502 -0.00000000000E+00 -0.00000000000E+00 -0.31545309434E+02  0.31545309434E+02  0.00000000000E+00 0.  1.
         21    1    1    2  503  502 -0.18675404786E+02  0.12284282708E+02  0.48440893027E+02  0.53349737233E+02  0.00000000000E+00 0. -1.
         21    1    1    2  504  501  0.18675404786E+02 -0.12284282708E+02 -0.24796807712E+02  0.33384966950E+02  0.00000000000E+00 0.  1.
</event>
<event>
 4    1  0.3035432E+006  0.2184393E+02  0.7546771E-02  0.1507549E+00
         21   -1    0    0  503  501  0.00000000000E+00  0.00000000000E+00  0.43289621347E+03  0.43289621347E+03  0.00000000000E+00 0.  1.
         21   -1    0    0  504  502 -0.00000000000E+00 -0.00000000000E+00 -0.26029247656E+01  0.26029247656E+01  0.00000000000E+00 0. -1.
         21    1    1    2  503  502 -0.21480559108E+02 -0.39677265825E+01  0.38048387079E+03  0.38111039503E+03  0.00000000000E+00 0.  1.
         21    1    1    2  504  501  0.21480559108E+02  0.39677265825E+01  0.49809417920E+02  0.54388743204E+02  0.00000000000E+00 0. -1.
</event>
<event>
 4    1  0.3035432E+006  0.2725476E+02  0.7546771E-02  0.1445066E+00
         21   -1    0    0  503  501  0.00000000000E+00  0.00000000000E+00  0.79450950696E+02  0.79450950696E+02  0.00000000000E+00 0. -1.
         21   -1    0    0  504  502 -0.00000000000E+00 -0.00000000000E+00 -0.45116424649E+02  0.45116424649E+02  0.00000000000E+00 0. -1.
         21    1    1    2  503  502 -0.72217956886E+00  0.27245191178E+02 -0.38288685475E+02  0.46998355515E+02  0.00000000000E+00 0. -1.
         21    1    1    2  504  501  0.72217956886E+00 -0.27245191178E+02  0.72623211522E+02  0.77569019830E+02  0.00000000000E+00 0. -1.
</event>
<event>
 4    1  0.3035432E+006  0.2212514E+02  0.7546771E-02  0.1503786E+00
         21   -1    0    0  504  501  0.00000000000E+00  0.00000000000E+00  0.12124274633E+03  0.12124274633E+03  0.00000000000E+00 0. -1.
         21   -1    0    0  503  502 -0.00000000000E+00 -0.00000000000E+00 -0.53563135667E+01  0.53563135667E+01  0.00000000000E+00 0. -1.
         21    1    1    2  503  501 -0.14217197731E+02 -0.16952670394E+02  0.26534257095E+02  0.34548350820E+02  0.00000000000E+00 0. -1.
         21    1    1    2  504  502  0.14217197731E+02  0.16952670394E+02  0.89352175664E+02  0.92050709072E+02  0.00000000000E+00 0. -1.
</event>
<event>
 4    1  0.3035432E+006  0.3247350E+02  0.7546771E-02  0.1399252E+00
         21   -1    0    0  503  501  0.00000000000E+00  0.00000000000E+00  0.25157455952E+03  0.25157455952E+03  0.00000000000E+00 0.  1.
         21   -1    0    0  504  502 -0.00000000000E+00 -0.00000000000E+00 -0.63940369629E+01  0.63940369629E+01  0.00000000000E+00 0.  1.
         21    1    1    2  503  502  0.26203354998E+02 -0.19181042138E+02  0.46891296714E+02  0.57037898788E+02  0.00000000000E+00 0.  1.
         21    1    1    2  504  501 -0.26203354998E+02  0.19181042138E+02  0.19828922584E+03  0.20093069769E+03  0.00000000000E+00 0.  1.
</event>
<event>
 4    1  0.3035432E+006  0.2183079E+02  0.7546771E-02  0.1507726E+00
         21   -1    0    0  503  501  0.00000000000E+00  0.00000000000E+00  0.28521625737E+03  0.28521625737E+03  0.00000000000E+00 0.  1.
         21   -1    0    0  504  502 -0.00000000000E+00 -0.00000000000E+00 -0.17265699754E+01  0.17265699754E+01  0.00000000000E+00 0.  1.
         21    1    1    2  503  502  0.15215549058E+02 -0.15654720404E+02  0.16749463065E+03  0.16891132141E+03  0.00000000000E+00 0.  1.
         21    1    1    2  504  501 -0.15215549058E+02  0.15654720404E+02  0.11599505674E+03  0.11803150593E+03  0.00000000000E+00 0.  1.
</event>
<event>
 4    1  0.3035432E+006  0.2777140E+02  0.7546771E-02  0.1440009E+00
         21   -1    0    0  504  501  0.00000000000E+00  0.00000000000E+00  0.20479046099E+02  0.20479046099E+02  0.00000000000E+00 0. -1.
         21   -1    0    0  503  502 -0.00000000000E+00 -0.00000000000E+00 -0.46061323083E+02  0.46061323083E+02  0.00000000000E+00 0. -1.
         21    1    1    2  503  501 -0.17615454660E+02  0.21469657457E+02 -0.26999656618E+02  0.38732827055E+02  0.00000000000E+00 0. -1.
         21    1    1    2  504  502  0.17615454660E+02 -0.21469657457E+02  0.14173796337E+01  0.27807542128E+02  0.00000000000E+00 0. -1.
</event>
<event>
 4    1  0.3035432E+006  0.3312126E+02  0.7546771E-02  0.1394275E+00
         21   -1    0    0  503  501  0.00000000000E+00  0.00000000000E+00  0.82783508922E+02  0.82783508922E+02  0.00000000000E+00 0.  1.
         21   -1    0    0  501  502 -0.00000000000E+00 -0.00000000000E+00 -0.13432930432E+02  0.13432930432E+02  0.00000000000E+00 0.  1.
         21    1    1    2  503  504 -0.10633077996E+02 -0.31368066442E+02  0.29086580475E+02  0.44080007983E+02  0.00000000000E+00 0.  1.
         21    1    1    2  504  502  0.10633077996E+02  0.31368066442E+02  0.40263998015E+02  0.52136431372E+02  0.00000000000E+00 0.  1.
</event>
<event>
 4    1  0.3035432E+006  0.2004036E+02  0.7546771E-02  0.1533420E+00
         21   -1    0    0  504  501  0.00000000000E+00  0.00000000000E+00  0.92920191305E+01  0.92920191305E+01  0.00000000000E+00 0. -1.
         21   -1    0    0  503  502 -0.00000000000E+00 -0.00000000000E+00 -0.46095979071E+02  0.46095979071E+02  0.00000000000E+00 0. -1.
         21    1    1    2  503  501  0.12980528009E+02 -0.15268330048E+02 -0.11486448583E+02  0.23098798905E+02  0.00000000000E+00 0. -1.
         21    1    1    2  504  502 -0.12980528009E+02  0.15268330048E+02 -0.25317511358E+02  0.32289199296E+02  0.00000000000E+00 0. -1.
</event>
<event>
 4    1  0.3035432E+006  0.2475134E+02  0.7546771E-02  0.1471604E+00
         21   -1    0    0  503  501  0.00000000000E+00  0.00000000000E+00  0.41585655192E+02  0.41585655192E+02  0.00000000000E+00 0.  1.
         21   -1    0    0  504  502 -0.00000000000E+00 -0.00000000000E+00 -0.69509547226E+02  0.69509547226E+02  0.00000000000E+00 0. -1.
         21    1    1    2  503  502  0.21736718967E+02 -0.11838243780E+02 -0.63273127657E+02  0.67942016829E+02  0.00000000000E+00 0. -1.
         21    1    1    2  504  501 -0.21736718967E+02  0.11838243780E+02  0.35349235623E+02  0.43153185588E+02  0.00000000000E+00 0.  1.
</event>
<event>
 4    1  0.3035432E+006  0.2094767E+02  0.7546771E-02  0.1520013E+00
         21   -1    0    0  502  501  0.00000000000E+00  0.00000000000E+00  0.98882139102E+02  0.98882139102E+02  0.00000000000E+00 0.  1.
         21   -1    0    0  504  502 -0.00000000000E+00 -0.00000000000E+00 -0.84058715443E+01  0.84058715443E+01  0.00000000000E+00 0.  1.
         21    1    1    2  503  501  0.19156644854E+02  0.84751353825E+01  0.82095765402E+02  0.84726145072E+02  0.00000000000E+00 0.  1.
         21    1    1    2  504  503 -0.19156644854E+02 -0.84751353825E+01  0.83805021555E+01  0.22561865574E+02  0.00000000000E+00 0.  1.
</event>
<event>
 4    1  0.3035432E+006  0.2081964E+02  0.7546771E-02  0.1521856E+00
         21   -1    0    0  502  501  0.00000000000E+00  0.00000000000E+00  0.18969064283E+03  0.18969064283E+03  0.00000000000E+00 0.  1.
         21   -1    0    0  503  502 -0.00000000000E+00 -0.00000000000E+00 -0.89691793152E+01  0.89691793152E+01  0.00000000000E+00 0. -1.
         21    1    1    2  503  504 -0.20499023144E+02  0.36397227444E+01  0.46124806600E+01  0.21324458008E+02  0.00000000000E+00 0. -1.
         21    1    1    2  504  501  0.20499023144E+02 -0.36397227444E+01  0.17610898285E+03  0.17733536414E+03  0.00000000000E+00 0.  1.
</event>
<event>
 4    1  0.3035432E+006  0.2090820E+02  0.7546771E-02  0.1520579E+00
         21   -1    0    0  503  501  0.00000000000E+00  0.00000000000E+00  0.22113877560E+01  0.22113877560E+01  0.00000000000E+00 0. -1.
         21   -1    0    0  504  502 -0.00000000000E+00 -0.00000000000E+00 -0.24485179078E+03  0.24485179078E+03  0.00000000000E+00 0. -1.
         21    1    1    2  503  502 -0.68398871776E+00  0.20897013720E+02 -0.17553967602E+03  0.17678045955E+03  0.00000000000E+00 0. -1.
         21    1    1    2  504  501  0.68398871776E+00 -0.20897013720E+02 -0.67100726999E+02  0.70282718977E+02  0.00000000000E+00 0. -1.
</event>
<event>
 4    1  0.3035432E+006  0.2801437E+02  0.7546771E-02  0.1437676E+00
         21   -1    0    0  504  501  0.00000000000E+00  0.00000000000E+00  0.55904671527E+03  0.55904671527E+03  0.00000000000E+00 0.  1.
         21   -1    0    0  501  502 -0.00000000000E+00 -0.00000000000E+00 -0.24154831314E+01  0.24154831314E+01  0.00000000000E+00 0. -1.
         21    1    1    2  503  502 -0.26302602452E+02  0.96425064469E+01  0.96636503993E+02  0.10061520129E+03  0.00000000000E+00 0. -1.
         21    1    1    2  504  503  0.26302602452E+02 -0.96425064469E+01  0.45999472815E+03  0.46084699711E+03  0.00000000000E+00 0.  1.
</event>
<event>
 4    1  0.3035432E+006  0.2514935E+02  0.7546771E-02  0.1467139E+00
         21   -1    0    0  502  501  0.00000000000E+00  0.00000000000E+00  0.72425490913E+02  0.72425490913E+02  0.00000000000E+00 0.  1.
         21   -1    0    0  504  502 -0.00000000000E+00 -0.00000000000E+00 -0.20216369368E+03  0.20216369368E+03  0.00000000000E+00 0.  1.
         21    1    1    2  503  501 -0.23789202867E+02 -0.81586535746E+01  0.69427361908E+02  0.73842050233E+02  0.00000000000E+00 0.  1.
         21    1    1    2  504  503  0.23789202867E+02  0.81586535746E+01 -0.19916556467E+03  0.20074713436E+03  0.00000000000E+00 0.  1.
</event>
<event>
 4    1  0.3035432E+006  0.2034262E+02  0.7546771E-02  0.1528861E+00
         21   -1    0    0  504  501  0.00000000000E+00  0.00000000000E+00  0.35048480602E+01  0.35048480602E+01  0.00000000000E+00 0. -1.
         21   -1    0    0  503  502 -0.00000000000E+00 -0.00000000000E+00 -0.42684246976E+03  0.42684246976E+03  0.00000000000E+00 0.  1.
         21    1    1    2  503  501  0.74255559337E+01  0.18938935220E+02 -0.28659313606E+02  0.35145104988E+02  0.00000000000E+00 0. -1.
         21    1    1    2  504  502 -0.74255559337E+01 -0.18938935220E+02 -0.39467830810E+03  0.39520221284E+03  0.00000000000E+00 0.  1.
</event>
<event>
 4    1  0.3035432E+006  0.2256626E+02  0.7546771E-02  0.1498018E+00
         21   -1    0    0  504  501  0.00000000000E+00  0.00000000000E+00  0.11233266009E+02  0.11233266009E+02  0.00000000000E+00 0.  1.
         21   -1    0    0  503  502 -0.00000000000E+00 -0.00000000000E+00 -0.27904434089E+03  0.27904434089E+03  0.00000000000E+00 0.  1.
         21    1    1    2  503  501 -0.22309575298E+02 -0.33939688396E+01 -0.26673271491E+03  0.26768559427E+03  0.00000000000E+00 0.  1.
         21    1    1    2  504  502  0.22309575298E+02  0.33939688396E+01 -0.10783599688E+01  0.22592012630E+02  0.00000000000E+00 0.  1.
</event>
<event>
 4    1  0.3035432E+006  0.3028630E+02  0.7546771E-02  0.1417124E+00
         21   -1    0    0  504  501  0.00000000000E+00  0.00000000000E+00  0.51925986466E+01  0.51925986466E+01  0.00000000000E+00 0.  1.
         21   -1    0    0  503  502 -0.00000000000E+00 -0.00000000000E+00 -0.43297627729E+03  0.43297627729E+03  0.00000000000E+00 0.  1.
         21    1    1    2  503  501 -0.11243119020E+02  0.28122098872E+02 -0.45322702217E+02  0.54510618292E+02  0.00000000000E+00 0.  1.
         21    1    1    2  504  502  0.11243119020E+02 -0.28122098872E+02 -0.38246097642E+03  0.38365825764E+03  0.00000000000E+00 0.  1.
</event>
<event>
 4    1  0.3035432E+006  0.2024024E+02  0.7546771E-02  0.1530394E+00
         21   -1    0    0  504  501  0.00000000000E+00  0.00000000000E+00  0.76876766586E+01  0.76876766586E+01  0.00000000000E+00 0.  1.
         21   -1    0    0  501  502 -0.00000000000E+00 -0.00000000000E+00 -0.23309036696E+03  0.23309036696E+03  0.00000000000E+00 0.  1.
         21    1    1    2  503  502  0.15987605217E+02  0.12412247103E+02 -0.21843698712E+03  0.21937270738E+03  0.00000000000E+00 0.  1.
         21    1    1    2  504  503 -0.15987605217E+02 -0.12412247103E+02 -0.69657031753E+01  0.21405336238E+02  0.00000000000E+00 0.  1.
</event>
<event>
 4    1  0.3035432E+006  0.2274635E+02  0.7546771E-02  0.1495708E+00
         21   -1    0    0  504  501  0.00000000000E+00  0.00000000000E+00  0.61405968535E+02  0.61405968535E+02  0.00000000000E+00 0.  1.
         21   -1    0    0  501  502 -0.00000000000E+00 -0.00000000000E+00 -0.58574876477E+02  0.58574876477E+02  0.00000000000E+00 0.  1.
         21    1    1    2  503  502 -0.17995544895E+02 -0.13912464897E+02 -0.54092707773E+02  0.58680638628E+02  0.00000000000E+00 0.  1.
         21    1    1    2  504  503  0.17995544895E+02  0.13912464897E+02  0.56923799831E+02  0.61300206384E+02  0.00000000000E+00 0.  1.
</event>
<event>
 4    1  0.3035432E+006  0.3363244E+02  0.7546771E-02  0.1390441E+00
         21   -1    0    0  504  501  0.00000000000E+00  0.00000000000E+00  0.10317035287E+03  0.10317035287E+03  0.00000000000E+00 0. -1.
         21   -1    0    0  503  502 -0.00000000000E+00 -0.00000000000E+00 -0.51118138637E+02  0.51118138637E+02  0.00000000000E+00 0. -1.
         21    1    1    2  503  501 -0.30201308998E+02  0.14799399766E+02  0.94398715078E+02  0.10021107078E+03  0.00000000000E+00 0. -1.
         21    1    1    2  504  502  0.30201308998E+02 -0.14799399766E+02 -0.42346500845E+02  0.54077420726E+02  0.00000000000E+00 0. -1.
</event>
<event>
 4    1  0.3035432E+006  0.2685120E+02  0.7546771E-02  0.1449109E+00
         21   -1    0    0  504  501  0.00000000000E+00  0.00000000000E+00  0.10042034160E+03  0.10042034160E+03  0.00000000000E+00 0. -1.
         21   -1    0    0  503  502 -0.00000000000E+00 -0.00000000000E+00 -0.17544468925E+02  0.17544468925E+02  0.00000000000E+00 0. -1.
         21    1    1    2  503  501  0.23929665544E+02 -0.12180239505E+02 -0.38969304974E+01  0.27132511766E+02  0.00000000000E+00 0. -1.
         21    1    1    2  504  502 -0.23929665544E+02  0.12180239505E+02  0.86772803175E+02  0.90832298761E+02  0.00000000000E+00 0. -1.
</event>
<event>
 4    1  0.3035432E+006  0.2139356E+02  0.7546771E-02  0.1513719E+00
         21   -1    0    0  503  501  0.00000000000E+00  0.00000000000E+00  0.54765354098E+02  0.54765354098E+02  0.00000000000E+00 0.  1.
         21   -1    0    0  504  502 -0.00000000000E+00 -0.00000000000E+00 -0.48183488974E+02  0.48183488974E+02  0.00000000000E+00 0. -1.
         21    1    1    2  503  502  0.15033402445E+02  0.15221075445E+02 -0.43507072681E+02  0.48482467965E+02  0.00000000000E+00 0. -1.
         21    1    1    2  504  501 -0.15033402445E+02 -0.15221075445E+02  0.50088937805E+02  0.54466375106E+02  0.00000000000E+00 0.  1.
</event>
<event>
 4    1  0.3035432E+006  0.3041654E+02  0.7546771E-02  0.1416011E+00
         21   -1    0    0  504  501  0.00000000000E+00  0.00000000000E+00  0.16433272495E+02  0.16433272495E+02  0.00000000000E+00 0. -1.
         21   -1    0    0  503  502 -0.00000000000E+00 -0.00000000000E+00 -0.59598280966E+02  0.59598280966E+02  0.00000000000E+00 0.  1.
         21    1    1    2  503  501 -0.28249928690E+02 -0.11274183381E+02 -0.30527933989E+02  0.43094320223E+02  0.00000000000E+00 0.  1.
         21    1    1    2  504  502  0.28249928690E+02  0.11274183381E+02 -0.12637074482E+02  0.32937233237E+02  0.00000000000E+00 0. -1.
</event>
<event>
 4    1  0.3035432E+006  0.2453405E+02  0.7546771E-02  0.1474084E+00
         21   -1    0    0  504  501  0.00000000000E+00  0.00000000000E+00  0.24233320320E+02  0.24233320320E+02  0.00000000000E+00 0. -1.
         21   -1    0    0  503  502 -0.00000000000E+00 -0.00000000000E+00 -0.14039445839E+03  0.14039445839E+03  0.00000000000E+00 0.  1.
         21    1    1    2  503  501 -0.24533814190E+02  0.10749215548E+00  0.16597708283E+02  0.29620997848E+02  0.00000000000E+00 0. -1.
         21    1    1    2  504  502  0.24533814190E+02 -0.10749215548E+00 -0.13275884636E+03  0.13500678086E+03  0.00000000000E+00 0.  1.
</event>
<event>
 4    1  0.3035432E+006  0.3405293E+02  0.7546771E-02  0.1387346E+00
         21   -1    0    0  502  501  0.00000000000E+00  0.00000000000E+00  0.10416139672E+04  0.10416139672E+04  0.00000000000E+00 0. -1.
         21   -1    0    0  504  502 -0.00000000000E+00 -0.00000000000E+00 -0.16881645315E+01  0.16881645315E+01  0.00000000000E+00 0.  1.
         21    1    1    2  503  501 -0.21083045795E+02 -0.26741494553E+02  0.82437721730E+03  0.82508023777E+03  0.00000000000E+00 0. -1.
         21    1    1    2  504  503  0.21083045795E+02  0.26741494553E+02  0.21554858536E+03  0.21822189396E+03  0.00000000000E+00 0.  1.
</event>
<event>
 4    1  0.3035432E+006  0.2042972E+02  0.7546771E-02  0.1527565E+00
         21   -1    0    0  502  501  0.00000000000E+00  0.00000000000E+00  0.38622783193E+02  0.38622783193E+02  0.00000000000E+00 0.  1.
         21   -1    0    0  503  502 -0.00000000000E+00 -0.00000000000E+00 -0.40323514126E+02  0.40323514126E+02  0.00000000000E+00 0.  1.
         21    1    1    2  503  504  0.20157774984E+02 -0.33223120562E+01 -0.34622573332E+02  0.40200699419E+02  0.00000000000E+00 0.  1.
         21    1    1    2  504  501 -0.20157774984E+02  0.33223120562E+01  0.32921842398E+02  0.38745597900E+02  0.00000000000E+00 0.  1.
</event>
<event>
 4    1  0.3035432E+006  0.2155414E+02  0.7546771E-02  0.1511498E+00
         21   -1    0    0  502  501  0.00000000000E+00  0.00000000000E+00  0.10552171087E+02  0.10552171087E+02  0.00000000000E+00 0.  1.
         21   -1    0    0  503  502 -0.00000000000E+00 -0.00000000000E+00 -0.91927553451E+03  0.91927553451E+03  0.00000000000E+00 0. -1.
         21    1    1    2  503  504  0.21469750428E+02  0.19054785376E+01 -0.90800583503E+03  0.90826162392E+03  0.00000000000E+00 0. -1.
         21    1    1    2  504  501 -0.21469750428E+02 -0.19054785376E+01 -0.71752838894E+00  0.21566081677E+02  0.00000000000E+00 0.  1.
</event>
<event>
 4    1  0.3035432E+006  0.2262059E+02  0.7546771E-02  0.1497318E+00
         21   -1    0    0  504  501  0.00000000000E+00  0.00000000000E+00  0.73979348984E+01  0.73979348984E+01  0.00000000000E+00 0.  1.
         21   -1    0    0  503  502 -0.00000000000E+00 -0.00000000000E+00 -0.16804756841E+03  0.16804756841E+03  0.00000000000E+00 0.  1.
         21    1    1    2  503  501 -0.14782554799E+02  0.17122128456E+02 -0.13034568992E+02  0.26107301623E+02  0.00000000000E+00 0.  1.
         21    1    1    2  504  502  0.14782554799E+02 -0.17122128456E+02 -0.14761506452E+03  0.14933820169E+03  0.00000000000E+00 0.  1.
</event>
<event>
 4    1  0.3035432E+006  0.2795598E+02  0.7546771E-02  0.1438234E+00
         21   -1    0    0  504  501  0.00000000000E+00  0.00000000000E+00  0.32757500304E+01  0.32757500304E+01  0.00000000000E+00 0. -1.
         21   -1    0    0  503  502 -0.00000000000E+00 -0.00000000000E+00 -0.28272138284E+03  0.28272138284E+03  0.00000000000E+00 0.  1.
         21    1    1    2  503  501  0.18998413714E+02  0.20508468581E+02 -0.19622463935E+03  0.19820606977E+03  0.00000000000E+00 0.  1.
         21    1    1    2  504  502 -0.18998413714E+02 -0.20508468581E+02 -0.83220993458E+02  0.87791063095E+02  0.00000000000E+00 0. -1.
</event>
<event>
 4    1  0.3035432E+006  0.2506109E+02  0.7546771E-02  0.1468121E+00
         21   -1    0    0  504  501  0.00000000000E+00  0.00000000000E+00  0.60658201075E+03  0.60658201075E+03  0.00000000000E+00 0. -1.
         21   -1    0    0  503  502 -0.00000000000E+00 -0.00000000000E+00 -0.47638975294E+03  0.47638975294E+03  0.00000000000E+00 0. -1.
         21    1    1    2  503  501  0.19123761278E+02  0.16196919790E+02  0.60599324649E+03  0.60651123093E+03  0.00000000000E+00 0. -1.
         21    1    1    2  504  502 -0.19123761278E+02 -0.16196919790E+02 -0.47580098867E+03  0.47646053276E+03  0.00000000000E+00 0. -1.
</event>
<event>
 4    1  0.3035432E+006  0.2007276E+02  0.7546771E-02  0.1532926E+00
         21   -1    0    0  503  501  0.00000000000E+00  0.00000000000E+00  0.30321914366E+03  0.30321914366E+03  0.00000000000E+00 0.  1.
         21   -1    0    0  504  502 -0.00000000000E+00 -0.00000000000E+00 -0.19838726740E+01  0.19838726740E+01  0.00000000000E+00 0.  1.
         21    1    1    2  503  502  0.18418171481E+01  0.19988081798E+02  0.23830736694E+03  0.23915124261E+03  0.00000000000E+00 0.  1.
         21    1    1    2  504  501 -0.18418171481E+01 -0.19988081798E+02  0.62927904046E+02  0.66051773723E+02  0.00000000000E+00 0.  1.
</event>
<event>
 4    1  0.3035432E+006  0.2648943E+02  0.7546771E-02  0.1452805E+00
         21   -1    0    0  503  501  0.00000000000E+00  0.00000000000E+00  0.24091905156E+03  0.24091905156E+03  0.00000000000E+00 0.  1.
         21   -1    0    0  504  502 -0.00000000000E+00 -0.00000000000E+00 -0.29807679066E+01  0.29807679066E+01  0.00000000000E+00 0.  1.
         21    1    1    2  503  502 -0.26420575555E+02 -0.19086608278E+01  0.10052097646E+03  0.10395266475E+03  0.00000000000E+00 0.  1.
         21    1    1    2  504  501  0.26420575555E+02  0.19086608278E+01  0.13741730719E+03  0.13994715472E+03  0.00000000000E+00 0.  1.
</event>
<event>
 4    1  0.3035432E+006  0.3227618E+02  0.7546771E-02  0.1400795E+00
         21   -1    0    0  504  501  0.00000000000E+00  0.00000000000E+00  0.23283444805E+02  0.23283444805E+02  0.00000000000E+00 0. -1.
         21   -1    0    0  503  502 -0.00000000000E+00 -0.00000000000E+00 -0.45384420959E+02  0.45384420959E+02  0.00000000000E+00 0. -1.
         21    1    1    2  503  501 -0.11032056451E+02  0.30332254903E+02 -0.15134818956E+02  0.35648488073E+02  0.00000000000E+00 0. -1.
         21    1    1    2  504  502  0.11032056451E+02 -0.30332254903E+02 -0.69661571978E+01  0.33019377692E+02  0.00000000000E+00 0. -1.
</event>
<event>
 4    1  0.3035432E+006  0.2354514E+02  0.7546771E-02  0.1485764E+00
         21   -1    0    0  504  501  0.00000000000E+00  0.00000000000E+00  0.29902799208E+02  0.29902799208E+02  0.00000000000E+00 0.  1.
         21   -1    0    0  501  502 -0.00000000000E+00 -0.00000000000E+00 -0.92342858623E+03  0.92342858623E+03  0.00000000000E+00 0.  1.
         21    1    1    2  503  502  0.59362878148E+01  0.22784513994E+02 -0.91861944373E+03  0.91892113698E+03  0.00000000000E+00 0.  1.
         21    1    1    2  504  503 -0.59362878148E+01 -0.22784513994E+02  0.25093656717E+02  0.34410248450E+02  0.00000000000E+00 0.  1.
</event>
<event>
 4    1  0.3035432E+006  0.3630750E+02  0.7546771E-02  0.1371597E+00
         21   -1    0    0  503  501  0.00000000000E+00  0.00000000000E+00  0.34524352876E+03  0.34524352876E+03  0.00000000000E+00 0.  1.
         21   -1    0    0  501  502 -0.00000000000E+00 -0.00000000000E+00 -0.62701784345E+02  0.62701784345E+02  0.00000000000E+00 0. -1.
         21    1    1    2  503  504 -0.23869965355E+01  0.36228944905E+02  0.33893545063E+03  0.34087457208E+03  0.00000000000E+00 0.  1.
         21    1    1    2  504  502  0.23869965355E+01 -0.36228944905E+02 -0.56393706210E+02  0.67070741024E+02  0.00000000000E+00 0. -1.
</event>
<event>
 4    1  0.3035432E+006  0.2779999E+02  0.7546771E-02  0.1439733E+00
         21   -1    0    0  503  501  0.00000000000E+00  0.00000000000E+00  0.33867551051E+03  0.33867551051E+03  0.00000000000E+00 0. -1.
         21   -1    0    0  504  502 -0.00000000000E+00 -0.00000000000E+00 -0.49648291097E+01  0.49648291097E+01  0.00000000000E+00 0. -1.
         21    1    1    2  503  502 -0.27791201903E+02 -0.69896522270E+00  0.40549680708E+02  0.49164174570E+02  0.00000000000E+00 0. -1.
         21    1    1    2  504  501  0.27791201903E+02  0.69896522270E+00  0.29316100070E+03  0.29447616505E+03  0.00000000000E+00 0. -1.
</event>
<event>
 4    1  0.3035432E+006  0.2079496E+02  0.7546771E-02  0.1522213E+00
         21   -1    0    0  504  501  0.00000000000E+00  0.00000000000E+00  0.23796822874E+02  0.23796822874E+02  0.00000000000E+00 0. -1.
         21   -1    0    0  503  502 -0.00000000000E+00 -0.00000000000E+00 -0.18430148402E+02  0.18430148402E+02  0.00000000000E+00 0. -1.
         21    1    1    2  503  501 -0.76970516036E+01  0.19318015229E+02  0.18341605212E+00  0.20795767772E+02  0.00000000000E+00 0. -1.
         21    1    1    2  504  502  0.76970516036E+01 -0.19318015229E+02  0.51832584196E+01  0.21431203504E+02  0.00000000000E+00 0. -1.
</event>
<event>
 4    1  0.3035432E+006  0.2004399E+02  0.7546771E-02  0.1533364E+00
         21   -1    0    0  504  501  0.00000000000E+00  0.00000000000E+00  0.21890934710E+02  0.21890934710E+02  0.00000000000E+00 0.  1.
         21   -1    0    0  503  502 -0.00000000000E+00 -0.00000000000E+00 -0.64066356352E+02  0.64066356352E+02  0.00000000000E+00 0. -1.
         21    1    1    2  503  501  0.15847224998E+02  0.12273013435E+02 -0.57392164147E+02  0.60791626927E+02  0.00000000000E+00 0. -1.
         21    1    1    2  504  502 -0.15847224998E+02 -0.12273013435E+02  0.15216742505E+02  0.25165664135E+02  0.00000000000E+00 0.  1.
</event>
<event>
 4    1  0.3035432E+006  0.2831088E+02  0.7546771E-02  0.1434867E+00
         21   -1    0    0  504  501  0.00000000000E+00  0.00000000000E+00  0.26071743518E+02  0.26071743518E+02  0.00000000000E+00 0.  1.
         21   -1    0    0  503  502 -0.00000000000E+00 -0.00000000000E+00 -0.31080530985E+02  0.31080530985E+02  0.00000000000E+00 0. -1.
         21    1    1    2  503  501  0.27847614681E+02  0.51006392393E+01  0.47649812747E+00  0.28314893864E+02  0.00000000000E+00 0.  1.
         21    1    1    2  504  502 -0.27847614681E+02 -0.51006392393E+01 -0.54852855945E+01  0.28837380639E+02  0.00000000000E+00 0. -1.
</event>
<event>
 4    1  0.3035432E+006  0.3234958E+02  0.7546771E-02  0.1400220E+00
         21   -1    0    0  503  501  0.00000000000E+00  0.00000000000E+00  0.18701172090E+03  0.18701172090E+03  0.00000000000E+00 0.  1.
         21   -1    0    0  504  502 -0.00000000000E+00 -0.00000000000E+00 -0.16178966374E+02  0.16178966374E+02  0.00000000000E+00 0.  1.
         21    1    1    2  503  502  0.24031730573E+02 -0.21655742620E+02  0.16758472899E+03  0.17067845984E+03  0.00000000000E+00 0.  1.
         21    1    1    2  504  501 -0.24031730573E+02  0.21655742620E+02  0.32480255356E+01  0.32512227433E+02  0.00000000000E+00 0.  1.
</event>
<event>
 4    1  0.3035432E+006  0.2637658E+02  0.7546771E-02  0.1453973E+00
         21   -1    0    0  503  501  0.00000000000E+00  0.00000000000E+00  0.54096887552E+01  0.54096887552E+01  0.00000000000E+00 0.  1.
         21   -1    0    0  504  502 -0.00000000000E+00 -0.00000000000E+00 -0.15885843614E+03  0.15885843614E+03  0.00000000000E+00 0.  1.
         21    1    1    2  503  502 -0.46923053745E+01  0.25955855465E+02 -0.40882497502E+02  0.48652880332E+02  0.00000000000E+00 0.  1.
         21    1    1    2  504  501  0.46923053745E+01 -0.25955855465E+02 -0.11256624988E+03  0.11561524456E+03  0.00000000000E+00 0.  1.
</event>
<event>
 4    1  0.3035432E+006  0.2450303E+02  0.7546771E-02  0.1474440E+00
         21   -1    0    0  502  501  0.00000000000E+00  0.00000000000E+00  0.50667026664E+02  0.50667026664E+02  0.00000000000E+00 0.  1.
         21   -1    0    0  503  502 -0.00000000000E+00 -0.00000000000E+00 -0.11947671639E+02  0.11947671639E+02  0.00000000000E+00 0.  1.
         21    1    1    2  503  504  0.24261725527E+02  0.34303185576E+01  0.22192019285E+02  0.33058798086E+02  0.00000000000E+00 0.  1.
         21    1    1    2  504  501 -0.24261725527E+02 -0.34303185576E+01  0.16527335741E+02  0.29555900217E+02  0.00000000000E+00 0.  1.
</event>
<event>
 4    1  0.3035432E+006  0.2465109E+02  0.7546771E-02  0.1472745E+00
         21   -1    0    0  502  501  0.00000000000E+00  0.00000000000E+00  0.16083994483E+02  0.16083994483E+02  0.00000000000E+00 0.  1.
         21   -1    0    0  504  502 -0.00000000000E+00 -0.00000000000E+00 -0.12916863321E+03  0.12916863321E+03  0.00000000000E+00 0.  1.
         21    1    1    2  503  501  0.11361053396E+02  0.21876987795E+02  0.45460018337E+01  0.25066756110E+02  0.00000000000E+00 0.  1.
         21    1    1    2  504  503 -0.11361053396E+02 -0.21876987795E+02 -0.11763064057E+03  0.12018587159E+03  0.00000000000E+00 0.  1.
</event>
<event>
 4    1  0.3035432E+006  0.3161538E+02  0.7546771E-02  0.1406060E+00
         21   -1    0    0  502  501  0.00000000000E+00  0.00000000000E+00  0.29557825373E+01  0.29557825373E+01  0.00000000000E+00 0.  1.
         21   -1    0    0  504  502 -0.00000000000E+00 -0.00000000000E+00 -0.46352764820E+03  0.46352764820E+03  0.00000000000E+00 0.  1.
         21    1    1    2  503  501 -0.29518111035E+02 -0.11323131230E+02 -0.10898661551E+03  0.11347957764E+03  0.00000000000E+00 0.  1.
         21    1    1    2  504  503  0.29518111035E+02  0.11323131230E+02 -0.35158525015E+03  0.35300385310E+03  0.00000000000E+00 0.  1.
</event>
<event>
 4    1  0.3035432E+006  0.2094859E+02  0.7546771E-02  0.1520000E+00
         21   -1    0    0  504  501  0.00000000000E+00  0.00000000000E+00  0.66083394025E+01  0.66083394025E+01  0.00000000000E+00 0. -1.
         21   -1    0    0  501  502 -0.00000000000E+00 -0.00000000000E+00 -0.15399837301E+03  0.15399837301E+03  0.00000000000E+00 0.  1.
         21    1    1    2  503  502 -0.20804344253E+02  0.24540887786E+01 -0.13425769337E+03  0.13588219721E+03  0.00000000000E+00 0.  1.
         21    1    1    2  504  503  0.20804344253E+02 -0.24540887786E+01 -0.13132340237E+02  0.24724515195E+02  0.00000000000E+00 0. -1.
</event>
<event>
 4    1  0.3035432E+006  0.2211503E+02  0.7546771E-02  0.1503920E+00
         21   -1    0    0  504  501  0.00000000000E+00  0.00000000000E+00  0.88315162971E+01  0.88315162971E+01  0.00000000000E+00 0.  1.
         21   -1    0    0  503  502 -0.00000000000E+00 -0.00000000000E+00 -0.19128904740E+03  0.19128904740E+03  0.00000000000E+00 0. -1.
         21    1    1    2  503  501 -0.14054006660E+02  0.17075112372E+02 -0.17557069513E+03  0.17695802767E+03  0.00000000000E+00 0. -1.
         21    1    1    2  504  502  0.14054006660E+02 -0.17075112372E+02 -0.68868359697E+01  0.23162536031E+02  0.00000000000E+00 0.  1.
</event>
<event>
 4    1  0.3035432E+006  0.3937168E+02  0.7546771E-02  0.1352208E+00
         21   -1    0    0  502  501  0.00000000000E+00  0.00000000000E+00  0.32297957191E+03  0.32297957191E+03  0.00000000000E+00 0. -1.
         21   -1    0    0  503  502 -0.00000000000E+00 -0.00000000000E+00 -0.64820012044E+01  0.64820012044E+01  0.00000000000E+00 0. -1.
         21    1    1    2  503  504  0.23374619020E+02 -0.31682112670E+02  0.74321638983E+02  0.84106094302E+02  0.00000000000E+00 0. -1.
         21    1    1    2  504  501 -0.23374619020E+02  0.31682112670E+02  0.24217593172E+03  0.24535547881E+03  0.00000000000E+00 0. -1.
</event>
<event>
 4    1  0.3035432E+006  0.2483990E+02  0.7546771E-02  0.1470602E+00
         21   -1    0    0  504  501  0.00000000000E+00  0.00000000000E+00  0.41743718126E+03  0.41743718126E+03  0.00000000000E+00 0.  1.
         21   -1    0    0  501  502 -0.00000000000E+00 -0.00000000000E+00 -0.92347389580E+02  0.92347389580E+02  0.00000000000E+00 0. -1.
         21    1    1    2  503  502  0.22881716815E+02  0.96668417714E+01 -0.90299252113E+02  0.93653487529E+02  0.00000000000E+00 0. -1.
         21    1    1    2  504  503 -0.22881716815E+02 -0.96668417714E+01  0.41538904379E+03  0.41613108331E+03  0.00000000000E+00 0.  1.
</event>
<event>
 4    1  0.3035432E+006  0.3341616E+02  0.7546771E-02  0.1392053E+00
         21   -1    0    0  502  501  0.00000000000E+00  0.00000000000E+00  0.13752729943E+02  0.13752729943E+02  0.00000000000E+00 0. -1.
         21   -1    0    0  504  502 -0.00000000000E+00 -0.00000000000E+00 -0.10822638348E+03  0.10822638348E+03  0.00000000000E+00 0. -1.
         21    1    1    2  503  501 -0.33411044262E+02  0.58481907589E+00 -0.16755726253E+02  0.37381736908E+02  0.00000000000E+00 0. -1.
         21    1    1    2  504  503  0.33411044262E+02 -0.58481907589E+00 -0.77717927285E+02  0.84597376517E+02  0.00000000000E+00 0. -1.
</event>
<event>
 4    1  0.3035432E+006  0.3442386E+02  0.7546771E-02  0.1384659E+00
         21   -1    0    0  502  501  0.00000000000E+00  0.00000000000E+00  0.67848555579E+03  0.67848555579E+03  0.00000000000E+00 0. -1.
         21   -1    0    0  504  502 -0.00000000000E+00 -0.00000000000E+00 -0.26844518827E+02  0.26844518827E+02  0.00000000000E+00 0.  1.
         21    1    1    2  503  501 -0.17501472544E+02  0.29642883400E+02  0.66682019729E+03  0.66770815301E+03  0.00000000000E+00 0. -1.
         21    1    1    2  504  503  0.17501472544E+02 -0.29642883400E+02 -0.15179160327E+02  0.37621921611E+02  0.00000000000E+00 0.  1.
</event>
<event>
 4    1  0.3035432E+006  0.2164967E+02  0.7546771E-02  0.1510188E+00
         21   -1    0    0  503  501  0.00000000000E+00  0.00000000000E+00  0.32282447074E+03  0.32282447074E+03  0.00000000000E+00 0. -1.
         21   -1    0    0  504  502 -0.00000000000E+00 -0.00000000000E+00 -0.59742769758E+01  0.59742769758E+01  0.00000000000E+00 0.  1.
         21    1    1    2  503  502  0.37363454441E+01  0.21324823656E+02  0.15390553862E+02  0.26562709376E+02  0.00000000000E+00 0.  1.
         21    1    1    2  504  501 -0.37363454441E+01 -0.21324823656E+02  0.30145963990E+03  0.30223603834E+03  0.00000000000E+00 0. -1.
</event>
<event>
 4    1  0.3035432E+006  0.2872689E+02  0.7546771E-02  0.1430992E+00
         21   -1    0    0  504  501  0.00000000000E+00  0.00000000000E+00  0.14738286305E+04  0.14738286305E+04  0.00000000000E+00 0.  1.
         21   -1    0    0  503  502 -0.00000000000E+00 -0.00000000000E+00 -0.32521943274E+01  0.32521943274E+01  0.00000000000E+00 0.  1.
         21    1    1    2  503  501 -0.22854767327E+02 -0.17403843327E+02  0.63325409892E+02  0.69536621216E+02  0.00000000000E+00 0.  1.
         21    1    1    2  504  502  0.22854767327E+02  0.17403843327E+02  0.14072510263E+04  0.14075442036E+04  0.00000000000E+00 0.  1.
</event>
<event>
 4    1  0.3035432E+006  0.3264410E+02  0.7546771E-02  0.1397928E+00
         21   -1    0    0  503  501  0.00000000000E+00  0.00000000000E+00  0.42288362530E+03  0.42288362530E+03  0.00000000000E+00 0. -1.
         21   -1    0    0  504  502 -0.00000000000E+00 -0.00000000000E+00 -0.29603366808E+01  0.29603366808E+01  0.00000000000E+00 0. -1.
         21    1    1    2  503  502  0.32639269914E+02  0.56167404627E+00  0.29208686745E+03  0.29390538538E+03  0.00000000000E+00 0. -1.
         21    1    1    2  504  501 -0.32639269914E+02 -0.56167404627E+00  0.12783642117E+03  0.13193857660E+03  0.00000000000E+00 0. -1.
</event>
<event>
 4    1  0.3035432E+006  0.5772122E+02  0.7546771E-02  0.1267778E+00
         21   -1    0    0  503  501  0.00000000000E+00  0.00000000000E+00  0.13068853464E+02  0.13068853464E+02  0.00000000000E+00 0.  1.
         21   -1    0    0  504  502 -0.00000000000E+00 -0.00000000000E+00 -0.64455927704E+03  0.64455927704E+03  0.00000000000E+00 0.  1.
         21    1    1    2  503  502  0.41342274010E+02 -0.40280953595E+02 -0.60098241084E+02  0.83327891034E+02  0.00000000000E+00 0.  1.
         21    1    1    2  504  501 -0.41342274010E+02  0.40280953595E+02 -0.57139218249E+03  0.57430023947E+03  0.00000000000E+00 0.  1.
</event>
<event>
 4    1  0.3035432E+006  0.2749039E+02  0.7546771E-02  0.1442743E+00
         21   -1    0    0  503  501  0.00000000000E+00  0.00000000000E+00  0.39003358105E+01  0.39003358105E+01  0.00000000000E+00 0.  1.
         21   -1    0    0  504  502 -0.00000000000E+00 -0.00000000000E+00 -0.26097755925E+03  0.26097755925E+03  0.00000000000E+00 0.  1.
         21    1    1    2  503  502 -0.19981525910E+01 -0.27417677907E+02 -0.61324319581E+02  0.67204120765E+02  0.00000000000E+00 0.  1.
         21    1    1    2  504  501  0.19981525910E+01  0.27417677907E+02 -0.19575290386E+03  0.19767377430E+03  0.00000000000E+00 0.  1.
</event>
<event>
 4    1  0.3035432E+006  0.2055890E+02  0.7546771E-02  0.1525657E+00
         21   -1    0    0  504  501  0.00000000000E+00  0.00000000000E+00  0.28491164933E+03  0.28491164933E+03  0.00000000000E+00 0.  1.
         21   -1    0    0  503  502 -0.00000000000E+00 -0.00000000000E+00 -0.15310716919E+01  0.15310716919E+01  0.00000000000E+00 0.  1.
         21    1    1    2  503  501 -0.11035270234E+02 -0.17346219032E+02  0.16693387956E+03  0.16819509104E+03  0.00000000000E+00 0.  1.
         21    1    1    2  504  502  0.11035270234E+02  0.17346219032E+02  0.11644669807E+03  0.11824762998E+03  0.00000000000E+00 0.  1.
</event>
<event>
 4    1  0.3035432E+006  0.2359165E+02  0.7546771E-02  0.1485200E+00
         21   -1    0    0  502  501  0.00000000000E+00  0.00000000000E+00  0.50485328068E+02  0.50485328068E+02  0.00000000000E+00 0.  1.
         21   -1    0    0  503  502 -0.00000000000E+00 -0.00000000000E+00 -0.33555323707E+02  0.33555323707E+02  0.00000000000E+00 0.  1.
         21    1    1    2  503  504 -0.81333024176E+01  0.22145318917E+02 -0.25967540474E+02  0.35083883999E+02  0.00000000000E+00 0.  1.
         21    1    1    2  504  501  0.81333024176E+01 -0.22145318917E+02  0.42897544836E+02  0.48956767776E+02  0.00000000000E+00 0.  1.
</event>
<event>
 4    1  0.3035432E+006  0.2083921E+02  0.7546771E-02  0.1521573E+00
         21   -1    0    0  504  501  0.00000000000E+00  0.00000000000E+00  0.23238759930E+03  0.23238759930E+03  0.00000000000E+00 0.  1.
         21   -1    0    0  503  502 -0.00000000000E+00 -0.00000000000E+00 -0.77860703131E+01  0.77860703131E+01  0.00000000000E+00 0. -1.
         21    1    1    2  503  501 -0.67229302992E+01 -0.19724983881E+02  0.76122539700E+01  0.22186013418E+02  0.00000000000E+00 0. -1.
         21    1    1    2  504  502  0.67229302992E+01  0.19724983881E+02  0.21698927502E+03  0.21798765620E+03  0.00000000000E+00 0.  1.
</event>
<event>
 4    1  0.3035432E+006  0.3697050E+02  0.7546771E-02  0.1367215E+00
         21   -1    0    0  503  501  0.00000000000E+00  0.00000000000E+00  0.27779257222E+02  0.27779257222E+02  0.00000000000E+00 0.  1.
         21   -1    0    0  504  502 -0.00000000000E+00 -0.00000000000E+00 -0.26599040181E+03  0.26599040181E+03  0.00000000000E+00 0.  1.
         21    1    1    2  503  502  0.35406951350E+02 -0.10637950008E+02  0.13499808542E+02  0.39358137849E+02  0.00000000000E+00 0.  1.
         21    1    1    2  504  501 -0.35406951350E+02  0.10637950008E+02 -0.25171095313E+03  0.25441152118E+03  0.00000000000E+00 0.  1.
</event>
<event>
 4    1  0.3035432E+006  0.2694634E+02  0.7546771E-02  0.1448148E+00
         21   -1    0    0  503  501  0.00000000000E+00  0.00000000000E+00  0.40067325913E+01  0.40067325913E+01  0.00000000000E+00 0.  1.
         21   -1    0    0  501  502 -0.00000000000E+00 -0.00000000000E+00 -0.54235402806E+03  0.54235402806E+03  0.00000000000E+00 0. -1.
         21    1    1    2  503  504  0.10441378547E+02  0.24841149850E+02 -0.46257504151E+02  0.53533744518E+02  0.00000000000E+00 0.  1.
         21    1    1    2  504  502 -0.10441378547E+02 -0.24841149850E+02 -0.49208979132E+03  0.49282701614E+03  0.00000000000E+00 0. -1.
</event>
<event>
 4    1  0.3035432E+006  0.2009601E+02  0.7546771E-02  0.1532573E+00
         21   -1    0    0  503  501  0.00000000000E+00  0.00000000000E+00  0.18004364135E+02  0.18004364135E+02  0.00000000000E+00 0. -1.
         21   -1    0    0  504  502 -0.00000000000E+00 -0.00000000000E+00 -0.27263777660E+02  0.27263777660E+02  0.00000000000E+00 0. -1.
         21    1    1    2  503  502 -0.75829370810E+01 -0.18610442668E+02 -0.14159511175E+02  0.24583353469E+02  0.00000000000E+00 0. -1.
         21    1    1    2  504  501  0.75829370810E+01  0.18610442668E+02  0.49000976503E+01  0.20684788325E+02  0.00000000000E+00 0. -1.
</event>
<event>
 4    1  0.3035432E+006  0.2141579E+02  0.7546771E-02  0.1513411E+00
         21   -1    0    0  503  501  0.00000000000E+00  0.00000000000E+00  0.14980748530E+03  0.14980748530E+03  0.00000000000E+00 0.  1.
         21   -1    0    0  504  502 -0.00000000000E+00 -0.00000000000E+00 -0.81169918895E+01  0.81169918895E+01  0.00000000000E+00 0.  1.
         21    1    1    2  503  502  0.12071718318E+02  0.17689250597E+02  0.85286820580E+01  0.23051559328E+02  0.00000000000E+00 0.  1.
         21    1    1    2  504  501 -0.12071718318E+02 -0.17689250597E+02  0.13316181135E+03  0.13487291786E+03  0.00000000000E+00 0.  1.
</event>
<event>
 4    1  0.3035432E+006  0.3885588E+02  0.7546771E-02  0.1355324E+00
         21   -1    0    0  504  501  0.00000000000E+00  0.00000000000E+00  0.82318306591E+02  0.82318306591E+02  0.00000000000E+00 0. -1.
         21   -1    0    0  503  502 -0.00000000000E+00 -0.00000000000E+00 -0.37272419087E+02  0.37272419087E+02  0.00000000000E+00 0. -1.
         21    1    1    2  503  501 -0.37387345771E+02  0.10581390423E+02  0.65138501064E+02  0.75847239686E+02  0.00000000000E+00 0. -1.
         21    1    1    2  504  502  0.37387345771E+02 -0.10581390423E+02 -0.20092613560E+02  0.43743485992E+02  0.00000000000E+00 0. -1.
</event>
<event>
 4    1  0.3035432E+006  0.2053598E+02  0.7546771E-02  0.1525994E+00
         21   -1    0    0  503  501  0.00000000000E+00  0.00000000000E+00  0.11414176123E+01  0.11414176123E+01  0.00000000000E+00 0. -1.
         21   -1    0    0  501  502 -0.00000000000E+00 -0.00000000000E+00 -0.15411865580E+04  0.15411865580E+04  0.00000000000E+00 0. -1.
         21    1    1    2  503  504  0.15534412742E+02 -0.13431622526E+02 -0.97620103668E+02  0.99756759686E+02  0.00000000000E+00 0. -1.
         21    1    1    2  504  502 -0.15534412742E+02  0.13431622526E+02 -0.14424250367E+04  0.14425712160E+04  0.00000000000E+00 0. -1.
</event>
<event>
 4    1  0.3035432E+006  0.2044936E+02  0.7546771E-02  0.1527274E+00
         21   -1    0    0  503  501  0.00000000000E+00  0.00000000000E+00  0.89914844822E+01  0.89914844822E+01  0.00000000000E+00 0.  1.
         21   -1    0    0  501  502 -0.00000000000E+00 -0.00000000000E+00 -0.15113364262E+03  0.15113364262E+03  0.00000000000E+00 0. -1.
         21    1    1    2  503  504 -0.18037901174E+02  0.96338280579E+01 -0.44567195620E+01  0.20929378181E+02  0.00000000000E+00 0.  1.
         21    1    1    2  504  502  0.18037901174E+02 -0.96338280579E+01 -0.13768543857E+03  0.13919574892E+03  0.00000000000E+00 0. -1.
</event>
<event>
 4    1  0.3035432E+006  0.2064274E+02  0.7546771E-02  0.1524427E+00
         21   -1    0    0  503  501  0.00000000000E+00  0.00000000000E+00  0.26317424605E+02  0.26317424605E+02  0.00000000000E+00 0. -1.
         21   -1    0    0  504  502 -0.00000000000E+00 -0.00000000000E+00 -0.20369382979E+02  0.20369382979E+02  0.00000000000E+00 0. -1.
         21    1    1    2  503  502 -0.13163001695E+02  0.15901511219E+02 -0.75976906021E+01  0.21996535526E+02  0.00000000000E+00 0. -1.
         21    1    1    2  504  501  0.13163001695E+02 -0.15901511219E+02  0.13545732228E+02  0.24690272058E+02  0.00000000000E+00 0. -1.
</event>
<event>
 4    1  0.3035432E+006  0.2179376E+02  0.7546771E-02  0.1508227E+00
         21   -1    0    0  502  501  0.00000000000E+00  0.00000000000E+00  0.28277938338E+03  0.28277938338E+03  0.00000000000E+00 0. -1.
         21   -1    0    0  504  502 -0.00000000000E+00 -0.00000000000E+00 -0.11645565771E+03  0.11645565771E+03  0.00000000000E+00 0. -1.
         21    1    1    2  503  501  0.35679559538E-01  0.21793730363E+02  0.28133461199E+03  0.28217748291E+03  0.00000000000E+00 0. -1.
         21    1    1    2  504  503 -0.35679559538E-01 -0.21793730363E+02 -0.11501088632E+03  0.11705755819E+03  0.00000000000E+00 0. -1.
</event>
<event>
 4    1  0.3035432E+006  0.2999424E+02  0.7546771E-02  0.1419647E+00
         21   -1    0    0  502  501  0.00000000000E+00  0.00000000000E+00  0.24350595724E+03  0.24350595724E+03  0.00000000000E+00 0. -1.
         21   -1    0    0  504  502 -0.00000000000E+00 -0.00000000000E+00 -0.39860127638E+01  0.39860127638E+01  0.00000000000E+00 0. -1.
         21    1    1    2  503  501 -0.90249788201E+01  0.28604268111E+02  0.15321985080E+03  0.15612807908E+03  0.00000000000E+00 0. -1.
         21    1    1    2  504  503  0.90249788201E+01 -0.28604268111E+02  0.86300093673E+02  0.91363890924E+02  0.00000000000E+00 0. -1.
</event>
<event>
 4    1  0.3035432E+006  0.2139917E+02  0.7546771E-02  0.1513641E+00
         21   -1    0    0  503  501  0.00000000000E+00  0.00000000000E+00  0.62649755113E+02  0.62649755113E+02  0.00000000000E+00 0. -1.
         21   -1    0    0  501  502 -0.00000000000E+00 -0.00000000000E+00 -0.10346750052E+02  0.10346750052E+02  0.00000000000E+00 0. -1.
         21    1    1    2  503  504 -0.20399899526E+02 -0.64628670688E+01  0.45926942449E+02  0.50667628662E+02  0.00000000000E+00 0. -1.
         21    1    1    2  504  502  0.20399899526E+02  0.64628670688E+01  0.63760626116E+01  0.22328876503E+02  0.00000000000E+00 0. -1.
</event>
<event>
 4    1  0.3035432E+006  0.2415394E+02  0.7546771E-02  0.1478495E+00
         21   -1    0    0  503  501  0.00000000000E+00  0.00000000000E+00  0.35828245775E+02  0.35828245775E+02  0.00000000000E+00 0.  1.
         21   -1    0    0  504  502 -0.00000000000E+00 -0.00000000000E+00 -0.17978202263E+02  0.17978202263E+02  0.00000000000E+00 0.  1.
         21    1    1    2  503  502  0.52117077549E+01  0.23584970298E+02  0.17184744129E+02  0.29643349211E+02  0.00000000000E+00 0.  1.
         21    1    1    2  504  501 -0.52117077549E+01 -0.23584970298E+02  0.66529938401E+00  0.24163098827E+02  0.00000000000E+00 0.  1.
</event>
<event>
 4    1  0.3035432E+006  0.2618027E+02  0.7546771E-02  0.1456021E+00
         21   -1    0    0  503  501  0.00000000000E+00  0.00000000000E+00  0.98971233500E+02  0.98971233500E+02  0.00000000000E+00 0.  1.
         21   -1    0    0  504  502 -0.00000000000E+00 -0.00000000000E+00 -0.11067248281E+03  0.11067248281E+03  0.00000000000E+00 0. -1.
         21    1    1    2  503  502 -0.55347164897E+01  0.25588540972E+02 -0.10733990245E+03  0.11048647507E+03  0.00000000000E+00 0. -1.
         21    1    1    2  504  501  0.55347164897E+01 -0.25588540972E+02  0.95638653140E+02  0.99157241239E+02  0.00000000000E+00 0.  1.
</event>
<event>
 4    1  0.3035432E+006  0.2398900E+02  0.7546771E-02  0.1480439E+00
         21   -1    0    0  503  501  0.00000000000E+00  0.00000000000E+00  0.36509113862E+03  0.36509113862E+03  0.00000000000E+00 0. -1.
         21   -1    0    0  504  502 -0.00000000000E+00 -0.00000000000E+00 -0.51036798723E+02  0.51036798723E+02  0.00000000000E+00 0. -1.
         21    1    1    2  503  502  0.23846109678E+02 -0.26143720203E+01 -0.47798633332E+02  0.53480662264E+02  0.00000000000E+00 0. -1.
         21    1    1    2  504  501 -0.23846109678E+02  0.26143720203E+01  0.36185297323E+03  0.36264727508E+03  0.00000000000E+00 0. -1.
</event>
<event>
 4    1  0.3035432E+006  0.2958524E+02  0.7546771E-02  0.1423235E+00
         21   -1    0    0  504  501  0.00000000000E+00  0.00000000000E+00  0.44364588951E+01  0.44364588951E+01  0.00000000000E+00 0.  1.
         21   -1    0    0  503  502 -0.00000000000E+00 -0.00000000000E+00 -0.21439042066E+03  0.21439042066E+03  0.00000000000E+00 0. -1.
         21    1    1    2  503  501 -0.19327876132E+02 -0.22399100556E+02 -0.74079632468E+02  0.79768906525E+02  0.00000000000E+00 0.  1.
         21    1    1    2  504  502  0.19327876132E+02  0.22399100556E+02 -0.13587432930E+03  0.13905797303E+03  0.00000000000E+00 0. -1.
</event>
<event>
 4    1  0.3035432E+006  0.2412912E+02  0.7546771E-02  0.1478786E+00
         21   -1    0    0  502  501  0.00000000000E+00  0.00000000000E+00  0.49285171249E+02  0.49285171249E+02  0.00000000000E+00 0.  1.
         21   -1    0    0  504  502 -0.00000000000E+00 -0.00000000000E+00 -0.12863154588E+03  0.12863154588E+03  0.00000000000E+00 0. -1.
         21    1    1    2  503  501 -0.31594447603E+01 -0.23921382992E+02  0.45101964781E+02  0.51150775972E+02  0.00000000000E+00 0.  1.
         21    1    1    2  504  503  0.31594447603E+01  0.23921382992E+02 -0.12444833941E+03  0.12676594115E+03  0.00000000000E+00 0. -1.
</event>
<event>
 4    1  0.3035432E+006  0.3761253E+02  0.7546771E-02  0.1363074E+00
         21   -1    0    0  503  501  0.00000000000E+00  0.00000000000E+00  0.26039279314E+02  0.26039279314E+02  0.00000000000E+00 0.  1.
         21   -1    0    0  504  502 -0.00000000000E+00 -0.00000000000E+00 -0.11846958491E+03  0.11846958491E+03  0.00000000000E+00 0. -1.
         21    1    1    2  503  502 -0.20885424517E+01  0.37554496234E+02  0.69498292522E+01  0.38249213372E+02  0.00000000000E+00 0.  1.
         21    1    1    2  504  501  0.20885424517E+01 -0.37554496234E+02 -0.99380134853E+02  0.10625965086E+03  0.00000000000E+00 0. -1.
</event>
<event>
 4    1  0.3035432E+006  0.2318421E+02  0.7546771E-02  0.1490198E+00
         21   -1    0    0  503  501  0.00000000000E+00  0.00000000000E+00  0.21694029778E+02  0.21694029778E+02  0.00000000000E+00 0. -1.
         21   -1    0    0  501  502 -0.00000000000E+00 -0.00000000000E+00 -0.17537519031E+03  0.17537519031E+03  0.00000000000E+00 0. -1.
         21    1    1    2  503  504  0.20077071987E+02  0.11593916732E+02  0.14468706428E+02  0.27328578273E+02  0.00000000000E+00 0. -1.
         21    1    1    2  504  502 -0.20077071987E+02 -0.11593916732E+02 -0.16814986696E+03  0.16974064181E+03  0.00000000000E+00 0. -1.
</event>
<event>
 4    1  0.3035432E+006  0.2758133E+02  0.7546771E-02  0.1441854E+00
         21   -1    0    0  504  501  0.00000000000E+00  0.00000000000E+00  0.81775145807E+01  0.81775145807E+01  0.00000000000E+00 0. -1.
         21   -1    0    0  503  502 -0.00000000000E+00 -0.00000000000E+00 -0.52731370238E+03  0.52731370238E+03  0.00000000000E+00 0.  1.
         21    1    1    2  503  501 -0.19070408497E+02  0.19926094944E+02 -0.16584982862E+02  0.32183713218E+02  0.00000000000E+00 0. -1.
         21    1    1    2  504  502  0.19070408497E+02 -0.19926094944E+02 -0.50255120494E+03  0.50330750374E+03  0.00000000000E+00 0.  1.
</event>
<event>
 4    1  0.3035432E+006  0.3200220E+02  0.7546771E-02  0.1402960E+00
         21   -1    0    0  502  501  0.00000000000E+00  0.00000000000E+00  0.38658973772E+01  0.38658973772E+01  0.00000000000E+00 0.  1.
         21   -1    0    0  504  502 -0.00000000000E+00 -0.00000000000E+00 -0.47766334144E+03  0.47766334144E+03  0.00000000000E+00 0. -1.
         21    1    1    2  503  501  0.25862750015E+02 -0.18848317988E+02 -0.76218276629E+02  0.82664179797E+02  0.00000000000E+00 0.  1.
         21    1    1    2  504  503 -0.25862750015E+02  0.18848317988E+02 -0.39757916743E+03  0.39886505902E+03  0.00000000000E+00 0. -1.
</event>
<event>
 4    1  0.3035432E+006  0.2145856E+02  0.7546771E-02  0.1512818E+00
         21   -1    0    0  503  501  0.00000000000E+00  0.00000000000E+00  0.30781596548E+03  0.30781596548E+03  0.00000000000E+00 0.  1.
         21   -1    0    0  504  502 -0.00000000000E+00 -0.00000000000E+00 -0.28432807547E+01  0.28432807547E+01  0.00000000000E+00 0.  1.
         21    1    1    2  503  502  0.13823766260E+02  0.16412589880E+02  0.25941289004E+03  0.26029889961E+03  0.00000000000E+00 0.  1.
         21    1    1    2  504  501 -0.13823766260E+02 -0.16412589880E+02  0.45559794682E+02  0.50360346620E+02  0.00000000000E+00 0.  1.
</event>
<event>
 4    1  0.3035432E+006  0.2307363E+02  0.7546771E-02  0.1491576E+00
         21   -1    0    0  504  501  0.00000000000E+00  0.00000000000E+00  0.43188716111E+02  0.43188716111E+02  0.00000000000E+00 0.  1.
         21   -1    0    0  503  502 -0.00000000000E+00 -0.00000000000E+00 -0.19174638814E+03  0.19174638814E+03  0.00000000000E+00 0. -1.
         21    1    1    2  503  501 -0.66714334985E+00  0.23063979157E+02 -0.18790775387E+03  0.18931908562E+03  0.00000000000E+00 0. -1.
         21    1    1    2  504  502  0.66714334985E+00 -0.23063979157E+02  0.39350081842E+02  0.45616018631E+02  0.00000000000E+00 0.  1.
</event>
<event>
 4    1  0.3035432E+006  0.2096201E+02  0.7546771E-02  0.1519808E+00
         21   -1    0    0  503  501  0.00000000000E+00  0.00000000000E+00  0.15802115304E+03  0.15802115304E+03  0.00000000000E+00 0.  1.
         21   -1    0    0  504  502 -0.00000000000E+00 -0.00000000000E+00 -0.36511850954E+01  0.36511850954E+01  0.00000000000E+00 0.  1.
         21    1    1    2  503  502  0.17063436080E+02 -0.12175598293E+02  0.37714286834E+02  0.43148273153E+02  0.00000000000E+00 0.  1.
         21    1    1    2  504  501 -0.17063436080E+02  0.12175598293E+02  0.11665568111E+03  0.11852406498E+03  0.00000000000E+00 0.  1.
</event>
<event>
 4    1  0.3035432E+006  0.4073828E+02  0.7546771E-02  0.1344213E+00
         21   -1    0    0  504  501  0.00000000000E+00  0.00000000000E+00  0.68686344034E+01  0.68686344034E+01  0.00000000000E+00 0.  1.
         21   -1    0    0  503  502 -0.00000000000E+00 -0.00000000000E+00 -0.56797245273E+03  0.56797245273E+03  0.00000000000E+00 0. -1.
         21    1    1    2  503  501 -0.17521906287E+02  0.36777575110E+02 -0.62682198638E+02  0.74757375937E+02  0.00000000000E+00 0.  1.
         21    1    1    2  504  502  0.17521906287E+02 -0.36777575110E+02 -0.49842161969E+03  0.50008371120E+03  0.00000000000E+00 0. -1.
</event>
<event>
 4    1  0.3035432E+006  0.4172674E+02  0.7546771E-02  0.1338654E+00
         21   -1    0    0  503  501  0.00000000000E+00  0.00000000000E+00  0.24957519420E+03  0.24957519420E+03  0.00000000000E+00 0.  1.
         21   -1    0    0  504  502 -0.00000000000E+00 -0.00000000000E+00 -0.43184068618E+02  0.43184068618E+02  0.00000000000E+00 0.  1.
         21    1    1    2  503  502  0.31829166088E+02  0.26981946202E+02 -0.30839837469E+02  0.51886576394E+02  0.00000000000E+00 0.  1.
         21    1    1    2  504  501 -0.31829166088E+02 -0.26981946202E+02  0.23723096305E+03  0.24087268642E+03  0.00000000000E+00 0.  1.
</event>
<event>
 4    1  0.3035432E+006  0.2089934E+02  0.7546771E-02  0.1520707E+00
         21   -1    0    0  503  501  0.00000000000E+00  0.00000000000E+00  0.34969012319E+03  0.34969012319E+03  0.00000000000E+00 0.  1.
         21   -1    0    0  504  502 -0.00000000000E+00 -0.00000000000E+00 -0.74303873066E+01  0.74303873066E+01  0.00000000000E+00 0. -1.
         21    1    1    2  503  502 -0.11237370234E+02  0.17621116200E+02  0.33399199970E+03  0.33464524214E+03  0.00000000000E+00 0.  1.
         21    1    1    2  504  501  0.11237370234E+02 -0.17621116200E+02  0.82677361828E+01  0.22475268352E+02  0.00000000000E+00 0. -1.
</event>
<event>
 4    1  0.3035432E+006  0.2450656E+02  0.7546771E-02  0.1474400E+00
         21   -1    0    0  504  501  0.00000000000E+00  0.00000000000E+00  0.86446218026E+01  0.86446218026E+01  0.00000000000E+00 0.  1.
         21   -1    0    0  503  502 -0.00000000000E+00 -0.00000000000E+00 -0.70710908541E+02  0.70710908541E+02  0.00000000000E+00 0.  1.
         21    1    1    2  503  501 -0.45211897446E+01 -0.24085891777E+02 -0.25784142384E+02  0.35572367617E+02  0.00000000000E+00 0.  1.
         21    1    1    2  504  502  0.45211897446E+01  0.24085891777E+02 -0.36282144355E+02  0.43783162727E+02  0.00000000000E+00 0.  1.
</event>
<event>
 4    1  0.3035432E+006  0.3359947E+02  0.7546771E-02  0.1390686E+00
         21   -1    0    0  503  501  0.00000000000E+00  0.00000000000E+00  0.48627076512E+02  0.48627076512E+02  0.00000000000E+00 0. -1.
         21   -1    0    0  504  502 -0.00000000000E+00 -0.00000000000E+00 -0.87849251955E+02  0.87849251955E+02  0.00000000000E+00 0. -1.
         21    1    1    2  503  502 -0.31931567475E+02 -0.10454637422E+02 -0.78142152736E+02  0.85059511398E+02  0.00000000000E+00 0. -1.
         21    1    1    2  504  501  0.31931567475E+02  0.10454637422E+02  0.38919977292E+02  0.51416817069E+02  0.00000000000E+00 0. -1.
</event>
<event>
 4    1  0.3035432E+006  0.2097425E+02  0.7546771E-02  0.1519633E+00
         21   -1    0    0  503  501  0.00000000000E+00  0.00000000000E+00  0.20413438852E+02  0.20413438852E+02  0.00000000000E+00 0.  1.
         21   -1    0    0  504  502 -0.00000000000E+00 -0.00000000000E+00 -0.59873968069E+02  0.59873968069E+02  0.00000000000E+00 0.  1.
         21    1    1    2  503  502  0.12539799253E+02 -0.16812872366E+02 -0.51846969085E+02  0.55928771181E+02  0.00000000000E+00 0.  1.
         21    1    1    2  504  501 -0.12539799253E+02  0.16812872366E+02  0.12386439869E+02  0.24358635740E+02  0.00000000000E+00 0.  1.
</event>
<event>
 4    1  0.3035432E+006  0.1259347E+03  0.7546771E-02  0.1125197E+00
         21   -1    0    0  503  501  0.00000000000E+00  0.00000000000E+00  0.14561208390E+03  0.14561208390E+03  0.00000000000E+00 0.  1.
         21   -1    0    0  501  502 -0.00000000000E+00 -0.00000000000E+00 -0.36520945584E+03  0.36520945584E+03  0.00000000000E+00 0.  1.
         21    1    1    2  503  504  0.11953506141E+03  0.39634895256E+02  0.10416326539E+03  0.16343054086E+03  0.00000000000E+00 0.  1.
         21    1    1    2  504  502 -0.11953506141E+03 -0.39634895256E+02 -0.32376063732E+03  0.34739099888E+03  0.00000000000E+00 0.  1.
</event>
<event>
 4    1  0.3035432E+006  0.2111803E+02  0.7546771E-02  0.1517586E+00
         21   -1    0    0  503  501  0.00000000000E+00  0.00000000000E+00  0.15135748328E+02  0.15135748328E+02  0.00000000000E+00 0.  1.
         21   -1    0    0  504  502 -0.00000000000E+00 -0.00000000000E+00 -0.19156390241E+03  0.19156390241E+03  0.00000000000E+00 0. -1.
         21    1    1    2  503  502 -0.15130595834E+02  0.14732152271E+02 -0.18328402663E+03  0.18449662777E+03  0.00000000000E+00 0. -1.
         21    1    1    2  504  501  0.15130595834E+02 -0.14732152271E+02  0.68558725431E+01  0.22203022973E+02  0.00000000000E+00 0.  1.
</event>
<event>
 4    1  0.3035432E+006  0.2754358E+02  0.7546771E-02  0.1442223E+00
         21   -1    0    0  503  501  0.00000000000E+00  0.00000000000E+00  0.28658993278E+02  0.28658993278E+02  0.00000000000E+00 0.  1.
         21   -1    0    0  504  502 -0.00000000000E+00 -0.00000000000E+00 -0.26473243107E+02  0.26473243107E+02  0.00000000000E+00 0.  1.
         21    1    1    2  503  502  0.25696292273E+02 -0.99171379717E+01  0.13108402263E+01  0.27574759550E+02  0.00000000000E+00 0.  1.
         21    1    1    2  504  501 -0.25696292273E+02  0.99171379717E+01  0.87490994483E+00  0.27557476835E+02  0.00000000000E+00 0.  1.
</event>
<event>
 4    1  0.3035432E+006  0.3265096E+02  0.7546771E-02  0.1397875E+00
         21   -1    0    0  503  501  0.00000000000E+00  0.00000000000E+00  0.18017164681E+02  0.18017164681E+02  0.00000000000E+00 0. -1.
         21   -1    0    0  504  502 -0.00000000000E+00 -0.00000000000E+00 -0.76147295474E+02  0.76147295474E+02  0.00000000000E+00 0.  1.
         21    1    1    2  503  502 -0.29580463356E+02  0.13823224082E+02 -0.68341600467E+01  0.33358523347E+02  0.00000000000E+00 0. -1.
         21    1    1    2  504  501  0.29580463356E+02 -0.13823224082E+02 -0.51295970746E+02  0.60805936808E+02  0.00000000000E+00 0.  1.
</event>
<event>
 4    1  0.3035432E+006  0.2159989E+02  0.7546771E-02  0.1510870E+00
         21   -1    0    0  504  501  0.00000000000E+00  0.00000000000E+00  0.11950111075E+02  0.11950111075E+02  0.00000000000E+00 0. -1.
         21   -1    0    0  503  502 -0.00000000000E+00 -0.00000000000E+00 -0.47219020836E+02  0.47219020836E+02  0.00000000000E+00 0. -1.
         21    1    1    2  503  501  0.60397896874E+01 -0.20738277199E+02 -0.53230796601E+01  0.22246131747E+02  0.00000000000E+00 0. -1.
         21    1    1    2  504  502 -0.60397896874E+01  0.20738277199E+02 -0.29945830101E+02  0.36923000164E+02  0.00000000000E+00 0. -1.
</event>
<event>
 4    1  0.3035432E+006  0.2736470E+02  0.7546771E-02  0.1443979E+00
         21   -1    0    0  503  501  0.00000000000E+00  0.00000000000E+00  0.93162799357E+01  0.93162799357E+01  0.00000000000E+00 0. -1.
         21   -1    0    0  504  502 -0.00000000000E+00 -0.00000000000E+00 -0.83235308464E+02  0.83235308464E+02  0.00000000000E+00 0. -1.
         21    1    1    2  503  502 -0.22582785453E+01 -0.27271357653E+02 -0.45532964476E+02  0.53123230552E+02  0.00000000000E+00 0. -1.
         21    1    1    2  504  501  0.22582785453E+01  0.27271357653E+02 -0.28386064052E+02  0.39428357848E+02  0.00000000000E+00 0. -1.
</event>
<event>
 4    1  0.3035432E+006  0.2541672E+02  0.7546771E-02  0.1464195E+00
         21   -1    0    0  504  501  0.00000000000E+00  0.00000000000E+00  0.13633908250E+03  0.13633908250E+03  0.00000000000E+00 0. -1.
         21   -1    0    0  503  502 -0.00000000000E+00 -0.00000000000E+00 -0.31676079760E+02  0.31676079760E+02  0.00000000000E+00 0. -1.
         21    1    1    2  503  501  0.25328045865E+02 -0.21212320637E+01 -0.25138580756E+02  0.35748535288E+02  0.00000000000E+00 0. -1.
         21    1    1    2  504  502 -0.25328045865E+02  0.21212320637E+01  0.12980158350E+03  0.13226662698E+03  0.00000000000E+00 0. -1.
</event>
<event>
 4    1  0.3035432E+006  0.2086105E+02  0.7546771E-02  0.1521258E+00
         21   -1    0    0  504  501  0.00000000000E+00  0.00000000000E+00  0.27517808545E+01  0.27517808545E+01  0.00000000000E+00 0. -1.
         21   -1    0    0  503  502 -0.00000000000E+00 -0.00000000000E+00 -0.16412607747E+03  0.16412607747E+03  0.00000000000E+00 0. -1.
         21    1    1    2  503  501  0.15688673917E+02 -0.13749512314E+02 -0.64760386534E+02  0.68037425305E+02  0.00000000000E+00 0. -1.
         21    1    1    2  504  502 -0.15688673917E+02  0.13749512314E+02 -0.96613910085E+02  0.98840433023E+02  0.00000000000E+00 0. -1.
</event>
<event>
 4    1  0.3035432E+006  0.3006525E+02  0.7546771E-02  0.1419030E+00
         21   -1    0    0  503  501  0.00000000000E+00  0.00000000000E+00  0.55379180764E+02  0.55379180764E+02  0.00000000000E+00 0. -1.
         21   -1    0    0  501  502 -0.00000000000E+00 -0.00000000000E+00 -0.11591457434E+03  0.11591457434E+03  0.00000000000E+00 0. -1.
         21    1    1    2  503  504 -0.29035138205E+02  0.78025670671E+01  0.49120363613E+02  0.57591053341E+02  0.00000000000E+00 0. -1.
         21    1    1    2  504  502  0.29035138205E+02 -0.78025670671E+01 -0.10965575719E+03  0.11370270176E+03  0.00000000000E+00 0. -1.
</event>
<event>
 4    1  0.3035432E+006  0.2087060E+02  0.7546771E-02  0.1521120E+00
         21   -1    0    0  503  501  0.00000000000E+00  0.00000000000E+00  0.22226923038E+01  0.22226923038E+01  0.00000000000E+00 0. -1.
         21   -1    0    0  504  502 -0.00000000000E+00 -0.00000000000E+00 -0.24368866720E+03  0.24368866720E+03  0.00000000000E+00 0. -1.
         21    1    1    2  503  502 -0.20794670542E+02 -0.17786536451E+01 -0.66323680269E+02  0.69529939567E+02  0.00000000000E+00 0. -1.
         21    1    1    2  504  501  0.20794670542E+02  0.17786536451E+01 -0.17514229463E+03  0.17638141994E+03  0.00000000000E+00 0. -1.
</event>
<event>
 4    1  0.3035432E+006  0.2280884E+02  0.7546771E-02  0.1494913E+00
         21   -1    0    0  503  501  0.00000000000E+00  0.00000000000E+00  0.39955122700E+03  0.39955122700E+03  0.00000000000E+00 0. -1.
         21   -1    0    0  501  502 -0.00000000000E+00 -0.00000000000E+00 -0.50234823659E+01  0.50234823659E+01  0.00000000000E+00 0. -1.
         21    1    1    2  503  504 -0.96702821486E+01  0.20657413508E+02  0.37137249361E+03  0.37207226731E+03  0.00000000000E+00 0. -1.
         21    1    1    2  504  502  0.96702821486E+01 -0.20657413508E+02  0.23155251020E+02  0.32502442054E+02  0.00000000000E+00 0. -1.
</event>
<event>
 4    1  0.3035432E+006  0.2285454E+02  0.7546771E-02  0.1494333E+00
         21   -1    0    0  504  501  0.00000000000E+00  0.00000000000E+00  0.15539855187E+03  0.15539855187E+03  0.00000000000E+00 0.  1.
         21   -1    0    0  503  502 -0.00000000000E+00 -0.00000000000E+00 -0.41008521484E+01  0.41008521484E+01  0.00000000000E+00 0. -1.
         21    1    1    2  503  501  0.66908784867E+01 -0.21853199060E+02  0.41780255258E+02  0.47622682553E+02  0.00000000000E+00 0. -1.
         21    1    1    2  504  502 -0.66908784867E+01  0.21853199060E+02  0.10951744447E+03  0.11187672147E+03  0.00000000000E+00 0.  1.
</event>
<event>
 4    1  0.3035432E+006  0.2199424E+02  0.7546771E-02  0.1505529E+00
         21   -1    0    0  504  501  0.00000000000E+00  0.00000000000E+00  0.93187370909E+03  0.93187370909E+03  0.00000000000E+00 0.  1.
         21   -1    0    0  503  502 -0.00000000000E+00 -0.00000000000E+00 -0.89912822500E+02  0.89912822500E+02  0.00000000000E+00 0.  1.
         21    1    1    2  503  501  0.15420305387E+02 -0.15683130789E+02  0.93039675343E+03  0.93065668492E+03  0.00000000000E+00 0.  1.
         21    1    1    2  504  502 -0.15420305387E+02  0.15683130789E+02 -0.88435866838E+02  0.91129846664E+02  0.00000000000E+00 0.  1.
</event>
<event>
 4    1  0.3035432E+006  0.2768633E+02  0.7546771E-02  0.1440833E+00
         21   -1    0    0  504  501  0.00000000000E+00  0.00000000000E+00  0.10350789818E+03  0.10350789818E+03  0.00000000000E+00 0. -1.
         21   -1    0    0  503  502 -0.00000000000E+00 -0.00000000000E+00 -0.17769801276E+02  0.17769801276E+02  0.00000000000E+00 0.  1.
         21    1    1    2  503  501 -0.14883718934E+02  0.23345406453E+02  0.89179455696E+02  0.93378308027E+02  0.00000000000E+00 0. -1.
         21    1    1    2  504  502  0.14883718934E+02 -0.23345406453E+02 -0.34413587914E+01  0.27899391429E+02  0.00000000000E+00 0.  1.
</event>
