<event>
 4    1  0.1822260E+004  0.2106613E+02  0.7546771E-02  0.1518323E+00
         21   -1    0    0  503  502  0.00000000000E+00  0.00000000000E+00  0.58924551872E+03  0.58924551872E+03  0.00000000000E+00 0. -1.
         21   -1    0    0  501  503 -0.00000000000E+00 -0.00000000000E+00 -0.84816682247E+00  0.84816682247E+00  0.00000000000E+00 0.  1.
          2    1    1    2  501    0 -0.44576428420E+01 -0.20589109455E+02  0.19543833162E+03  0.19657040335E+03  0.00000000000E+00 0.  1.
         -2    1    1    2    0  502  0.44576428420E+01  0.20589109455E+02  0.39295902028E+03  0.39352328219E+03  0.00000000000E+00 0. -1.
</event>
<event>
 4    1  0.1822260E+004  0.4262162E+02  0.7546771E-02  0.1333772E+00
         21   -1    0    0  503  502  0.00000000000E+00  0.00000000000E+00  0.32994355804E+02  0.32994355804E+02  0.00000000000E+00 0.  1.
         21   -1    0    0  501  503 -0.00000000000E+00 -0.00000000000E+00 -0.57821475701E+02  0.57821475701E+02  0.00000000000E+00 0. -1.
          2    1    1    2  501    0 -0.41522740670E+02 -0.96158428382E+01 -0.22340530874E+02  0.48121738808E+02  0.00000000000E+00 0.  1.
         -2    1    1    2    0  502  0.41522740670E+02  0.96158428382E+01 -0.24865890224E+01  0.42694092697E+02  0.00000000000E+00 0. -1.
</event>
<event>
 4    1  0.1822260E+004  0.2017877E+02  0.7546771E-02  0.1531320E+00
         21   -1    0    0  501  502  0.00000000000E+00  0.00000000000E+00  0.18053228689E+03  0.18053228689E+03  0.00000000000E+00 0. -1.
         21   -1    0    0  502  503 -0.00000000000E+00 -0.00000000000E+00 -0.26774026446E+01  0.26774026446E+01  0.00000000000E+00 0.  1.
          2    1    1    2  501    0 -0.19695576328E+02 -0.43894378717E+01  0.12529294695E+03  0.12690746805E+03  0.00000000000E+00 0. -1.
         -2    1    1    2    0  503  0.19695576328E+02  0.43894378717E+01  0.52561937296E+02  0.56302221484E+02  0.00000000000E+00 0.  1.
</event>
<event>
 4    1  0.1822260E+004  0.2221107E+02  0.7546771E-02  0.1502650E+00
         21   -1    0    0  503  502  0.00000000000E+00  0.00000000000E+00  0.86185695814E+01  0.86185695814E+01  0.00000000000E+00 0.  1.
         21   -1    0    0  501  503 -0.00000000000E+00 -0.00000000000E+00 -0.77231565258E+02  0.77231565258E+02  0.00000000000E+00 0. -1.
          2    1    1    2  501    0  0.15502704530E+02  0.15905909042E+02 -0.56145401506E+02  0.60379118083E+02  0.00000000000E+00 0. -1.
         -2    1    1    2    0  502 -0.15502704530E+02 -0.15905909042E+02 -0.12467594171E+02  0.25471016756E+02  0.00000000000E+00 0.  1.
</event>
<event>
 4    1  0.1822260E+004  0.2267919E+02  0.7546771E-02  0.1496566E+00
         21   -1    0    0  503  502  0.00000000000E+00  0.00000000000E+00  0.21802079432E+03  0.21802079432E+03  0.00000000000E+00 0.  1.
         21   -1    0    0  501  503 -0.00000000000E+00 -0.00000000000E+00 -0.38289283319E+01  0.38289283319E+01  0.00000000000E+00 0. -1.
          2    1    1    2  501    0  0.21105285753E+02 -0.83013623506E+01  0.38370912694E+02  0.44572106127E+02  0.00000000000E+00 0. -1.
         -2    1    1    2    0  502 -0.21105285753E+02  0.83013623506E+01  0.17582095330E+03  0.17727761653E+03  0.00000000000E+00 0.  1.
</event>
<event>
 4    1  0.1822260E+004  0.3866187E+02  0.7546771E-02  0.1356511E+00
         21   -1    0    0  501  502  0.00000000000E+00  0.00000000000E+00  0.98468085879E+01  0.98468085879E+01  0.00000000000E+00 0.  1.
         21   -1    0    0  502  503 -0.00000000000E+00 -0.00000000000E+00 -0.15458363283E+03  0.15458363283E+03  0.00000000000E+00 0. -1.
          2    1    1    2  501    0 -0.10477122998E+02  0.37215187748E+02 -0.61334794171E+02  0.72503084633E+02  0.00000000000E+00 0.  1.
         -2    1    1    2    0  503  0.10477122998E+02 -0.37215187748E+02 -0.83402030073E+02  0.91927356786E+02  0.00000000000E+00 0. -1.
</event>
<event>
 4    1  0.1822260E+004  0.2169956E+02  0.7546771E-02  0.1509507E+00
         21   -1    0    0  501  502  0.00000000000E+00  0.00000000000E+00  0.16840730455E+03  0.16840730455E+03  0.00000000000E+00 0. -1.
         21   -1    0    0  502  503 -0.00000000000E+00 -0.00000000000E+00 -0.29184596211E+01  0.29184596211E+01  0.00000000000E+00 0.  1.
          2    1    1    2  501    0  0.11517137386E+02  0.18390936647E+02  0.10029002422E+03  0.10261072051E+03  0.00000000000E+00 0. -1.
         -2    1    1    2    0  503 -0.11517137386E+02 -0.18390936647E+02  0.65198820705E+02  0.68715043663E+02  0.00000000000E+00 0.  1.
</event>
<event>
 4    1  0.1822260E+004  0.2955665E+02  0.7546771E-02  0.1423489E+00
         21   -1    0    0  503  502  0.00000000000E+00  0.00000000000E+00  0.48497748040E+02  0.48497748040E+02  0.00000000000E+00 0. -1.
         21   -1    0    0  501  503 -0.00000000000E+00 -0.00000000000E+00 -0.33247021430E+02  0.33247021430E+02  0.00000000000E+00 0.  1.
          2    1    1    2  501    0  0.26753416627E+02  0.12563837099E+02 -0.20041460818E+02  0.35710719057E+02  0.00000000000E+00 0.  1.
         -2    1    1    2    0  502 -0.26753416627E+02 -0.12563837099E+02  0.35292187429E+02  0.46034050412E+02  0.00000000000E+00 0. -1.
</event>
<event>
 4    1  0.1822260E+004  0.2338753E+02  0.7546771E-02  0.1487688E+00
         21   -1    0    0  501  502  0.00000000000E+00  0.00000000000E+00  0.26850505578E+03  0.26850505578E+03  0.00000000000E+00 0. -1.
         21   -1    0    0  502  503 -0.00000000000E+00 -0.00000000000E+00 -0.20817622521E+01  0.20817622521E+01  0.00000000000E+00 0.  1.
          2    1    1    2  501    0 -0.22948598976E+02 -0.45097915119E+01  0.11339888220E+03  0.11578550384E+03  0.00000000000E+00 0. -1.
         -2    1    1    2    0  503  0.22948598976E+02  0.45097915119E+01  0.15302441132E+03  0.15480131419E+03  0.00000000000E+00 0.  1.
</event>
<event>
 4    1  0.1822260E+004  0.2029812E+02  0.7546771E-02  0.1529526E+00
         21   -1    0    0  503  502  0.00000000000E+00  0.00000000000E+00  0.67019949208E+01  0.67019949208E+01  0.00000000000E+00 0.  1.
         21   -1    0    0  501  503 -0.00000000000E+00 -0.00000000000E+00 -0.72179778921E+02  0.72179778921E+02  0.00000000000E+00 0. -1.
          2    1    1    2  501    0  0.63052952142E+01  0.19293961270E+02 -0.47926936663E+02  0.52048102243E+02  0.00000000000E+00 0. -1.
         -2    1    1    2    0  502 -0.63052952142E+01 -0.19293961270E+02 -0.17550847337E+02  0.26833671599E+02  0.00000000000E+00 0.  1.
</event>
<event>
 4    1  0.1822260E+004  0.2335813E+02  0.7546771E-02  0.1488049E+00
         21   -1    0    0  501  502  0.00000000000E+00  0.00000000000E+00  0.57144213559E+02  0.57144213559E+02  0.00000000000E+00 0. -1.
         21   -1    0    0  502  503 -0.00000000000E+00 -0.00000000000E+00 -0.98635292257E+01  0.98635292257E+01  0.00000000000E+00 0.  1.
          2    1    1    2  501    0 -0.13376168120E+02  0.19148903171E+02  0.17646213529E+02  0.29274412345E+02  0.00000000000E+00 0. -1.
         -2    1    1    2    0  503  0.13376168120E+02 -0.19148903171E+02  0.29634470804E+02  0.37733330440E+02  0.00000000000E+00 0.  1.
</event>
<event>
 4    1  0.1822260E+004  0.3072528E+02  0.7546771E-02  0.1413396E+00
         21   -1    0    0  503  502  0.00000000000E+00  0.00000000000E+00  0.11225720829E+02  0.11225720829E+02  0.00000000000E+00 0.  1.
         21   -1    0    0  501  503 -0.00000000000E+00 -0.00000000000E+00 -0.23623933207E+03  0.23623933207E+03  0.00000000000E+00 0. -1.
          2    1    1    2  501    0  0.21497095456E+02  0.21952621346E+02 -0.21180324373E+03  0.21402022510E+03  0.00000000000E+00 0. -1.
         -2    1    1    2    0  502 -0.21497095456E+02 -0.21952621346E+02 -0.13210367518E+02  0.33444827806E+02  0.00000000000E+00 0.  1.
</event>
<event>
 4    1  0.1822260E+004  0.2180110E+02  0.7546771E-02  0.1508128E+00
         21   -1    0    0  503  502  0.00000000000E+00  0.00000000000E+00  0.38288278828E+01  0.38288278828E+01  0.00000000000E+00 0. -1.
         21   -1    0    0  501  503 -0.00000000000E+00 -0.00000000000E+00 -0.13586852745E+03  0.13586852745E+03  0.00000000000E+00 0.  1.
          2    1    1    2  501    0 -0.19299794202E+02 -0.10139316890E+02 -0.45492581579E+02  0.50446633009E+02  0.00000000000E+00 0. -1.
         -2    1    1    2    0  502  0.19299794202E+02  0.10139316890E+02 -0.86547117991E+02  0.89250722327E+02  0.00000000000E+00 0.  1.
</event>
<event>
 4    1  0.1822260E+004  0.2140451E+02  0.7546771E-02  0.1513567E+00
         21   -1    0    0  501  502  0.00000000000E+00  0.00000000000E+00  0.57073464589E+02  0.57073464589E+02  0.00000000000E+00 0.  1.
         21   -1    0    0  502  503 -0.00000000000E+00 -0.00000000000E+00 -0.81390184748E+01  0.81390184748E+01  0.00000000000E+00 0. -1.
          2    1    1    2  501    0 -0.21062538739E+02 -0.38108184837E+01  0.28285231466E+02  0.35471216426E+02  0.00000000000E+00 0. -1.
         -2    1    1    2    0  503  0.21062538739E+02  0.38108184837E+01  0.20649214648E+02  0.29741266638E+02  0.00000000000E+00 0.  1.
</event>
<event>
 4    1  0.1822260E+004  0.2162944E+02  0.7546771E-02  0.1510465E+00
         21   -1    0    0  501  502  0.00000000000E+00  0.00000000000E+00  0.15738108608E+02  0.15738108608E+02  0.00000000000E+00 0.  1.
         21   -1    0    0  502  503 -0.00000000000E+00 -0.00000000000E+00 -0.13180113385E+03  0.13180113385E+03  0.00000000000E+00 0. -1.
          2    1    1    2  501    0 -0.97934525677E+01  0.19285256397E+02  0.68883683100E+01  0.22699833600E+02  0.00000000000E+00 0.  1.
         -2    1    1    2    0  503  0.97934525677E+01 -0.19285256397E+02 -0.12295139355E+03  0.12483940886E+03  0.00000000000E+00 0. -1.
</event>
<event>
 4    1  0.1822260E+004  0.2088498E+02  0.7546771E-02  0.1520913E+00
         21   -1    0    0  503  502  0.00000000000E+00  0.00000000000E+00  0.38058294929E+01  0.38058294929E+01  0.00000000000E+00 0. -1.
         21   -1    0    0  501  503 -0.00000000000E+00 -0.00000000000E+00 -0.61924685922E+03  0.61924685922E+03  0.00000000000E+00 0.  1.
          2    1    1    2  501    0 -0.86681587390E+01 -0.19001197654E+02 -0.58894476493E+03  0.58931495707E+03  0.00000000000E+00 0.  1.
         -2    1    1    2    0  502  0.86681587390E+01  0.19001197654E+02 -0.26496264799E+02  0.33737731644E+02  0.00000000000E+00 0. -1.
</event>
<event>
 4    1  0.1822260E+004  0.2126997E+02  0.7546771E-02  0.1515445E+00
         21   -1    0    0  501  502  0.00000000000E+00  0.00000000000E+00  0.69927212780E+02  0.69927212780E+02  0.00000000000E+00 0.  1.
         21   -1    0    0  502  503 -0.00000000000E+00 -0.00000000000E+00 -0.71029657564E+01  0.71029657564E+01  0.00000000000E+00 0. -1.
          2    1    1    2  501    0  0.21073540552E+02 -0.28840051344E+01  0.19912414654E+02  0.29136160598E+02  0.00000000000E+00 0.  1.
         -2    1    1    2    0  503 -0.21073540552E+02  0.28840051344E+01  0.42911832369E+02  0.47894017938E+02  0.00000000000E+00 0. -1.
</event>
<event>
 4    1  0.1822260E+004  0.2066244E+02  0.7546771E-02  0.1524139E+00
         21   -1    0    0  501  502  0.00000000000E+00  0.00000000000E+00  0.68646594807E+02  0.68646594807E+02  0.00000000000E+00 0.  1.
         21   -1    0    0  502  503 -0.00000000000E+00 -0.00000000000E+00 -0.16076938349E+02  0.16076938349E+02  0.00000000000E+00 0. -1.
          2    1    1    2  501    0  0.16514209109E+02  0.12418424068E+02  0.59455785010E+02  0.62943837903E+02  0.00000000000E+00 0.  1.
         -2    1    1    2    0  503 -0.16514209109E+02 -0.12418424068E+02 -0.68861285524E+01  0.21779695252E+02  0.00000000000E+00 0. -1.
</event>
<event>
 4    1  0.1822260E+004  0.2291010E+02  0.7546771E-02  0.1493630E+00
         21   -1    0    0  501  502  0.00000000000E+00  0.00000000000E+00  0.85550366266E+02  0.85550366266E+02  0.00000000000E+00 0. -1.
         21   -1    0    0  502  503 -0.00000000000E+00 -0.00000000000E+00 -0.25154373951E+02  0.25154373951E+02  0.00000000000E+00 0.  1.
          2    1    1    2  501    0 -0.21428357122E+02 -0.81054524981E+01  0.78328978336E+02  0.81610671461E+02  0.00000000000E+00 0. -1.
         -2    1    1    2    0  503  0.21428357122E+02  0.81054524981E+01 -0.17932986021E+02  0.29094068756E+02  0.00000000000E+00 0.  1.
</event>
<event>
 4    1  0.1822260E+004  0.2232675E+02  0.7546771E-02  0.1501130E+00
         21   -1    0    0  503  502  0.00000000000E+00  0.00000000000E+00  0.80651937239E+02  0.80651937239E+02  0.00000000000E+00 0.  1.
         21   -1    0    0  501  503 -0.00000000000E+00 -0.00000000000E+00 -0.67486086827E+01  0.67486086827E+01  0.00000000000E+00 0. -1.
          2    1    1    2  501    0 -0.45963189343E+01 -0.21848518723E+02  0.49628867174E+02  0.54419742512E+02  0.00000000000E+00 0.  1.
         -2    1    1    2    0  502  0.45963189343E+01  0.21848518723E+02  0.24274461382E+02  0.32980803409E+02  0.00000000000E+00 0. -1.
</event>
<event>
 4    1  0.1822260E+004  0.2150290E+02  0.7546771E-02  0.1512204E+00
         21   -1    0    0  501  502  0.00000000000E+00  0.00000000000E+00  0.17776182035E+01  0.17776182035E+01  0.00000000000E+00 0. -1.
         21   -1    0    0  502  503 -0.00000000000E+00 -0.00000000000E+00 -0.27855372234E+03  0.27855372234E+03  0.00000000000E+00 0.  1.
          2    1    1    2  501    0  0.34451116095E+01 -0.21225127456E+02 -0.10232013943E+03  0.10455518047E+03  0.00000000000E+00 0. -1.
         -2    1    1    2    0  503 -0.34451116095E+01  0.21225127456E+02 -0.17445596471E+03  0.17577616008E+03  0.00000000000E+00 0.  1.
</event>
<event>
 4    1  0.1822260E+004  0.2439564E+02  0.7546771E-02  0.1475679E+00
         21   -1    0    0  503  502  0.00000000000E+00  0.00000000000E+00  0.34905751835E+02  0.34905751835E+02  0.00000000000E+00 0.  1.
         21   -1    0    0  501  503 -0.00000000000E+00 -0.00000000000E+00 -0.30313661717E+02  0.30313661717E+02  0.00000000000E+00 0. -1.
          2    1    1    2  501    0 -0.24109949770E+02  0.37225841917E+01 -0.19274316390E+02  0.31090940533E+02  0.00000000000E+00 0. -1.
         -2    1    1    2    0  502  0.24109949770E+02 -0.37225841917E+01  0.23866406508E+02  0.34128473018E+02  0.00000000000E+00 0.  1.
</event>
<event>
 4    1  0.1822260E+004  0.2049575E+02  0.7546771E-02  0.1526587E+00
         21   -1    0    0  503  502  0.00000000000E+00  0.00000000000E+00  0.10137817618E+02  0.10137817618E+02  0.00000000000E+00 0.  1.
         21   -1    0    0  501  503 -0.00000000000E+00 -0.00000000000E+00 -0.92381182343E+02  0.92381182343E+02  0.00000000000E+00 0. -1.
          2    1    1    2  501    0  0.19212394963E+02 -0.71386110449E+01 -0.79187218333E+02  0.81796646846E+02  0.00000000000E+00 0. -1.
         -2    1    1    2    0  502 -0.19212394963E+02  0.71386110449E+01 -0.30561463925E+01  0.20722353115E+02  0.00000000000E+00 0.  1.
</event>
<event>
 4    1  0.1822260E+004  0.2378900E+02  0.7546771E-02  0.1482821E+00
         21   -1    0    0  501  502  0.00000000000E+00  0.00000000000E+00  0.20757850403E+03  0.20757850403E+03  0.00000000000E+00 0.  1.
         21   -1    0    0  502  503 -0.00000000000E+00 -0.00000000000E+00 -0.43871256412E+01  0.43871256412E+01  0.00000000000E+00 0. -1.
          2    1    1    2  501    0 -0.10174840089E+02 -0.21503230570E+02  0.16680514426E+03  0.16849294480E+03  0.00000000000E+00 0.  1.
         -2    1    1    2    0  503  0.10174840089E+02  0.21503230570E+02  0.36386234123E+02  0.43472684866E+02  0.00000000000E+00 0. -1.
</event>
<event>
 4    1  0.1822260E+004  0.2870052E+02  0.7546771E-02  0.1431235E+00
         21   -1    0    0  503  502  0.00000000000E+00  0.00000000000E+00  0.10796987289E+03  0.10796987289E+03  0.00000000000E+00 0.  1.
         21   -1    0    0  501  503 -0.00000000000E+00 -0.00000000000E+00 -0.84031115085E+01  0.84031115085E+01  0.00000000000E+00 0. -1.
          2    1    1    2  501    0  0.21493640102E+02  0.19019547340E+02  0.32124702913E+02  0.43078025525E+02  0.00000000000E+00 0. -1.
         -2    1    1    2    0  502 -0.21493640102E+02 -0.19019547340E+02  0.67442058468E+02  0.73294958873E+02  0.00000000000E+00 0.  1.
</event>
<event>
 4    1  0.1822260E+004  0.2345873E+02  0.7546771E-02  0.1486817E+00
         21   -1    0    0  503  502  0.00000000000E+00  0.00000000000E+00  0.55634763254E+03  0.55634763254E+03  0.00000000000E+00 0. -1.
         21   -1    0    0  501  503 -0.00000000000E+00 -0.00000000000E+00 -0.11450051042E+01  0.11450051042E+01  0.00000000000E+00 0.  1.
          2    1    1    2  501    0 -0.49420329316E+01 -0.22932251463E+02  0.17476074329E+03  0.17632818618E+03  0.00000000000E+00 0.  1.
         -2    1    1    2    0  502  0.49420329316E+01  0.22932251463E+02  0.38044188415E+03  0.38116445147E+03  0.00000000000E+00 0. -1.
</event>
<event>
 4    1  0.1822260E+004  0.2158848E+02  0.7546771E-02  0.1511026E+00
         21   -1    0    0  501  502  0.00000000000E+00  0.00000000000E+00  0.95148223609E+02  0.95148223609E+02  0.00000000000E+00 0.  1.
         21   -1    0    0  502  503 -0.00000000000E+00 -0.00000000000E+00 -0.57125432715E+01  0.57125432715E+01  0.00000000000E+00 0. -1.
          2    1    1    2  501    0  0.52677484774E+01  0.20935937020E+02  0.63757534143E+02  0.67313340379E+02  0.00000000000E+00 0.  1.
         -2    1    1    2    0  503 -0.52677484774E+01 -0.20935937020E+02  0.25678146195E+02  0.33547426502E+02  0.00000000000E+00 0. -1.
</event>
<event>
 4    1  0.1822260E+004  0.2334812E+02  0.7546771E-02  0.1488172E+00
         21   -1    0    0  501  502  0.00000000000E+00  0.00000000000E+00  0.75488517805E+00  0.75488517805E+00  0.00000000000E+00 0.  1.
         21   -1    0    0  502  503 -0.00000000000E+00 -0.00000000000E+00 -0.82641298184E+03  0.82641298184E+03  0.00000000000E+00 0. -1.
          2    1    1    2  501    0 -0.10643020209E+02 -0.20781260966E+02 -0.26592094970E+03  0.26694397572E+03  0.00000000000E+00 0. -1.
         -2    1    1    2    0  503  0.10643020209E+02  0.20781260966E+02 -0.55973714697E+03  0.56022389130E+03  0.00000000000E+00 0.  1.
</event>
<event>
 4    1  0.1822260E+004  0.2332411E+02  0.7546771E-02  0.1488468E+00
         21   -1    0    0  501  502  0.00000000000E+00  0.00000000000E+00  0.33073648616E+01  0.33073648616E+01  0.00000000000E+00 0. -1.
         21   -1    0    0  502  503 -0.00000000000E+00 -0.00000000000E+00 -0.41988813653E+03  0.41988813653E+03  0.00000000000E+00 0.  1.
          2    1    1    2  501    0 -0.17254548847E+02  0.15693784689E+02 -0.43262728524E+02  0.49149547435E+02  0.00000000000E+00 0. -1.
         -2    1    1    2    0  503  0.17254548847E+02 -0.15693784689E+02 -0.37331804314E+03  0.37404595396E+03  0.00000000000E+00 0.  1.
</event>
<event>
 4    1  0.1822260E+004  0.2840727E+02  0.7546771E-02  0.1433962E+00
         21   -1    0    0  503  502  0.00000000000E+00  0.00000000000E+00  0.16929815251E+03  0.16929815251E+03  0.00000000000E+00 0. -1.
         21   -1    0    0  501  503 -0.00000000000E+00 -0.00000000000E+00 -0.65523728091E+01  0.65523728091E+01  0.00000000000E+00 0.  1.
          2    1    1    2  501    0 -0.12189196855E+02 -0.25659233077E+02  0.35471037112E+02  0.45444111124E+02  0.00000000000E+00 0.  1.
         -2    1    1    2    0  502  0.12189196855E+02  0.25659233077E+02  0.12727474259E+03  0.13040641420E+03  0.00000000000E+00 0. -1.
</event>
<event>
 4    1  0.1822260E+004  0.2761202E+02  0.7546771E-02  0.1441555E+00
         21   -1    0    0  501  502  0.00000000000E+00  0.00000000000E+00  0.30292673014E+03  0.30292673014E+03  0.00000000000E+00 0. -1.
         21   -1    0    0  502  503 -0.00000000000E+00 -0.00000000000E+00 -0.22277919378E+02  0.22277919378E+02  0.00000000000E+00 0.  1.
          2    1    1    2  501    0  0.64090933757E+01  0.26857901914E+02  0.29346649791E+03  0.29476263123E+03  0.00000000000E+00 0. -1.
         -2    1    1    2    0  503 -0.64090933757E+01 -0.26857901914E+02 -0.12817687155E+02  0.30442018283E+02  0.00000000000E+00 0.  1.
</event>
<event>
 4    1  0.1822260E+004  0.2005380E+02  0.7546771E-02  0.1533215E+00
         21   -1    0    0  501  502  0.00000000000E+00  0.00000000000E+00  0.47300957726E+01  0.47300957726E+01  0.00000000000E+00 0.  1.
         21   -1    0    0  502  503 -0.00000000000E+00 -0.00000000000E+00 -0.12905233123E+03  0.12905233123E+03  0.00000000000E+00 0. -1.
          2    1    1    2  501    0 -0.94975361810E+01 -0.17662150694E+02 -0.23088736180E+02  0.30581767428E+02  0.00000000000E+00 0.  1.
         -2    1    1    2    0  503  0.94975361810E+01  0.17662150694E+02 -0.10123349928E+03  0.10320065958E+03  0.00000000000E+00 0. -1.
</event>
<event>
 4    1  0.1822260E+004  0.2105458E+02  0.7546771E-02  0.1518487E+00
         21   -1    0    0  503  502  0.00000000000E+00  0.00000000000E+00  0.33869716579E+02  0.33869716579E+02  0.00000000000E+00 0. -1.
         21   -1    0    0  501  503 -0.00000000000E+00 -0.00000000000E+00 -0.88695009483E+02  0.88695009483E+02  0.00000000000E+00 0.  1.
          2    1    1    2  501    0  0.48288199777E+01  0.20493360037E+02 -0.83993073900E+02  0.86591753483E+02  0.00000000000E+00 0.  1.
         -2    1    1    2    0  502 -0.48288199777E+01 -0.20493360037E+02  0.29167780996E+02  0.35972972580E+02  0.00000000000E+00 0. -1.
</event>
<event>
 4    1  0.1822260E+004  0.2233242E+02  0.7546771E-02  0.1501056E+00
         21   -1    0    0  501  502  0.00000000000E+00  0.00000000000E+00  0.25614730723E+03  0.25614730723E+03  0.00000000000E+00 0. -1.
         21   -1    0    0  502  503 -0.00000000000E+00 -0.00000000000E+00 -0.28256180501E+01  0.28256180501E+01  0.00000000000E+00 0.  1.
          2    1    1    2  501    0 -0.18705554179E+02 -0.12199963704E+02  0.19886301771E+03  0.20011305975E+03  0.00000000000E+00 0. -1.
         -2    1    1    2    0  503  0.18705554179E+02  0.12199963704E+02  0.54458671475E+02  0.58859865530E+02  0.00000000000E+00 0.  1.
</event>
<event>
 4    1  0.1822260E+004  0.4173999E+02  0.7546771E-02  0.1338580E+00
         21   -1    0    0  503  502  0.00000000000E+00  0.00000000000E+00  0.11888285792E+02  0.11888285792E+02  0.00000000000E+00 0.  1.
         21   -1    0    0  501  503 -0.00000000000E+00 -0.00000000000E+00 -0.74569956366E+03  0.74569956366E+03  0.00000000000E+00 0. -1.
          2    1    1    2  501    0 -0.41022386620E+02 -0.77065267601E+01 -0.70644390824E+03  0.70767593024E+03  0.00000000000E+00 0. -1.
         -2    1    1    2    0  502  0.41022386620E+02  0.77065267601E+01 -0.27367369634E+02  0.49911919212E+02  0.00000000000E+00 0.  1.
</event>
<event>
 4    1  0.1822260E+004  0.2440651E+02  0.7546771E-02  0.1475553E+00
         21   -1    0    0  503  502  0.00000000000E+00  0.00000000000E+00  0.75487043288E+03  0.75487043288E+03  0.00000000000E+00 0.  1.
         21   -1    0    0  501  503 -0.00000000000E+00 -0.00000000000E+00 -0.10389666401E+01  0.10389666401E+01  0.00000000000E+00 0. -1.
          2    1    1    2  501    0  0.27796196622E+01  0.24247710578E+02  0.19157018658E+03  0.19311865301E+03  0.00000000000E+00 0. -1.
         -2    1    1    2    0  502 -0.27796196622E+01 -0.24247710578E+02  0.56226127965E+03  0.56279074650E+03  0.00000000000E+00 0.  1.
</event>
<event>
 4    1  0.1822260E+004  0.2676179E+02  0.7546771E-02  0.1450016E+00
         21   -1    0    0  501  502  0.00000000000E+00  0.00000000000E+00  0.38566813368E+02  0.38566813368E+02  0.00000000000E+00 0. -1.
         21   -1    0    0  502  503 -0.00000000000E+00 -0.00000000000E+00 -0.19488047440E+02  0.19488047440E+02  0.00000000000E+00 0.  1.
          2    1    1    2  501    0  0.19944961713E+00 -0.26761042267E+02  0.15838959565E+02  0.31097681641E+02  0.00000000000E+00 0. -1.
         -2    1    1    2    0  503 -0.19944961713E+00  0.26761042267E+02  0.32398063630E+01  0.26957179167E+02  0.00000000000E+00 0.  1.
</event>
<event>
 4    1  0.1822260E+004  0.2321094E+02  0.7546771E-02  0.1489866E+00
         21   -1    0    0  501  502  0.00000000000E+00  0.00000000000E+00  0.86725479797E+02  0.86725479797E+02  0.00000000000E+00 0.  1.
         21   -1    0    0  502  503 -0.00000000000E+00 -0.00000000000E+00 -0.76773918830E+01  0.76773918830E+01  0.00000000000E+00 0. -1.
          2    1    1    2  501    0 -0.22276121764E+02 -0.65209092193E+01  0.60145036466E+02  0.64468389691E+02  0.00000000000E+00 0.  1.
         -2    1    1    2    0  503  0.22276121764E+02  0.65209092193E+01  0.18903051449E+02  0.29934481989E+02  0.00000000000E+00 0. -1.
</event>
<event>
 4    1  0.1822260E+004  0.2056734E+02  0.7546771E-02  0.1525533E+00
         21   -1    0    0  503  502  0.00000000000E+00  0.00000000000E+00  0.26917197376E+03  0.26917197376E+03  0.00000000000E+00 0.  1.
         21   -1    0    0  501  503 -0.00000000000E+00 -0.00000000000E+00 -0.17100262080E+01  0.17100262080E+01  0.00000000000E+00 0. -1.
          2    1    1    2  501    0 -0.18809035688E+02  0.83207986558E+01  0.95187907470E+02  0.97384563676E+02  0.00000000000E+00 0. -1.
         -2    1    1    2    0  502  0.18809035688E+02 -0.83207986558E+01  0.17227404008E+03  0.17349743629E+03  0.00000000000E+00 0.  1.
</event>
<event>
 4    1  0.1822260E+004  0.5495760E+02  0.7546771E-02  0.1277999E+00
         21   -1    0    0  503  502  0.00000000000E+00  0.00000000000E+00  0.13635443704E+03  0.13635443704E+03  0.00000000000E+00 0. -1.
         21   -1    0    0  501  503 -0.00000000000E+00 -0.00000000000E+00 -0.11471863449E+03  0.11471863449E+03  0.00000000000E+00 0.  1.
          2    1    1    2  501    0 -0.54924927463E+02 -0.18948314546E+01 -0.10194950277E+03  0.11581899308E+03  0.00000000000E+00 0.  1.
         -2    1    1    2    0  502  0.54924927463E+02  0.18948314546E+01  0.12358530533E+03  0.13525407844E+03  0.00000000000E+00 0. -1.
</event>
<event>
 4    1  0.1822260E+004  0.4889760E+02  0.7546771E-02  0.1303024E+00
         21   -1    0    0  501  502  0.00000000000E+00  0.00000000000E+00  0.29808309312E+02  0.29808309312E+02  0.00000000000E+00 0.  1.
         21   -1    0    0  502  503 -0.00000000000E+00 -0.00000000000E+00 -0.13208495161E+03  0.13208495161E+03  0.00000000000E+00 0. -1.
          2    1    1    2  501    0  0.47052814043E+02 -0.13304443219E+02 -0.41078246500E+00  0.48899327817E+02  0.00000000000E+00 0.  1.
         -2    1    1    2    0  503 -0.47052814043E+02  0.13304443219E+02 -0.10186585983E+03  0.11299393310E+03  0.00000000000E+00 0. -1.
</event>
<event>
 4    1  0.1822260E+004  0.2472023E+02  0.7546771E-02  0.1471958E+00
         21   -1    0    0  503  502  0.00000000000E+00  0.00000000000E+00  0.93993589968E+03  0.93993589968E+03  0.00000000000E+00 0.  1.
         21   -1    0    0  501  503 -0.00000000000E+00 -0.00000000000E+00 -0.65959702599E+00  0.65959702599E+00  0.00000000000E+00 0. -1.
          2    1    1    2  501    0  0.16759058223E+02 -0.18172058535E+02  0.41332429221E+03  0.41406286996E+03  0.00000000000E+00 0. -1.
         -2    1    1    2    0  502 -0.16759058223E+02  0.18172058535E+02  0.52595201044E+03  0.52653262674E+03  0.00000000000E+00 0.  1.
</event>
<event>
 4    1  0.1822260E+004  0.2148406E+02  0.7546771E-02  0.1512465E+00
         21   -1    0    0  503  502  0.00000000000E+00  0.00000000000E+00  0.50341293463E+02  0.50341293463E+02  0.00000000000E+00 0. -1.
         21   -1    0    0  501  503 -0.00000000000E+00 -0.00000000000E+00 -0.16121284846E+02  0.16121284846E+02  0.00000000000E+00 0.  1.
          2    1    1    2  501    0  0.19495570869E+02  0.90270445185E+01 -0.47132815169E+01  0.21994995769E+02  0.00000000000E+00 0.  1.
         -2    1    1    2    0  502 -0.19495570869E+02 -0.90270445185E+01  0.38933290134E+02  0.44467582539E+02  0.00000000000E+00 0. -1.
</event>
<event>
 4    1  0.1822260E+004  0.2205931E+02  0.7546771E-02  0.1504661E+00
         21   -1    0    0  503  502  0.00000000000E+00  0.00000000000E+00  0.79620279051E+02  0.79620279051E+02  0.00000000000E+00 0. -1.
         21   -1    0    0  501  503 -0.00000000000E+00 -0.00000000000E+00 -0.12056722337E+02  0.12056722337E+02  0.00000000000E+00 0.  1.
          2    1    1    2  501    0 -0.17356201377E+02 -0.13615263023E+02  0.15938145516E+01  0.22116811665E+02  0.00000000000E+00 0.  1.
         -2    1    1    2    0  502  0.17356201377E+02  0.13615263023E+02  0.65969742162E+02  0.69560189723E+02  0.00000000000E+00 0. -1.
</event>
<event>
 4    1  0.1822260E+004  0.2439312E+02  0.7546771E-02  0.1475708E+00
         21   -1    0    0  503  502  0.00000000000E+00  0.00000000000E+00  0.40405672237E+01  0.40405672237E+01  0.00000000000E+00 0. -1.
         21   -1    0    0  501  503 -0.00000000000E+00 -0.00000000000E+00 -0.23063727541E+03  0.23063727541E+03  0.00000000000E+00 0.  1.
          2    1    1    2  501    0  0.55440968439E+01  0.23754735815E+02 -0.18384792696E+03  0.18545911876E+03  0.00000000000E+00 0.  1.
         -2    1    1    2    0  502 -0.55440968439E+01 -0.23754735815E+02 -0.42748781224E+02  0.49218723872E+02  0.00000000000E+00 0. -1.
</event>
<event>
 4    1  0.1822260E+004  0.2494395E+02  0.7546771E-02  0.1469431E+00
         21   -1    0    0  503  502  0.00000000000E+00  0.00000000000E+00  0.20876773953E+03  0.20876773953E+03  0.00000000000E+00 0.  1.
         21   -1    0    0  501  503 -0.00000000000E+00 -0.00000000000E+00 -0.46953665870E+01  0.46953665870E+01  0.00000000000E+00 0. -1.
          2    1    1    2  501    0  0.24940542607E+02 -0.41231483580E+00  0.37531332188E+02  0.45064415728E+02  0.00000000000E+00 0. -1.
         -2    1    1    2    0  502 -0.24940542607E+02  0.41231483580E+00  0.16654104076E+03  0.16839869039E+03  0.00000000000E+00 0.  1.
</event>
<event>
 4    1  0.1822260E+004  0.2687798E+02  0.7546771E-02  0.1448838E+00
         21   -1    0    0  503  502  0.00000000000E+00  0.00000000000E+00  0.37414003279E+01  0.37414003279E+01  0.00000000000E+00 0.  1.
         21   -1    0    0  501  503 -0.00000000000E+00 -0.00000000000E+00 -0.25540429227E+03  0.25540429227E+03  0.00000000000E+00 0. -1.
          2    1    1    2  501    0 -0.98981187930E+01 -0.24989063924E+02 -0.61829291822E+02  0.67418746640E+02  0.00000000000E+00 0.  1.
         -2    1    1    2    0  502  0.98981187930E+01  0.24989063924E+02 -0.18983360012E+03  0.19172694595E+03  0.00000000000E+00 0. -1.
</event>
<event>
 4    1  0.1822260E+004  0.2211107E+02  0.7546771E-02  0.1503973E+00
         21   -1    0    0  501  502  0.00000000000E+00  0.00000000000E+00  0.13656629278E+02  0.13656629278E+02  0.00000000000E+00 0. -1.
         21   -1    0    0  502  503 -0.00000000000E+00 -0.00000000000E+00 -0.75904152276E+02  0.75904152276E+02  0.00000000000E+00 0.  1.
          2    1    1    2  501    0 -0.10558965218E+02  0.19426984456E+02  0.14263812339E+01  0.22157031276E+02  0.00000000000E+00 0. -1.
         -2    1    1    2    0  503  0.10558965218E+02 -0.19426984456E+02 -0.63673904232E+02  0.67403750279E+02  0.00000000000E+00 0.  1.
</event>
<event>
 4    1  0.1822260E+004  0.2096994E+02  0.7546771E-02  0.1519694E+00
         21   -1    0    0  501  502  0.00000000000E+00  0.00000000000E+00  0.58433492873E+02  0.58433492873E+02  0.00000000000E+00 0.  1.
         21   -1    0    0  502  503 -0.00000000000E+00 -0.00000000000E+00 -0.17219412721E+02  0.17219412721E+02  0.00000000000E+00 0. -1.
          2    1    1    2  501    0 -0.10634331064E+02  0.18073447289E+02 -0.77745719191E+01  0.22364759391E+02  0.00000000000E+00 0. -1.
         -2    1    1    2    0  503  0.10634331064E+02 -0.18073447289E+02  0.48988652071E+02  0.53288146204E+02  0.00000000000E+00 0.  1.
</event>
<event>
 4    1  0.1822260E+004  0.2227344E+02  0.7546771E-02  0.1501829E+00
         21   -1    0    0  503  502  0.00000000000E+00  0.00000000000E+00  0.44733848116E+02  0.44733848116E+02  0.00000000000E+00 0.  1.
         21   -1    0    0  501  503 -0.00000000000E+00 -0.00000000000E+00 -0.25191457587E+02  0.25191457587E+02  0.00000000000E+00 0. -1.
          2    1    1    2  501    0  0.59551739118E+01 -0.21462570077E+02 -0.16386959456E+02  0.27652096681E+02  0.00000000000E+00 0.  1.
         -2    1    1    2    0  502 -0.59551739118E+01  0.21462570077E+02  0.35929349985E+02  0.42273209022E+02  0.00000000000E+00 0. -1.
</event>
<event>
 4    1  0.1822260E+004  0.4213279E+02  0.7546771E-02  0.1336421E+00
         21   -1    0    0  501  502  0.00000000000E+00  0.00000000000E+00  0.66630971853E+03  0.66630971853E+03  0.00000000000E+00 0. -1.
         21   -1    0    0  502  503 -0.00000000000E+00 -0.00000000000E+00 -0.27330005983E+01  0.27330005983E+01  0.00000000000E+00 0.  1.
          2    1    1    2  501    0  0.37058014098E+02 -0.20046827488E+02  0.38487075803E+03  0.38717008161E+03  0.00000000000E+00 0. -1.
         -2    1    1    2    0  503 -0.37058014098E+02  0.20046827488E+02  0.27870595990E+03  0.28187263752E+03  0.00000000000E+00 0.  1.
</event>
<event>
 4    1  0.1822260E+004  0.8055400E+02  0.7546771E-02  0.1202567E+00
         21   -1    0    0  503  502  0.00000000000E+00  0.00000000000E+00  0.50602115209E+02  0.50602115209E+02  0.00000000000E+00 0. -1.
         21   -1    0    0  501  503 -0.00000000000E+00 -0.00000000000E+00 -0.22733961650E+03  0.22733961650E+03  0.00000000000E+00 0.  1.
          2    1    1    2  501    0 -0.71157442412E+02  0.37756662513E+02 -0.18012460788E+03  0.19731655161E+03  0.00000000000E+00 0.  1.
         -2    1    1    2    0  502  0.71157442412E+02 -0.37756662513E+02  0.33871065914E+01  0.80625180098E+02  0.00000000000E+00 0. -1.
</event>
<event>
 4    1  0.1822260E+004  0.2344986E+02  0.7546771E-02  0.1486925E+00
         21   -1    0    0  503  502  0.00000000000E+00  0.00000000000E+00  0.14404640493E+03  0.14404640493E+03  0.00000000000E+00 0. -1.
         21   -1    0    0  501  503 -0.00000000000E+00 -0.00000000000E+00 -0.11209824304E+02  0.11209824304E+02  0.00000000000E+00 0.  1.
          2    1    1    2  501    0 -0.94065323981E+01 -0.21480524149E+02  0.33791295371E+01  0.23692072216E+02  0.00000000000E+00 0.  1.
         -2    1    1    2    0  502  0.94065323981E+01  0.21480524149E+02  0.12945745109E+03  0.13156415702E+03  0.00000000000E+00 0. -1.
</event>
<event>
 4    1  0.1822260E+004  0.2671492E+02  0.7546771E-02  0.1450493E+00
         21   -1    0    0  501  502  0.00000000000E+00  0.00000000000E+00  0.29224393187E+01  0.29224393187E+01  0.00000000000E+00 0.  1.
         21   -1    0    0  502  503 -0.00000000000E+00 -0.00000000000E+00 -0.26283522636E+03  0.26283522636E+03  0.00000000000E+00 0. -1.
          2    1    1    2  501    0  0.76813533671E+01 -0.25586784550E+02 -0.94583265382E+02  0.98283675265E+02  0.00000000000E+00 0.  1.
         -2    1    1    2    0  503 -0.76813533671E+01  0.25586784550E+02 -0.16532952166E+03  0.16747399042E+03  0.00000000000E+00 0. -1.
</event>
<event>
 4    1  0.1822260E+004  0.2728152E+02  0.7546771E-02  0.1444801E+00
         21   -1    0    0  501  502  0.00000000000E+00  0.00000000000E+00  0.51424773610E+02  0.51424773610E+02  0.00000000000E+00 0.  1.
         21   -1    0    0  502  503 -0.00000000000E+00 -0.00000000000E+00 -0.14543164568E+02  0.14543164568E+02  0.00000000000E+00 0. -1.
          2    1    1    2  501    0 -0.21645104041E+02 -0.16606341549E+02  0.20728551525E+02  0.34263011498E+02  0.00000000000E+00 0.  1.
         -2    1    1    2    0  503  0.21645104041E+02  0.16606341549E+02  0.16153057517E+02  0.31704926679E+02  0.00000000000E+00 0. -1.
</event>
<event>
 4    1  0.1822260E+004  0.3061424E+02  0.7546771E-02  0.1414332E+00
         21   -1    0    0  503  502  0.00000000000E+00  0.00000000000E+00  0.35867558105E+02  0.35867558105E+02  0.00000000000E+00 0.  1.
         21   -1    0    0  501  503 -0.00000000000E+00 -0.00000000000E+00 -0.32771146288E+02  0.32771146288E+02  0.00000000000E+00 0. -1.
          2    1    1    2  501    0  0.31651984957E+01 -0.30450172835E+02  0.16997322620E+02  0.35016288830E+02  0.00000000000E+00 0.  1.
         -2    1    1    2    0  502 -0.31651984957E+01  0.30450172835E+02 -0.13900910802E+02  0.33622415563E+02  0.00000000000E+00 0. -1.
</event>
<event>
 4    1  0.1822260E+004  0.2532122E+02  0.7546771E-02  0.1465242E+00
         21   -1    0    0  501  502  0.00000000000E+00  0.00000000000E+00  0.33098649170E+03  0.33098649170E+03  0.00000000000E+00 0. -1.
         21   -1    0    0  502  503 -0.00000000000E+00 -0.00000000000E+00 -0.35718792432E+01  0.35718792432E+01  0.00000000000E+00 0.  1.
          2    1    1    2  501    0 -0.18037797176E+02 -0.17770827151E+02  0.27687406259E+03  0.27802951454E+03  0.00000000000E+00 0. -1.
         -2    1    1    2    0  503  0.18037797176E+02  0.17770827151E+02  0.50540549874E+02  0.56528856402E+02  0.00000000000E+00 0.  1.
</event>
<event>
 4    1  0.1822260E+004  0.2763157E+02  0.7546771E-02  0.1441365E+00
         21   -1    0    0  501  502  0.00000000000E+00  0.00000000000E+00  0.41402645809E+01  0.41402645809E+01  0.00000000000E+00 0. -1.
         21   -1    0    0  502  503 -0.00000000000E+00 -0.00000000000E+00 -0.19254273854E+03  0.19254273854E+03  0.00000000000E+00 0.  1.
          2    1    1    2  501    0  0.27473016606E+02  0.29558372525E+01 -0.73989283937E+02  0.78980489697E+02  0.00000000000E+00 0. -1.
         -2    1    1    2    0  503 -0.27473016606E+02 -0.29558372525E+01 -0.11441319003E+03  0.11770251343E+03  0.00000000000E+00 0.  1.
</event>
<event>
 4    1  0.1822260E+004  0.3499718E+02  0.7546771E-02  0.1380583E+00
         21   -1    0    0  501  502  0.00000000000E+00  0.00000000000E+00  0.12469576862E+02  0.12469576862E+02  0.00000000000E+00 0. -1.
         21   -1    0    0  502  503 -0.00000000000E+00 -0.00000000000E+00 -0.10194923949E+03  0.10194923949E+03  0.00000000000E+00 0.  1.
          2    1    1    2  501    0 -0.25660419306E+02  0.23798014974E+02 -0.33802911959E+02  0.48656340723E+02  0.00000000000E+00 0. -1.
         -2    1    1    2    0  503  0.25660419306E+02 -0.23798014974E+02 -0.55676750668E+02  0.65762475627E+02  0.00000000000E+00 0.  1.
</event>
<event>
 4    1  0.1822260E+004  0.2152344E+02  0.7546771E-02  0.1511921E+00
         21   -1    0    0  503  502  0.00000000000E+00  0.00000000000E+00  0.51878512607E+01  0.51878512607E+01  0.00000000000E+00 0.  1.
         21   -1    0    0  501  503 -0.00000000000E+00 -0.00000000000E+00 -0.27563210062E+03  0.27563210062E+03  0.00000000000E+00 0. -1.
          2    1    1    2  501    0  0.48924803210E+01 -0.20960016243E+02 -0.25066858134E+03  0.25159093051E+03  0.00000000000E+00 0. -1.
         -2    1    1    2    0  502 -0.48924803210E+01  0.20960016243E+02 -0.19775668020E+02  0.29229021370E+02  0.00000000000E+00 0.  1.
</event>
<event>
 4    1  0.1822260E+004  0.2187801E+02  0.7546771E-02  0.1507089E+00
         21   -1    0    0  503  502  0.00000000000E+00  0.00000000000E+00  0.17596323090E+02  0.17596323090E+02  0.00000000000E+00 0. -1.
         21   -1    0    0  501  503 -0.00000000000E+00 -0.00000000000E+00 -0.53120187246E+02  0.53120187246E+02  0.00000000000E+00 0.  1.
          2    1    1    2  501    0  0.13953845596E+02  0.16850439286E+02 -0.42460238860E+02  0.47765248823E+02  0.00000000000E+00 0.  1.
         -2    1    1    2    0  502 -0.13953845596E+02 -0.16850439286E+02  0.69363747032E+01  0.22951261513E+02  0.00000000000E+00 0. -1.
</event>
<event>
 4    1  0.1822260E+004  0.2470704E+02  0.7546771E-02  0.1472108E+00
         21   -1    0    0  501  502  0.00000000000E+00  0.00000000000E+00  0.14671611912E+03  0.14671611912E+03  0.00000000000E+00 0.  1.
         21   -1    0    0  502  503 -0.00000000000E+00 -0.00000000000E+00 -0.54729418113E+01  0.54729418113E+01  0.00000000000E+00 0. -1.
          2    1    1    2  501    0 -0.46378838442E+00 -0.24702686928E+02  0.10788257768E+03  0.11067559988E+03  0.00000000000E+00 0.  1.
         -2    1    1    2    0  503  0.46378838442E+00  0.24702686928E+02  0.33360599625E+02  0.41513461052E+02  0.00000000000E+00 0. -1.
</event>
<event>
 4    1  0.1822260E+004  0.2534132E+02  0.7546771E-02  0.1465021E+00
         21   -1    0    0  501  502  0.00000000000E+00  0.00000000000E+00  0.16596365447E+02  0.16596365447E+02  0.00000000000E+00 0. -1.
         21   -1    0    0  502  503 -0.00000000000E+00 -0.00000000000E+00 -0.39252912741E+02  0.39252912741E+02  0.00000000000E+00 0.  1.
          2    1    1    2  501    0  0.23348682570E+02 -0.98499512444E+01 -0.14659922182E+02  0.29276199133E+02  0.00000000000E+00 0. -1.
         -2    1    1    2    0  503 -0.23348682570E+02  0.98499512444E+01 -0.79966251114E+01  0.26573079055E+02  0.00000000000E+00 0.  1.
</event>
<event>
 4    1  0.1822260E+004  0.2234980E+02  0.7546771E-02  0.1500828E+00
         21   -1    0    0  503  502  0.00000000000E+00  0.00000000000E+00  0.48740778694E+01  0.48740778694E+01  0.00000000000E+00 0.  1.
         21   -1    0    0  501  503 -0.00000000000E+00 -0.00000000000E+00 -0.10459616771E+03  0.10459616771E+03  0.00000000000E+00 0. -1.
          2    1    1    2  501    0 -0.20947312020E+02  0.77925278464E+01 -0.42082350910E+02  0.47649109427E+02  0.00000000000E+00 0.  1.
         -2    1    1    2    0  502  0.20947312020E+02 -0.77925278464E+01 -0.57639738929E+02  0.61821136150E+02  0.00000000000E+00 0. -1.
</event>
<event>
 4    1  0.1822260E+004  0.2123313E+02  0.7546771E-02  0.1515962E+00
         21   -1    0    0  501  502  0.00000000000E+00  0.00000000000E+00  0.15714699334E+03  0.15714699334E+03  0.00000000000E+00 0.  1.
         21   -1    0    0  502  503 -0.00000000000E+00 -0.00000000000E+00 -0.28786810516E+01  0.28786810516E+01  0.00000000000E+00 0. -1.
          2    1    1    2  501    0  0.18321903701E+02 -0.10730959970E+02  0.81788028397E+02  0.84499273643E+02  0.00000000000E+00 0. -1.
         -2    1    1    2    0  503 -0.18321903701E+02  0.10730959970E+02  0.72480283892E+02  0.75526400750E+02  0.00000000000E+00 0.  1.
</event>
<event>
 4    1  0.1822260E+004  0.2498907E+02  0.7546771E-02  0.1468926E+00
         21   -1    0    0  503  502  0.00000000000E+00  0.00000000000E+00  0.67318005358E+03  0.67318005358E+03  0.00000000000E+00 0.  1.
         21   -1    0    0  501  503 -0.00000000000E+00 -0.00000000000E+00 -0.10522752393E+01  0.10522752393E+01  0.00000000000E+00 0. -1.
          2    1    1    2  501    0 -0.89845829902E+01 -0.23318039473E+02  0.22003282616E+03  0.22144728105E+03  0.00000000000E+00 0.  1.
         -2    1    1    2    0  502  0.89845829902E+01  0.23318039473E+02  0.45209495218E+03  0.45278504777E+03  0.00000000000E+00 0. -1.
</event>
<event>
 4    1  0.1822260E+004  0.2708537E+02  0.7546771E-02  0.1446752E+00
         21   -1    0    0  503  502  0.00000000000E+00  0.00000000000E+00  0.18976975201E+02  0.18976975201E+02  0.00000000000E+00 0.  1.
         21   -1    0    0  501  503 -0.00000000000E+00 -0.00000000000E+00 -0.86846617293E+02  0.86846617293E+02  0.00000000000E+00 0. -1.
          2    1    1    2  501    0 -0.22555862417E+02 -0.14995009265E+02 -0.73348504080E+02  0.78189643068E+02  0.00000000000E+00 0. -1.
         -2    1    1    2    0  502  0.22555862417E+02  0.14995009265E+02  0.54788619887E+01  0.27633949427E+02  0.00000000000E+00 0.  1.
</event>
<event>
 4    1  0.1822260E+004  0.2197811E+02  0.7546771E-02  0.1505745E+00
         21   -1    0    0  501  502  0.00000000000E+00  0.00000000000E+00  0.93572037506E+00  0.93572037506E+00  0.00000000000E+00 0. -1.
         21   -1    0    0  502  503 -0.00000000000E+00 -0.00000000000E+00 -0.54529402720E+03  0.54529402720E+03  0.00000000000E+00 0.  1.
          2    1    1    2  501    0  0.12687930701E+02  0.17945856130E+02 -0.20911472727E+03  0.21026651302E+03  0.00000000000E+00 0. -1.
         -2    1    1    2    0  503 -0.12687930701E+02 -0.17945856130E+02 -0.33524357955E+03  0.33596323455E+03  0.00000000000E+00 0.  1.
</event>
<event>
 4    1  0.1822260E+004  0.2152311E+02  0.7546771E-02  0.1511926E+00
         21   -1    0    0  501  502  0.00000000000E+00  0.00000000000E+00  0.18142165871E+01  0.18142165871E+01  0.00000000000E+00 0. -1.
         21   -1    0    0  502  503 -0.00000000000E+00 -0.00000000000E+00 -0.29372693683E+03  0.29372693683E+03  0.00000000000E+00 0.  1.
          2    1    1    2  501    0  0.85501957317E+01  0.19751918803E+02 -0.19937604519E+03  0.20053441485E+03  0.00000000000E+00 0.  1.
         -2    1    1    2    0  503 -0.85501957317E+01 -0.19751918803E+02 -0.92536675057E+02  0.95006738572E+02  0.00000000000E+00 0. -1.
</event>
<event>
 4    1  0.1822260E+004  0.2778462E+02  0.7546771E-02  0.1439882E+00
         21   -1    0    0  503  502  0.00000000000E+00  0.00000000000E+00  0.63578885249E+01  0.63578885249E+01  0.00000000000E+00 0. -1.
         21   -1    0    0  501  503 -0.00000000000E+00 -0.00000000000E+00 -0.51605073472E+03  0.51605073472E+03  0.00000000000E+00 0.  1.
          2    1    1    2  501    0 -0.27780592049E+02  0.47305419316E+00 -0.48326357232E+03  0.48406163389E+03  0.00000000000E+00 0.  1.
         -2    1    1    2    0  502  0.27780592049E+02 -0.47305419316E+00 -0.26429273875E+02  0.38346989353E+02  0.00000000000E+00 0. -1.
</event>
<event>
 4    1  0.1822260E+004  0.2496301E+02  0.7546771E-02  0.1469218E+00
         21   -1    0    0  501  502  0.00000000000E+00  0.00000000000E+00  0.45623169858E+01  0.45623169858E+01  0.00000000000E+00 0.  1.
         21   -1    0    0  502  503 -0.00000000000E+00 -0.00000000000E+00 -0.15282989124E+03  0.15282989124E+03  0.00000000000E+00 0. -1.
          2    1    1    2  501    0  0.22915555101E+02 -0.99009767806E+01 -0.99789507673E+02  0.10286446349E+03  0.00000000000E+00 0. -1.
         -2    1    1    2    0  503 -0.22915555101E+02  0.99009767806E+01 -0.48478066577E+02  0.54527744735E+02  0.00000000000E+00 0.  1.
</event>
<event>
 4    1  0.1822260E+004  0.2110075E+02  0.7546771E-02  0.1517831E+00
         21   -1    0    0  503  502  0.00000000000E+00  0.00000000000E+00  0.66624867391E+01  0.66624867391E+01  0.00000000000E+00 0.  1.
         21   -1    0    0  501  503 -0.00000000000E+00 -0.00000000000E+00 -0.12514583788E+03  0.12514583788E+03  0.00000000000E+00 0. -1.
          2    1    1    2  501    0 -0.18320284340E+02 -0.10469427140E+02 -0.10423051130E+03  0.10634491624E+03  0.00000000000E+00 0. -1.
         -2    1    1    2    0  502  0.18320284340E+02  0.10469427140E+02 -0.14252839835E+02  0.25463408379E+02  0.00000000000E+00 0.  1.
</event>
<event>
 4    1  0.1822260E+004  0.3752839E+02  0.7546771E-02  0.1363611E+00
         21   -1    0    0  503  502  0.00000000000E+00  0.00000000000E+00  0.11523768323E+04  0.11523768323E+04  0.00000000000E+00 0. -1.
         21   -1    0    0  501  503 -0.00000000000E+00 -0.00000000000E+00 -0.20582682948E+01  0.20582682948E+01  0.00000000000E+00 0.  1.
          2    1    1    2  501    0  0.11182598552E+02  0.35823593398E+02  0.20726611619E+03  0.21063623447E+03  0.00000000000E+00 0.  1.
         -2    1    1    2    0  502 -0.11182598552E+02 -0.35823593398E+02  0.94305244782E+03  0.94379886612E+03  0.00000000000E+00 0. -1.
</event>
<event>
 4    1  0.1822260E+004  0.3015451E+02  0.7546771E-02  0.1418258E+00
         21   -1    0    0  501  502  0.00000000000E+00  0.00000000000E+00  0.40662903657E+03  0.40662903657E+03  0.00000000000E+00 0.  1.
         21   -1    0    0  502  503 -0.00000000000E+00 -0.00000000000E+00 -0.56961432459E+01  0.56961432459E+01  0.00000000000E+00 0. -1.
          2    1    1    2  501    0  0.16509671774E+02  0.25233415352E+02  0.36114404777E+03  0.36240076953E+03  0.00000000000E+00 0.  1.
         -2    1    1    2    0  503 -0.16509671774E+02 -0.25233415352E+02  0.39788845554E+02  0.49924410291E+02  0.00000000000E+00 0. -1.
</event>
<event>
 4    1  0.1822260E+004  0.2777754E+02  0.7546771E-02  0.1439950E+00
         21   -1    0    0  503  502  0.00000000000E+00  0.00000000000E+00  0.12640449006E+02  0.12640449006E+02  0.00000000000E+00 0. -1.
         21   -1    0    0  501  503 -0.00000000000E+00 -0.00000000000E+00 -0.61242387789E+02  0.61242387789E+02  0.00000000000E+00 0.  1.
          2    1    1    2  501    0 -0.27406970251E+02 -0.45221226104E+01 -0.26416867676E+02  0.38333308089E+02  0.00000000000E+00 0.  1.
         -2    1    1    2    0  502  0.27406970251E+02  0.45221226104E+01 -0.22185071107E+02  0.35549528707E+02  0.00000000000E+00 0. -1.
</event>
<event>
 4    1  0.1822260E+004  0.2583830E+02  0.7546771E-02  0.1459640E+00
         21   -1    0    0  501  502  0.00000000000E+00  0.00000000000E+00  0.12801185283E+02  0.12801185283E+02  0.00000000000E+00 0. -1.
         21   -1    0    0  502  503 -0.00000000000E+00 -0.00000000000E+00 -0.56870550897E+02  0.56870550897E+02  0.00000000000E+00 0.  1.
          2    1    1    2  501    0 -0.25577965166E+02  0.36586340965E+01 -0.12001250500E+02  0.28489435218E+02  0.00000000000E+00 0. -1.
         -2    1    1    2    0  503  0.25577965166E+02 -0.36586340965E+01 -0.32068115115E+02  0.41182300962E+02  0.00000000000E+00 0.  1.
</event>
<event>
 4    1  0.1822260E+004  0.2619181E+02  0.7546771E-02  0.1455900E+00
         21   -1    0    0  501  502  0.00000000000E+00  0.00000000000E+00  0.11510164750E+03  0.11510164750E+03  0.00000000000E+00 0. -1.
         21   -1    0    0  502  503 -0.00000000000E+00 -0.00000000000E+00 -0.11554889969E+02  0.11554889969E+02  0.00000000000E+00 0.  1.
          2    1    1    2  501    0  0.24506172319E+02 -0.92443840836E+01  0.95839892810E+02  0.99354396846E+02  0.00000000000E+00 0. -1.
         -2    1    1    2    0  503 -0.24506172319E+02  0.92443840836E+01  0.77068647212E+01  0.27302140624E+02  0.00000000000E+00 0.  1.
</event>
<event>
 4    1  0.1822260E+004  0.2978002E+02  0.7546771E-02  0.1421518E+00
         21   -1    0    0  501  502  0.00000000000E+00  0.00000000000E+00  0.75649723330E+02  0.75649723330E+02  0.00000000000E+00 0. -1.
         21   -1    0    0  502  503 -0.00000000000E+00 -0.00000000000E+00 -0.13011464094E+02  0.13011464094E+02  0.00000000000E+00 0.  1.
          2    1    1    2  501    0 -0.21939028438E+01 -0.29699096878E+02  0.45268644882E+02  0.54185789415E+02  0.00000000000E+00 0. -1.
         -2    1    1    2    0  503  0.21939028438E+01  0.29699096878E+02  0.17369614355E+02  0.34475398009E+02  0.00000000000E+00 0.  1.
</event>
<event>
 4    1  0.1822260E+004  0.4028228E+02  0.7546771E-02  0.1346840E+00
         21   -1    0    0  501  502  0.00000000000E+00  0.00000000000E+00  0.65123416878E+03  0.65123416878E+03  0.00000000000E+00 0.  1.
         21   -1    0    0  502  503 -0.00000000000E+00 -0.00000000000E+00 -0.28342413618E+01  0.28342413618E+01  0.00000000000E+00 0. -1.
          2    1    1    2  501    0 -0.34148848425E+02 -0.21366281350E+02  0.21050292975E+03  0.21432252625E+03  0.00000000000E+00 0.  1.
         -2    1    1    2    0  503  0.34148848425E+02  0.21366281350E+02  0.43789699767E+03  0.43974588389E+03  0.00000000000E+00 0. -1.
</event>
<event>
 4    1  0.1822260E+004  0.2318761E+02  0.7546771E-02  0.1490156E+00
         21   -1    0    0  503  502  0.00000000000E+00  0.00000000000E+00  0.23801026440E+02  0.23801026440E+02  0.00000000000E+00 0. -1.
         21   -1    0    0  501  503 -0.00000000000E+00 -0.00000000000E+00 -0.54281478988E+02  0.54281478988E+02  0.00000000000E+00 0.  1.
          2    1    1    2  501    0  0.32967366066E+01  0.22952049524E+02 -0.45071321720E+02  0.50686182449E+02  0.00000000000E+00 0.  1.
         -2    1    1    2    0  502 -0.32967366066E+01 -0.22952049524E+02  0.14590869171E+02  0.27396322980E+02  0.00000000000E+00 0. -1.
</event>
<event>
 4    1  0.1822260E+004  0.2223152E+02  0.7546771E-02  0.1502380E+00
         21   -1    0    0  503  502  0.00000000000E+00  0.00000000000E+00  0.71276218688E+02  0.71276218688E+02  0.00000000000E+00 0.  1.
         21   -1    0    0  501  503 -0.00000000000E+00 -0.00000000000E+00 -0.11514309787E+02  0.11514309787E+02  0.00000000000E+00 0. -1.
          2    1    1    2  501    0  0.22223414940E+02 -0.60011716323E+00  0.55988846352E+02  0.60241109120E+02  0.00000000000E+00 0.  1.
         -2    1    1    2    0  502 -0.22223414940E+02  0.60011716323E+00  0.37730625487E+01  0.22549419354E+02  0.00000000000E+00 0. -1.
</event>
<event>
 4    1  0.1822260E+004  0.2431605E+02  0.7546771E-02  0.1476602E+00
         21   -1    0    0  501  502  0.00000000000E+00  0.00000000000E+00  0.15412143091E+03  0.15412143091E+03  0.00000000000E+00 0. -1.
         21   -1    0    0  502  503 -0.00000000000E+00 -0.00000000000E+00 -0.63463591645E+01  0.63463591645E+01  0.00000000000E+00 0.  1.
          2    1    1    2  501    0  0.18402280956E+02 -0.15894227571E+02  0.12434547007E+03  0.12670069590E+03  0.00000000000E+00 0. -1.
         -2    1    1    2    0  503 -0.18402280956E+02  0.15894227571E+02  0.23429601679E+02  0.33767094179E+02  0.00000000000E+00 0.  1.
</event>
<event>
 4    1  0.1822260E+004  0.2090593E+02  0.7546771E-02  0.1520612E+00
         21   -1    0    0  503  502  0.00000000000E+00  0.00000000000E+00  0.16065246212E+02  0.16065246212E+02  0.00000000000E+00 0. -1.
         21   -1    0    0  501  503 -0.00000000000E+00 -0.00000000000E+00 -0.71439822201E+02  0.71439822201E+02  0.00000000000E+00 0.  1.
          2    1    1    2  501    0  0.46003384737E+01 -0.20393501078E+02 -0.62115483762E+02  0.65539234992E+02  0.00000000000E+00 0.  1.
         -2    1    1    2    0  502 -0.46003384737E+01  0.20393501078E+02  0.67409077734E+01  0.21965833421E+02  0.00000000000E+00 0. -1.
</event>
<event>
 4    1  0.1822260E+004  0.2386425E+02  0.7546771E-02  0.1481922E+00
         21   -1    0    0  501  502  0.00000000000E+00  0.00000000000E+00  0.55442432696E+03  0.55442432696E+03  0.00000000000E+00 0. -1.
         21   -1    0    0  502  503 -0.00000000000E+00 -0.00000000000E+00 -0.11042231041E+01  0.11042231041E+01  0.00000000000E+00 0.  1.
          2    1    1    2  501    0  0.94320541261E+01 -0.21921199666E+02  0.35002165242E+03  0.35083423408E+03  0.00000000000E+00 0. -1.
         -2    1    1    2    0  503 -0.94320541261E+01  0.21921199666E+02  0.20329845143E+03  0.20469431598E+03  0.00000000000E+00 0.  1.
</event>
<event>
 4    1  0.1822260E+004  0.2545307E+02  0.7546771E-02  0.1463798E+00
         21   -1    0    0  501  502  0.00000000000E+00  0.00000000000E+00  0.40707928519E+02  0.40707928519E+02  0.00000000000E+00 0. -1.
         21   -1    0    0  502  503 -0.00000000000E+00 -0.00000000000E+00 -0.33711993718E+02  0.33711993718E+02  0.00000000000E+00 0.  1.
          2    1    1    2  501    0 -0.24122056236E+02  0.81231412001E+01  0.30533978604E+02  0.39751514052E+02  0.00000000000E+00 0. -1.
         -2    1    1    2    0  503  0.24122056236E+02 -0.81231412001E+01 -0.23538043803E+02  0.34668408185E+02  0.00000000000E+00 0.  1.
</event>
<event>
 4    1  0.1822260E+004  0.2202546E+02  0.7546771E-02  0.1505112E+00
         21   -1    0    0  503  502  0.00000000000E+00  0.00000000000E+00  0.12290268658E+03  0.12290268658E+03  0.00000000000E+00 0.  1.
         21   -1    0    0  501  503 -0.00000000000E+00 -0.00000000000E+00 -0.20215289460E+03  0.20215289460E+03  0.00000000000E+00 0. -1.
          2    1    1    2  501    0  0.11800065999E+02  0.18597836874E+02 -0.20055832994E+03  0.20176413161E+03  0.00000000000E+00 0. -1.
         -2    1    1    2    0  502 -0.11800065999E+02 -0.18597836874E+02  0.12130812192E+03  0.12329144958E+03  0.00000000000E+00 0.  1.
</event>
<event>
 4    1  0.1822260E+004  0.2258012E+02  0.7546771E-02  0.1497839E+00
         21   -1    0    0  501  502  0.00000000000E+00  0.00000000000E+00  0.35976961177E+02  0.35976961177E+02  0.00000000000E+00 0. -1.
         21   -1    0    0  502  503 -0.00000000000E+00 -0.00000000000E+00 -0.16618518266E+02  0.16618518266E+02  0.00000000000E+00 0.  1.
          2    1    1    2  501    0  0.42271798293E+01  0.22180914592E+02  0.19769544509E+02  0.30011612945E+02  0.00000000000E+00 0. -1.
         -2    1    1    2    0  503 -0.42271798293E+01 -0.22180914592E+02 -0.41110159805E+00  0.22583866498E+02  0.00000000000E+00 0.  1.
</event>
<event>
 4    1  0.1822260E+004  0.2502257E+02  0.7546771E-02  0.1468551E+00
         21   -1    0    0  501  502  0.00000000000E+00  0.00000000000E+00  0.11601939782E+03  0.11601939782E+03  0.00000000000E+00 0. -1.
         21   -1    0    0  502  503 -0.00000000000E+00 -0.00000000000E+00 -0.15730015001E+02  0.15730015001E+02  0.00000000000E+00 0.  1.
          2    1    1    2  501    0 -0.24547362997E+02 -0.48534363317E+01  0.10353626152E+03  0.10651707057E+03  0.00000000000E+00 0. -1.
         -2    1    1    2    0  503  0.24547362997E+02  0.48534363317E+01 -0.32468786927E+01  0.25232342253E+02  0.00000000000E+00 0.  1.
</event>
<event>
 4    1  0.1822260E+004  0.2986829E+02  0.7546771E-02  0.1420745E+00
         21   -1    0    0  503  502  0.00000000000E+00  0.00000000000E+00  0.58310837306E+02  0.58310837306E+02  0.00000000000E+00 0.  1.
         21   -1    0    0  501  503 -0.00000000000E+00 -0.00000000000E+00 -0.15504897487E+02  0.15504897487E+02  0.00000000000E+00 0. -1.
          2    1    1    2  501    0  0.19138561063E+02  0.22930984429E+02  0.17152850496E+02  0.34443211909E+02  0.00000000000E+00 0. -1.
         -2    1    1    2    0  502 -0.19138561063E+02 -0.22930984429E+02  0.25653089323E+02  0.39372522884E+02  0.00000000000E+00 0.  1.
</event>
<event>
 4    1  0.1822260E+004  0.2073821E+02  0.7546771E-02  0.1523036E+00
         21   -1    0    0  503  502  0.00000000000E+00  0.00000000000E+00  0.49641170385E+03  0.49641170385E+03  0.00000000000E+00 0.  1.
         21   -1    0    0  501  503 -0.00000000000E+00 -0.00000000000E+00 -0.74298291051E+01  0.74298291051E+01  0.00000000000E+00 0. -1.
          2    1    1    2  501    0  0.20447454263E+02  0.34604944448E+01  0.77130533561E+01  0.22126106745E+02  0.00000000000E+00 0. -1.
         -2    1    1    2    0  502 -0.20447454263E+02 -0.34604944448E+01  0.48126882139E+03  0.48171542621E+03  0.00000000000E+00 0.  1.
</event>
<event>
 4    1  0.1822260E+004  0.2710366E+02  0.7546771E-02  0.1446570E+00
         21   -1    0    0  503  502  0.00000000000E+00  0.00000000000E+00  0.44696348532E+02  0.44696348532E+02  0.00000000000E+00 0. -1.
         21   -1    0    0  501  503 -0.00000000000E+00 -0.00000000000E+00 -0.21967984138E+02  0.21967984138E+02  0.00000000000E+00 0.  1.
          2    1    1    2  501    0 -0.26911121445E+02 -0.32248814429E+01 -0.53631709202E+01  0.27629186019E+02  0.00000000000E+00 0.  1.
         -2    1    1    2    0  502  0.26911121445E+02  0.32248814429E+01  0.28091535314E+02  0.39035146651E+02  0.00000000000E+00 0. -1.
</event>
<event>
 4    1  0.1822260E+004  0.2056569E+02  0.7546771E-02  0.1525557E+00
         21   -1    0    0  501  502  0.00000000000E+00  0.00000000000E+00  0.98499933690E+02  0.98499933690E+02  0.00000000000E+00 0. -1.
         21   -1    0    0  502  503 -0.00000000000E+00 -0.00000000000E+00 -0.95992761157E+01  0.95992761157E+01  0.00000000000E+00 0.  1.
          2    1    1    2  501    0 -0.11233397568E+02  0.17226680660E+02  0.84632355226E+02  0.87095254168E+02  0.00000000000E+00 0. -1.
         -2    1    1    2    0  503  0.11233397568E+02 -0.17226680660E+02  0.42683023477E+01  0.21003955637E+02  0.00000000000E+00 0.  1.
</event>
<event>
 4    1  0.1822260E+004  0.3191319E+02  0.7546771E-02  0.1403668E+00
         21   -1    0    0  503  502  0.00000000000E+00  0.00000000000E+00  0.27223918992E+01  0.27223918992E+01  0.00000000000E+00 0. -1.
         21   -1    0    0  501  503 -0.00000000000E+00 -0.00000000000E+00 -0.66889655786E+03  0.66889655786E+03  0.00000000000E+00 0.  1.
          2    1    1    2  501    0 -0.27064448610E+02 -0.16910561949E+02 -0.55601959228E+03  0.55693468062E+03  0.00000000000E+00 0.  1.
         -2    1    1    2    0  502  0.27064448610E+02  0.16910561949E+02 -0.11015457369E+03  0.11468426914E+03  0.00000000000E+00 0. -1.
</event>
<event>
 4    1  0.1822260E+004  0.2703633E+02  0.7546771E-02  0.1447244E+00
         21   -1    0    0  503  502  0.00000000000E+00  0.00000000000E+00  0.16599761196E+03  0.16599761196E+03  0.00000000000E+00 0. -1.
         21   -1    0    0  501  503 -0.00000000000E+00 -0.00000000000E+00 -0.66931914436E+01  0.66931914436E+01  0.00000000000E+00 0.  1.
          2    1    1    2  501    0  0.33546762331E+00 -0.27034247866E+02  0.29149429443E+02  0.39757418592E+02  0.00000000000E+00 0.  1.
         -2    1    1    2    0  502 -0.33546762331E+00  0.27034247866E+02  0.13015499107E+03  0.13293338481E+03  0.00000000000E+00 0. -1.
</event>
<event>
 4    1  0.1822260E+004  0.2086640E+02  0.7546771E-02  0.1521181E+00
         21   -1    0    0  501  502  0.00000000000E+00  0.00000000000E+00  0.20515235147E+03  0.20515235147E+03  0.00000000000E+00 0.  1.
         21   -1    0    0  502  503 -0.00000000000E+00 -0.00000000000E+00 -0.12607134228E+02  0.12607134228E+02  0.00000000000E+00 0. -1.
          2    1    1    2  501    0  0.17640211405E+02 -0.11145827007E+02  0.19556557899E+03  0.19667562687E+03  0.00000000000E+00 0.  1.
         -2    1    1    2    0  503 -0.17640211405E+02  0.11145827007E+02 -0.30203617482E+01  0.21083858830E+02  0.00000000000E+00 0. -1.
</event>
<event>
 4    1  0.1822260E+004  0.2081547E+02  0.7546771E-02  0.1521916E+00
         21   -1    0    0  503  502  0.00000000000E+00  0.00000000000E+00  0.39824518151E+01  0.39824518151E+01  0.00000000000E+00 0. -1.
         21   -1    0    0  501  503 -0.00000000000E+00 -0.00000000000E+00 -0.11409411143E+03  0.11409411143E+03  0.00000000000E+00 0.  1.
          2    1    1    2  501    0  0.14776389573E+02 -0.14660910392E+02 -0.67775281806E+02  0.70899737702E+02  0.00000000000E+00 0. -1.
         -2    1    1    2    0  502 -0.14776389573E+02  0.14660910392E+02 -0.42336377805E+02  0.47176825540E+02  0.00000000000E+00 0.  1.
</event>
<event>
 4    1  0.1822260E+004  0.2205537E+02  0.7546771E-02  0.1504713E+00
         21   -1    0    0  501  502  0.00000000000E+00  0.00000000000E+00  0.11809183093E+01  0.11809183093E+01  0.00000000000E+00 0. -1.
         21   -1    0    0  502  503 -0.00000000000E+00 -0.00000000000E+00 -0.41194924555E+03  0.41194924555E+03  0.00000000000E+00 0.  1.
          2    1    1    2  501    0  0.78471173551E+01  0.20612182462E+02 -0.20723580826E+03  0.20840614085E+03  0.00000000000E+00 0. -1.
         -2    1    1    2    0  503 -0.78471173551E+01 -0.20612182462E+02 -0.20353251897E+03  0.20472402301E+03  0.00000000000E+00 0.  1.
</event>
<event>
 4    1  0.1822260E+004  0.2040306E+02  0.7546771E-02  0.1527961E+00
         21   -1    0    0  503  502  0.00000000000E+00  0.00000000000E+00  0.11546857234E+03  0.11546857234E+03  0.00000000000E+00 0. -1.
         21   -1    0    0  501  503 -0.00000000000E+00 -0.00000000000E+00 -0.10721741366E+02  0.10721741366E+02  0.00000000000E+00 0.  1.
          2    1    1    2  501    0 -0.16887893586E+02 -0.11449185258E+02  0.96922648490E+00  0.20426066504E+02  0.00000000000E+00 0.  1.
         -2    1    1    2    0  502  0.16887893586E+02  0.11449185258E+02  0.10377760449E+03  0.10576424721E+03  0.00000000000E+00 0. -1.
</event>
<event>
 4    1  0.1822260E+004  0.2958303E+02  0.7546771E-02  0.1423255E+00
         21   -1    0    0  501  502  0.00000000000E+00  0.00000000000E+00  0.97722247654E+01  0.97722247654E+01  0.00000000000E+00 0.  1.
         21   -1    0    0  502  503 -0.00000000000E+00 -0.00000000000E+00 -0.20166511808E+03  0.20166511808E+03  0.00000000000E+00 0. -1.
          2    1    1    2  501    0 -0.27274502326E+02  0.11456741949E+02 -0.17122540788E+02  0.34180942296E+02  0.00000000000E+00 0.  1.
         -2    1    1    2    0  503  0.27274502326E+02 -0.11456741949E+02 -0.17477035253E+03  0.17725640055E+03  0.00000000000E+00 0. -1.
</event>
<event>
 4    1  0.1822260E+004  0.2441016E+02  0.7546771E-02  0.1475511E+00
         21   -1    0    0  501  502  0.00000000000E+00  0.00000000000E+00  0.90686545188E+00  0.90686545188E+00  0.00000000000E+00 0. -1.
         21   -1    0    0  502  503 -0.00000000000E+00 -0.00000000000E+00 -0.68228120447E+03  0.68228120447E+03  0.00000000000E+00 0.  1.
          2    1    1    2  501    0 -0.22757354368E+02 -0.88294208725E+01 -0.27499729054E+03  0.27607854980E+03  0.00000000000E+00 0. -1.
         -2    1    1    2    0  503  0.22757354368E+02  0.88294208725E+01 -0.40637704847E+03  0.40710952013E+03  0.00000000000E+00 0.  1.
</event>
<event>
 4    1  0.1822260E+004  0.2077104E+02  0.7546771E-02  0.1522559E+00
         21   -1    0    0  501  502  0.00000000000E+00  0.00000000000E+00  0.47967068687E+01  0.47967068687E+01  0.00000000000E+00 0.  1.
         21   -1    0    0  502  503 -0.00000000000E+00 -0.00000000000E+00 -0.15953859219E+03  0.15953859219E+03  0.00000000000E+00 0. -1.
          2    1    1    2  501    0 -0.19781511753E+02 -0.63346506084E+01 -0.23101535065E+02  0.31066331098E+02  0.00000000000E+00 0.  1.
         -2    1    1    2    0  503  0.19781511753E+02  0.63346506084E+01 -0.13164035026E+03  0.13326896796E+03  0.00000000000E+00 0. -1.
</event>
<event>
 4    1  0.1822260E+004  0.2115789E+02  0.7546771E-02  0.1517022E+00
         21   -1    0    0  503  502  0.00000000000E+00  0.00000000000E+00  0.22872404823E+02  0.22872404823E+02  0.00000000000E+00 0. -1.
         21   -1    0    0  501  503 -0.00000000000E+00 -0.00000000000E+00 -0.65492961961E+02  0.65492961961E+02  0.00000000000E+00 0.  1.
          2    1    1    2  501    0  0.21144162117E+02 -0.76204695881E+00 -0.58306788560E+02  0.62026912703E+02  0.00000000000E+00 0.  1.
         -2    1    1    2    0  502 -0.21144162117E+02  0.76204695881E+00  0.15686231422E+02  0.26338454082E+02  0.00000000000E+00 0. -1.
</event>
<event>
 4    1  0.1822260E+004  0.2446318E+02  0.7546771E-02  0.1474899E+00
         21   -1    0    0  501  502  0.00000000000E+00  0.00000000000E+00  0.13620291276E+03  0.13620291276E+03  0.00000000000E+00 0. -1.
         21   -1    0    0  502  503 -0.00000000000E+00 -0.00000000000E+00 -0.46066124305E+01  0.46066124305E+01  0.00000000000E+00 0.  1.
          2    1    1    2  501    0  0.11624516048E+02 -0.21524814920E+02  0.80930962304E+02  0.84547428643E+02  0.00000000000E+00 0.  1.
         -2    1    1    2    0  503 -0.11624516048E+02  0.21524814920E+02  0.50665338027E+02  0.56262096549E+02  0.00000000000E+00 0. -1.
</event>
<event>
 4    1  0.1822260E+004  0.3664108E+02  0.7546771E-02  0.1369379E+00
         21   -1    0    0  501  502  0.00000000000E+00  0.00000000000E+00  0.55296821048E+01  0.55296821048E+01  0.00000000000E+00 0.  1.
         21   -1    0    0  502  503 -0.00000000000E+00 -0.00000000000E+00 -0.56168088035E+03  0.56168088035E+03  0.00000000000E+00 0. -1.
          2    1    1    2  501    0 -0.36640088726E+02 -0.26914011599E+00 -0.64383508783E+02  0.74079718827E+02  0.00000000000E+00 0.  1.
         -2    1    1    2    0  503  0.36640088726E+02  0.26914011599E+00 -0.49176768947E+03  0.49313084363E+03  0.00000000000E+00 0. -1.
</event>
<event>
 4    1  0.1822260E+004  0.2415767E+02  0.7546771E-02  0.1478451E+00
         21   -1    0    0  501  502  0.00000000000E+00  0.00000000000E+00  0.13245537613E+02  0.13245537613E+02  0.00000000000E+00 0. -1.
         21   -1    0    0  502  503 -0.00000000000E+00 -0.00000000000E+00 -0.44163898822E+02  0.44163898822E+02  0.00000000000E+00 0.  1.
          2    1    1    2  501    0  0.28746195988E+01 -0.23986031667E+02 -0.16854100376E+02  0.29455964633E+02  0.00000000000E+00 0. -1.
         -2    1    1    2    0  503 -0.28746195988E+01  0.23986031667E+02 -0.14064260832E+02  0.27953471801E+02  0.00000000000E+00 0.  1.
</event>
<event>
 4    1  0.1822260E+004  0.2045248E+02  0.7546771E-02  0.1527227E+00
         21   -1    0    0  501  502  0.00000000000E+00  0.00000000000E+00  0.41379282262E+01  0.41379282262E+01  0.00000000000E+00 0.  1.
         21   -1    0    0  502  503 -0.00000000000E+00 -0.00000000000E+00 -0.10226189537E+03  0.10226189537E+03  0.00000000000E+00 0. -1.
          2    1    1    2  501    0 -0.10244985581E+02  0.17701531485E+02 -0.43367381411E+02  0.47948239977E+02  0.00000000000E+00 0.  1.
         -2    1    1    2    0  503  0.10244985581E+02 -0.17701531485E+02 -0.54756585732E+02  0.58451583618E+02  0.00000000000E+00 0. -1.
</event>
<event>
 4    1  0.1822260E+004  0.2254184E+02  0.7546771E-02  0.1498333E+00
         21   -1    0    0  503  502  0.00000000000E+00  0.00000000000E+00  0.10051203243E+03  0.10051203243E+03  0.00000000000E+00 0.  1.
         21   -1    0    0  501  503 -0.00000000000E+00 -0.00000000000E+00 -0.52159993338E+01  0.52159993338E+01  0.00000000000E+00 0. -1.
          2    1    1    2  501    0 -0.18513393003E+02  0.12860362562E+02  0.38373720489E+02  0.44504798279E+02  0.00000000000E+00 0.  1.
         -2    1    1    2    0  502  0.18513393003E+02 -0.12860362562E+02  0.56922312603E+02  0.61223233480E+02  0.00000000000E+00 0. -1.
</event>
<event>
 4    1  0.1822260E+004  0.2273546E+02  0.7546771E-02  0.1495847E+00
         21   -1    0    0  501  502  0.00000000000E+00  0.00000000000E+00  0.35233820145E+02  0.35233820145E+02  0.00000000000E+00 0. -1.
         21   -1    0    0  502  503 -0.00000000000E+00 -0.00000000000E+00 -0.45284195752E+02  0.45284195752E+02  0.00000000000E+00 0.  1.
          2    1    1    2  501    0  0.22584942228E+02  0.26117738748E+01  0.28076258669E+02  0.36127237357E+02  0.00000000000E+00 0. -1.
         -2    1    1    2    0  503 -0.22584942228E+02 -0.26117738748E+01 -0.38126634276E+02  0.44390778540E+02  0.00000000000E+00 0.  1.
</event>
<event>
 4    1  0.1822260E+004  0.2963963E+02  0.7546771E-02  0.1422754E+00
         21   -1    0    0  503  502  0.00000000000E+00  0.00000000000E+00  0.12940478586E+02  0.12940478586E+02  0.00000000000E+00 0.  1.
         21   -1    0    0  501  503 -0.00000000000E+00 -0.00000000000E+00 -0.11651582474E+03  0.11651582474E+03  0.00000000000E+00 0. -1.
          2    1    1    2  501    0  0.27651242286E+01  0.29510368727E+02 -0.93603587216E+02  0.98184211124E+02  0.00000000000E+00 0. -1.
         -2    1    1    2    0  502 -0.27651242286E+01 -0.29510368727E+02 -0.99717589400E+01  0.31272092203E+02  0.00000000000E+00 0.  1.
</event>
<event>
 4    1  0.1822260E+004  0.2458444E+02  0.7546771E-02  0.1473506E+00
         21   -1    0    0  501  502  0.00000000000E+00  0.00000000000E+00  0.22237845783E+03  0.22237845783E+03  0.00000000000E+00 0. -1.
         21   -1    0    0  502  503 -0.00000000000E+00 -0.00000000000E+00 -0.43021954839E+01  0.43021954839E+01  0.00000000000E+00 0.  1.
          2    1    1    2  501    0 -0.15154792245E+02  0.19357863121E+02  0.17781815162E+03  0.17950958091E+03  0.00000000000E+00 0. -1.
         -2    1    1    2    0  503  0.15154792245E+02 -0.19357863121E+02  0.40258110727E+02  0.47171072405E+02  0.00000000000E+00 0.  1.
</event>
<event>
 4    1  0.1822260E+004  0.3084362E+02  0.7546771E-02  0.1412404E+00
         21   -1    0    0  501  502  0.00000000000E+00  0.00000000000E+00  0.41652183623E+02  0.41652183623E+02  0.00000000000E+00 0. -1.
         21   -1    0    0  502  503 -0.00000000000E+00 -0.00000000000E+00 -0.28516401931E+02  0.28516401931E+02  0.00000000000E+00 0.  1.
          2    1    1    2  501    0 -0.28624721995E+02 -0.11487141024E+02  0.22221271158E+02  0.38014655202E+02  0.00000000000E+00 0. -1.
         -2    1    1    2    0  503  0.28624721995E+02  0.11487141024E+02 -0.90854894666E+01  0.32153930352E+02  0.00000000000E+00 0.  1.
</event>
<event>
 4    1  0.1822260E+004  0.5712979E+02  0.7546771E-02  0.1269909E+00
         21   -1    0    0  501  502  0.00000000000E+00  0.00000000000E+00  0.41604295715E+02  0.41604295715E+02  0.00000000000E+00 0.  1.
         21   -1    0    0  502  503 -0.00000000000E+00 -0.00000000000E+00 -0.18293973861E+03  0.18293973861E+03  0.00000000000E+00 0. -1.
          2    1    1    2  501    0 -0.33187908205E+02 -0.46501356277E+02  0.14183187370E+02  0.58864048371E+02  0.00000000000E+00 0.  1.
         -2    1    1    2    0  503  0.33187908205E+02  0.46501356277E+02 -0.15551863026E+03  0.16567998595E+03  0.00000000000E+00 0. -1.
</event>
<event>
 4    1  0.1822260E+004  0.2091777E+02  0.7546771E-02  0.1520442E+00
         21   -1    0    0  503  502  0.00000000000E+00  0.00000000000E+00  0.10373645837E+03  0.10373645837E+03  0.00000000000E+00 0.  1.
         21   -1    0    0  501  503 -0.00000000000E+00 -0.00000000000E+00 -0.89933615672E+01  0.89933615672E+01  0.00000000000E+00 0. -1.
          2    1    1    2  501    0 -0.13146629754E+02 -0.16270190963E+02  0.62987624916E+01  0.21845534939E+02  0.00000000000E+00 0. -1.
         -2    1    1    2    0  502  0.13146629754E+02  0.16270190963E+02  0.88444334309E+02  0.90884284996E+02  0.00000000000E+00 0.  1.
</event>
<event>
 4    1  0.1822260E+004  0.2156460E+02  0.7546771E-02  0.1511354E+00
         21   -1    0    0  503  502  0.00000000000E+00  0.00000000000E+00  0.39227313833E+01  0.39227313833E+01  0.00000000000E+00 0.  1.
         21   -1    0    0  501  503 -0.00000000000E+00 -0.00000000000E+00 -0.12363956558E+03  0.12363956558E+03  0.00000000000E+00 0. -1.
          2    1    1    2  501    0 -0.20626234463E+02 -0.62921010841E+01 -0.46915328591E+02  0.51634098627E+02  0.00000000000E+00 0.  1.
         -2    1    1    2    0  502  0.20626234463E+02  0.62921010841E+01 -0.72801505603E+02  0.75928198334E+02  0.00000000000E+00 0. -1.
</event>
<event>
 4    1  0.1822260E+004  0.2772833E+02  0.7546771E-02  0.1440426E+00
         21   -1    0    0  503  502  0.00000000000E+00  0.00000000000E+00  0.15696666907E+03  0.15696666907E+03  0.00000000000E+00 0.  1.
         21   -1    0    0  501  503 -0.00000000000E+00 -0.00000000000E+00 -0.11993257032E+02  0.11993257032E+02  0.00000000000E+00 0. -1.
          2    1    1    2  501    0 -0.10282463070E+02 -0.25751332958E+02  0.75093689553E+01  0.28727179082E+02  0.00000000000E+00 0. -1.
         -2    1    1    2    0  502  0.10282463070E+02  0.25751332958E+02  0.13746404308E+03  0.14023274702E+03  0.00000000000E+00 0.  1.
</event>
<event>
 4    1  0.1822260E+004  0.2809001E+02  0.7546771E-02  0.1436956E+00
         21   -1    0    0  503  502  0.00000000000E+00  0.00000000000E+00  0.66998718036E+02  0.66998718036E+02  0.00000000000E+00 0. -1.
         21   -1    0    0  501  503 -0.00000000000E+00 -0.00000000000E+00 -0.13332647992E+02  0.13332647992E+02  0.00000000000E+00 0.  1.
          2    1    1    2  501    0 -0.70891822829E+00 -0.28081059936E+02  0.13113384351E+02  0.31000150666E+02  0.00000000000E+00 0.  1.
         -2    1    1    2    0  502  0.70891822829E+00  0.28081059936E+02  0.40552685694E+02  0.49331215362E+02  0.00000000000E+00 0. -1.
</event>
<event>
 4    1  0.1822260E+004  0.2060156E+02  0.7546771E-02  0.1525030E+00
         21   -1    0    0  501  502  0.00000000000E+00  0.00000000000E+00  0.11544229710E+01  0.11544229710E+01  0.00000000000E+00 0.  1.
         21   -1    0    0  502  503 -0.00000000000E+00 -0.00000000000E+00 -0.94479646052E+03  0.94479646052E+03  0.00000000000E+00 0. -1.
          2    1    1    2  501    0  0.20437315473E+02 -0.25962302976E+01 -0.10215267430E+03  0.10420937166E+03  0.00000000000E+00 0.  1.
         -2    1    1    2    0  503 -0.20437315473E+02  0.25962302976E+01 -0.84148936325E+03  0.84174151183E+03  0.00000000000E+00 0. -1.
</event>
<event>
 4    1  0.1822260E+004  0.2886524E+02  0.7546771E-02  0.1429720E+00
         21   -1    0    0  503  502  0.00000000000E+00  0.00000000000E+00  0.51425347754E+02  0.51425347754E+02  0.00000000000E+00 0. -1.
         21   -1    0    0  501  503 -0.00000000000E+00 -0.00000000000E+00 -0.17718102491E+02  0.17718102491E+02  0.00000000000E+00 0.  1.
          2    1    1    2  501    0 -0.11018773717E+02 -0.26679371919E+02  0.67412681859E+01  0.29641979640E+02  0.00000000000E+00 0.  1.
         -2    1    1    2    0  502  0.11018773717E+02  0.26679371919E+02  0.26965977077E+02  0.39501470605E+02  0.00000000000E+00 0. -1.
</event>
<event>
 4    1  0.1822260E+004  0.2153848E+02  0.7546771E-02  0.1511714E+00
         21   -1    0    0  501  502  0.00000000000E+00  0.00000000000E+00  0.13900821553E+02  0.13900821553E+02  0.00000000000E+00 0.  1.
         21   -1    0    0  502  503 -0.00000000000E+00 -0.00000000000E+00 -0.33811468429E+02  0.33811468429E+02  0.00000000000E+00 0. -1.
          2    1    1    2  501    0 -0.20306431348E+02 -0.71801767814E+01 -0.72373077571E+01  0.22721899487E+02  0.00000000000E+00 0.  1.
         -2    1    1    2    0  503  0.20306431348E+02  0.71801767814E+01 -0.12673339119E+02  0.24990390496E+02  0.00000000000E+00 0. -1.
</event>
<event>
 4    1  0.1822260E+004  0.3456382E+02  0.7546771E-02  0.1383656E+00
         21   -1    0    0  503  502  0.00000000000E+00  0.00000000000E+00  0.14083222068E+03  0.14083222068E+03  0.00000000000E+00 0.  1.
         21   -1    0    0  501  503 -0.00000000000E+00 -0.00000000000E+00 -0.38700706771E+02  0.38700706771E+02  0.00000000000E+00 0. -1.
          2    1    1    2  501    0 -0.31998420803E+02 -0.13067474299E+02 -0.28254942993E+02  0.44643024337E+02  0.00000000000E+00 0. -1.
         -2    1    1    2    0  502  0.31998420803E+02  0.13067474299E+02  0.13038645690E+03  0.13488990311E+03  0.00000000000E+00 0.  1.
</event>
<event>
 4    1  0.1822260E+004  0.2085155E+02  0.7546771E-02  0.1521395E+00
         21   -1    0    0  503  502  0.00000000000E+00  0.00000000000E+00  0.40526342477E+03  0.40526342477E+03  0.00000000000E+00 0.  1.
         21   -1    0    0  501  503 -0.00000000000E+00 -0.00000000000E+00 -0.19306588576E+01  0.19306588576E+01  0.00000000000E+00 0. -1.
          2    1    1    2  501    0  0.83815250835E+01  0.19092852941E+02  0.65955750615E+02  0.69173318811E+02  0.00000000000E+00 0. -1.
         -2    1    1    2    0  502 -0.83815250835E+01 -0.19092852941E+02  0.33737701530E+03  0.33802076481E+03  0.00000000000E+00 0.  1.
</event>
<event>
 4    1  0.1822260E+004  0.2214377E+02  0.7546771E-02  0.1503539E+00
         21   -1    0    0  501  502  0.00000000000E+00  0.00000000000E+00  0.59944302150E+02  0.59944302150E+02  0.00000000000E+00 0.  1.
         21   -1    0    0  502  503 -0.00000000000E+00 -0.00000000000E+00 -0.54528706021E+02  0.54528706021E+02  0.00000000000E+00 0. -1.
          2    1    1    2  501    0 -0.44057879964E+01 -0.21701045275E+02  0.55476833898E+02  0.59732950984E+02  0.00000000000E+00 0.  1.
         -2    1    1    2    0  503  0.44057879964E+01  0.21701045275E+02 -0.50061237769E+02  0.54740057187E+02  0.00000000000E+00 0. -1.
</event>
<event>
 4    1  0.1822260E+004  0.2614980E+02  0.7546771E-02  0.1456341E+00
         21   -1    0    0  503  502  0.00000000000E+00  0.00000000000E+00  0.90060802073E+01  0.90060802073E+01  0.00000000000E+00 0.  1.
         21   -1    0    0  501  503 -0.00000000000E+00 -0.00000000000E+00 -0.15864204051E+03  0.15864204051E+03  0.00000000000E+00 0. -1.
          2    1    1    2  501    0 -0.40739004643E+01 -0.25830510275E+02 -0.13534505323E+03  0.13784808798E+03  0.00000000000E+00 0. -1.
         -2    1    1    2    0  502  0.40739004643E+01  0.25830510275E+02 -0.14290907070E+02  0.29800032734E+02  0.00000000000E+00 0.  1.
</event>
<event>
 4    1  0.1822260E+004  0.2441773E+02  0.7546771E-02  0.1475424E+00
         21   -1    0    0  503  502  0.00000000000E+00  0.00000000000E+00  0.40182444235E+02  0.40182444235E+02  0.00000000000E+00 0. -1.
         21   -1    0    0  501  503 -0.00000000000E+00 -0.00000000000E+00 -0.16481820775E+02  0.16481820775E+02  0.00000000000E+00 0.  1.
          2    1    1    2  501    0 -0.24014153056E+02 -0.44210673393E+01  0.29026497096E+01  0.24589647390E+02  0.00000000000E+00 0.  1.
         -2    1    1    2    0  502  0.24014153056E+02  0.44210673393E+01  0.20797973750E+02  0.32074617620E+02  0.00000000000E+00 0. -1.
</event>
<event>
 4    1  0.1822260E+004  0.4005677E+02  0.7546771E-02  0.1348153E+00
         21   -1    0    0  501  502  0.00000000000E+00  0.00000000000E+00  0.11060554902E+02  0.11060554902E+02  0.00000000000E+00 0. -1.
         21   -1    0    0  502  503 -0.00000000000E+00 -0.00000000000E+00 -0.31731804603E+03  0.31731804603E+03  0.00000000000E+00 0.  1.
          2    1    1    2  501    0 -0.31061128769E+02  0.25293299543E+02 -0.32159281636E+02  0.51368902242E+02  0.00000000000E+00 0. -1.
         -2    1    1    2    0  503  0.31061128769E+02 -0.25293299543E+02 -0.27409820949E+03  0.27700969869E+03  0.00000000000E+00 0.  1.
</event>
<event>
 4    1  0.1822260E+004  0.2096510E+02  0.7546771E-02  0.1519764E+00
         21   -1    0    0  503  502  0.00000000000E+00  0.00000000000E+00  0.60525762698E+01  0.60525762698E+01  0.00000000000E+00 0. -1.
         21   -1    0    0  501  503 -0.00000000000E+00 -0.00000000000E+00 -0.11228611391E+03  0.11228611391E+03  0.00000000000E+00 0.  1.
          2    1    1    2  501    0  0.15883470930E+02  0.13683958194E+02 -0.88284636062E+02  0.90739805627E+02  0.00000000000E+00 0.  1.
         -2    1    1    2    0  502 -0.15883470930E+02 -0.13683958194E+02 -0.17948901576E+02  0.27598884550E+02  0.00000000000E+00 0. -1.
</event>
<event>
 4    1  0.1822260E+004  0.2652623E+02  0.7546771E-02  0.1452426E+00
         21   -1    0    0  503  502  0.00000000000E+00  0.00000000000E+00  0.58013191195E+01  0.58013191195E+01  0.00000000000E+00 0.  1.
         21   -1    0    0  501  503 -0.00000000000E+00 -0.00000000000E+00 -0.12142139882E+03  0.12142139882E+03  0.00000000000E+00 0. -1.
          2    1    1    2  501    0 -0.20411650717E+02 -0.16941227901E+02 -0.59904418186E+02  0.65514731213E+02  0.00000000000E+00 0.  1.
         -2    1    1    2    0  502  0.20411650717E+02  0.16941227901E+02 -0.55715661512E+02  0.61707986723E+02  0.00000000000E+00 0. -1.
</event>
<event>
 4    1  0.1822260E+004  0.2538875E+02  0.7546771E-02  0.1464501E+00
         21   -1    0    0  501  502  0.00000000000E+00  0.00000000000E+00  0.10330984365E+02  0.10330984365E+02  0.00000000000E+00 0. -1.
         21   -1    0    0  502  503 -0.00000000000E+00 -0.00000000000E+00 -0.95263994239E+02  0.95263994239E+02  0.00000000000E+00 0.  1.
          2    1    1    2  501    0 -0.12763189501E+02 -0.21947427910E+02 -0.11453024443E+02  0.27852475061E+02  0.00000000000E+00 0. -1.
         -2    1    1    2    0  503  0.12763189501E+02  0.21947427910E+02 -0.73479985431E+02  0.77742503542E+02  0.00000000000E+00 0.  1.
</event>
<event>
 4    1  0.1822260E+004  0.2094937E+02  0.7546771E-02  0.1519989E+00
         21   -1    0    0  501  502  0.00000000000E+00  0.00000000000E+00  0.52488345156E+02  0.52488345156E+02  0.00000000000E+00 0. -1.
         21   -1    0    0  502  503 -0.00000000000E+00 -0.00000000000E+00 -0.49287251755E+02  0.49287251755E+02  0.00000000000E+00 0.  1.
          2    1    1    2  501    0  0.15960553044E+02 -0.13569699017E+02  0.47971415308E+02  0.52346276578E+02  0.00000000000E+00 0. -1.
         -2    1    1    2    0  503 -0.15960553044E+02  0.13569699017E+02 -0.44770321907E+02  0.49429320333E+02  0.00000000000E+00 0.  1.
</event>
<event>
 4    1  0.1822260E+004  0.3979475E+02  0.7546771E-02  0.1349693E+00
         21   -1    0    0  501  502  0.00000000000E+00  0.00000000000E+00  0.31556015127E+02  0.31556015127E+02  0.00000000000E+00 0.  1.
         21   -1    0    0  502  503 -0.00000000000E+00 -0.00000000000E+00 -0.71075674509E+02  0.71075674509E+02  0.00000000000E+00 0. -1.
          2    1    1    2  501    0  0.35862222777E+02 -0.17248849976E+02  0.80611707905E+01  0.40603008786E+02  0.00000000000E+00 0.  1.
         -2    1    1    2    0  503 -0.35862222777E+02  0.17248849976E+02 -0.47580830173E+02  0.62028680849E+02  0.00000000000E+00 0. -1.
</event>
<event>
 4    1  0.1822260E+004  0.3549019E+02  0.7546771E-02  0.1377149E+00
         21   -1    0    0  503  502  0.00000000000E+00  0.00000000000E+00  0.48741721604E+02  0.48741721604E+02  0.00000000000E+00 0. -1.
         21   -1    0    0  501  503 -0.00000000000E+00 -0.00000000000E+00 -0.36284833345E+02  0.36284833345E+02  0.00000000000E+00 0.  1.
          2    1    1    2  501    0 -0.35438186249E+02  0.19206035963E+01 -0.16579382875E+02  0.39171797244E+02  0.00000000000E+00 0.  1.
         -2    1    1    2    0  502  0.35438186249E+02 -0.19206035963E+01  0.29036271135E+02  0.45854757705E+02  0.00000000000E+00 0. -1.
</event>
<event>
 4    1  0.1822260E+004  0.2475209E+02  0.7546771E-02  0.1471596E+00
         21   -1    0    0  501  502  0.00000000000E+00  0.00000000000E+00  0.11398135682E+03  0.11398135682E+03  0.00000000000E+00 0. -1.
         21   -1    0    0  502  503 -0.00000000000E+00 -0.00000000000E+00 -0.60204393570E+01  0.60204393570E+01  0.00000000000E+00 0.  1.
          2    1    1    2  501    0  0.94183179256E+01  0.22890195785E+02  0.73624199727E+02  0.77673602730E+02  0.00000000000E+00 0. -1.
         -2    1    1    2    0  503 -0.94183179256E+01 -0.22890195785E+02  0.34336717737E+02  0.42328193448E+02  0.00000000000E+00 0.  1.
</event>
<event>
 4    1  0.1822260E+004  0.2716596E+02  0.7546771E-02  0.1445948E+00
         21   -1    0    0  501  502  0.00000000000E+00  0.00000000000E+00  0.35124267591E+02  0.35124267591E+02  0.00000000000E+00 0. -1.
         21   -1    0    0  502  503 -0.00000000000E+00 -0.00000000000E+00 -0.27423744426E+02  0.27423744426E+02  0.00000000000E+00 0.  1.
          2    1    1    2  501    0 -0.68837144336E+01 -0.26279343462E+02  0.18973626715E+02  0.33135900892E+02  0.00000000000E+00 0. -1.
         -2    1    1    2    0  503  0.68837144336E+01  0.26279343462E+02 -0.11273103550E+02  0.29412111125E+02  0.00000000000E+00 0.  1.
</event>
<event>
 4    1  0.1822260E+004  0.3434021E+02  0.7546771E-02  0.1385262E+00
         21   -1    0    0  501  502  0.00000000000E+00  0.00000000000E+00  0.25105599607E+02  0.25105599607E+02  0.00000000000E+00 0. -1.
         21   -1    0    0  502  503 -0.00000000000E+00 -0.00000000000E+00 -0.10817280535E+03  0.10817280535E+03  0.00000000000E+00 0.  1.
          2    1    1    2  501    0 -0.34227383849E+02 -0.27813993037E+01  0.85909786579E+01  0.35398515527E+02  0.00000000000E+00 0.  1.
         -2    1    1    2    0  503  0.34227383849E+02  0.27813993037E+01 -0.91658184403E+02  0.97879889432E+02  0.00000000000E+00 0. -1.
</event>
<event>
 4    1  0.1822260E+004  0.2268160E+02  0.7546771E-02  0.1496535E+00
         21   -1    0    0  503  502  0.00000000000E+00  0.00000000000E+00  0.34146891195E+03  0.34146891195E+03  0.00000000000E+00 0. -1.
         21   -1    0    0  501  503 -0.00000000000E+00 -0.00000000000E+00 -0.19357391475E+01  0.19357391475E+01  0.00000000000E+00 0.  1.
          2    1    1    2  501    0  0.12452398452E+02  0.18957657408E+02  0.88921266831E+02  0.91768440635E+02  0.00000000000E+00 0.  1.
         -2    1    1    2    0  502 -0.12452398452E+02 -0.18957657408E+02  0.25061190597E+03  0.25163621046E+03  0.00000000000E+00 0. -1.
</event>
<event>
 4    1  0.1822260E+004  0.2465587E+02  0.7546771E-02  0.1472690E+00
         21   -1    0    0  503  502  0.00000000000E+00  0.00000000000E+00  0.12813815583E+03  0.12813815583E+03  0.00000000000E+00 0. -1.
         21   -1    0    0  501  503 -0.00000000000E+00 -0.00000000000E+00 -0.63369540556E+01  0.63369540556E+01  0.00000000000E+00 0.  1.
          2    1    1    2  501    0  0.19656335197E+02  0.14884232587E+02  0.27191496663E+02  0.36705440794E+02  0.00000000000E+00 0.  1.
         -2    1    1    2    0  502 -0.19656335197E+02 -0.14884232587E+02  0.94609705114E+02  0.97769669094E+02  0.00000000000E+00 0. -1.
</event>
<event>
 4    1  0.1822260E+004  0.2432930E+02  0.7546771E-02  0.1476448E+00
         21   -1    0    0  503  502  0.00000000000E+00  0.00000000000E+00  0.39007864653E+02  0.39007864653E+02  0.00000000000E+00 0.  1.
         21   -1    0    0  501  503 -0.00000000000E+00 -0.00000000000E+00 -0.16322203654E+02  0.16322203654E+02  0.00000000000E+00 0. -1.
          2    1    1    2  501    0 -0.22405211942E+02  0.94826763431E+01  0.40060417194E+01  0.24656906599E+02  0.00000000000E+00 0. -1.
         -2    1    1    2    0  502  0.22405211942E+02 -0.94826763431E+01  0.18679619279E+02  0.30673161708E+02  0.00000000000E+00 0.  1.
</event>
<event>
 4    1  0.1822260E+004  0.2411930E+02  0.7546771E-02  0.1478902E+00
         21   -1    0    0  503  502  0.00000000000E+00  0.00000000000E+00  0.81715448743E+02  0.81715448743E+02  0.00000000000E+00 0.  1.
         21   -1    0    0  501  503 -0.00000000000E+00 -0.00000000000E+00 -0.72147575002E+01  0.72147575002E+01  0.00000000000E+00 0. -1.
          2    1    1    2  501    0  0.18235805921E+01  0.24050264287E+02  0.32130437239E+02  0.40175933786E+02  0.00000000000E+00 0. -1.
         -2    1    1    2    0  502 -0.18235805921E+01 -0.24050264287E+02  0.42370254004E+02  0.48754272457E+02  0.00000000000E+00 0.  1.
</event>
<event>
 4    1  0.1822260E+004  0.3344659E+02  0.7546771E-02  0.1391826E+00
         21   -1    0    0  503  502  0.00000000000E+00  0.00000000000E+00  0.17078050456E+03  0.17078050456E+03  0.00000000000E+00 0.  1.
         21   -1    0    0  501  503 -0.00000000000E+00 -0.00000000000E+00 -0.12146238991E+02  0.12146238991E+02  0.00000000000E+00 0. -1.
          2    1    1    2  501    0  0.13269244306E+02 -0.30701814590E+02  0.17235898178E+02  0.37626459434E+02  0.00000000000E+00 0. -1.
         -2    1    1    2    0  502 -0.13269244306E+02  0.30701814590E+02  0.14139836740E+03  0.14530028412E+03  0.00000000000E+00 0.  1.
</event>
<event>
 4    1  0.1822260E+004  0.2922193E+02  0.7546771E-02  0.1426480E+00
         21   -1    0    0  501  502  0.00000000000E+00  0.00000000000E+00  0.50247468377E+01  0.50247468377E+01  0.00000000000E+00 0. -1.
         21   -1    0    0  502  503 -0.00000000000E+00 -0.00000000000E+00 -0.20351935049E+03  0.20351935049E+03  0.00000000000E+00 0.  1.
          2    1    1    2  501    0 -0.26171548847E+02  0.12998896569E+02 -0.56894625556E+02  0.63960297827E+02  0.00000000000E+00 0. -1.
         -2    1    1    2    0  503  0.26171548847E+02 -0.12998896569E+02 -0.14159997810E+03  0.14458379950E+03  0.00000000000E+00 0.  1.
</event>
<event>
 4    1  0.1822260E+004  0.2353143E+02  0.7546771E-02  0.1485931E+00
         21   -1    0    0  501  502  0.00000000000E+00  0.00000000000E+00  0.44576046686E+02  0.44576046686E+02  0.00000000000E+00 0. -1.
         21   -1    0    0  502  503 -0.00000000000E+00 -0.00000000000E+00 -0.29347179949E+02  0.29347179949E+02  0.00000000000E+00 0.  1.
          2    1    1    2  501    0 -0.12172044802E+02  0.20138761744E+02  0.35683825828E+02  0.42744167146E+02  0.00000000000E+00 0. -1.
         -2    1    1    2    0  503  0.12172044802E+02 -0.20138761744E+02 -0.20454959091E+02  0.31179059489E+02  0.00000000000E+00 0.  1.
</event>
<event>
 4    1  0.1822260E+004  0.2064100E+02  0.7546771E-02  0.1524453E+00
         21   -1    0    0  503  502  0.00000000000E+00  0.00000000000E+00  0.23807423874E+01  0.23807423874E+01  0.00000000000E+00 0.  1.
         21   -1    0    0  501  503 -0.00000000000E+00 -0.00000000000E+00 -0.25317585456E+03  0.25317585456E+03  0.00000000000E+00 0. -1.
          2    1    1    2  501    0 -0.61178678022E+01  0.19713509378E+02 -0.19458109658E+03  0.19567282362E+03  0.00000000000E+00 0. -1.
         -2    1    1    2    0  502  0.61178678022E+01 -0.19713509378E+02 -0.56214015588E+02  0.59883773319E+02  0.00000000000E+00 0.  1.
</event>
<event>
 4    1  0.1822260E+004  0.2893470E+02  0.7546771E-02  0.1429085E+00
         21   -1    0    0  501  502  0.00000000000E+00  0.00000000000E+00  0.17856791022E+03  0.17856791022E+03  0.00000000000E+00 0.  1.
         21   -1    0    0  502  503 -0.00000000000E+00 -0.00000000000E+00 -0.26250268651E+02  0.26250268651E+02  0.00000000000E+00 0. -1.
          2    1    1    2  501    0 -0.12167882678E+02  0.26251847727E+02  0.16897287638E+03  0.17143234768E+03  0.00000000000E+00 0.  1.
         -2    1    1    2    0  503  0.12167882678E+02 -0.26251847727E+02 -0.16655234810E+02  0.33385831194E+02  0.00000000000E+00 0. -1.
</event>
<event>
 4    1  0.1822260E+004  0.4087244E+02  0.7546771E-02  0.1343448E+00
         21   -1    0    0  503  502  0.00000000000E+00  0.00000000000E+00  0.46786121953E+02  0.46786121953E+02  0.00000000000E+00 0. -1.
         21   -1    0    0  501  503 -0.00000000000E+00 -0.00000000000E+00 -0.87584184631E+02  0.87584184631E+02  0.00000000000E+00 0.  1.
          2    1    1    2  501    0  0.30966652290E+02 -0.26676264109E+02 -0.72106328450E+02  0.82884734562E+02  0.00000000000E+00 0.  1.
         -2    1    1    2    0  502 -0.30966652290E+02  0.26676264109E+02  0.31308265772E+02  0.51485572023E+02  0.00000000000E+00 0. -1.
</event>
<event>
 4    1  0.1822260E+004  0.2627527E+02  0.7546771E-02  0.1455027E+00
         21   -1    0    0  503  502  0.00000000000E+00  0.00000000000E+00  0.10668628567E+03  0.10668628567E+03  0.00000000000E+00 0.  1.
         21   -1    0    0  501  503 -0.00000000000E+00 -0.00000000000E+00 -0.80833068690E+01  0.80833068690E+01  0.00000000000E+00 0. -1.
          2    1    1    2  501    0 -0.10049314115E+02  0.24277587492E+02  0.23674528390E+02  0.35367686708E+02  0.00000000000E+00 0. -1.
         -2    1    1    2    0  502  0.10049314115E+02 -0.24277587492E+02  0.74928450413E+02  0.79401905833E+02  0.00000000000E+00 0.  1.
</event>
<event>
 4    1  0.1822260E+004  0.2436600E+02  0.7546771E-02  0.1476022E+00
         21   -1    0    0  501  502  0.00000000000E+00  0.00000000000E+00  0.13869816920E+02  0.13869816920E+02  0.00000000000E+00 0.  1.
         21   -1    0    0  502  503 -0.00000000000E+00 -0.00000000000E+00 -0.14859224553E+03  0.14859224553E+03  0.00000000000E+00 0. -1.
          2    1    1    2  501    0  0.19609348261E+02  0.14462905702E+02  0.11781161462E+01  0.24394469419E+02  0.00000000000E+00 0.  1.
         -2    1    1    2    0  503 -0.19609348261E+02 -0.14462905702E+02 -0.13590054476E+03  0.13806759303E+03  0.00000000000E+00 0. -1.
</event>
<event>
 4    1  0.1822260E+004  0.2357182E+02  0.7546771E-02  0.1485440E+00
         21   -1    0    0  501  502  0.00000000000E+00  0.00000000000E+00  0.22733459855E+01  0.22733459855E+01  0.00000000000E+00 0. -1.
         21   -1    0    0  502  503 -0.00000000000E+00 -0.00000000000E+00 -0.45696774048E+03  0.45696774048E+03  0.00000000000E+00 0.  1.
          2    1    1    2  501    0 -0.20850286490E+02  0.10995285773E+02 -0.70742272879E+02  0.74566077595E+02  0.00000000000E+00 0. -1.
         -2    1    1    2    0  503  0.20850286490E+02 -0.10995285773E+02 -0.38395212162E+03  0.38467500887E+03  0.00000000000E+00 0.  1.
</event>
<event>
 4    1  0.1822260E+004  0.2204765E+02  0.7546771E-02  0.1504816E+00
         21   -1    0    0  501  502  0.00000000000E+00  0.00000000000E+00  0.13685174834E+02  0.13685174834E+02  0.00000000000E+00 0.  1.
         21   -1    0    0  502  503 -0.00000000000E+00 -0.00000000000E+00 -0.55922358545E+02  0.55922358545E+02  0.00000000000E+00 0. -1.
          2    1    1    2  501    0 -0.13306885677E+02  0.17579130987E+02 -0.96669916576E-01  0.22047866059E+02  0.00000000000E+00 0.  1.
         -2    1    1    2    0  503  0.13306885677E+02 -0.17579130987E+02 -0.42140513795E+02  0.47559667320E+02  0.00000000000E+00 0. -1.
</event>
<event>
 4    1  0.1822260E+004  0.2279297E+02  0.7546771E-02  0.1495114E+00
         21   -1    0    0  503  502  0.00000000000E+00  0.00000000000E+00  0.45636260749E+02  0.45636260749E+02  0.00000000000E+00 0.  1.
         21   -1    0    0  501  503 -0.00000000000E+00 -0.00000000000E+00 -0.25019635369E+02  0.25019635369E+02  0.00000000000E+00 0. -1.
          2    1    1    2  501    0  0.18949894770E+02  0.12665733622E+02 -0.15772250537E+02  0.27717922126E+02  0.00000000000E+00 0.  1.
         -2    1    1    2    0  502 -0.18949894770E+02 -0.12665733622E+02  0.36388875917E+02  0.42937973992E+02  0.00000000000E+00 0. -1.
</event>
<event>
 4    1  0.1822260E+004  0.2137306E+02  0.7546771E-02  0.1514005E+00
         21   -1    0    0  503  502  0.00000000000E+00  0.00000000000E+00  0.76389444995E+02  0.76389444995E+02  0.00000000000E+00 0.  1.
         21   -1    0    0  501  503 -0.00000000000E+00 -0.00000000000E+00 -0.11690317681E+02  0.11690317681E+02  0.00000000000E+00 0. -1.
          2    1    1    2  501    0 -0.21286491479E+02 -0.19216995310E+01  0.15699097603E+01  0.21430638470E+02  0.00000000000E+00 0. -1.
         -2    1    1    2    0  502  0.21286491479E+02  0.19216995310E+01  0.63129217553E+02  0.66649124206E+02  0.00000000000E+00 0.  1.
</event>
<event>
 4    1  0.1822260E+004  0.2626011E+02  0.7546771E-02  0.1455185E+00
         21   -1    0    0  501  502  0.00000000000E+00  0.00000000000E+00  0.98727185475E+01  0.98727185475E+01  0.00000000000E+00 0. -1.
         21   -1    0    0  502  503 -0.00000000000E+00 -0.00000000000E+00 -0.84493705350E+02  0.84493705350E+02  0.00000000000E+00 0.  1.
          2    1    1    2  501    0  0.26096038294E+02 -0.29308699368E+01 -0.17666711149E+02  0.31649737693E+02  0.00000000000E+00 0. -1.
         -2    1    1    2    0  503 -0.26096038294E+02  0.29308699368E+01 -0.56954275653E+02  0.62716686204E+02  0.00000000000E+00 0.  1.
</event>
<event>
 4    1  0.1822260E+004  0.2332343E+02  0.7546771E-02  0.1488476E+00
         21   -1    0    0  501  502  0.00000000000E+00  0.00000000000E+00  0.10523966326E+03  0.10523966326E+03  0.00000000000E+00 0. -1.
         21   -1    0    0  502  503 -0.00000000000E+00 -0.00000000000E+00 -0.65433816368E+01  0.65433816368E+01  0.00000000000E+00 0.  1.
          2    1    1    2  501    0 -0.53688018233E+01 -0.22697098733E+02  0.74963516586E+02  0.78508032346E+02  0.00000000000E+00 0. -1.
         -2    1    1    2    0  503  0.53688018233E+01  0.22697098733E+02  0.23732765034E+02  0.33275012548E+02  0.00000000000E+00 0.  1.
</event>
<event>
 4    1  0.1822260E+004  0.2982538E+02  0.7546771E-02  0.1421120E+00
         21   -1    0    0  501  502  0.00000000000E+00  0.00000000000E+00  0.12637265189E+03  0.12637265189E+03  0.00000000000E+00 0.  1.
         21   -1    0    0  502  503 -0.00000000000E+00 -0.00000000000E+00 -0.21148889549E+02  0.21148889549E+02  0.00000000000E+00 0. -1.
          2    1    1    2  501    0  0.25378185548E+02 -0.15668461882E+02  0.11285972819E+03  0.11673419056E+03  0.00000000000E+00 0.  1.
         -2    1    1    2    0  503 -0.25378185548E+02  0.15668461882E+02 -0.76359658496E+01  0.30787350875E+02  0.00000000000E+00 0. -1.
</event>
<event>
 4    1  0.1822260E+004  0.2135738E+02  0.7546771E-02  0.1514223E+00
         21   -1    0    0  501  502  0.00000000000E+00  0.00000000000E+00  0.10692892283E+02  0.10692892283E+02  0.00000000000E+00 0. -1.
         21   -1    0    0  502  503 -0.00000000000E+00 -0.00000000000E+00 -0.43215248056E+02  0.43215248056E+02  0.00000000000E+00 0.  1.
          2    1    1    2  501    0  0.85481123129E+01  0.19572111372E+02 -0.19321849212E+02  0.28800549034E+02  0.00000000000E+00 0.  1.
         -2    1    1    2    0  503 -0.85481123129E+01 -0.19572111372E+02 -0.13200506561E+02  0.25107591305E+02  0.00000000000E+00 0. -1.
</event>
<event>
 4    1  0.1822260E+004  0.2021515E+02  0.7546771E-02  0.1530772E+00
         21   -1    0    0  503  502  0.00000000000E+00  0.00000000000E+00  0.16512449256E+03  0.16512449256E+03  0.00000000000E+00 0. -1.
         21   -1    0    0  501  503 -0.00000000000E+00 -0.00000000000E+00 -0.25060084311E+01  0.25060084311E+01  0.00000000000E+00 0.  1.
          2    1    1    2  501    0 -0.15949545167E+02 -0.12420318805E+02  0.71957891207E+02  0.74743497491E+02  0.00000000000E+00 0. -1.
         -2    1    1    2    0  502  0.15949545167E+02  0.12420318805E+02  0.90660592922E+02  0.92887003500E+02  0.00000000000E+00 0.  1.
</event>
<event>
 4    1  0.1822260E+004  0.2422192E+02  0.7546771E-02  0.1477699E+00
         21   -1    0    0  503  502  0.00000000000E+00  0.00000000000E+00  0.30639122115E+02  0.30639122115E+02  0.00000000000E+00 0.  1.
         21   -1    0    0  501  503 -0.00000000000E+00 -0.00000000000E+00 -0.20580907768E+02  0.20580907768E+02  0.00000000000E+00 0. -1.
          2    1    1    2  501    0 -0.65504754200E+01 -0.23319359813E+02  0.11784819004E+02  0.26936652154E+02  0.00000000000E+00 0.  1.
         -2    1    1    2    0  502  0.65504754200E+01  0.23319359813E+02 -0.17266046573E+01  0.24283377729E+02  0.00000000000E+00 0. -1.
</event>
<event>
 4    1  0.1822260E+004  0.2517944E+02  0.7546771E-02  0.1466806E+00
         21   -1    0    0  503  502  0.00000000000E+00  0.00000000000E+00  0.21316865583E+03  0.21316865583E+03  0.00000000000E+00 0.  1.
         21   -1    0    0  501  503 -0.00000000000E+00 -0.00000000000E+00 -0.38950888406E+01  0.38950888406E+01  0.00000000000E+00 0. -1.
          2    1    1    2  501    0  0.16763321342E+02  0.18788162036E+02  0.51864644755E+02  0.57653667279E+02  0.00000000000E+00 0. -1.
         -2    1    1    2    0  502 -0.16763321342E+02 -0.18788162036E+02  0.15740892224E+03  0.15941007739E+03  0.00000000000E+00 0.  1.
</event>
<event>
 4    1  0.1822260E+004  0.2114209E+02  0.7546771E-02  0.1517246E+00
         21   -1    0    0  503  502  0.00000000000E+00  0.00000000000E+00  0.37579314279E+03  0.37579314279E+03  0.00000000000E+00 0.  1.
         21   -1    0    0  501  503 -0.00000000000E+00 -0.00000000000E+00 -0.13801491086E+01  0.13801491086E+01  0.00000000000E+00 0. -1.
          2    1    1    2  501    0 -0.13805682311E+02  0.16012212576E+02  0.11710613533E+03  0.11899930566E+03  0.00000000000E+00 0. -1.
         -2    1    1    2    0  502  0.13805682311E+02 -0.16012212576E+02  0.25730685835E+03  0.25817398624E+03  0.00000000000E+00 0.  1.
</event>
<event>
 4    1  0.1822260E+004  0.2969030E+02  0.7546771E-02  0.1422307E+00
         21   -1    0    0  501  502  0.00000000000E+00  0.00000000000E+00  0.17837252618E+02  0.17837252618E+02  0.00000000000E+00 0. -1.
         21   -1    0    0  502  503 -0.00000000000E+00 -0.00000000000E+00 -0.23271517189E+03  0.23271517189E+03  0.00000000000E+00 0.  1.
          2    1    1    2  501    0  0.19658351870E+02  0.22250018160E+02  0.37423976337E+01  0.29925234275E+02  0.00000000000E+00 0. -1.
         -2    1    1    2    0  503 -0.19658351870E+02 -0.22250018160E+02 -0.21862031690E+03  0.22062719023E+03  0.00000000000E+00 0.  1.
</event>
<event>
 4    1  0.1822260E+004  0.2497709E+02  0.7546771E-02  0.1469060E+00
         21   -1    0    0  501  502  0.00000000000E+00  0.00000000000E+00  0.22527841746E+03  0.22527841746E+03  0.00000000000E+00 0.  1.
         21   -1    0    0  502  503 -0.00000000000E+00 -0.00000000000E+00 -0.41682992149E+01  0.41682992149E+01  0.00000000000E+00 0. -1.
          2    1    1    2  501    0  0.16307428266E+02 -0.18918843876E+02  0.17701915548E+03  0.17877258256E+03  0.00000000000E+00 0.  1.
         -2    1    1    2    0  503 -0.16307428266E+02  0.18918843876E+02  0.44090962771E+02  0.50674134115E+02  0.00000000000E+00 0. -1.
</event>
<event>
 4    1  0.1822260E+004  0.2635452E+02  0.7546771E-02  0.1454202E+00
         21   -1    0    0  503  502  0.00000000000E+00  0.00000000000E+00  0.55459174025E+02  0.55459174025E+02  0.00000000000E+00 0.  1.
         21   -1    0    0  501  503 -0.00000000000E+00 -0.00000000000E+00 -0.13779974059E+02  0.13779974059E+02  0.00000000000E+00 0. -1.
          2    1    1    2  501    0  0.26287135410E+02  0.18833504178E+01  0.10387112738E+02  0.28327594460E+02  0.00000000000E+00 0. -1.
         -2    1    1    2    0  502 -0.26287135410E+02 -0.18833504178E+01  0.31292087228E+02  0.40911553624E+02  0.00000000000E+00 0.  1.
</event>
<event>
 4    1  0.1822260E+004  0.4336931E+02  0.7546771E-02  0.1329798E+00
         21   -1    0    0  503  502  0.00000000000E+00  0.00000000000E+00  0.10220776397E+03  0.10220776397E+03  0.00000000000E+00 0.  1.
         21   -1    0    0  501  503 -0.00000000000E+00 -0.00000000000E+00 -0.18615444493E+02  0.18615444493E+02  0.00000000000E+00 0. -1.
          2    1    1    2  501    0  0.31763611408E+02  0.29529137234E+02  0.48254656208E+02  0.64879956853E+02  0.00000000000E+00 0. -1.
         -2    1    1    2    0  502 -0.31763611408E+02 -0.29529137234E+02  0.35337663270E+02  0.55943251612E+02  0.00000000000E+00 0.  1.
</event>
<event>
 4    1  0.1822260E+004  0.3032990E+02  0.7546771E-02  0.1416751E+00
         21   -1    0    0  501  502  0.00000000000E+00  0.00000000000E+00  0.11224371586E+03  0.11224371586E+03  0.00000000000E+00 0.  1.
         21   -1    0    0  502  503 -0.00000000000E+00 -0.00000000000E+00 -0.83008782454E+01  0.83008782454E+01  0.00000000000E+00 0. -1.
          2    1    1    2  501    0 -0.30313617320E+02 -0.99378039149E+00  0.58759616764E+02  0.66125604396E+02  0.00000000000E+00 0.  1.
         -2    1    1    2    0  503  0.30313617320E+02  0.99378039149E+00  0.45183220850E+02  0.54418989709E+02  0.00000000000E+00 0. -1.
</event>
<event>
 4    1  0.1822260E+004  0.2478628E+02  0.7546771E-02  0.1471209E+00
         21   -1    0    0  503  502  0.00000000000E+00  0.00000000000E+00  0.28305101147E+02  0.28305101147E+02  0.00000000000E+00 0.  1.
         21   -1    0    0  501  503 -0.00000000000E+00 -0.00000000000E+00 -0.25548147558E+02  0.25548147558E+02  0.00000000000E+00 0. -1.
          2    1    1    2  501    0 -0.22970930215E+02  0.93110607418E+01 -0.90651462937E+01  0.26391975379E+02  0.00000000000E+00 0. -1.
         -2    1    1    2    0  502  0.22970930215E+02 -0.93110607418E+01  0.11822099883E+02  0.27461273327E+02  0.00000000000E+00 0.  1.
</event>
<event>
 4    1  0.1822260E+004  0.2239268E+02  0.7546771E-02  0.1500268E+00
         21   -1    0    0  501  502  0.00000000000E+00  0.00000000000E+00  0.12905142623E+03  0.12905142623E+03  0.00000000000E+00 0. -1.
         21   -1    0    0  502  503 -0.00000000000E+00 -0.00000000000E+00 -0.17652229771E+02  0.17652229771E+02  0.00000000000E+00 0.  1.
          2    1    1    2  501    0 -0.61927632169E+00 -0.22384112930E+02  0.12047740199E+03  0.12254075406E+03  0.00000000000E+00 0. -1.
         -2    1    1    2    0  503  0.61927632169E+00  0.22384112930E+02 -0.90782055282E+01  0.24162901946E+02  0.00000000000E+00 0.  1.
</event>
<event>
 4    1  0.1822260E+004  0.2469305E+02  0.7546771E-02  0.1472267E+00
         21   -1    0    0  503  502  0.00000000000E+00  0.00000000000E+00  0.29825684391E+03  0.29825684391E+03  0.00000000000E+00 0. -1.
         21   -1    0    0  501  503 -0.00000000000E+00 -0.00000000000E+00 -0.21298089523E+01  0.21298089523E+01  0.00000000000E+00 0.  1.
          2    1    1    2  501    0 -0.16755656402E+02  0.18138215519E+02  0.11798113758E+03  0.12053752822E+03  0.00000000000E+00 0.  1.
         -2    1    1    2    0  502  0.16755656402E+02 -0.18138215519E+02  0.17814589737E+03  0.17984912464E+03  0.00000000000E+00 0. -1.
</event>
<event>
 4    1  0.1822260E+004  0.2076255E+02  0.7546771E-02  0.1522682E+00
         21   -1    0    0  501  502  0.00000000000E+00  0.00000000000E+00  0.40605795064E+02  0.40605795064E+02  0.00000000000E+00 0. -1.
         21   -1    0    0  502  503 -0.00000000000E+00 -0.00000000000E+00 -0.12091275599E+02  0.12091275599E+02  0.00000000000E+00 0.  1.
          2    1    1    2  501    0 -0.20563611615E+02  0.28672745695E+01  0.23459901825E+02  0.31328108461E+02  0.00000000000E+00 0. -1.
         -2    1    1    2    0  503  0.20563611615E+02 -0.28672745695E+01  0.50546176397E+01  0.21368962202E+02  0.00000000000E+00 0.  1.
</event>
<event>
 4    1  0.1822260E+004  0.2969028E+02  0.7546771E-02  0.1422307E+00
         21   -1    0    0  503  502  0.00000000000E+00  0.00000000000E+00  0.37725488909E+03  0.37725488909E+03  0.00000000000E+00 0. -1.
         21   -1    0    0  501  503 -0.00000000000E+00 -0.00000000000E+00 -0.45540118303E+01  0.45540118303E+01  0.00000000000E+00 0.  1.
          2    1    1    2  501    0  0.25305191445E+02 -0.15529323182E+02  0.53140302888E+02  0.60872032852E+02  0.00000000000E+00 0.  1.
         -2    1    1    2    0  502 -0.25305191445E+02  0.15529323182E+02  0.31956057437E+03  0.32093686807E+03  0.00000000000E+00 0. -1.
</event>
<event>
 4    1  0.1822260E+004  0.4462141E+02  0.7546771E-02  0.1323343E+00
         21   -1    0    0  501  502  0.00000000000E+00  0.00000000000E+00  0.89189135014E+02  0.89189135014E+02  0.00000000000E+00 0. -1.
         21   -1    0    0  502  503 -0.00000000000E+00 -0.00000000000E+00 -0.42472310345E+02  0.42472310345E+02  0.00000000000E+00 0.  1.
          2    1    1    2  501    0  0.41631034500E+02  0.16060112170E+02  0.68699668431E+02  0.81918951892E+02  0.00000000000E+00 0. -1.
         -2    1    1    2    0  503 -0.41631034500E+02 -0.16060112170E+02 -0.21982843763E+02  0.49742493467E+02  0.00000000000E+00 0.  1.
</event>
<event>
 4    1  0.1822260E+004  0.2626718E+02  0.7546771E-02  0.1455112E+00
         21   -1    0    0  501  502  0.00000000000E+00  0.00000000000E+00  0.14682350988E+03  0.14682350988E+03  0.00000000000E+00 0. -1.
         21   -1    0    0  502  503 -0.00000000000E+00 -0.00000000000E+00 -0.13317749480E+02  0.13317749480E+02  0.00000000000E+00 0.  1.
          2    1    1    2  501    0 -0.26267168425E+02  0.21246104681E-01  0.13116579182E+03  0.13377006217E+03  0.00000000000E+00 0. -1.
         -2    1    1    2    0  503  0.26267168425E+02 -0.21246104681E-01  0.23399685816E+01  0.26371197194E+02  0.00000000000E+00 0.  1.
</event>
<event>
 4    1  0.1822260E+004  0.2598932E+02  0.7546771E-02  0.1458033E+00
         21   -1    0    0  503  502  0.00000000000E+00  0.00000000000E+00  0.15647441921E+03  0.15647441921E+03  0.00000000000E+00 0. -1.
         21   -1    0    0  501  503 -0.00000000000E+00 -0.00000000000E+00 -0.78185865976E+01  0.78185865976E+01  0.00000000000E+00 0.  1.
          2    1    1    2  501    0  0.86278532082E+01 -0.24515400447E+02  0.19351132681E+02  0.32402330874E+02  0.00000000000E+00 0.  1.
         -2    1    1    2    0  502 -0.86278532082E+01  0.24515400447E+02  0.12930469993E+03  0.13189067494E+03  0.00000000000E+00 0. -1.
</event>
<event>
 4    1  0.1822260E+004  0.2973703E+02  0.7546771E-02  0.1421896E+00
         21   -1    0    0  501  502  0.00000000000E+00  0.00000000000E+00  0.31244945244E+02  0.31244945244E+02  0.00000000000E+00 0.  1.
         21   -1    0    0  502  503 -0.00000000000E+00 -0.00000000000E+00 -0.44383851858E+02  0.44383851858E+02  0.00000000000E+00 0. -1.
          2    1    1    2  501    0  0.63380657208E+01 -0.29053738221E+02  0.16192750729E+02  0.33859946218E+02  0.00000000000E+00 0.  1.
         -2    1    1    2    0  503 -0.63380657208E+01  0.29053738221E+02 -0.29331657343E+02  0.41768850884E+02  0.00000000000E+00 0. -1.
</event>
<event>
 4    1  0.1822260E+004  0.3845476E+02  0.7546771E-02  0.1357787E+00
         21   -1    0    0  501  502  0.00000000000E+00  0.00000000000E+00  0.65179749916E+01  0.65179749916E+01  0.00000000000E+00 0. -1.
         21   -1    0    0  502  503 -0.00000000000E+00 -0.00000000000E+00 -0.36804129053E+03  0.36804129053E+03  0.00000000000E+00 0.  1.
          2    1    1    2  501    0 -0.47606710862E+01  0.38158933769E+02 -0.64775234754E+02  0.75329935969E+02  0.00000000000E+00 0. -1.
         -2    1    1    2    0  503  0.47606710862E+01 -0.38158933769E+02 -0.29674808078E+03  0.29922932955E+03  0.00000000000E+00 0.  1.
</event>
<event>
 4    1  0.1822260E+004  0.2006686E+02  0.7546771E-02  0.1533016E+00
         21   -1    0    0  501  502  0.00000000000E+00  0.00000000000E+00  0.93304116864E+02  0.93304116864E+02  0.00000000000E+00 0.  1.
         21   -1    0    0  502  503 -0.00000000000E+00 -0.00000000000E+00 -0.37882112053E+02  0.37882112053E+02  0.00000000000E+00 0. -1.
          2    1    1    2  501    0  0.53766742131E+01 -0.19333134298E+02  0.89454779862E+02  0.91677894542E+02  0.00000000000E+00 0.  1.
         -2    1    1    2    0  503 -0.53766742131E+01  0.19333134298E+02 -0.34032775051E+02  0.39508334375E+02  0.00000000000E+00 0. -1.
</event>
<event>
 4    1  0.1822260E+004  0.2233244E+02  0.7546771E-02  0.1501055E+00
         21   -1    0    0  501  502  0.00000000000E+00  0.00000000000E+00  0.20228627359E+03  0.20228627359E+03  0.00000000000E+00 0. -1.
         21   -1    0    0  502  503 -0.00000000000E+00 -0.00000000000E+00 -0.61151192746E+01  0.61151192746E+01  0.00000000000E+00 0.  1.
          2    1    1    2  501    0  0.21370404814E+02  0.64841147255E+01  0.17858478403E+03  0.17997572901E+03  0.00000000000E+00 0. -1.
         -2    1    1    2    0  503 -0.21370404814E+02 -0.64841147255E+01  0.17586370284E+02  0.28425663852E+02  0.00000000000E+00 0.  1.
</event>
<event>
 4    1  0.1822260E+004  0.2755277E+02  0.7546771E-02  0.1442133E+00
         21   -1    0    0  503  502  0.00000000000E+00  0.00000000000E+00  0.23508706683E+02  0.23508706683E+02  0.00000000000E+00 0. -1.
         21   -1    0    0  501  503 -0.00000000000E+00 -0.00000000000E+00 -0.70745706178E+02  0.70745706178E+02  0.00000000000E+00 0.  1.
          2    1    1    2  501    0 -0.27494226597E+02  0.17952060188E+01 -0.58363142283E+02  0.64540000295E+02  0.00000000000E+00 0.  1.
         -2    1    1    2    0  502  0.27494226597E+02 -0.17952060188E+01  0.11126142789E+02  0.29714412567E+02  0.00000000000E+00 0. -1.
</event>
<event>
 4    1  0.1822260E+004  0.2049873E+02  0.7546771E-02  0.1526543E+00
         21   -1    0    0  501  502  0.00000000000E+00  0.00000000000E+00  0.42355341817E+03  0.42355341817E+03  0.00000000000E+00 0.  1.
         21   -1    0    0  502  503 -0.00000000000E+00 -0.00000000000E+00 -0.30921971568E+01  0.30921971568E+01  0.00000000000E+00 0. -1.
          2    1    1    2  501    0 -0.16095763366E+02  0.12693472065E+02  0.38603338268E+03  0.38657725020E+03  0.00000000000E+00 0.  1.
         -2    1    1    2    0  503  0.16095763366E+02 -0.12693472065E+02  0.34427838335E+02  0.40068365126E+02  0.00000000000E+00 0. -1.
</event>
<event>
 4    1  0.1822260E+004  0.2431886E+02  0.7546771E-02  0.1476569E+00
         21   -1    0    0  503  502  0.00000000000E+00  0.00000000000E+00  0.35215684519E+01  0.35215684519E+01  0.00000000000E+00 0.  1.
         21   -1    0    0  501  503 -0.00000000000E+00 -0.00000000000E+00 -0.16859998317E+03  0.16859998317E+03  0.00000000000E+00 0. -1.
          2    1    1    2  501    0 -0.10974775294E+02 -0.21701643471E+02 -0.77148736592E+02  0.80890880697E+02  0.00000000000E+00 0. -1.
         -2    1    1    2    0  502  0.10974775294E+02  0.21701643471E+02 -0.87929678124E+02  0.91230670923E+02  0.00000000000E+00 0.  1.
</event>
<event>
 4    1  0.1822260E+004  0.2720818E+02  0.7546771E-02  0.1445528E+00
         21   -1    0    0  501  502  0.00000000000E+00  0.00000000000E+00  0.18013643385E+02  0.18013643385E+02  0.00000000000E+00 0.  1.
         21   -1    0    0  502  503 -0.00000000000E+00 -0.00000000000E+00 -0.10795843002E+03  0.10795843002E+03  0.00000000000E+00 0. -1.
          2    1    1    2  501    0  0.24840669727E+02 -0.11100717868E+02  0.45963352337E+01  0.27593678755E+02  0.00000000000E+00 0.  1.
         -2    1    1    2    0  503 -0.24840669727E+02  0.11100717868E+02 -0.94541121868E+02  0.98378394649E+02  0.00000000000E+00 0. -1.
</event>
<event>
 4    1  0.1822260E+004  0.2050340E+02  0.7546771E-02  0.1526474E+00
         21   -1    0    0  503  502  0.00000000000E+00  0.00000000000E+00  0.20968831474E+02  0.20968831474E+02  0.00000000000E+00 0. -1.
         21   -1    0    0  501  503 -0.00000000000E+00 -0.00000000000E+00 -0.33372230286E+02  0.33372230286E+02  0.00000000000E+00 0.  1.
          2    1    1    2  501    0  0.16395155874E+02 -0.12312119003E+02 -0.23369778072E+02  0.31089161095E+02  0.00000000000E+00 0.  1.
         -2    1    1    2    0  502 -0.16395155874E+02  0.12312119003E+02  0.10966379259E+02  0.23251900665E+02  0.00000000000E+00 0. -1.
</event>
<event>
 4    1  0.1822260E+004  0.2303477E+02  0.7546771E-02  0.1492062E+00
         21   -1    0    0  501  502  0.00000000000E+00  0.00000000000E+00  0.32525011183E+02  0.32525011183E+02  0.00000000000E+00 0. -1.
         21   -1    0    0  502  503 -0.00000000000E+00 -0.00000000000E+00 -0.64695416827E+02  0.64695416827E+02  0.00000000000E+00 0.  1.
          2    1    1    2  501    0  0.19340565923E+02 -0.12511712426E+02  0.25951805865E+02  0.34700096048E+02  0.00000000000E+00 0. -1.
         -2    1    1    2    0  503 -0.19340565923E+02  0.12511712426E+02 -0.58122211508E+02  0.62520331962E+02  0.00000000000E+00 0.  1.
</event>
<event>
 4    1  0.1822260E+004  0.2541405E+02  0.7546771E-02  0.1464224E+00
         21   -1    0    0  503  502  0.00000000000E+00  0.00000000000E+00  0.52720143671E+01  0.52720143671E+01  0.00000000000E+00 0.  1.
         21   -1    0    0  501  503 -0.00000000000E+00 -0.00000000000E+00 -0.35772317196E+03  0.35772317196E+03  0.00000000000E+00 0. -1.
          2    1    1    2  501    0 -0.24122732553E+02  0.79979741522E+01 -0.32339862168E+03  0.32439565707E+03  0.00000000000E+00 0. -1.
         -2    1    1    2    0  502  0.24122732553E+02 -0.79979741522E+01 -0.29052535906E+02  0.38599529258E+02  0.00000000000E+00 0.  1.
</event>
<event>
 4    1  0.1822260E+004  0.2629118E+02  0.7546771E-02  0.1454861E+00
         21   -1    0    0  503  502  0.00000000000E+00  0.00000000000E+00  0.12533529034E+03  0.12533529034E+03  0.00000000000E+00 0.  1.
         21   -1    0    0  501  503 -0.00000000000E+00 -0.00000000000E+00 -0.56229916757E+01  0.56229916757E+01  0.00000000000E+00 0. -1.
          2    1    1    2  501    0 -0.92882836601E+01 -0.24595807977E+02  0.50782445578E+02  0.57184637468E+02  0.00000000000E+00 0.  1.
         -2    1    1    2    0  502  0.92882836601E+01  0.24595807977E+02  0.68929853084E+02  0.73773644546E+02  0.00000000000E+00 0. -1.
</event>
<event>
 4    1  0.1822260E+004  0.2935686E+02  0.7546771E-02  0.1425269E+00
         21   -1    0    0  501  502  0.00000000000E+00  0.00000000000E+00  0.55848712568E+02  0.55848712568E+02  0.00000000000E+00 0. -1.
         21   -1    0    0  502  503 -0.00000000000E+00 -0.00000000000E+00 -0.39935928842E+02  0.39935928842E+02  0.00000000000E+00 0.  1.
          2    1    1    2  501    0  0.15894035777E+02 -0.24682080439E+02  0.45471560619E+02  0.54124747512E+02  0.00000000000E+00 0. -1.
         -2    1    1    2    0  503 -0.15894035777E+02  0.24682080439E+02 -0.29558776893E+02  0.41659893898E+02  0.00000000000E+00 0.  1.
</event>
<event>
 4    1  0.1822260E+004  0.2468989E+02  0.7546771E-02  0.1472303E+00
         21   -1    0    0  503  502  0.00000000000E+00  0.00000000000E+00  0.73446470446E+01  0.73446470446E+01  0.00000000000E+00 0. -1.
         21   -1    0    0  501  503 -0.00000000000E+00 -0.00000000000E+00 -0.10441700846E+03  0.10441700846E+03  0.00000000000E+00 0.  1.
          2    1    1    2  501    0  0.16700258957E+02 -0.18184934929E+02 -0.73845332434E+02  0.77863493563E+02  0.00000000000E+00 0.  1.
         -2    1    1    2    0  502 -0.16700258957E+02  0.18184934929E+02 -0.23227028979E+02  0.33898161939E+02  0.00000000000E+00 0. -1.
</event>
<event>
 4    1  0.1822260E+004  0.3193997E+02  0.7546771E-02  0.1403455E+00
         21   -1    0    0  503  502  0.00000000000E+00  0.00000000000E+00  0.67177759180E+02  0.67177759180E+02  0.00000000000E+00 0.  1.
         21   -1    0    0  501  503 -0.00000000000E+00 -0.00000000000E+00 -0.57388734178E+02  0.57388734178E+02  0.00000000000E+00 0. -1.
          2    1    1    2  501    0 -0.62196217515E+01  0.31328549597E+02 -0.48516178222E+02  0.58085981646E+02  0.00000000000E+00 0. -1.
         -2    1    1    2    0  502  0.62196217515E+01 -0.31328549597E+02  0.58305203223E+02  0.66480511712E+02  0.00000000000E+00 0.  1.
</event>
<event>
 4    1  0.1822260E+004  0.2609951E+02  0.7546771E-02  0.1456870E+00
         21   -1    0    0  503  502  0.00000000000E+00  0.00000000000E+00  0.84026323509E+01  0.84026323509E+01  0.00000000000E+00 0.  1.
         21   -1    0    0  501  503 -0.00000000000E+00 -0.00000000000E+00 -0.23490917249E+03  0.23490917249E+03  0.00000000000E+00 0. -1.
          2    1    1    2  501    0  0.22816439729E+02 -0.12672581421E+02 -0.21170413768E+03  0.21330688257E+03  0.00000000000E+00 0. -1.
         -2    1    1    2    0  502 -0.22816439729E+02  0.12672581421E+02 -0.14802402459E+02  0.30004922268E+02  0.00000000000E+00 0.  1.
</event>
<event>
 4    1  0.1822260E+004  0.3101059E+02  0.7546771E-02  0.1411013E+00
         21   -1    0    0  501  502  0.00000000000E+00  0.00000000000E+00  0.66457134203E+01  0.66457134203E+01  0.00000000000E+00 0.  1.
         21   -1    0    0  502  503 -0.00000000000E+00 -0.00000000000E+00 -0.16172167510E+03  0.16172167510E+03  0.00000000000E+00 0. -1.
          2    1    1    2  501    0  0.29057314882E+02 -0.10831868180E+02 -0.50229193007E+02  0.59030744079E+02  0.00000000000E+00 0.  1.
         -2    1    1    2    0  503 -0.29057314882E+02  0.10831868180E+02 -0.10484676867E+03  0.10933664444E+03  0.00000000000E+00 0. -1.
</event>
<event>
 4    1  0.1822260E+004  0.1024705E+03  0.7546771E-02  0.1159595E+00
         21   -1    0    0  501  502  0.00000000000E+00  0.00000000000E+00  0.31227502200E+03  0.31227502200E+03  0.00000000000E+00 0.  1.
         21   -1    0    0  502  503 -0.00000000000E+00 -0.00000000000E+00 -0.41389104133E+02  0.41389104133E+02  0.00000000000E+00 0. -1.
          2    1    1    2  501    0  0.45759614945E+02  0.91685637870E+02  0.21203225372E+03  0.23549495784E+03  0.00000000000E+00 0.  1.
         -2    1    1    2    0  503 -0.45759614945E+02 -0.91685637870E+02  0.58853664151E+02  0.11816916830E+03  0.00000000000E+00 0. -1.
</event>
<event>
 4    1  0.1822260E+004  0.3329595E+02  0.7546771E-02  0.1392956E+00
         21   -1    0    0  503  502  0.00000000000E+00  0.00000000000E+00  0.13514756751E+03  0.13514756751E+03  0.00000000000E+00 0. -1.
         21   -1    0    0  501  503 -0.00000000000E+00 -0.00000000000E+00 -0.15375969651E+02  0.15375969651E+02  0.00000000000E+00 0.  1.
          2    1    1    2  501    0 -0.28638510475E+02  0.16983997558E+02  0.84812504374E+01  0.34359162741E+02  0.00000000000E+00 0.  1.
         -2    1    1    2    0  502  0.28638510475E+02 -0.16983997558E+02  0.11129034742E+03  0.11616437442E+03  0.00000000000E+00 0. -1.
</event>
<event>
 4    1  0.1822260E+004  0.3681217E+02  0.7546771E-02  0.1368252E+00
         21   -1    0    0  503  502  0.00000000000E+00  0.00000000000E+00  0.14874558290E+02  0.14874558290E+02  0.00000000000E+00 0.  1.
         21   -1    0    0  501  503 -0.00000000000E+00 -0.00000000000E+00 -0.91466655350E+02  0.91466655350E+02  0.00000000000E+00 0. -1.
          2    1    1    2  501    0 -0.26150574570E+02 -0.25909134213E+02 -0.34949284644E+02  0.50760105231E+02  0.00000000000E+00 0.  1.
         -2    1    1    2    0  502  0.26150574570E+02  0.25909134213E+02 -0.41642812416E+02  0.55581108408E+02  0.00000000000E+00 0. -1.
</event>
<event>
 4    1  0.1822260E+004  0.2331342E+02  0.7546771E-02  0.1488600E+00
         21   -1    0    0  501  502  0.00000000000E+00  0.00000000000E+00  0.16292167291E+03  0.16292167291E+03  0.00000000000E+00 0.  1.
         21   -1    0    0  502  503 -0.00000000000E+00 -0.00000000000E+00 -0.12804564330E+02  0.12804564330E+02  0.00000000000E+00 0. -1.
          2    1    1    2  501    0  0.76339345586E+00 -0.23300920611E+02  0.15061386838E+03  0.15240752285E+03  0.00000000000E+00 0.  1.
         -2    1    1    2    0  503 -0.76339345586E+00  0.23300920611E+02 -0.49675979763E+00  0.23318714398E+02  0.00000000000E+00 0. -1.
</event>
<event>
 4    1  0.1822260E+004  0.5015962E+02  0.7546771E-02  0.1297482E+00
         21   -1    0    0  501  502  0.00000000000E+00  0.00000000000E+00  0.74814553462E+02  0.74814553462E+02  0.00000000000E+00 0.  1.
         21   -1    0    0  502  503 -0.00000000000E+00 -0.00000000000E+00 -0.35543977185E+02  0.35543977185E+02  0.00000000000E+00 0. -1.
          2    1    1    2  501    0 -0.47802155133E+02 -0.15196762291E+02  0.32440902615E+02  0.59736084421E+02  0.00000000000E+00 0.  1.
         -2    1    1    2    0  503  0.47802155133E+02  0.15196762291E+02  0.68296736622E+01  0.50622446225E+02  0.00000000000E+00 0. -1.
</event>
<event>
 4    1  0.1822260E+004  0.2771343E+02  0.7546771E-02  0.1440570E+00
         21   -1    0    0  501  502  0.00000000000E+00  0.00000000000E+00  0.96630708811E+01  0.96630708811E+01  0.00000000000E+00 0. -1.
         21   -1    0    0  502  503 -0.00000000000E+00 -0.00000000000E+00 -0.12357882398E+03  0.12357882398E+03  0.00000000000E+00 0.  1.
          2    1    1    2  501    0 -0.26826455390E+02  0.69552299690E+01 -0.17161308176E+02  0.32596693559E+02  0.00000000000E+00 0. -1.
         -2    1    1    2    0  503  0.26826455390E+02 -0.69552299690E+01 -0.96754444923E+02  0.10064520130E+03  0.00000000000E+00 0.  1.
</event>
<event>
 4    1  0.1822260E+004  0.2033842E+02  0.7546771E-02  0.1528924E+00
         21   -1    0    0  503  502  0.00000000000E+00  0.00000000000E+00  0.30532116657E+01  0.30532116657E+01  0.00000000000E+00 0. -1.
         21   -1    0    0  501  503 -0.00000000000E+00 -0.00000000000E+00 -0.29013063787E+03  0.29013063787E+03  0.00000000000E+00 0.  1.
          2    1    1    2  501    0  0.20338414873E+02 -0.61422044993E-02 -0.25056443603E+03  0.25138851955E+03  0.00000000000E+00 0.  1.
         -2    1    1    2    0  502 -0.20338414873E+02  0.61422044993E-02 -0.36512990169E+02  0.41795329983E+02  0.00000000000E+00 0. -1.
</event>
<event>
 4    1  0.1822260E+004  0.2478927E+02  0.7546771E-02  0.1471175E+00
         21   -1    0    0  503  502  0.00000000000E+00  0.00000000000E+00  0.33678628419E+02  0.33678628419E+02  0.00000000000E+00 0. -1.
         21   -1    0    0  501  503 -0.00000000000E+00 -0.00000000000E+00 -0.18251894257E+02  0.18251894257E+02  0.00000000000E+00 0.  1.
          2    1    1    2  501    0 -0.23875960046E+02  0.66668142093E+01  0.81709262008E+01  0.26101186080E+02  0.00000000000E+00 0. -1.
         -2    1    1    2    0  502  0.23875960046E+02 -0.66668142093E+01  0.72558079619E+01  0.25829336596E+02  0.00000000000E+00 0.  1.
</event>
<event>
 4    1  0.1822260E+004  0.2163034E+02  0.7546771E-02  0.1510452E+00
         21   -1    0    0  503  502  0.00000000000E+00  0.00000000000E+00  0.19842477213E+03  0.19842477213E+03  0.00000000000E+00 0.  1.
         21   -1    0    0  501  503 -0.00000000000E+00 -0.00000000000E+00 -0.24099209725E+01  0.24099209725E+01  0.00000000000E+00 0. -1.
          2    1    1    2  501    0  0.34565379703E+01 -0.21352380368E+02  0.83258185490E+02  0.86022074220E+02  0.00000000000E+00 0.  1.
         -2    1    1    2    0  502 -0.34565379703E+01  0.21352380368E+02  0.11275666567E+03  0.11481261888E+03  0.00000000000E+00 0. -1.
</event>
<event>
 4    1  0.1822260E+004  0.2875100E+02  0.7546771E-02  0.1430770E+00
         21   -1    0    0  501  502  0.00000000000E+00  0.00000000000E+00  0.39070416097E+01  0.39070416097E+01  0.00000000000E+00 0.  1.
         21   -1    0    0  502  503 -0.00000000000E+00 -0.00000000000E+00 -0.24057706546E+03  0.24057706546E+03  0.00000000000E+00 0. -1.
          2    1    1    2  501    0 -0.28293582281E+02 -0.51081691693E+01 -0.75889551474E+02  0.81153214437E+02  0.00000000000E+00 0.  1.
         -2    1    1    2    0  503  0.28293582281E+02  0.51081691693E+01 -0.16078047238E+03  0.16333089264E+03  0.00000000000E+00 0. -1.
</event>
<event>
 4    1  0.1822260E+004  0.2119431E+02  0.7546771E-02  0.1516509E+00
         21   -1    0    0  503  502  0.00000000000E+00  0.00000000000E+00  0.88058470155E+01  0.88058470155E+01  0.00000000000E+00 0.  1.
         21   -1    0    0  501  503 -0.00000000000E+00 -0.00000000000E+00 -0.61117912891E+02  0.61117912891E+02  0.00000000000E+00 0. -1.
          2    1    1    2  501    0 -0.19814053945E+02  0.75234316465E+01 -0.40373124639E+02  0.45598113454E+02  0.00000000000E+00 0. -1.
         -2    1    1    2    0  502  0.19814053945E+02 -0.75234316465E+01 -0.11938941236E+02  0.24325646452E+02  0.00000000000E+00 0.  1.
</event>
<event>
 4    1  0.1822260E+004  0.4105290E+02  0.7546771E-02  0.1342424E+00
         21   -1    0    0  501  502  0.00000000000E+00  0.00000000000E+00  0.60991978551E+01  0.60991978551E+01  0.00000000000E+00 0.  1.
         21   -1    0    0  502  503 -0.00000000000E+00 -0.00000000000E+00 -0.27898614975E+03  0.27898614975E+03  0.00000000000E+00 0. -1.
          2    1    1    2  501    0 -0.35028820485E+02 -0.21408463135E+02 -0.15037374504E+03  0.15587688653E+03  0.00000000000E+00 0.  1.
         -2    1    1    2    0  503  0.35028820485E+02  0.21408463135E+02 -0.12251320685E+03  0.12920846107E+03  0.00000000000E+00 0. -1.
</event>
<event>
 4    1  0.1822260E+004  0.2295855E+02  0.7546771E-02  0.1493019E+00
         21   -1    0    0  501  502  0.00000000000E+00  0.00000000000E+00  0.14738759356E+03  0.14738759356E+03  0.00000000000E+00 0.  1.
         21   -1    0    0  502  503 -0.00000000000E+00 -0.00000000000E+00 -0.37174607115E+02  0.37174607115E+02  0.00000000000E+00 0. -1.
          2    1    1    2  501    0 -0.13160630156E+02  0.18812043146E+02  0.14283658419E+03  0.14466991718E+03  0.00000000000E+00 0.  1.
         -2    1    1    2    0  503  0.13160630156E+02 -0.18812043146E+02 -0.32623597740E+02  0.39892283501E+02  0.00000000000E+00 0. -1.
</event>
<event>
 4    1  0.1822260E+004  0.3999124E+02  0.7546771E-02  0.1348537E+00
         21   -1    0    0  503  502  0.00000000000E+00  0.00000000000E+00  0.10921481768E+03  0.10921481768E+03  0.00000000000E+00 0.  1.
         21   -1    0    0  501  503 -0.00000000000E+00 -0.00000000000E+00 -0.22740544821E+02  0.22740544821E+02  0.00000000000E+00 0. -1.
          2    1    1    2  501    0 -0.65758996639E+01  0.39446885850E+02  0.38679063306E+01  0.40177854087E+02  0.00000000000E+00 0. -1.
         -2    1    1    2    0  502  0.65758996639E+01 -0.39446885850E+02  0.82606366526E+02  0.91777508412E+02  0.00000000000E+00 0.  1.
</event>
<event>
 4    1  0.1822260E+004  0.3998105E+02  0.7546771E-02  0.1348597E+00
         21   -1    0    0  501  502  0.00000000000E+00  0.00000000000E+00  0.21159981996E+03  0.21159981996E+03  0.00000000000E+00 0.  1.
         21   -1    0    0  502  503 -0.00000000000E+00 -0.00000000000E+00 -0.10315011617E+02  0.10315011617E+02  0.00000000000E+00 0. -1.
          2    1    1    2  501    0 -0.28845329247E+02  0.27684491838E+02  0.15804527782E+03  0.16302390606E+03  0.00000000000E+00 0. -1.
         -2    1    1    2    0  503  0.28845329247E+02 -0.27684491838E+02  0.43239530522E+02  0.58890925510E+02  0.00000000000E+00 0.  1.
</event>
<event>
 4    1  0.1822260E+004  0.2173283E+02  0.7546771E-02  0.1509054E+00
         21   -1    0    0  503  502  0.00000000000E+00  0.00000000000E+00  0.40887318796E+02  0.40887318796E+02  0.00000000000E+00 0.  1.
         21   -1    0    0  501  503 -0.00000000000E+00 -0.00000000000E+00 -0.14148621614E+02  0.14148621614E+02  0.00000000000E+00 0. -1.
          2    1    1    2  501    0 -0.21316929091E+02 -0.42313759267E+01  0.15799159101E+01  0.21790184543E+02  0.00000000000E+00 0. -1.
         -2    1    1    2    0  502  0.21316929091E+02  0.42313759267E+01  0.25158781272E+02  0.33245755867E+02  0.00000000000E+00 0.  1.
</event>
<event>
 4    1  0.1822260E+004  0.2009861E+02  0.7546771E-02  0.1532534E+00
         21   -1    0    0  503  502  0.00000000000E+00  0.00000000000E+00  0.21107208328E+02  0.21107208328E+02  0.00000000000E+00 0. -1.
         21   -1    0    0  501  503 -0.00000000000E+00 -0.00000000000E+00 -0.22027395716E+02  0.22027395716E+02  0.00000000000E+00 0.  1.
          2    1    1    2  501    0 -0.26328703421E+01 -0.19925410833E+02 -0.82710214693E+01  0.21733931979E+02  0.00000000000E+00 0. -1.
         -2    1    1    2    0  502  0.26328703421E+01  0.19925410833E+02  0.73508340817E+01  0.21400672065E+02  0.00000000000E+00 0.  1.
</event>
<event>
 4    1  0.1822260E+004  0.2289208E+02  0.7546771E-02  0.1493858E+00
         21   -1    0    0  501  502  0.00000000000E+00  0.00000000000E+00  0.74353076214E+01  0.74353076214E+01  0.00000000000E+00 0.  1.
         21   -1    0    0  502  503 -0.00000000000E+00 -0.00000000000E+00 -0.71359877553E+02  0.71359877553E+02  0.00000000000E+00 0. -1.
          2    1    1    2  501    0 -0.17831785576E+02  0.14355298521E+02 -0.27589767578E+02  0.35850278206E+02  0.00000000000E+00 0. -1.
         -2    1    1    2    0  503  0.17831785576E+02 -0.14355298521E+02 -0.36334802354E+02  0.42944906968E+02  0.00000000000E+00 0.  1.
</event>
<event>
 4    1  0.1822260E+004  0.6284588E+02  0.7546771E-02  0.1250458E+00
         21   -1    0    0  503  502  0.00000000000E+00  0.00000000000E+00  0.12952595010E+02  0.12952595010E+02  0.00000000000E+00 0.  1.
         21   -1    0    0  501  503 -0.00000000000E+00 -0.00000000000E+00 -0.52198164787E+03  0.52198164787E+03  0.00000000000E+00 0. -1.
          2    1    1    2  501    0  0.42458092217E+02  0.46334819368E+02 -0.42698971385E+03  0.43158987571E+03  0.00000000000E+00 0. -1.
         -2    1    1    2    0  502 -0.42458092217E+02 -0.46334819368E+02 -0.82039339007E+02  0.10334436717E+03  0.00000000000E+00 0.  1.
</event>
<event>
 4    1  0.1822260E+004  0.3558886E+02  0.7546771E-02  0.1376470E+00
         21   -1    0    0  501  502  0.00000000000E+00  0.00000000000E+00  0.28424264578E+02  0.28424264578E+02  0.00000000000E+00 0.  1.
         21   -1    0    0  502  503 -0.00000000000E+00 -0.00000000000E+00 -0.62840329970E+02  0.62840329970E+02  0.00000000000E+00 0. -1.
          2    1    1    2  501    0 -0.27573932217E+02 -0.22499897778E+02  0.74042945346E+01  0.36350938302E+02  0.00000000000E+00 0.  1.
         -2    1    1    2    0  503  0.27573932217E+02  0.22499897778E+02 -0.41820359926E+02  0.54913656246E+02  0.00000000000E+00 0. -1.
</event>
<event>
 4    1  0.1822260E+004  0.5381065E+02  0.7546771E-02  0.1282445E+00
         21   -1    0    0  501  502  0.00000000000E+00  0.00000000000E+00  0.13284868681E+04  0.13284868681E+04  0.00000000000E+00 0.  1.
         21   -1    0    0  502  503 -0.00000000000E+00 -0.00000000000E+00 -0.24916179986E+01  0.24916179986E+01  0.00000000000E+00 0. -1.
          2    1    1    2  501    0 -0.48007564007E+02 -0.24307613614E+02  0.89849257181E+03  0.90010248743E+03  0.00000000000E+00 0.  1.
         -2    1    1    2    0  503  0.48007564007E+02  0.24307613614E+02  0.42750267826E+03  0.43087599864E+03  0.00000000000E+00 0. -1.
</event>
<event>
 4    1  0.1822260E+004  0.2069481E+02  0.7546771E-02  0.1523667E+00
         21   -1    0    0  503  502  0.00000000000E+00  0.00000000000E+00  0.97868211667E+01  0.97868211667E+01  0.00000000000E+00 0.  1.
         21   -1    0    0  501  503 -0.00000000000E+00 -0.00000000000E+00 -0.84927784709E+02  0.84927784709E+02  0.00000000000E+00 0. -1.
          2    1    1    2  501    0 -0.12790245197E+02  0.16269130755E+02 -0.70541990555E+02  0.73514946910E+02  0.00000000000E+00 0. -1.
         -2    1    1    2    0  502  0.12790245197E+02 -0.16269130755E+02 -0.45989729876E+01  0.21199658966E+02  0.00000000000E+00 0.  1.
</event>
<event>
 4    1  0.1822260E+004  0.2703492E+02  0.7546771E-02  0.1447258E+00
         21   -1    0    0  501  502  0.00000000000E+00  0.00000000000E+00  0.45915085417E+01  0.45915085417E+01  0.00000000000E+00 0. -1.
         21   -1    0    0  502  503 -0.00000000000E+00 -0.00000000000E+00 -0.16017770176E+03  0.16017770176E+03  0.00000000000E+00 0.  1.
          2    1    1    2  501    0 -0.20017874565E+02 -0.18170630412E+02 -0.71298776204E+02  0.76252230130E+02  0.00000000000E+00 0. -1.
         -2    1    1    2    0  503  0.20017874565E+02  0.18170630412E+02 -0.84287417011E+02  0.88516980168E+02  0.00000000000E+00 0.  1.
</event>
<event>
 4    1  0.1822260E+004  0.2520315E+02  0.7546771E-02  0.1466543E+00
         21   -1    0    0  501  502  0.00000000000E+00  0.00000000000E+00  0.49545333203E+01  0.49545333203E+01  0.00000000000E+00 0. -1.
         21   -1    0    0  502  503 -0.00000000000E+00 -0.00000000000E+00 -0.56059024593E+03  0.56059024593E+03  0.00000000000E+00 0.  1.
          2    1    1    2  501    0  0.24429994713E+02 -0.61946986898E+01 -0.29476319886E+02  0.38782114016E+02  0.00000000000E+00 0. -1.
         -2    1    1    2    0  503 -0.24429994713E+02  0.61946986898E+01 -0.52615939273E+03  0.52676266524E+03  0.00000000000E+00 0.  1.
</event>
<event>
 4    1  0.1822260E+004  0.2050070E+02  0.7546771E-02  0.1526514E+00
         21   -1    0    0  503  502  0.00000000000E+00  0.00000000000E+00  0.21952153509E+02  0.21952153509E+02  0.00000000000E+00 0. -1.
         21   -1    0    0  501  503 -0.00000000000E+00 -0.00000000000E+00 -0.32464516275E+02  0.32464516275E+02  0.00000000000E+00 0.  1.
          2    1    1    2  501    0  0.18061783378E+02 -0.96979785502E+01 -0.22683803610E+02  0.30575051152E+02  0.00000000000E+00 0.  1.
         -2    1    1    2    0  502 -0.18061783378E+02  0.96979785502E+01  0.12171440844E+02  0.23841618631E+02  0.00000000000E+00 0. -1.
</event>
<event>
 4    1  0.1822260E+004  0.2841972E+02  0.7546771E-02  0.1433845E+00
         21   -1    0    0  501  502  0.00000000000E+00  0.00000000000E+00  0.80507260295E+02  0.80507260295E+02  0.00000000000E+00 0. -1.
         21   -1    0    0  502  503 -0.00000000000E+00 -0.00000000000E+00 -0.14142255784E+02  0.14142255784E+02  0.00000000000E+00 0.  1.
          2    1    1    2  501    0  0.27924558891E+02 -0.52819779995E+01  0.58694404764E+02  0.65212831800E+02  0.00000000000E+00 0. -1.
         -2    1    1    2    0  503 -0.27924558891E+02  0.52819779995E+01  0.76705997479E+01  0.29436684279E+02  0.00000000000E+00 0.  1.
</event>
<event>
 4    1  0.1822260E+004  0.5749843E+02  0.7546771E-02  0.1268577E+00
         21   -1    0    0  501  502  0.00000000000E+00  0.00000000000E+00  0.36942299508E+02  0.36942299508E+02  0.00000000000E+00 0. -1.
         21   -1    0    0  502  503 -0.00000000000E+00 -0.00000000000E+00 -0.90785105258E+02  0.90785105258E+02  0.00000000000E+00 0.  1.
          2    1    1    2  501    0 -0.52050069822E+02 -0.24430705074E+02 -0.19301796393E+02  0.60651697939E+02  0.00000000000E+00 0. -1.
         -2    1    1    2    0  503  0.52050069822E+02  0.24430705074E+02 -0.34541009357E+02  0.67075706827E+02  0.00000000000E+00 0.  1.
</event>
<event>
 4    1  0.1822260E+004  0.2022557E+02  0.7546771E-02  0.1530615E+00
         21   -1    0    0  503  502  0.00000000000E+00  0.00000000000E+00  0.10684485344E+03  0.10684485344E+03  0.00000000000E+00 0.  1.
         21   -1    0    0  501  503 -0.00000000000E+00 -0.00000000000E+00 -0.80878223902E+01  0.80878223902E+01  0.00000000000E+00 0. -1.
          2    1    1    2  501    0 -0.19799162934E+02 -0.41312216564E+01  0.76762899964E+01  0.21633290859E+02  0.00000000000E+00 0. -1.
         -2    1    1    2    0  502  0.19799162934E+02  0.41312216564E+01  0.91080741055E+02  0.93299384973E+02  0.00000000000E+00 0.  1.
</event>
<event>
 4    1  0.1822260E+004  0.3210710E+02  0.7546771E-02  0.1402128E+00
         21   -1    0    0  501  502  0.00000000000E+00  0.00000000000E+00  0.12563801130E+02  0.12563801130E+02  0.00000000000E+00 0. -1.
         21   -1    0    0  502  503 -0.00000000000E+00 -0.00000000000E+00 -0.87482052689E+02  0.87482052689E+02  0.00000000000E+00 0.  1.
          2    1    1    2  501    0  0.30459237643E+02 -0.10153840782E+02 -0.49923580473E+02  0.59356798496E+02  0.00000000000E+00 0.  1.
         -2    1    1    2    0  503 -0.30459237643E+02  0.10153840782E+02 -0.24994671086E+02  0.40689055323E+02  0.00000000000E+00 0. -1.
</event>
<event>
 4    1  0.1822260E+004  0.2097619E+02  0.7546771E-02  0.1519605E+00
         21   -1    0    0  503  502  0.00000000000E+00  0.00000000000E+00  0.17865205773E+02  0.17865205773E+02  0.00000000000E+00 0.  1.
         21   -1    0    0  501  503 -0.00000000000E+00 -0.00000000000E+00 -0.24240409173E+03  0.24240409173E+03  0.00000000000E+00 0. -1.
          2    1    1    2  501    0 -0.14021807819E+02 -0.15600941221E+02 -0.23561603879E+03  0.23654791946E+03  0.00000000000E+00 0. -1.
         -2    1    1    2    0  502  0.14021807819E+02  0.15600941221E+02  0.11077152838E+02  0.23721378048E+02  0.00000000000E+00 0.  1.
</event>
<event>
 4    1  0.1822260E+004  0.2777932E+02  0.7546771E-02  0.1439933E+00
         21   -1    0    0  503  502  0.00000000000E+00  0.00000000000E+00  0.86796683160E+02  0.86796683160E+02  0.00000000000E+00 0. -1.
         21   -1    0    0  501  503 -0.00000000000E+00 -0.00000000000E+00 -0.67196996511E+02  0.67196996511E+02  0.00000000000E+00 0.  1.
          2    1    1    2  501    0 -0.21948633925E+02  0.17027867212E+02 -0.61922649480E+02  0.67868293861E+02  0.00000000000E+00 0.  1.
         -2    1    1    2    0  502  0.21948633925E+02 -0.17027867212E+02  0.81522336129E+02  0.86125385810E+02  0.00000000000E+00 0. -1.
</event>
<event>
 4    1  0.1822260E+004  0.2692589E+02  0.7546771E-02  0.1448354E+00
         21   -1    0    0  503  502  0.00000000000E+00  0.00000000000E+00  0.37023471583E+03  0.37023471583E+03  0.00000000000E+00 0. -1.
         21   -1    0    0  501  503 -0.00000000000E+00 -0.00000000000E+00 -0.35346528837E+01  0.35346528837E+01  0.00000000000E+00 0.  1.
          2    1    1    2  501    0  0.17632277172E+02 -0.20349603369E+02  0.58543553599E+02  0.64438740084E+02  0.00000000000E+00 0.  1.
         -2    1    1    2    0  502 -0.17632277172E+02  0.20349603369E+02  0.30815650934E+03  0.30933062863E+03  0.00000000000E+00 0. -1.
</event>
<event>
 4    1  0.1822260E+004  0.2893996E+02  0.7546771E-02  0.1429037E+00
         21   -1    0    0  501  502  0.00000000000E+00  0.00000000000E+00  0.35876184475E+03  0.35876184475E+03  0.00000000000E+00 0. -1.
         21   -1    0    0  502  503 -0.00000000000E+00 -0.00000000000E+00 -0.48900683092E+01  0.48900683092E+01  0.00000000000E+00 0.  1.
          2    1    1    2  501    0 -0.28800349102E+02  0.28391872835E+01  0.30838091598E+03  0.30973587205E+03  0.00000000000E+00 0.  1.
         -2    1    1    2    0  503  0.28800349102E+02 -0.28391872835E+01  0.45490860462E+02  0.53916041012E+02  0.00000000000E+00 0. -1.
</event>
<event>
 4    1  0.1822260E+004  0.2263883E+02  0.7546771E-02  0.1497084E+00
         21   -1    0    0  503  502  0.00000000000E+00  0.00000000000E+00  0.20823501438E+01  0.20823501438E+01  0.00000000000E+00 0.  1.
         21   -1    0    0  501  503 -0.00000000000E+00 -0.00000000000E+00 -0.24775619483E+03  0.24775619483E+03  0.00000000000E+00 0. -1.
          2    1    1    2  501    0 -0.77848647336E+01  0.21258238706E+02 -0.13297538711E+03  0.13488873344E+03  0.00000000000E+00 0. -1.
         -2    1    1    2    0  502  0.77848647336E+01 -0.21258238706E+02 -0.11269845758E+03  0.11494981153E+03  0.00000000000E+00 0.  1.
</event>
<event>
 4    1  0.1822260E+004  0.2122390E+02  0.7546771E-02  0.1516092E+00
         21   -1    0    0  503  502  0.00000000000E+00  0.00000000000E+00  0.32356800471E+02  0.32356800471E+02  0.00000000000E+00 0.  1.
         21   -1    0    0  501  503 -0.00000000000E+00 -0.00000000000E+00 -0.51417985957E+02  0.51417985957E+02  0.00000000000E+00 0. -1.
          2    1    1    2  501    0 -0.16485917029E+02  0.13366699488E+02 -0.45300785563E+02  0.50026146045E+02  0.00000000000E+00 0. -1.
         -2    1    1    2    0  502  0.16485917029E+02 -0.13366699488E+02  0.26239600078E+02  0.33748640383E+02  0.00000000000E+00 0.  1.
</event>
<event>
 4    1  0.1822260E+004  0.3143931E+02  0.7546771E-02  0.1407488E+00
         21   -1    0    0  503  502  0.00000000000E+00  0.00000000000E+00  0.88201250837E+00  0.88201250837E+00  0.00000000000E+00 0. -1.
         21   -1    0    0  501  503 -0.00000000000E+00 -0.00000000000E+00 -0.15935323443E+04  0.15935323443E+04  0.00000000000E+00 0.  1.
          2    1    1    2  501    0  0.42244033877E+01 -0.31154202941E+02 -0.12306012778E+04  0.12310028168E+04  0.00000000000E+00 0.  1.
         -2    1    1    2    0  502 -0.42244033877E+01  0.31154202941E+02 -0.36204905393E+03  0.36341153999E+03  0.00000000000E+00 0. -1.
</event>
<event>
 4    1  0.1822260E+004  0.2202264E+02  0.7546771E-02  0.1505150E+00
         21   -1    0    0  501  502  0.00000000000E+00  0.00000000000E+00  0.24085150373E+01  0.24085150373E+01  0.00000000000E+00 0.  1.
         21   -1    0    0  502  503 -0.00000000000E+00 -0.00000000000E+00 -0.41586287632E+03  0.41586287632E+03  0.00000000000E+00 0. -1.
          2    1    1    2  501    0 -0.14669681934E+02  0.16425502373E+02 -0.56529911112E+02  0.60668175731E+02  0.00000000000E+00 0.  1.
         -2    1    1    2    0  503  0.14669681934E+02 -0.16425502373E+02 -0.35692445017E+03  0.35760321563E+03  0.00000000000E+00 0. -1.
</event>
<event>
 4    1  0.1822260E+004  0.2874524E+02  0.7546771E-02  0.1430823E+00
         21   -1    0    0  503  502  0.00000000000E+00  0.00000000000E+00  0.22958730478E+01  0.22958730478E+01  0.00000000000E+00 0. -1.
         21   -1    0    0  501  503 -0.00000000000E+00 -0.00000000000E+00 -0.49672638055E+03  0.49672638055E+03  0.00000000000E+00 0.  1.
          2    1    1    2  501    0  0.85714539710E+01 -0.27437551176E+02 -0.37816758448E+03  0.37925850154E+03  0.00000000000E+00 0.  1.
         -2    1    1    2    0  502 -0.85714539710E+01  0.27437551176E+02 -0.11626292302E+03  0.11976375206E+03  0.00000000000E+00 0. -1.
</event>
<event>
 4    1  0.1822260E+004  0.2388144E+02  0.7546771E-02  0.1481717E+00
         21   -1    0    0  501  502  0.00000000000E+00  0.00000000000E+00  0.13186743256E+03  0.13186743256E+03  0.00000000000E+00 0.  1.
         21   -1    0    0  502  503 -0.00000000000E+00 -0.00000000000E+00 -0.29913133931E+02  0.29913133931E+02  0.00000000000E+00 0. -1.
          2    1    1    2  501    0  0.19212095750E+02  0.14185151784E+02  0.12579150339E+03  0.12803837503E+03  0.00000000000E+00 0.  1.
         -2    1    1    2    0  503 -0.19212095750E+02 -0.14185151784E+02 -0.23837204759E+02  0.33742191466E+02  0.00000000000E+00 0. -1.
</event>
<event>
 4    1  0.1822260E+004  0.2052444E+02  0.7546771E-02  0.1526164E+00
         21   -1    0    0  501  502  0.00000000000E+00  0.00000000000E+00  0.18945952183E+01  0.18945952183E+01  0.00000000000E+00 0.  1.
         21   -1    0    0  502  503 -0.00000000000E+00 -0.00000000000E+00 -0.30897174708E+03  0.30897174708E+03  0.00000000000E+00 0. -1.
          2    1    1    2  501    0 -0.26609993417E+01  0.20351208305E+02 -0.71236292698E+02  0.74134081193E+02  0.00000000000E+00 0.  1.
         -2    1    1    2    0  503  0.26609993417E+01 -0.20351208305E+02 -0.23584085916E+03  0.23673226110E+03  0.00000000000E+00 0. -1.
</event>
<event>
 4    1  0.1822260E+004  0.4147929E+02  0.7546771E-02  0.1340029E+00
         21   -1    0    0  503  502  0.00000000000E+00  0.00000000000E+00  0.13874943521E+02  0.13874943521E+02  0.00000000000E+00 0.  1.
         21   -1    0    0  501  503 -0.00000000000E+00 -0.00000000000E+00 -0.12401854192E+03  0.12401854192E+03  0.00000000000E+00 0. -1.
          2    1    1    2  501    0  0.75894839341E+01 -0.40779055345E+02 -0.54294616673E+02  0.68325961544E+02  0.00000000000E+00 0. -1.
         -2    1    1    2    0  502 -0.75894839341E+01  0.40779055345E+02 -0.55848981724E+02  0.69567523895E+02  0.00000000000E+00 0.  1.
</event>
<event>
 4    1  0.1822260E+004  0.2047562E+02  0.7546771E-02  0.1526885E+00
         21   -1    0    0  503  502  0.00000000000E+00  0.00000000000E+00  0.40213521906E+01  0.40213521906E+01  0.00000000000E+00 0. -1.
         21   -1    0    0  501  503 -0.00000000000E+00 -0.00000000000E+00 -0.21516752036E+03  0.21516752036E+03  0.00000000000E+00 0.  1.
          2    1    1    2  501    0  0.19950412762E+02  0.46078068083E+01 -0.18425738840E+03  0.18539157487E+03  0.00000000000E+00 0.  1.
         -2    1    1    2    0  502 -0.19950412762E+02 -0.46078068083E+01 -0.26888779766E+02  0.33797297677E+02  0.00000000000E+00 0. -1.
</event>
<event>
 4    1  0.1822260E+004  0.4333114E+02  0.7546771E-02  0.1329998E+00
         21   -1    0    0  501  502  0.00000000000E+00  0.00000000000E+00  0.31733455957E+01  0.31733455957E+01  0.00000000000E+00 0.  1.
         21   -1    0    0  502  503 -0.00000000000E+00 -0.00000000000E+00 -0.10660767685E+04  0.10660767685E+04  0.00000000000E+00 0. -1.
          2    1    1    2  501    0  0.26863546459E+02 -0.33999080470E+02 -0.17481301961E+03  0.18010324658E+03  0.00000000000E+00 0.  1.
         -2    1    1    2    0  503 -0.26863546459E+02  0.33999080470E+02 -0.88809040329E+03  0.88914686751E+03  0.00000000000E+00 0. -1.
</event>
<event>
 4    1  0.1822260E+004  0.2265867E+02  0.7546771E-02  0.1496829E+00
         21   -1    0    0  503  502  0.00000000000E+00  0.00000000000E+00  0.21567871581E+01  0.21567871581E+01  0.00000000000E+00 0.  1.
         21   -1    0    0  501  503 -0.00000000000E+00 -0.00000000000E+00 -0.36157227295E+03  0.36157227295E+03  0.00000000000E+00 0. -1.
          2    1    1    2  501    0  0.10860349093E+01  0.22632628569E+02 -0.28600681379E+03  0.28690296771E+03  0.00000000000E+00 0. -1.
         -2    1    1    2    0  502 -0.10860349093E+01 -0.22632628569E+02 -0.73408672004E+02  0.76826092398E+02  0.00000000000E+00 0.  1.
</event>
<event>
 4    1  0.1822260E+004  0.4343091E+02  0.7546771E-02  0.1329474E+00
         21   -1    0    0  501  502  0.00000000000E+00  0.00000000000E+00  0.14265594930E+03  0.14265594930E+03  0.00000000000E+00 0.  1.
         21   -1    0    0  502  503 -0.00000000000E+00 -0.00000000000E+00 -0.18198472375E+02  0.18198472375E+02  0.00000000000E+00 0. -1.
          2    1    1    2  501    0 -0.34434991465E+02 -0.26466497426E+02  0.20172355968E+02  0.47887034451E+02  0.00000000000E+00 0. -1.
         -2    1    1    2    0  503  0.34434991465E+02  0.26466497426E+02  0.10428512095E+03  0.11296738722E+03  0.00000000000E+00 0.  1.
</event>
<event>
 4    1  0.1822260E+004  0.4786330E+02  0.7546771E-02  0.1307712E+00
         21   -1    0    0  501  502  0.00000000000E+00  0.00000000000E+00  0.67605788961E+02  0.67605788961E+02  0.00000000000E+00 0. -1.
         21   -1    0    0  502  503 -0.00000000000E+00 -0.00000000000E+00 -0.89537075190E+02  0.89537075190E+02  0.00000000000E+00 0.  1.
          2    1    1    2  501    0 -0.47010469505E+02  0.89950707538E+01  0.50978416375E+02  0.69926350377E+02  0.00000000000E+00 0. -1.
         -2    1    1    2    0  503  0.47010469505E+02 -0.89950707538E+01 -0.72909702604E+02  0.87216513773E+02  0.00000000000E+00 0.  1.
</event>
<event>
 4    1  0.1822260E+004  0.2353354E+02  0.7546771E-02  0.1485905E+00
         21   -1    0    0  503  502  0.00000000000E+00  0.00000000000E+00  0.42934689268E+01  0.42934689268E+01  0.00000000000E+00 0. -1.
         21   -1    0    0  501  503 -0.00000000000E+00 -0.00000000000E+00 -0.14854958827E+03  0.14854958827E+03  0.00000000000E+00 0.  1.
          2    1    1    2  501    0  0.77120950264E+01  0.22234012791E+02 -0.99856521051E+02  0.10259216603E+03  0.00000000000E+00 0.  1.
         -2    1    1    2    0  502 -0.77120950264E+01 -0.22234012791E+02 -0.44399598291E+02  0.50250891165E+02  0.00000000000E+00 0. -1.
</event>
<event>
 4    1  0.1822260E+004  0.3327271E+02  0.7546771E-02  0.1393131E+00
         21   -1    0    0  503  502  0.00000000000E+00  0.00000000000E+00  0.49265422364E+02  0.49265422364E+02  0.00000000000E+00 0. -1.
         21   -1    0    0  501  503 -0.00000000000E+00 -0.00000000000E+00 -0.47535660899E+02  0.47535660899E+02  0.00000000000E+00 0.  1.
          2    1    1    2  501    0 -0.23069424457E+02 -0.23976554257E+02 -0.34280322629E+02  0.47772523675E+02  0.00000000000E+00 0.  1.
         -2    1    1    2    0  502  0.23069424457E+02  0.23976554257E+02  0.36010084094E+02  0.49028559588E+02  0.00000000000E+00 0. -1.
</event>
<event>
 4    1  0.1822260E+004  0.2375423E+02  0.7546771E-02  0.1483238E+00
         21   -1    0    0  503  502  0.00000000000E+00  0.00000000000E+00  0.48984902579E+03  0.48984902579E+03  0.00000000000E+00 0.  1.
         21   -1    0    0  501  503 -0.00000000000E+00 -0.00000000000E+00 -0.13262522779E+01  0.13262522779E+01  0.00000000000E+00 0. -1.
          2    1    1    2  501    0 -0.82283062021E+01 -0.22283586635E+02  0.33330270361E+03  0.33414810412E+03  0.00000000000E+00 0.  1.
         -2    1    1    2    0  502  0.82283062021E+01  0.22283586635E+02  0.15522006991E+03  0.15702717395E+03  0.00000000000E+00 0. -1.
</event>
<event>
 4    1  0.1822260E+004  0.3266492E+02  0.7546771E-02  0.1397767E+00
         21   -1    0    0  503  502  0.00000000000E+00  0.00000000000E+00  0.22557941721E+03  0.22557941721E+03  0.00000000000E+00 0.  1.
         21   -1    0    0  501  503 -0.00000000000E+00 -0.00000000000E+00 -0.62599975742E+01  0.62599975742E+01  0.00000000000E+00 0. -1.
          2    1    1    2  501    0  0.28659993748E+02 -0.15671694590E+02  0.52352217305E+02  0.61706984287E+02  0.00000000000E+00 0. -1.
         -2    1    1    2    0  502 -0.28659993748E+02  0.15671694590E+02  0.16696720233E+03  0.17013243050E+03  0.00000000000E+00 0.  1.
</event>
<event>
 4    1  0.1822260E+004  0.2269449E+02  0.7546771E-02  0.1496371E+00
         21   -1    0    0  501  502  0.00000000000E+00  0.00000000000E+00  0.50370265020E+03  0.50370265020E+03  0.00000000000E+00 0.  1.
         21   -1    0    0  502  503 -0.00000000000E+00 -0.00000000000E+00 -0.25793348021E+01  0.25793348021E+01  0.00000000000E+00 0. -1.
          2    1    1    2  501    0 -0.22031335610E+02  0.54461019122E+01  0.44722745126E+03  0.44780289518E+03  0.00000000000E+00 0.  1.
         -2    1    1    2    0  503  0.22031335610E+02 -0.54461019122E+01  0.53895864143E+02  0.58479089822E+02  0.00000000000E+00 0. -1.
</event>
<event>
 4    1  0.1822260E+004  0.2716311E+02  0.7546771E-02  0.1445977E+00
         21   -1    0    0  501  502  0.00000000000E+00  0.00000000000E+00  0.25837393760E+02  0.25837393760E+02  0.00000000000E+00 0.  1.
         21   -1    0    0  502  503 -0.00000000000E+00 -0.00000000000E+00 -0.28686742972E+02  0.28686742972E+02  0.00000000000E+00 0. -1.
          2    1    1    2  501    0  0.27163105109E+02 -0.33396932612E-02 -0.32592248852E+01  0.27357939198E+02  0.00000000000E+00 0. -1.
         -2    1    1    2    0  503 -0.27163105109E+02  0.33396932612E-02  0.40987567347E+00  0.27166197533E+02  0.00000000000E+00 0.  1.
</event>
<event>
 4    1  0.1822260E+004  0.2488083E+02  0.7546771E-02  0.1470141E+00
         21   -1    0    0  503  502  0.00000000000E+00  0.00000000000E+00  0.14301924156E+03  0.14301924156E+03  0.00000000000E+00 0.  1.
         21   -1    0    0  501  503 -0.00000000000E+00 -0.00000000000E+00 -0.68686185578E+01  0.68686185578E+01  0.00000000000E+00 0. -1.
          2    1    1    2  501    0  0.13832663112E+02 -0.20681227628E+02  0.22499902334E+02  0.33545511622E+02  0.00000000000E+00 0.  1.
         -2    1    1    2    0  502 -0.13832663112E+02  0.20681227628E+02  0.11365072067E+03  0.11634234850E+03  0.00000000000E+00 0. -1.
</event>
<event>
 4    1  0.1822260E+004  0.2053373E+02  0.7546771E-02  0.1526027E+00
         21   -1    0    0  503  502  0.00000000000E+00  0.00000000000E+00  0.83824919153E+01  0.83824919153E+01  0.00000000000E+00 0. -1.
         21   -1    0    0  501  503 -0.00000000000E+00 -0.00000000000E+00 -0.90316987837E+02  0.90316987837E+02  0.00000000000E+00 0.  1.
          2    1    1    2  501    0  0.13353330051E+02  0.15598802579E+02 -0.73816520747E+02  0.76619271731E+02  0.00000000000E+00 0.  1.
         -2    1    1    2    0  502 -0.13353330051E+02 -0.15598802579E+02 -0.81179751749E+01  0.22080208022E+02  0.00000000000E+00 0. -1.
</event>
<event>
 4    1  0.1822260E+004  0.3503737E+02  0.7546771E-02  0.1380301E+00
         21   -1    0    0  503  502  0.00000000000E+00  0.00000000000E+00  0.56371698649E+01  0.56371698649E+01  0.00000000000E+00 0. -1.
         21   -1    0    0  501  503 -0.00000000000E+00 -0.00000000000E+00 -0.30914582095E+03  0.30914582095E+03  0.00000000000E+00 0.  1.
          2    1    1    2  501    0  0.34024836067E+02 -0.83622743747E+01 -0.23732219925E+03  0.23989465055E+03  0.00000000000E+00 0.  1.
         -2    1    1    2    0  502 -0.34024836067E+02  0.83622743747E+01 -0.66186451829E+02  0.74888340266E+02  0.00000000000E+00 0. -1.
</event>
<event>
 4    1  0.1822260E+004  0.2348494E+02  0.7546771E-02  0.1486497E+00
         21   -1    0    0  501  502  0.00000000000E+00  0.00000000000E+00  0.61211138060E+01  0.61211138060E+01  0.00000000000E+00 0.  1.
         21   -1    0    0  502  503 -0.00000000000E+00 -0.00000000000E+00 -0.94577447148E+02  0.94577447148E+02  0.00000000000E+00 0. -1.
          2    1    1    2  501    0  0.69316362617E+01 -0.22438692582E+02 -0.33279135809E+02  0.40731356303E+02  0.00000000000E+00 0.  1.
         -2    1    1    2    0  503 -0.69316362617E+01  0.22438692582E+02 -0.55177197533E+02  0.59967204651E+02  0.00000000000E+00 0. -1.
</event>
<event>
 4    1  0.1822260E+004  0.3462421E+02  0.7546771E-02  0.1383225E+00
         21   -1    0    0  503  502  0.00000000000E+00  0.00000000000E+00  0.10223518342E+02  0.10223518342E+02  0.00000000000E+00 0. -1.
         21   -1    0    0  501  503 -0.00000000000E+00 -0.00000000000E+00 -0.17970804259E+03  0.17970804259E+03  0.00000000000E+00 0.  1.
          2    1    1    2  501    0  0.17582164258E+02  0.29827894566E+02 -0.14072239761E+03  0.14491938788E+03  0.00000000000E+00 0.  1.
         -2    1    1    2    0  502 -0.17582164258E+02 -0.29827894566E+02 -0.28762126643E+02  0.45012173056E+02  0.00000000000E+00 0. -1.
</event>
<event>
 4    1  0.1822260E+004  0.3087219E+02  0.7546771E-02  0.1412165E+00
         21   -1    0    0  503  502  0.00000000000E+00  0.00000000000E+00  0.22809363936E+02  0.22809363936E+02  0.00000000000E+00 0. -1.
         21   -1    0    0  501  503 -0.00000000000E+00 -0.00000000000E+00 -0.11846606564E+03  0.11846606564E+03  0.00000000000E+00 0.  1.
          2    1    1    2  501    0 -0.22638550808E+01 -0.30789073586E+02 -0.10465909959E+03  0.10911745607E+03  0.00000000000E+00 0.  1.
         -2    1    1    2    0  502  0.22638550808E+01  0.30789073586E+02  0.90023978885E+01  0.32157973504E+02  0.00000000000E+00 0. -1.
</event>
<event>
 4    1  0.1822260E+004  0.2167318E+02  0.7546771E-02  0.1509867E+00
         21   -1    0    0  503  502  0.00000000000E+00  0.00000000000E+00  0.23333227297E+03  0.23333227297E+03  0.00000000000E+00 0.  1.
         21   -1    0    0  501  503 -0.00000000000E+00 -0.00000000000E+00 -0.37721675358E+01  0.37721675358E+01  0.00000000000E+00 0. -1.
          2    1    1    2  501    0  0.42067105940E+01  0.21261007368E+02  0.33823413060E+02  0.40171508801E+02  0.00000000000E+00 0. -1.
         -2    1    1    2    0  502 -0.42067105940E+01 -0.21261007368E+02  0.19573669237E+03  0.19693293170E+03  0.00000000000E+00 0.  1.
</event>
<event>
 4    1  0.1822260E+004  0.2140582E+02  0.7546771E-02  0.1513549E+00
         21   -1    0    0  503  502  0.00000000000E+00  0.00000000000E+00  0.18408959203E+02  0.18408959203E+02  0.00000000000E+00 0.  1.
         21   -1    0    0  501  503 -0.00000000000E+00 -0.00000000000E+00 -0.37026041134E+02  0.37026041134E+02  0.00000000000E+00 0. -1.
          2    1    1    2  501    0 -0.14490653877E+02 -0.15755317071E+02 -0.25176795203E+02  0.33046634965E+02  0.00000000000E+00 0. -1.
         -2    1    1    2    0  502  0.14490653877E+02  0.15755317071E+02  0.65597132725E+01  0.22388365371E+02  0.00000000000E+00 0.  1.
</event>
<event>
 4    1  0.1822260E+004  0.2717723E+02  0.7546771E-02  0.1445836E+00
         21   -1    0    0  503  502  0.00000000000E+00  0.00000000000E+00  0.89226413817E+01  0.89226413817E+01  0.00000000000E+00 0.  1.
         21   -1    0    0  501  503 -0.00000000000E+00 -0.00000000000E+00 -0.13854632680E+03  0.13854632680E+03  0.00000000000E+00 0. -1.
          2    1    1    2  501    0 -0.17642435690E+02  0.20672355361E+02 -0.11159240734E+03  0.11485411263E+03  0.00000000000E+00 0. -1.
         -2    1    1    2    0  502  0.17642435690E+02 -0.20672355361E+02 -0.18031278080E+02  0.32614855549E+02  0.00000000000E+00 0.  1.
</event>
<event>
 4    1  0.1822260E+004  0.3558331E+02  0.7546771E-02  0.1376508E+00
         21   -1    0    0  501  502  0.00000000000E+00  0.00000000000E+00  0.18751575324E+03  0.18751575324E+03  0.00000000000E+00 0. -1.
         21   -1    0    0  502  503 -0.00000000000E+00 -0.00000000000E+00 -0.91987212870E+01  0.91987212870E+01  0.00000000000E+00 0.  1.
          2    1    1    2  501    0 -0.22557336628E+02  0.27519785843E+02  0.38435653786E+02  0.52378158907E+02  0.00000000000E+00 0.  1.
         -2    1    1    2    0  503  0.22557336628E+02 -0.27519785843E+02  0.13988137817E+03  0.14433631562E+03  0.00000000000E+00 0. -1.
</event>
<event>
 4    1  0.1822260E+004  0.2359939E+02  0.7546771E-02  0.1485106E+00
         21   -1    0    0  501  502  0.00000000000E+00  0.00000000000E+00  0.15996581275E+01  0.15996581275E+01  0.00000000000E+00 0.  1.
         21   -1    0    0  502  503 -0.00000000000E+00 -0.00000000000E+00 -0.38179395963E+03  0.38179395963E+03  0.00000000000E+00 0. -1.
          2    1    1    2  501    0  0.52753252510E+00  0.23593492635E+02 -0.13319709178E+03  0.13527156554E+03  0.00000000000E+00 0.  1.
         -2    1    1    2    0  503 -0.52753252510E+00 -0.23593492635E+02 -0.24699720972E+03  0.24812205222E+03  0.00000000000E+00 0. -1.
</event>
<event>
 4    1  0.1822260E+004  0.3496608E+02  0.7546771E-02  0.1380802E+00
         21   -1    0    0  503  502  0.00000000000E+00  0.00000000000E+00  0.22039878112E+02  0.22039878112E+02  0.00000000000E+00 0.  1.
         21   -1    0    0  501  503 -0.00000000000E+00 -0.00000000000E+00 -0.10398866737E+03  0.10398866737E+03  0.00000000000E+00 0. -1.
          2    1    1    2  501    0 -0.33219859924E+02  0.10911819028E+02 -0.84015672241E+02  0.91001428944E+02  0.00000000000E+00 0. -1.
         -2    1    1    2    0  502  0.33219859924E+02 -0.10911819028E+02  0.20668829806E+01  0.35027116540E+02  0.00000000000E+00 0.  1.
</event>
<event>
 4    1  0.1822260E+004  0.2370529E+02  0.7546771E-02  0.1483827E+00
         21   -1    0    0  503  502  0.00000000000E+00  0.00000000000E+00  0.30853749227E+01  0.30853749227E+01  0.00000000000E+00 0.  1.
         21   -1    0    0  501  503 -0.00000000000E+00 -0.00000000000E+00 -0.21232923004E+03  0.21232923004E+03  0.00000000000E+00 0. -1.
          2    1    1    2  501    0 -0.64861041479E+01  0.22800682899E+02 -0.14524147110E+03  0.14716326177E+03  0.00000000000E+00 0. -1.
         -2    1    1    2    0  502  0.64861041479E+01 -0.22800682899E+02 -0.64002384022E+02  0.68251343197E+02  0.00000000000E+00 0.  1.
</event>
<event>
 4    1  0.1822260E+004  0.2283197E+02  0.7546771E-02  0.1494619E+00
         21   -1    0    0  503  502  0.00000000000E+00  0.00000000000E+00  0.59729469531E+03  0.59729469531E+03  0.00000000000E+00 0. -1.
         21   -1    0    0  501  503 -0.00000000000E+00 -0.00000000000E+00 -0.87509732467E+00  0.87509732467E+00  0.00000000000E+00 0.  1.
          2    1    1    2  501    0  0.18038621411E+02  0.13996683351E+02  0.31364416824E+03  0.31447410589E+03  0.00000000000E+00 0. -1.
         -2    1    1    2    0  502 -0.18038621411E+02 -0.13996683351E+02  0.28277542975E+03  0.28369568675E+03  0.00000000000E+00 0.  1.
</event>
<event>
 4    1  0.1822260E+004  0.2754957E+02  0.7546771E-02  0.1442164E+00
         21   -1    0    0  503  502  0.00000000000E+00  0.00000000000E+00  0.17868708893E+03  0.17868708893E+03  0.00000000000E+00 0.  1.
         21   -1    0    0  501  503 -0.00000000000E+00 -0.00000000000E+00 -0.51735804387E+01  0.51735804387E+01  0.00000000000E+00 0. -1.
          2    1    1    2  501    0  0.42177222515E+01  0.27224799539E+02  0.47862952014E+02  0.55225366150E+02  0.00000000000E+00 0. -1.
         -2    1    1    2    0  502 -0.42177222515E+01 -0.27224799539E+02  0.12565055647E+03  0.12863530321E+03  0.00000000000E+00 0.  1.
</event>
<event>
 4    1  0.1822260E+004  0.2580913E+02  0.7546771E-02  0.1459952E+00
         21   -1    0    0  503  502  0.00000000000E+00  0.00000000000E+00  0.11323118508E+03  0.11323118508E+03  0.00000000000E+00 0.  1.
         21   -1    0    0  501  503 -0.00000000000E+00 -0.00000000000E+00 -0.58827643262E+01  0.58827643262E+01  0.00000000000E+00 0. -1.
          2    1    1    2  501    0 -0.23822757448E+02  0.99291155734E+01  0.53756372360E+02  0.59631021103E+02  0.00000000000E+00 0.  1.
         -2    1    1    2    0  502  0.23822757448E+02 -0.99291155734E+01  0.53592048394E+02  0.59482928303E+02  0.00000000000E+00 0. -1.
</event>
<event>
 4    1  0.1822260E+004  0.2077539E+02  0.7546771E-02  0.1522496E+00
         21   -1    0    0  501  502  0.00000000000E+00  0.00000000000E+00  0.20262161012E+03  0.20262161012E+03  0.00000000000E+00 0. -1.
         21   -1    0    0  502  503 -0.00000000000E+00 -0.00000000000E+00 -0.75739922757E+01  0.75739922757E+01  0.00000000000E+00 0.  1.
          2    1    1    2  501    0 -0.86457922771E+01  0.18890921465E+02  0.18662500459E+03  0.18777781812E+03  0.00000000000E+00 0. -1.
         -2    1    1    2    0  503  0.86457922771E+01 -0.18890921465E+02  0.84226132502E+01  0.22417784276E+02  0.00000000000E+00 0.  1.
</event>
<event>
 4    1  0.1822260E+004  0.2066422E+02  0.7546771E-02  0.1524113E+00
         21   -1    0    0  501  502  0.00000000000E+00  0.00000000000E+00  0.13028316461E+03  0.13028316461E+03  0.00000000000E+00 0. -1.
         21   -1    0    0  502  503 -0.00000000000E+00 -0.00000000000E+00 -0.66386468619E+01  0.66386468619E+01  0.00000000000E+00 0.  1.
          2    1    1    2  501    0  0.35382292613E+01  0.20359045521E+02  0.11053507808E+03  0.11245004796E+03  0.00000000000E+00 0. -1.
         -2    1    1    2    0  503 -0.35382292613E+01 -0.20359045521E+02  0.13109439670E+02  0.24471763510E+02  0.00000000000E+00 0.  1.
</event>
<event>
 4    1  0.1822260E+004  0.2914073E+02  0.7546771E-02  0.1427213E+00
         21   -1    0    0  501  502  0.00000000000E+00  0.00000000000E+00  0.43473135927E+02  0.43473135927E+02  0.00000000000E+00 0.  1.
         21   -1    0    0  502  503 -0.00000000000E+00 -0.00000000000E+00 -0.20220705176E+02  0.20220705176E+02  0.00000000000E+00 0. -1.
          2    1    1    2  501    0  0.28803635012E+02  0.44195687596E+01  0.57551582468E+01  0.29703599518E+02  0.00000000000E+00 0. -1.
         -2    1    1    2    0  503 -0.28803635012E+02 -0.44195687596E+01  0.17497272504E+02  0.33990241585E+02  0.00000000000E+00 0.  1.
</event>
<event>
 4    1  0.1822260E+004  0.2222029E+02  0.7546771E-02  0.1502528E+00
         21   -1    0    0  503  502  0.00000000000E+00  0.00000000000E+00  0.13108661426E+03  0.13108661426E+03  0.00000000000E+00 0.  1.
         21   -1    0    0  501  503 -0.00000000000E+00 -0.00000000000E+00 -0.61240487702E+01  0.61240487702E+01  0.00000000000E+00 0. -1.
          2    1    1    2  501    0  0.15465548812E+02 -0.15954880554E+02  0.19914943359E+02  0.29838672600E+02  0.00000000000E+00 0. -1.
         -2    1    1    2    0  502 -0.15465548812E+02  0.15954880554E+02  0.10504762213E+03  0.10737199043E+03  0.00000000000E+00 0.  1.
</event>
<event>
 4    1  0.1822260E+004  0.3928218E+02  0.7546771E-02  0.1352744E+00
         21   -1    0    0  501  502  0.00000000000E+00  0.00000000000E+00  0.32390368249E+03  0.32390368249E+03  0.00000000000E+00 0. -1.
         21   -1    0    0  502  503 -0.00000000000E+00 -0.00000000000E+00 -0.48671467696E+01  0.48671467696E+01  0.00000000000E+00 0.  1.
          2    1    1    2  501    0  0.39253571997E+02  0.14988015113E+01  0.18344452223E+03  0.18760325705E+03  0.00000000000E+00 0.  1.
         -2    1    1    2    0  503 -0.39253571997E+02 -0.14988015113E+01  0.13559201349E+03  0.14116757220E+03  0.00000000000E+00 0. -1.
</event>
<event>
 4    1  0.1822260E+004  0.2925479E+02  0.7546771E-02  0.1426185E+00
         21   -1    0    0  501  502  0.00000000000E+00  0.00000000000E+00  0.23524259499E+03  0.23524259499E+03  0.00000000000E+00 0.  1.
         21   -1    0    0  502  503 -0.00000000000E+00 -0.00000000000E+00 -0.80470919622E+01  0.80470919622E+01  0.00000000000E+00 0. -1.
          2    1    1    2  501    0 -0.29174816510E+02  0.21616051198E+01  0.20363921425E+03  0.20572985207E+03  0.00000000000E+00 0.  1.
         -2    1    1    2    0  503  0.29174816510E+02 -0.21616051198E+01  0.23556288785E+02  0.37559834882E+02  0.00000000000E+00 0. -1.
</event>
<event>
 4    1  0.1822260E+004  0.2256737E+02  0.7546771E-02  0.1498003E+00
         21   -1    0    0  501  502  0.00000000000E+00  0.00000000000E+00  0.19530285450E+01  0.19530285450E+01  0.00000000000E+00 0.  1.
         21   -1    0    0  502  503 -0.00000000000E+00 -0.00000000000E+00 -0.35644649700E+03  0.35644649700E+03  0.00000000000E+00 0. -1.
          2    1    1    2  501    0  0.18310930507E+02 -0.13190752658E+02 -0.84403803740E+02  0.87368691289E+02  0.00000000000E+00 0.  1.
         -2    1    1    2    0  503 -0.18310930507E+02  0.13190752658E+02 -0.27008966471E+03  0.27103083425E+03  0.00000000000E+00 0. -1.
</event>
<event>
 4    1  0.1822260E+004  0.2805038E+02  0.7546771E-02  0.1437333E+00
         21   -1    0    0  501  502  0.00000000000E+00  0.00000000000E+00  0.62066987641E+03  0.62066987641E+03  0.00000000000E+00 0. -1.
         21   -1    0    0  502  503 -0.00000000000E+00 -0.00000000000E+00 -0.12922232201E+01  0.12922232201E+01  0.00000000000E+00 0.  1.
          2    1    1    2  501    0 -0.25877806041E+02 -0.10824184993E+02  0.35252838665E+03  0.35364259814E+03  0.00000000000E+00 0. -1.
         -2    1    1    2    0  503  0.25877806041E+02  0.10824184993E+02  0.26684926654E+03  0.26831950149E+03  0.00000000000E+00 0.  1.
</event>
<event>
 4    1  0.1822260E+004  0.2222779E+02  0.7546771E-02  0.1502429E+00
         21   -1    0    0  501  502  0.00000000000E+00  0.00000000000E+00  0.56586463122E+01  0.56586463122E+01  0.00000000000E+00 0.  1.
         21   -1    0    0  502  503 -0.00000000000E+00 -0.00000000000E+00 -0.87341953079E+02  0.87341953079E+02  0.00000000000E+00 0. -1.
          2    1    1    2  501    0 -0.15548081069E+02 -0.15884959541E+02 -0.39998598019E+02  0.45759836189E+02  0.00000000000E+00 0. -1.
         -2    1    1    2    0  503  0.15548081069E+02  0.15884959541E+02 -0.41684708748E+02  0.47240763202E+02  0.00000000000E+00 0.  1.
</event>
<event>
 4    1  0.1822260E+004  0.2441438E+02  0.7546771E-02  0.1475462E+00
         21   -1    0    0  503  502  0.00000000000E+00  0.00000000000E+00  0.10249509682E+03  0.10249509682E+03  0.00000000000E+00 0.  1.
         21   -1    0    0  501  503 -0.00000000000E+00 -0.00000000000E+00 -0.12611619403E+02  0.12611619403E+02  0.00000000000E+00 0. -1.
          2    1    1    2  501    0 -0.24395170950E+02  0.96838468269E+00  0.26928637079E+01  0.24562443884E+02  0.00000000000E+00 0. -1.
         -2    1    1    2    0  502  0.24395170950E+02 -0.96838468269E+00  0.87190613705E+02  0.90544272336E+02  0.00000000000E+00 0.  1.
</event>
<event>
 4    1  0.1822260E+004  0.2567870E+02  0.7546771E-02  0.1461352E+00
         21   -1    0    0  503  502  0.00000000000E+00  0.00000000000E+00  0.63077746118E+02  0.63077746118E+02  0.00000000000E+00 0. -1.
         21   -1    0    0  501  503 -0.00000000000E+00 -0.00000000000E+00 -0.11029179119E+02  0.11029179119E+02  0.00000000000E+00 0.  1.
          2    1    1    2  501    0 -0.13962257716E+02  0.21551122517E+02  0.34488248469E+02  0.42998079081E+02  0.00000000000E+00 0.  1.
         -2    1    1    2    0  502  0.13962257716E+02 -0.21551122517E+02  0.17560318531E+02  0.31108846156E+02  0.00000000000E+00 0. -1.
</event>
<event>
 4    1  0.1822260E+004  0.3091496E+02  0.7546771E-02  0.1411808E+00
         21   -1    0    0  503  502  0.00000000000E+00  0.00000000000E+00  0.12266497822E+04  0.12266497822E+04  0.00000000000E+00 0.  1.
         21   -1    0    0  501  503 -0.00000000000E+00 -0.00000000000E+00 -0.20995723267E+01  0.20995723267E+01  0.00000000000E+00 0. -1.
          2    1    1    2  501    0 -0.17499106778E+02  0.25485608973E+02  0.12505461216E+03  0.12881921839E+03  0.00000000000E+00 0. -1.
         -2    1    1    2    0  502  0.17499106778E+02 -0.25485608973E+02  0.10994955977E+04  0.10999301361E+04  0.00000000000E+00 0.  1.
</event>
<event>
 4    1  0.1822260E+004  0.2162745E+02  0.7546771E-02  0.1510492E+00
         21   -1    0    0  503  502  0.00000000000E+00  0.00000000000E+00  0.46080761454E+01  0.46080761454E+01  0.00000000000E+00 0. -1.
         21   -1    0    0  501  503 -0.00000000000E+00 -0.00000000000E+00 -0.12940912281E+03  0.12940912281E+03  0.00000000000E+00 0.  1.
          2    1    1    2  501    0  0.16931691831E+02  0.13456024531E+02 -0.93515931377E+02  0.95984249779E+02  0.00000000000E+00 0.  1.
         -2    1    1    2    0  502 -0.16931691831E+02 -0.13456024531E+02 -0.31285115285E+02  0.38032949174E+02  0.00000000000E+00 0. -1.
</event>
<event>
 4    1  0.1822260E+004  0.2174745E+02  0.7546771E-02  0.1508855E+00
         21   -1    0    0  501  502  0.00000000000E+00  0.00000000000E+00  0.23517782968E+01  0.23517782968E+01  0.00000000000E+00 0. -1.
         21   -1    0    0  502  503 -0.00000000000E+00 -0.00000000000E+00 -0.21226324947E+03  0.21226324947E+03  0.00000000000E+00 0.  1.
          2    1    1    2  501    0 -0.17607273490E+02 -0.12764619293E+02 -0.12956019567E+03  0.13137273647E+03  0.00000000000E+00 0. -1.
         -2    1    1    2    0  503  0.17607273490E+02  0.12764619293E+02 -0.80351275508E+02  0.83242291302E+02  0.00000000000E+00 0.  1.
</event>
<event>
 4    1  0.1822260E+004  0.3275615E+02  0.7546771E-02  0.1397064E+00
         21   -1    0    0  501  502  0.00000000000E+00  0.00000000000E+00  0.42694362042E+02  0.42694362042E+02  0.00000000000E+00 0. -1.
         21   -1    0    0  502  503 -0.00000000000E+00 -0.00000000000E+00 -0.40124232622E+02  0.40124232622E+02  0.00000000000E+00 0.  1.
          2    1    1    2  501    0  0.14680440995E+02  0.29282247517E+02  0.26597713914E+02  0.42194830879E+02  0.00000000000E+00 0. -1.
         -2    1    1    2    0  503 -0.14680440995E+02 -0.29282247517E+02 -0.24027584494E+02  0.40623763785E+02  0.00000000000E+00 0.  1.
</event>
<event>
 4    1  0.1822260E+004  0.2541877E+02  0.7546771E-02  0.1464173E+00
         21   -1    0    0  503  502  0.00000000000E+00  0.00000000000E+00  0.24020445268E+02  0.24020445268E+02  0.00000000000E+00 0.  1.
         21   -1    0    0  501  503 -0.00000000000E+00 -0.00000000000E+00 -0.28472775638E+02  0.28472775638E+02  0.00000000000E+00 0. -1.
          2    1    1    2  501    0 -0.36803339907E+01 -0.25150926838E+02 -0.83977759202E+01  0.26770069472E+02  0.00000000000E+00 0. -1.
         -2    1    1    2    0  502  0.36803339907E+01  0.25150926838E+02  0.39454455510E+01  0.25723151434E+02  0.00000000000E+00 0.  1.
</event>
<event>
 4    1  0.1822260E+004  0.2489985E+02  0.7546771E-02  0.1469927E+00
         21   -1    0    0  501  502  0.00000000000E+00  0.00000000000E+00  0.55070308568E+03  0.55070308568E+03  0.00000000000E+00 0.  1.
         21   -1    0    0  502  503 -0.00000000000E+00 -0.00000000000E+00 -0.12195911060E+01  0.12195911060E+01  0.00000000000E+00 0. -1.
          2    1    1    2  501    0  0.24669382782E+02 -0.33799189048E+01  0.19822885280E+03  0.19978658709E+03  0.00000000000E+00 0. -1.
         -2    1    1    2    0  503 -0.24669382782E+02  0.33799189048E+01  0.35125464177E+03  0.35213608970E+03  0.00000000000E+00 0.  1.
</event>
<event>
 4    1  0.1822260E+004  0.2514523E+02  0.7546771E-02  0.1467185E+00
         21   -1    0    0  503  502  0.00000000000E+00  0.00000000000E+00  0.92745104530E+01  0.92745104530E+01  0.00000000000E+00 0.  1.
         21   -1    0    0  501  503 -0.00000000000E+00 -0.00000000000E+00 -0.39586992541E+03  0.39586992541E+03  0.00000000000E+00 0. -1.
          2    1    1    2  501    0 -0.21896711505E+02 -0.12361893073E+02 -0.37760351217E+03  0.37843981658E+03  0.00000000000E+00 0. -1.
         -2    1    1    2    0  502  0.21896711505E+02  0.12361893073E+02 -0.89919027906E+01  0.26704619280E+02  0.00000000000E+00 0.  1.
</event>
<event>
 4    1  0.1822260E+004  0.2166158E+02  0.7546771E-02  0.1510025E+00
         21   -1    0    0  503  502  0.00000000000E+00  0.00000000000E+00  0.55301952853E+03  0.55301952853E+03  0.00000000000E+00 0. -1.
         21   -1    0    0  501  503 -0.00000000000E+00 -0.00000000000E+00 -0.10544384751E+01  0.10544384751E+01  0.00000000000E+00 0.  1.
          2    1    1    2  501    0 -0.14965812597E+02  0.15660417234E+02  0.15354337318E+03  0.15506383093E+03  0.00000000000E+00 0.  1.
         -2    1    1    2    0  502  0.14965812597E+02 -0.15660417234E+02  0.39842171687E+03  0.39901013607E+03  0.00000000000E+00 0. -1.
</event>
<event>
 4    1  0.1822260E+004  0.2140588E+02  0.7546771E-02  0.1513548E+00
         21   -1    0    0  503  502  0.00000000000E+00  0.00000000000E+00  0.59776950563E+02  0.59776950563E+02  0.00000000000E+00 0. -1.
         21   -1    0    0  501  503 -0.00000000000E+00 -0.00000000000E+00 -0.84337493699E+02  0.84337493699E+02  0.00000000000E+00 0.  1.
          2    1    1    2  501    0  0.17453778183E+01 -0.21334602036E+02 -0.80984893990E+02  0.83766130640E+02  0.00000000000E+00 0.  1.
         -2    1    1    2    0  502 -0.17453778183E+01  0.21334602036E+02  0.56424350854E+02  0.60348313622E+02  0.00000000000E+00 0. -1.
</event>
<event>
 4    1  0.1822260E+004  0.2896163E+02  0.7546771E-02  0.1428839E+00
         21   -1    0    0  503  502  0.00000000000E+00  0.00000000000E+00  0.37756437365E+02  0.37756437365E+02  0.00000000000E+00 0. -1.
         21   -1    0    0  501  503 -0.00000000000E+00 -0.00000000000E+00 -0.11450160362E+03  0.11450160362E+03  0.00000000000E+00 0.  1.
          2    1    1    2  501    0 -0.35461309579E+01  0.28743716498E+02 -0.10671852422E+03  0.11057856797E+03  0.00000000000E+00 0.  1.
         -2    1    1    2    0  502  0.35461309579E+01 -0.28743716498E+02  0.29973357966E+02  0.41679473013E+02  0.00000000000E+00 0. -1.
</event>
<event>
 4    1  0.1822260E+004  0.4468809E+02  0.7546771E-02  0.1323006E+00
         21   -1    0    0  503  502  0.00000000000E+00  0.00000000000E+00  0.14842092216E+02  0.14842092216E+02  0.00000000000E+00 0. -1.
         21   -1    0    0  501  503 -0.00000000000E+00 -0.00000000000E+00 -0.15306230600E+03  0.15306230600E+03  0.00000000000E+00 0.  1.
          2    1    1    2  501    0 -0.44685086688E+02  0.51838403121E+00 -0.98305254547E+02  0.10798587299E+03  0.00000000000E+00 0.  1.
         -2    1    1    2    0  502  0.44685086688E+02 -0.51838403121E+00 -0.39914959240E+02  0.59918525227E+02  0.00000000000E+00 0. -1.
</event>
<event>
 4    1  0.1822260E+004  0.3699752E+02  0.7546771E-02  0.1367039E+00
         21   -1    0    0  501  502  0.00000000000E+00  0.00000000000E+00  0.22007467650E+02  0.22007467650E+02  0.00000000000E+00 0.  1.
         21   -1    0    0  502  503 -0.00000000000E+00 -0.00000000000E+00 -0.83148309325E+02  0.83148309325E+02  0.00000000000E+00 0. -1.
          2    1    1    2  501    0 -0.11788959035E+02 -0.35069032637E+02 -0.41783498410E+01  0.37232716965E+02  0.00000000000E+00 0.  1.
         -2    1    1    2    0  503  0.11788959035E+02  0.35069032637E+02 -0.56962491833E+02  0.67923060010E+02  0.00000000000E+00 0. -1.
</event>
<event>
 4    1  0.1822260E+004  0.8520709E+02  0.7546771E-02  0.1192249E+00
         21   -1    0    0  503  502  0.00000000000E+00  0.00000000000E+00  0.16866764285E+02  0.16866764285E+02  0.00000000000E+00 0. -1.
         21   -1    0    0  501  503 -0.00000000000E+00 -0.00000000000E+00 -0.77481204632E+03  0.77481204632E+03  0.00000000000E+00 0.  1.
          2    1    1    2  501    0 -0.20785158049E+02 -0.82633075314E+02 -0.64286716649E+03  0.64848935356E+03  0.00000000000E+00 0.  1.
         -2    1    1    2    0  502  0.20785158049E+02  0.82633075314E+02 -0.11507811554E+03  0.14318945704E+03  0.00000000000E+00 0. -1.
</event>
<event>
 4    1  0.1822260E+004  0.2800139E+02  0.7546771E-02  0.1437800E+00
         21   -1    0    0  503  502  0.00000000000E+00  0.00000000000E+00  0.55113744388E+00  0.55113744388E+00  0.00000000000E+00 0. -1.
         21   -1    0    0  501  503 -0.00000000000E+00 -0.00000000000E+00 -0.15348436027E+04  0.15348436027E+04  0.00000000000E+00 0.  1.
          2    1    1    2  501    0 -0.18016726745E+02 -0.21435374577E+02 -0.55959043601E+03  0.56029057979E+03  0.00000000000E+00 0. -1.
         -2    1    1    2    0  502  0.18016726745E+02  0.21435374577E+02 -0.97470202921E+03  0.97510416032E+03  0.00000000000E+00 0.  1.
</event>
<event>
 4    1  0.1822260E+004  0.2509828E+02  0.7546771E-02  0.1467707E+00
         21   -1    0    0  503  502  0.00000000000E+00  0.00000000000E+00  0.58771072860E+01  0.58771072860E+01  0.00000000000E+00 0.  1.
         21   -1    0    0  501  503 -0.00000000000E+00 -0.00000000000E+00 -0.13320616564E+03  0.13320616564E+03  0.00000000000E+00 0. -1.
          2    1    1    2  501    0 -0.17729285388E+02  0.17765020120E+02 -0.94401873424E+02  0.97681304282E+02  0.00000000000E+00 0. -1.
         -2    1    1    2    0  502  0.17729285388E+02 -0.17765020120E+02 -0.32927184933E+02  0.41401968647E+02  0.00000000000E+00 0.  1.
</event>
<event>
 4    1  0.1822260E+004  0.2030066E+02  0.7546771E-02  0.1529488E+00
         21   -1    0    0  501  502  0.00000000000E+00  0.00000000000E+00  0.24070832922E+02  0.24070832922E+02  0.00000000000E+00 0. -1.
         21   -1    0    0  502  503 -0.00000000000E+00 -0.00000000000E+00 -0.17765574709E+02  0.17765574709E+02  0.00000000000E+00 0.  1.
          2    1    1    2  501    0 -0.29065568371E+01  0.20091506269E+02 -0.83185282141E+00  0.20317693666E+02  0.00000000000E+00 0.  1.
         -2    1    1    2    0  503  0.29065568371E+01 -0.20091506269E+02  0.71371110341E+01  0.21518713965E+02  0.00000000000E+00 0. -1.
</event>
<event>
 4    1  0.1822260E+004  0.2838268E+02  0.7546771E-02  0.1434192E+00
         21   -1    0    0  501  502  0.00000000000E+00  0.00000000000E+00  0.41110504378E+01  0.41110504378E+01  0.00000000000E+00 0. -1.
         21   -1    0    0  502  503 -0.00000000000E+00 -0.00000000000E+00 -0.33127454145E+03  0.33127454145E+03  0.00000000000E+00 0.  1.
          2    1    1    2  501    0  0.24738550081E+02  0.13913324632E+02 -0.56404556735E+02  0.63143095291E+02  0.00000000000E+00 0. -1.
         -2    1    1    2    0  503 -0.24738550081E+02 -0.13913324632E+02 -0.27075893427E+03  0.27224249659E+03  0.00000000000E+00 0.  1.
</event>
<event>
 4    1  0.1822260E+004  0.2060402E+02  0.7546771E-02  0.1524994E+00
         21   -1    0    0  501  502  0.00000000000E+00  0.00000000000E+00  0.34078797769E+02  0.34078797769E+02  0.00000000000E+00 0.  1.
         21   -1    0    0  502  503 -0.00000000000E+00 -0.00000000000E+00 -0.13415199624E+02  0.13415199624E+02  0.00000000000E+00 0. -1.
          2    1    1    2  501    0 -0.83993250885E+00  0.20586895203E+02  0.16677757315E+02  0.26507986151E+02  0.00000000000E+00 0.  1.
         -2    1    1    2    0  503  0.83993250885E+00 -0.20586895203E+02  0.39858408299E+01  0.20986011242E+02  0.00000000000E+00 0. -1.
</event>
<event>
 4    1  0.1822260E+004  0.2258884E+02  0.7546771E-02  0.1497727E+00
         21   -1    0    0  501  502  0.00000000000E+00  0.00000000000E+00  0.44550041367E+02  0.44550041367E+02  0.00000000000E+00 0. -1.
         21   -1    0    0  502  503 -0.00000000000E+00 -0.00000000000E+00 -0.13319690083E+02  0.13319690083E+02  0.00000000000E+00 0.  1.
          2    1    1    2  501    0  0.78546454050E+01  0.21179238968E+02  0.26445659526E+02  0.34779714281E+02  0.00000000000E+00 0.  1.
         -2    1    1    2    0  503 -0.78546454050E+01 -0.21179238968E+02  0.47846917578E+01  0.23090017170E+02  0.00000000000E+00 0. -1.
</event>
<event>
 4    1  0.1822260E+004  0.5772729E+02  0.7546771E-02  0.1267756E+00
         21   -1    0    0  501  502  0.00000000000E+00  0.00000000000E+00  0.61299739770E+02  0.61299739770E+02  0.00000000000E+00 0.  1.
         21   -1    0    0  502  503 -0.00000000000E+00 -0.00000000000E+00 -0.11958956012E+03  0.11958956012E+03  0.00000000000E+00 0. -1.
          2    1    1    2  501    0 -0.38103635922E+02  0.43365349222E+02  0.37650763149E+02  0.68920392840E+02  0.00000000000E+00 0.  1.
         -2    1    1    2    0  503  0.38103635922E+02 -0.43365349222E+02 -0.95940583497E+02  0.11196890705E+03  0.00000000000E+00 0. -1.
</event>
<event>
 4    1  0.1822260E+004  0.3929463E+02  0.7546771E-02  0.1352670E+00
         21   -1    0    0  503  502  0.00000000000E+00  0.00000000000E+00  0.10846160566E+04  0.10846160566E+04  0.00000000000E+00 0. -1.
         21   -1    0    0  501  503 -0.00000000000E+00 -0.00000000000E+00 -0.15187033411E+01  0.15187033411E+01  0.00000000000E+00 0.  1.
          2    1    1    2  501    0  0.58691165316E+01  0.38853848830E+02  0.40565574820E+03  0.40755447997E+03  0.00000000000E+00 0. -1.
         -2    1    1    2    0  502 -0.58691165316E+01 -0.38853848830E+02  0.67744160503E+03  0.67858027994E+03  0.00000000000E+00 0.  1.
</event>
<event>
 4    1  0.1822260E+004  0.2270555E+02  0.7546771E-02  0.1496229E+00
         21   -1    0    0  501  502  0.00000000000E+00  0.00000000000E+00  0.48246773145E+02  0.48246773145E+02  0.00000000000E+00 0.  1.
         21   -1    0    0  502  503 -0.00000000000E+00 -0.00000000000E+00 -0.14713357403E+02  0.14713357403E+02  0.00000000000E+00 0. -1.
          2    1    1    2  501    0  0.21606959177E+02  0.69772139502E+01  0.33237531517E+02  0.40252648369E+02  0.00000000000E+00 0.  1.
         -2    1    1    2    0  503 -0.21606959177E+02 -0.69772139502E+01  0.29588422541E+00  0.22707482178E+02  0.00000000000E+00 0. -1.
</event>
<event>
 4    1  0.1822260E+004  0.2433570E+02  0.7546771E-02  0.1476374E+00
         21   -1    0    0  501  502  0.00000000000E+00  0.00000000000E+00  0.19431924780E+03  0.19431924780E+03  0.00000000000E+00 0. -1.
         21   -1    0    0  502  503 -0.00000000000E+00 -0.00000000000E+00 -0.30673825515E+01  0.30673825515E+01  0.00000000000E+00 0.  1.
          2    1    1    2  501    0 -0.18837018481E+02 -0.15407561504E+02  0.10353228120E+03  0.10635393489E+03  0.00000000000E+00 0. -1.
         -2    1    1    2    0  503  0.18837018481E+02  0.15407561504E+02  0.87719584050E+02  0.91032695460E+02  0.00000000000E+00 0.  1.
</event>
<event>
 4    1  0.1822260E+004  0.2031868E+02  0.7546771E-02  0.1529219E+00
         21   -1    0    0  501  502  0.00000000000E+00  0.00000000000E+00  0.42847516726E+02  0.42847516726E+02  0.00000000000E+00 0. -1.
         21   -1    0    0  502  503 -0.00000000000E+00 -0.00000000000E+00 -0.30610393078E+02  0.30610393078E+02  0.00000000000E+00 0.  1.
          2    1    1    2  501    0  0.19809045633E+02 -0.45222355644E+01  0.36522231928E+02  0.41793807297E+02  0.00000000000E+00 0. -1.
         -2    1    1    2    0  503 -0.19809045633E+02  0.45222355644E+01 -0.24285108280E+02  0.31664102507E+02  0.00000000000E+00 0.  1.
</event>
<event>
 4    1  0.1822260E+004  0.2310761E+02  0.7546771E-02  0.1491151E+00
         21   -1    0    0  503  502  0.00000000000E+00  0.00000000000E+00  0.64447130796E+02  0.64447130796E+02  0.00000000000E+00 0. -1.
         21   -1    0    0  501  503 -0.00000000000E+00 -0.00000000000E+00 -0.12378826127E+02  0.12378826127E+02  0.00000000000E+00 0.  1.
          2    1    1    2  501    0 -0.16388338372E+02 -0.16290612311E+02  0.39445047736E+01  0.23441860037E+02  0.00000000000E+00 0.  1.
         -2    1    1    2    0  502  0.16388338372E+02  0.16290612311E+02  0.48123799895E+02  0.53384096887E+02  0.00000000000E+00 0. -1.
</event>
<event>
 4    1  0.1822260E+004  0.2363634E+02  0.7546771E-02  0.1484658E+00
         21   -1    0    0  503  502  0.00000000000E+00  0.00000000000E+00  0.98951598355E+01  0.98951598355E+01  0.00000000000E+00 0.  1.
         21   -1    0    0  501  503 -0.00000000000E+00 -0.00000000000E+00 -0.90345610358E+02  0.90345610358E+02  0.00000000000E+00 0. -1.
          2    1    1    2  501    0  0.16245829468E+02 -0.17168278468E+02 -0.70920469567E+02  0.74755533336E+02  0.00000000000E+00 0. -1.
         -2    1    1    2    0  502 -0.16245829468E+02  0.17168278468E+02 -0.95299809549E+01  0.25485236857E+02  0.00000000000E+00 0.  1.
</event>
<event>
 4    1  0.1822260E+004  0.2323343E+02  0.7546771E-02  0.1489588E+00
         21   -1    0    0  503  502  0.00000000000E+00  0.00000000000E+00  0.40144842661E+01  0.40144842661E+01  0.00000000000E+00 0. -1.
         21   -1    0    0  501  503 -0.00000000000E+00 -0.00000000000E+00 -0.16136070152E+03  0.16136070152E+03  0.00000000000E+00 0.  1.
          2    1    1    2  501    0  0.22738993592E+02  0.47676688705E+01 -0.11243395526E+03  0.11480934975E+03  0.00000000000E+00 0.  1.
         -2    1    1    2    0  502 -0.22738993592E+02 -0.47676688705E+01 -0.44912261998E+02  0.50565836034E+02  0.00000000000E+00 0. -1.
</event>
<event>
 4    1  0.1822260E+004  0.3644781E+02  0.7546771E-02  0.1370661E+00
         21   -1    0    0  501  502  0.00000000000E+00  0.00000000000E+00  0.66819603052E+02  0.66819603052E+02  0.00000000000E+00 0. -1.
         21   -1    0    0  502  503 -0.00000000000E+00 -0.00000000000E+00 -0.21958821886E+02  0.21958821886E+02  0.00000000000E+00 0.  1.
          2    1    1    2  501    0  0.36321798263E+02 -0.30281880074E+01  0.36084811612E+02  0.51288951839E+02  0.00000000000E+00 0. -1.
         -2    1    1    2    0  503 -0.36321798263E+02  0.30281880074E+01  0.87759695543E+01  0.37489473099E+02  0.00000000000E+00 0.  1.
</event>
<event>
 4    1  0.1822260E+004  0.2637246E+02  0.7546771E-02  0.1454016E+00
         21   -1    0    0  503  502  0.00000000000E+00  0.00000000000E+00  0.41254588526E+02  0.41254588526E+02  0.00000000000E+00 0.  1.
         21   -1    0    0  501  503 -0.00000000000E+00 -0.00000000000E+00 -0.20645894396E+02  0.20645894396E+02  0.00000000000E+00 0. -1.
          2    1    1    2  501    0 -0.25226505980E+02 -0.76896001097E+01 -0.29511225291E+01  0.26537062347E+02  0.00000000000E+00 0. -1.
         -2    1    1    2    0  502  0.25226505980E+02  0.76896001097E+01  0.23559816658E+02  0.35363420575E+02  0.00000000000E+00 0.  1.
</event>
<event>
 4    1  0.1822260E+004  0.3571498E+02  0.7546771E-02  0.1375605E+00
         21   -1    0    0  503  502  0.00000000000E+00  0.00000000000E+00  0.38644125455E+02  0.38644125455E+02  0.00000000000E+00 0.  1.
         21   -1    0    0  501  503 -0.00000000000E+00 -0.00000000000E+00 -0.33008806942E+02  0.33008806942E+02  0.00000000000E+00 0. -1.
          2    1    1    2  501    0  0.35412220452E+02  0.46405550618E+01  0.30089556281E+01  0.35841511165E+02  0.00000000000E+00 0. -1.
         -2    1    1    2    0  502 -0.35412220452E+02 -0.46405550618E+01  0.26263628842E+01  0.35811421232E+02  0.00000000000E+00 0.  1.
</event>
<event>
 4    1  0.1822260E+004  0.2079135E+02  0.7546771E-02  0.1522265E+00
         21   -1    0    0  503  502  0.00000000000E+00  0.00000000000E+00  0.54459232513E+02  0.54459232513E+02  0.00000000000E+00 0.  1.
         21   -1    0    0  501  503 -0.00000000000E+00 -0.00000000000E+00 -0.83798889820E+01  0.83798889820E+01  0.00000000000E+00 0. -1.
          2    1    1    2  501    0  0.16731541085E+02 -0.12342440741E+02  0.15822091827E+02  0.26126976486E+02  0.00000000000E+00 0. -1.
         -2    1    1    2    0  502 -0.16731541085E+02  0.12342440741E+02  0.30257251704E+02  0.36712145009E+02  0.00000000000E+00 0.  1.
</event>
<event>
 4    1  0.1822260E+004  0.2663400E+02  0.7546771E-02  0.1451320E+00
         21   -1    0    0  503  502  0.00000000000E+00  0.00000000000E+00  0.37814185281E+01  0.37814185281E+01  0.00000000000E+00 0.  1.
         21   -1    0    0  501  503 -0.00000000000E+00 -0.00000000000E+00 -0.21770904904E+03  0.21770904904E+03  0.00000000000E+00 0. -1.
          2    1    1    2  501    0  0.25992705227E+02  0.58094110445E+01 -0.65774805796E+02  0.70962631428E+02  0.00000000000E+00 0.  1.
         -2    1    1    2    0  502 -0.25992705227E+02 -0.58094110445E+01 -0.14815282472E+03  0.15052783614E+03  0.00000000000E+00 0. -1.
</event>
<event>
 4    1  0.1822260E+004  0.2243528E+02  0.7546771E-02  0.1499714E+00
         21   -1    0    0  501  502  0.00000000000E+00  0.00000000000E+00  0.22292972622E+02  0.22292972622E+02  0.00000000000E+00 0. -1.
         21   -1    0    0  502  503 -0.00000000000E+00 -0.00000000000E+00 -0.34374778644E+02  0.34374778644E+02  0.00000000000E+00 0.  1.
          2    1    1    2  501    0 -0.22423586381E+02  0.72440227303E+00  0.10557199974E+02  0.24795089355E+02  0.00000000000E+00 0. -1.
         -2    1    1    2    0  503  0.22423586381E+02 -0.72440227303E+00 -0.22639005996E+02  0.31872661911E+02  0.00000000000E+00 0.  1.
</event>
<event>
 4    1  0.1822260E+004  0.2102025E+02  0.7546771E-02  0.1518976E+00
         21   -1    0    0  501  502  0.00000000000E+00  0.00000000000E+00  0.12093757703E+03  0.12093757703E+03  0.00000000000E+00 0. -1.
         21   -1    0    0  502  503 -0.00000000000E+00 -0.00000000000E+00 -0.37916050252E+01  0.37916050252E+01  0.00000000000E+00 0.  1.
          2    1    1    2  501    0 -0.36233188313E+01  0.20705617495E+02  0.46672670170E+02  0.51187783464E+02  0.00000000000E+00 0.  1.
         -2    1    1    2    0  503  0.36233188313E+01 -0.20705617495E+02  0.70473301831E+02  0.73541398587E+02  0.00000000000E+00 0. -1.
</event>
<event>
 4    1  0.1822260E+004  0.2712971E+02  0.7546771E-02  0.1446310E+00
         21   -1    0    0  503  502  0.00000000000E+00  0.00000000000E+00  0.12780498559E+03  0.12780498559E+03  0.00000000000E+00 0.  1.
         21   -1    0    0  501  503 -0.00000000000E+00 -0.00000000000E+00 -0.94664405601E+01  0.94664405601E+01  0.00000000000E+00 0. -1.
          2    1    1    2  501    0 -0.14484994020E+01 -0.27091009726E+02  0.16215873413E+02  0.31606573826E+02  0.00000000000E+00 0. -1.
         -2    1    1    2    0  502  0.14484994020E+01  0.27091009726E+02  0.10212267161E+03  0.10566485232E+03  0.00000000000E+00 0.  1.
</event>
<event>
 4    1  0.1822260E+004  0.2832090E+02  0.7546771E-02  0.1434772E+00
         21   -1    0    0  501  502  0.00000000000E+00  0.00000000000E+00  0.61077016243E+03  0.61077016243E+03  0.00000000000E+00 0.  1.
         21   -1    0    0  502  503 -0.00000000000E+00 -0.00000000000E+00 -0.19174256393E+01  0.19174256393E+01  0.00000000000E+00 0. -1.
          2    1    1    2  501    0 -0.27776487008E+02 -0.55263092268E+01  0.47639274621E+03  0.47723382315E+03  0.00000000000E+00 0.  1.
         -2    1    1    2    0  503  0.27776487008E+02  0.55263092268E+01  0.13245999059E+03  0.13545376492E+03  0.00000000000E+00 0. -1.
</event>
<event>
 4    1  0.1822260E+004  0.2203692E+02  0.7546771E-02  0.1504959E+00
         21   -1    0    0  501  502  0.00000000000E+00  0.00000000000E+00  0.18956885484E+02  0.18956885484E+02  0.00000000000E+00 0.  1.
         21   -1    0    0  502  503 -0.00000000000E+00 -0.00000000000E+00 -0.56169314771E+02  0.56169314771E+02  0.00000000000E+00 0. -1.
          2    1    1    2  501    0  0.39656046643E+01  0.21677176929E+02  0.90970607159E+01  0.23840774602E+02  0.00000000000E+00 0.  1.
         -2    1    1    2    0  503 -0.39656046643E+01 -0.21677176929E+02 -0.46309490003E+02  0.51285425652E+02  0.00000000000E+00 0. -1.
</event>
<event>
 4    1  0.1822260E+004  0.2261355E+02  0.7546771E-02  0.1497409E+00
         21   -1    0    0  501  502  0.00000000000E+00  0.00000000000E+00  0.45196496674E+03  0.45196496674E+03  0.00000000000E+00 0. -1.
         21   -1    0    0  502  503 -0.00000000000E+00 -0.00000000000E+00 -0.20198273650E+01  0.20198273650E+01  0.00000000000E+00 0.  1.
          2    1    1    2  501    0 -0.22105768910E+02  0.47652621549E+01  0.37551348776E+03  0.37619376953E+03  0.00000000000E+00 0. -1.
         -2    1    1    2    0  503  0.22105768910E+02 -0.47652621549E+01  0.74431651612E+02  0.77791024573E+02  0.00000000000E+00 0.  1.
</event>
<event>
 4    1  0.1822260E+004  0.2797103E+02  0.7546771E-02  0.1438090E+00
         21   -1    0    0  501  502  0.00000000000E+00  0.00000000000E+00  0.53174097179E+02  0.53174097179E+02  0.00000000000E+00 0. -1.
         21   -1    0    0  502  503 -0.00000000000E+00 -0.00000000000E+00 -0.38284095661E+02  0.38284095661E+02  0.00000000000E+00 0.  1.
          2    1    1    2  501    0 -0.26289093358E+02 -0.95531087303E+01  0.43326327105E+02  0.51570814774E+02  0.00000000000E+00 0. -1.
         -2    1    1    2    0  503  0.26289093358E+02  0.95531087303E+01 -0.28436325588E+02  0.39887378066E+02  0.00000000000E+00 0.  1.
</event>
<event>
 4    1  0.1822260E+004  0.3828710E+02  0.7546771E-02  0.1358827E+00
         21   -1    0    0  501  502  0.00000000000E+00  0.00000000000E+00  0.16042355976E+04  0.16042355976E+04  0.00000000000E+00 0.  1.
         21   -1    0    0  502  503 -0.00000000000E+00 -0.00000000000E+00 -0.13909998316E+01  0.13909998316E+01  0.00000000000E+00 0. -1.
          2    1    1    2  501    0 -0.13984448970E+02  0.35641794751E+02  0.12716571524E+04  0.12722333967E+04  0.00000000000E+00 0.  1.
         -2    1    1    2    0  503  0.13984448970E+02 -0.35641794751E+02  0.33118744537E+03  0.33339320076E+03  0.00000000000E+00 0. -1.
</event>
<event>
 4    1  0.1822260E+004  0.2228116E+02  0.7546771E-02  0.1501727E+00
         21   -1    0    0  501  502  0.00000000000E+00  0.00000000000E+00  0.14598813843E+03  0.14598813843E+03  0.00000000000E+00 0. -1.
         21   -1    0    0  502  503 -0.00000000000E+00 -0.00000000000E+00 -0.58885571625E+01  0.58885571625E+01  0.00000000000E+00 0.  1.
          2    1    1    2  501    0  0.19178058079E+02 -0.11342486501E+02  0.11940995103E+03  0.12147092786E+03  0.00000000000E+00 0. -1.
         -2    1    1    2    0  503 -0.19178058079E+02  0.11342486501E+02  0.20689630242E+02  0.30405767730E+02  0.00000000000E+00 0.  1.
</event>
<event>
 4    1  0.1822260E+004  0.3868470E+02  0.7546771E-02  0.1356371E+00
         21   -1    0    0  501  502  0.00000000000E+00  0.00000000000E+00  0.10769622294E+02  0.10769622294E+02  0.00000000000E+00 0. -1.
         21   -1    0    0  502  503 -0.00000000000E+00 -0.00000000000E+00 -0.76439529122E+03  0.76439529122E+03  0.00000000000E+00 0.  1.
          2    1    1    2  501    0 -0.88283377301E+01  0.37663863312E+02 -0.26224380525E+02  0.46735685301E+02  0.00000000000E+00 0. -1.
         -2    1    1    2    0  503  0.88283377301E+01 -0.37663863312E+02 -0.72740128840E+03  0.72842922821E+03  0.00000000000E+00 0.  1.
</event>
<event>
 4    1  0.1822260E+004  0.2059456E+02  0.7546771E-02  0.1525133E+00
         21   -1    0    0  503  502  0.00000000000E+00  0.00000000000E+00  0.17489675924E+03  0.17489675924E+03  0.00000000000E+00 0.  1.
         21   -1    0    0  501  503 -0.00000000000E+00 -0.00000000000E+00 -0.24963151991E+01  0.24963151991E+01  0.00000000000E+00 0. -1.
          2    1    1    2  501    0 -0.10046906602E+02  0.17977635940E+02  0.10118515932E+03  0.10325973171E+03  0.00000000000E+00 0.  1.
         -2    1    1    2    0  502  0.10046906602E+02 -0.17977635940E+02  0.71215284717E+02  0.74133342725E+02  0.00000000000E+00 0. -1.
</event>
<event>
 4    1  0.1822260E+004  0.4314518E+02  0.7546771E-02  0.1330979E+00
         21   -1    0    0  503  502  0.00000000000E+00  0.00000000000E+00  0.96175365410E+02  0.96175365410E+02  0.00000000000E+00 0.  1.
         21   -1    0    0  501  503 -0.00000000000E+00 -0.00000000000E+00 -0.23258759529E+02  0.23258759529E+02  0.00000000000E+00 0. -1.
          2    1    1    2  501    0 -0.26429709363E+02  0.34102450797E+02  0.11994278688E+02  0.44781351126E+02  0.00000000000E+00 0. -1.
         -2    1    1    2    0  502  0.26429709363E+02 -0.34102450797E+02  0.60922327193E+02  0.74652773813E+02  0.00000000000E+00 0.  1.
</event>
<event>
 4    1  0.1822260E+004  0.2106096E+02  0.7546771E-02  0.1518396E+00
         21   -1    0    0  501  502  0.00000000000E+00  0.00000000000E+00  0.28883089478E+02  0.28883089478E+02  0.00000000000E+00 0.  1.
         21   -1    0    0  502  503 -0.00000000000E+00 -0.00000000000E+00 -0.22937829561E+02  0.22937829561E+02  0.00000000000E+00 0. -1.
          2    1    1    2  501    0 -0.34375657393E+01  0.20778527713E+02  0.17867986639E+02  0.27619359490E+02  0.00000000000E+00 0.  1.
         -2    1    1    2    0  503  0.34375657393E+01 -0.20778527713E+02 -0.11922726721E+02  0.24201559549E+02  0.00000000000E+00 0. -1.
</event>
<event>
 4    1  0.1822260E+004  0.2906688E+02  0.7546771E-02  0.1427882E+00
         21   -1    0    0  503  502  0.00000000000E+00  0.00000000000E+00  0.25746330420E+02  0.25746330420E+02  0.00000000000E+00 0.  1.
         21   -1    0    0  501  503 -0.00000000000E+00 -0.00000000000E+00 -0.89928067283E+02  0.89928067283E+02  0.00000000000E+00 0. -1.
          2    1    1    2  501    0 -0.13462619780E+01  0.29035683890E+02 -0.78182785877E+02  0.83411218477E+02  0.00000000000E+00 0. -1.
         -2    1    1    2    0  502  0.13462619780E+01 -0.29035683890E+02  0.14001049015E+02  0.32263179226E+02  0.00000000000E+00 0.  1.
</event>
<event>
 4    1  0.1822260E+004  0.2546612E+02  0.7546771E-02  0.1463656E+00
         21   -1    0    0  501  502  0.00000000000E+00  0.00000000000E+00  0.78650331716E+01  0.78650331716E+01  0.00000000000E+00 0. -1.
         21   -1    0    0  502  503 -0.00000000000E+00 -0.00000000000E+00 -0.89411883052E+02  0.89411883052E+02  0.00000000000E+00 0.  1.
          2    1    1    2  501    0  0.18095169212E+02  0.17918926159E+02 -0.27207703962E+02  0.37266368463E+02  0.00000000000E+00 0. -1.
         -2    1    1    2    0  503 -0.18095169212E+02 -0.17918926159E+02 -0.54339145918E+02  0.60010547761E+02  0.00000000000E+00 0.  1.
</event>
<event>
 4    1  0.1822260E+004  0.2137787E+02  0.7546771E-02  0.1513938E+00
         21   -1    0    0  501  502  0.00000000000E+00  0.00000000000E+00  0.12542400052E+03  0.12542400052E+03  0.00000000000E+00 0. -1.
         21   -1    0    0  502  503 -0.00000000000E+00 -0.00000000000E+00 -0.46342698153E+01  0.46342698153E+01  0.00000000000E+00 0.  1.
          2    1    1    2  501    0 -0.15695366637E+02 -0.14514438224E+02  0.90459043992E+02  0.92950804680E+02  0.00000000000E+00 0. -1.
         -2    1    1    2    0  503  0.15695366637E+02  0.14514438224E+02  0.30330686709E+02  0.37107465651E+02  0.00000000000E+00 0.  1.
</event>
<event>
 4    1  0.1822260E+004  0.2931509E+02  0.7546771E-02  0.1425643E+00
         21   -1    0    0  503  502  0.00000000000E+00  0.00000000000E+00  0.17181681149E+02  0.17181681149E+02  0.00000000000E+00 0. -1.
         21   -1    0    0  501  503 -0.00000000000E+00 -0.00000000000E+00 -0.10054255612E+03  0.10054255612E+03  0.00000000000E+00 0.  1.
          2    1    1    2  501    0 -0.20473707549E+02  0.20980982177E+02 -0.83407415981E+02  0.88409113526E+02  0.00000000000E+00 0.  1.
         -2    1    1    2    0  502  0.20473707549E+02 -0.20980982177E+02  0.46541010117E-01  0.29315123742E+02  0.00000000000E+00 0. -1.
</event>
<event>
 4    1  0.1822260E+004  0.2311019E+02  0.7546771E-02  0.1491119E+00
         21   -1    0    0  501  502  0.00000000000E+00  0.00000000000E+00  0.14064759158E+02  0.14064759158E+02  0.00000000000E+00 0. -1.
         21   -1    0    0  502  503 -0.00000000000E+00 -0.00000000000E+00 -0.12238278763E+03  0.12238278763E+03  0.00000000000E+00 0.  1.
          2    1    1    2  501    0 -0.21074970304E+02 -0.94829588311E+01  0.25003907193E+01  0.23245060448E+02  0.00000000000E+00 0. -1.
         -2    1    1    2    0  503  0.21074970304E+02  0.94829588311E+01 -0.11081841919E+03  0.11320248634E+03  0.00000000000E+00 0.  1.
</event>
<event>
 4    1  0.1822260E+004  0.2985386E+02  0.7546771E-02  0.1420871E+00
         21   -1    0    0  503  502  0.00000000000E+00  0.00000000000E+00  0.41143638382E+02  0.41143638382E+02  0.00000000000E+00 0. -1.
         21   -1    0    0  501  503 -0.00000000000E+00 -0.00000000000E+00 -0.39384779428E+02  0.39384779428E+02  0.00000000000E+00 0.  1.
          2    1    1    2  501    0 -0.19603373992E+02 -0.22515789878E+02 -0.26130347977E+02  0.39674275684E+02  0.00000000000E+00 0.  1.
         -2    1    1    2    0  502  0.19603373992E+02  0.22515789878E+02  0.27889206930E+02  0.40854142126E+02  0.00000000000E+00 0. -1.
</event>
<event>
 4    1  0.1822260E+004  0.2298368E+02  0.7546771E-02  0.1492703E+00
         21   -1    0    0  503  502  0.00000000000E+00  0.00000000000E+00  0.18920498786E+02  0.18920498786E+02  0.00000000000E+00 0. -1.
         21   -1    0    0  501  503 -0.00000000000E+00 -0.00000000000E+00 -0.30260740643E+02  0.30260740643E+02  0.00000000000E+00 0.  1.
          2    1    1    2  501    0 -0.13593591837E+02  0.18532780303E+02  0.11699170587E+01  0.23013439350E+02  0.00000000000E+00 0. -1.
         -2    1    1    2    0  502  0.13593591837E+02 -0.18532780303E+02 -0.12510158916E+02  0.26167800078E+02  0.00000000000E+00 0.  1.
</event>
<event>
 4    1  0.1822260E+004  0.2819398E+02  0.7546771E-02  0.1435969E+00
         21   -1    0    0  503  502  0.00000000000E+00  0.00000000000E+00  0.24464418616E+03  0.24464418616E+03  0.00000000000E+00 0.  1.
         21   -1    0    0  501  503 -0.00000000000E+00 -0.00000000000E+00 -0.32701569818E+01  0.32701569818E+01  0.00000000000E+00 0. -1.
          2    1    1    2  501    0  0.27547285236E+02  0.60039792693E+01  0.11076652627E+03  0.11429839908E+03  0.00000000000E+00 0. -1.
         -2    1    1    2    0  502 -0.27547285236E+02 -0.60039792693E+01  0.13060750291E+03  0.13361594406E+03  0.00000000000E+00 0.  1.
</event>
<event>
 4    1  0.1822260E+004  0.2288774E+02  0.7546771E-02  0.1493913E+00
         21   -1    0    0  501  502  0.00000000000E+00  0.00000000000E+00  0.13820056050E+02  0.13820056050E+02  0.00000000000E+00 0.  1.
         21   -1    0    0  502  503 -0.00000000000E+00 -0.00000000000E+00 -0.65082403613E+02  0.65082403613E+02  0.00000000000E+00 0. -1.
          2    1    1    2  501    0  0.37609399244E+01 -0.22576622930E+02 -0.51124888031E+02  0.56014308424E+02  0.00000000000E+00 0.  1.
         -2    1    1    2    0  503 -0.37609399244E+01  0.22576622930E+02 -0.13745953210E+00  0.22888151240E+02  0.00000000000E+00 0. -1.
</event>
<event>
 4    1  0.1822260E+004  0.2356835E+02  0.7546771E-02  0.1485482E+00
         21   -1    0    0  503  502  0.00000000000E+00  0.00000000000E+00  0.32730373913E+02  0.32730373913E+02  0.00000000000E+00 0. -1.
         21   -1    0    0  501  503 -0.00000000000E+00 -0.00000000000E+00 -0.24904187947E+02  0.24904187947E+02  0.00000000000E+00 0.  1.
          2    1    1    2  501    0  0.21389105260E+02  0.98981347927E+01 -0.12351414368E+02  0.26608726634E+02  0.00000000000E+00 0.  1.
         -2    1    1    2    0  502 -0.21389105260E+02 -0.98981347927E+01  0.20177600334E+02  0.31025835226E+02  0.00000000000E+00 0. -1.
</event>
<event>
 4    1  0.1822260E+004  0.2212715E+02  0.7546771E-02  0.1503759E+00
         21   -1    0    0  503  502  0.00000000000E+00  0.00000000000E+00  0.36980460638E+02  0.36980460638E+02  0.00000000000E+00 0.  1.
         21   -1    0    0  501  503 -0.00000000000E+00 -0.00000000000E+00 -0.18279139929E+02  0.18279139929E+02  0.00000000000E+00 0. -1.
          2    1    1    2  501    0 -0.13200027645E+02 -0.17758661579E+02  0.23858084896E+02  0.32539499164E+02  0.00000000000E+00 0.  1.
         -2    1    1    2    0  502  0.13200027645E+02  0.17758661579E+02 -0.51567641874E+01  0.22720101404E+02  0.00000000000E+00 0. -1.
</event>
<event>
 4    1  0.1822260E+004  0.2390731E+02  0.7546771E-02  0.1481409E+00
         21   -1    0    0  501  502  0.00000000000E+00  0.00000000000E+00  0.17267211438E+01  0.17267211438E+01  0.00000000000E+00 0. -1.
         21   -1    0    0  502  503 -0.00000000000E+00 -0.00000000000E+00 -0.33309719422E+03  0.33309719422E+03  0.00000000000E+00 0.  1.
          2    1    1    2  501    0  0.10858843657E+02  0.21298947297E+02 -0.17894153932E+03  0.18053153224E+03  0.00000000000E+00 0.  1.
         -2    1    1    2    0  503 -0.10858843657E+02 -0.21298947297E+02 -0.15242893376E+03  0.15429238312E+03  0.00000000000E+00 0. -1.
</event>
<event>
 4    1  0.1822260E+004  0.2110975E+02  0.7546771E-02  0.1517704E+00
         21   -1    0    0  501  502  0.00000000000E+00  0.00000000000E+00  0.57008849025E+02  0.57008849025E+02  0.00000000000E+00 0. -1.
         21   -1    0    0  502  503 -0.00000000000E+00 -0.00000000000E+00 -0.78618150549E+01  0.78618150549E+01  0.00000000000E+00 0.  1.
          2    1    1    2  501    0  0.20679029098E+02 -0.42425759803E+01  0.22116744788E+02  0.30574042838E+02  0.00000000000E+00 0.  1.
         -2    1    1    2    0  503 -0.20679029098E+02  0.42425759803E+01  0.27030289182E+02  0.34296621242E+02  0.00000000000E+00 0. -1.
</event>
<event>
 4    1  0.1822260E+004  0.3072586E+02  0.7546771E-02  0.1413391E+00
         21   -1    0    0  503  502  0.00000000000E+00  0.00000000000E+00  0.40883601143E+03  0.40883601143E+03  0.00000000000E+00 0. -1.
         21   -1    0    0  501  503 -0.00000000000E+00 -0.00000000000E+00 -0.26782388882E+01  0.26782388882E+01  0.00000000000E+00 0.  1.
          2    1    1    2  501    0 -0.30000871215E+02  0.66352445114E+01  0.12669987560E+03  0.13037230235E+03  0.00000000000E+00 0. -1.
         -2    1    1    2    0  502  0.30000871215E+02 -0.66352445114E+01  0.27945789695E+03  0.28114194797E+03  0.00000000000E+00 0.  1.
</event>
<event>
 4    1  0.1822260E+004  0.2778632E+02  0.7546771E-02  0.1439865E+00
         21   -1    0    0  501  502  0.00000000000E+00  0.00000000000E+00  0.11780528290E+02  0.11780528290E+02  0.00000000000E+00 0. -1.
         21   -1    0    0  502  503 -0.00000000000E+00 -0.00000000000E+00 -0.77824707417E+02  0.77824707417E+02  0.00000000000E+00 0.  1.
          2    1    1    2  501    0  0.27338200379E+02  0.49701378621E+01 -0.50823384187E+02  0.57923189230E+02  0.00000000000E+00 0.  1.
         -2    1    1    2    0  503 -0.27338200379E+02 -0.49701378621E+01 -0.15220794940E+02  0.31682046476E+02  0.00000000000E+00 0. -1.
</event>
<event>
 4    1  0.1822260E+004  0.2772427E+02  0.7546771E-02  0.1440465E+00
         21   -1    0    0  503  502  0.00000000000E+00  0.00000000000E+00  0.77567095782E+03  0.77567095782E+03  0.00000000000E+00 0.  1.
         21   -1    0    0  501  503 -0.00000000000E+00 -0.00000000000E+00 -0.33884285012E+01  0.33884285012E+01  0.00000000000E+00 0. -1.
          2    1    1    2  501    0  0.25271038862E+02 -0.11402173848E+02  0.58483356994E+02  0.64722005678E+02  0.00000000000E+00 0. -1.
         -2    1    1    2    0  502 -0.25271038862E+02  0.11402173848E+02  0.71379917232E+03  0.71433738064E+03  0.00000000000E+00 0.  1.
</event>
<event>
 4    1  0.1822260E+004  0.2945170E+02  0.7546771E-02  0.1424422E+00
         21   -1    0    0  501  502  0.00000000000E+00  0.00000000000E+00  0.18178869212E+04  0.18178869212E+04  0.00000000000E+00 0. -1.
         21   -1    0    0  502  503 -0.00000000000E+00 -0.00000000000E+00 -0.12808942228E+01  0.12808942228E+01  0.00000000000E+00 0.  1.
          2    1    1    2  501    0  0.15399212597E+02 -0.25105112240E+02  0.16288219743E+04  0.16290882194E+04  0.00000000000E+00 0. -1.
         -2    1    1    2    0  503 -0.15399212597E+02  0.25105112240E+02  0.18778405261E+03  0.19007959602E+03  0.00000000000E+00 0.  1.
</event>
<event>
 4    1  0.1822260E+004  0.2184717E+02  0.7546771E-02  0.1507505E+00
         21   -1    0    0  503  502  0.00000000000E+00  0.00000000000E+00  0.25397444163E+03  0.25397444163E+03  0.00000000000E+00 0.  1.
         21   -1    0    0  501  503 -0.00000000000E+00 -0.00000000000E+00 -0.28823958873E+01  0.28823958873E+01  0.00000000000E+00 0. -1.
          2    1    1    2  501    0 -0.81419509432E+01  0.20273316404E+02  0.20130806339E+03  0.20249008644E+03  0.00000000000E+00 0.  1.
         -2    1    1    2    0  502  0.81419509432E+01 -0.20273316404E+02  0.49783982357E+02  0.54366751075E+02  0.00000000000E+00 0. -1.
</event>
<event>
 4    1  0.1822260E+004  0.4288741E+02  0.7546771E-02  0.1332349E+00
         21   -1    0    0  503  502  0.00000000000E+00  0.00000000000E+00  0.30014576887E+03  0.30014576887E+03  0.00000000000E+00 0. -1.
         21   -1    0    0  501  503 -0.00000000000E+00 -0.00000000000E+00 -0.84576283303E+01  0.84576283303E+01  0.00000000000E+00 0.  1.
          2    1    1    2  501    0  0.34705755607E+02  0.25196033849E+02  0.64863944290E+02  0.77760278182E+02  0.00000000000E+00 0.  1.
         -2    1    1    2    0  502 -0.34705755607E+02 -0.25196033849E+02  0.22682419625E+03  0.23084311901E+03  0.00000000000E+00 0. -1.
</event>
<event>
 4    1  0.1822260E+004  0.2419197E+02  0.7546771E-02  0.1478049E+00
         21   -1    0    0  503  502  0.00000000000E+00  0.00000000000E+00  0.82863840597E+01  0.82863840597E+01  0.00000000000E+00 0. -1.
         21   -1    0    0  501  503 -0.00000000000E+00 -0.00000000000E+00 -0.97128154114E+02  0.97128154114E+02  0.00000000000E+00 0.  1.
          2    1    1    2  501    0 -0.21736203532E+02 -0.10620201024E+02 -0.71951865090E+02  0.75909960504E+02  0.00000000000E+00 0.  1.
         -2    1    1    2    0  502  0.21736203532E+02  0.10620201024E+02 -0.16889904965E+02  0.29504577670E+02  0.00000000000E+00 0. -1.
</event>
<event>
 4    1  0.1822260E+004  0.2155069E+02  0.7546771E-02  0.1511546E+00
         21   -1    0    0  501  502  0.00000000000E+00  0.00000000000E+00  0.12947123932E+01  0.12947123932E+01  0.00000000000E+00 0.  1.
         21   -1    0    0  502  503 -0.00000000000E+00 -0.00000000000E+00 -0.57177019889E+03  0.57177019889E+03  0.00000000000E+00 0. -1.
          2    1    1    2  501    0  0.96026982342E+01  0.19293017870E+02 -0.11032983334E+03  0.11241487658E+03  0.00000000000E+00 0. -1.
         -2    1    1    2    0  503 -0.96026982342E+01 -0.19293017870E+02 -0.46014565316E+03  0.46065003470E+03  0.00000000000E+00 0.  1.
</event>
<event>
 4    1  0.1822260E+004  0.2015080E+02  0.7546771E-02  0.1531743E+00
         21   -1    0    0  501  502  0.00000000000E+00  0.00000000000E+00  0.21401035792E+02  0.21401035792E+02  0.00000000000E+00 0. -1.
         21   -1    0    0  502  503 -0.00000000000E+00 -0.00000000000E+00 -0.19153095549E+02  0.19153095549E+02  0.00000000000E+00 0.  1.
          2    1    1    2  501    0 -0.19363079109E+02  0.55790652401E+01  0.30869068942E+01  0.20385872454E+02  0.00000000000E+00 0. -1.
         -2    1    1    2    0  503  0.19363079109E+02 -0.55790652401E+01 -0.83896665162E+00  0.20168258888E+02  0.00000000000E+00 0.  1.
</event>
<event>
 4    1  0.1822260E+004  0.2031208E+02  0.7546771E-02  0.1529317E+00
         21   -1    0    0  503  502  0.00000000000E+00  0.00000000000E+00  0.75386313685E+02  0.75386313685E+02  0.00000000000E+00 0.  1.
         21   -1    0    0  501  503 -0.00000000000E+00 -0.00000000000E+00 -0.14576593875E+02  0.14576593875E+02  0.00000000000E+00 0. -1.
          2    1    1    2  501    0 -0.12260052228E+02 -0.16194805316E+02 -0.51430973442E+01  0.20953091661E+02  0.00000000000E+00 0. -1.
         -2    1    1    2    0  502  0.12260052228E+02  0.16194805316E+02  0.65952817155E+02  0.69009815900E+02  0.00000000000E+00 0.  1.
</event>
<event>
 4    1  0.1822260E+004  0.2994173E+02  0.7546771E-02  0.1420104E+00
         21   -1    0    0  501  502  0.00000000000E+00  0.00000000000E+00  0.14602704931E+02  0.14602704931E+02  0.00000000000E+00 0.  1.
         21   -1    0    0  502  503 -0.00000000000E+00 -0.00000000000E+00 -0.81433222222E+02  0.81433222222E+02  0.00000000000E+00 0. -1.
          2    1    1    2  501    0  0.25994714303E+02 -0.14858730099E+02 -0.95947054133E+01  0.31441459950E+02  0.00000000000E+00 0.  1.
         -2    1    1    2    0  503 -0.25994714303E+02  0.14858730099E+02 -0.57235811878E+02  0.64594467202E+02  0.00000000000E+00 0. -1.
</event>
<event>
 4    1  0.1822260E+004  0.2306154E+02  0.7546771E-02  0.1491727E+00
         21   -1    0    0  503  502  0.00000000000E+00  0.00000000000E+00  0.31377488363E+01  0.31377488363E+01  0.00000000000E+00 0. -1.
         21   -1    0    0  501  503 -0.00000000000E+00 -0.00000000000E+00 -0.18258076106E+03  0.18258076106E+03  0.00000000000E+00 0.  1.
          2    1    1    2  501    0 -0.30004430115E+01  0.22865520085E+02 -0.64862315492E+02  0.68840065645E+02  0.00000000000E+00 0. -1.
         -2    1    1    2    0  502  0.30004430115E+01 -0.22865520085E+02 -0.11458069673E+03  0.11687844425E+03  0.00000000000E+00 0.  1.
</event>
<event>
 4    1  0.1822260E+004  0.2035057E+02  0.7546771E-02  0.1528742E+00
         21   -1    0    0  501  502  0.00000000000E+00  0.00000000000E+00  0.33704191469E+02  0.33704191469E+02  0.00000000000E+00 0. -1.
         21   -1    0    0  502  503 -0.00000000000E+00 -0.00000000000E+00 -0.18078917229E+02  0.18078917229E+02  0.00000000000E+00 0.  1.
          2    1    1    2  501    0  0.20295243287E+02 -0.14996122911E+01  0.22466706407E+02  0.30313340856E+02  0.00000000000E+00 0.  1.
         -2    1    1    2    0  503 -0.20295243287E+02  0.14996122911E+01 -0.68414321673E+01  0.21469767842E+02  0.00000000000E+00 0. -1.
</event>
<event>
 4    1  0.1822260E+004  0.2301285E+02  0.7546771E-02  0.1492337E+00
         21   -1    0    0  503  502  0.00000000000E+00  0.00000000000E+00  0.71381164625E+03  0.71381164625E+03  0.00000000000E+00 0. -1.
         21   -1    0    0  501  503 -0.00000000000E+00 -0.00000000000E+00 -0.78378296169E+00  0.78378296169E+00  0.00000000000E+00 0.  1.
          2    1    1    2  501    0 -0.16035398269E+02 -0.16506274776E+02  0.27393913047E+03  0.27490405291E+03  0.00000000000E+00 0. -1.
         -2    1    1    2    0  502  0.16035398269E+02  0.16506274776E+02  0.43908873282E+03  0.43969137630E+03  0.00000000000E+00 0.  1.
</event>
<event>
 4    1  0.1822260E+004  0.2276930E+02  0.7546771E-02  0.1495416E+00
         21   -1    0    0  501  502  0.00000000000E+00  0.00000000000E+00  0.30568573915E+03  0.30568573915E+03  0.00000000000E+00 0. -1.
         21   -1    0    0  502  503 -0.00000000000E+00 -0.00000000000E+00 -0.35979984837E+01  0.35979984837E+01  0.00000000000E+00 0.  1.
          2    1    1    2  501    0  0.10621458610E+02  0.20140147409E+02  0.26347911422E+03  0.26446112106E+03  0.00000000000E+00 0. -1.
         -2    1    1    2    0  503 -0.10621458610E+02 -0.20140147409E+02  0.38608626444E+02  0.44822616574E+02  0.00000000000E+00 0.  1.
</event>
<event>
 4    1  0.1822260E+004  0.2591239E+02  0.7546771E-02  0.1458850E+00
         21   -1    0    0  503  502  0.00000000000E+00  0.00000000000E+00  0.10725087789E+02  0.10725087789E+02  0.00000000000E+00 0.  1.
         21   -1    0    0  501  503 -0.00000000000E+00 -0.00000000000E+00 -0.17338983437E+03  0.17338983437E+03  0.00000000000E+00 0. -1.
          2    1    1    2  501    0 -0.23469028499E+02 -0.10984388591E+02 -0.15491679427E+03  0.15706898242E+03  0.00000000000E+00 0. -1.
         -2    1    1    2    0  502  0.23469028499E+02  0.10984388591E+02 -0.77479523135E+01  0.27045939741E+02  0.00000000000E+00 0.  1.
</event>
<event>
 4    1  0.1822260E+004  0.3058509E+02  0.7546771E-02  0.1414579E+00
         21   -1    0    0  503  502  0.00000000000E+00  0.00000000000E+00  0.43465424576E+03  0.43465424576E+03  0.00000000000E+00 0.  1.
         21   -1    0    0  501  503 -0.00000000000E+00 -0.00000000000E+00 -0.24569521685E+01  0.24569521685E+01  0.00000000000E+00 0. -1.
          2    1    1    2  501    0  0.28198905462E+02 -0.11843535216E+02  0.29307583131E+03  0.29466742354E+03  0.00000000000E+00 0. -1.
         -2    1    1    2    0  502 -0.28198905462E+02  0.11843535216E+02  0.13912146229E+03  0.14244377440E+03  0.00000000000E+00 0.  1.
</event>
<event>
 4    1  0.1822260E+004  0.4037824E+02  0.7546771E-02  0.1346284E+00
         21   -1    0    0  501  502  0.00000000000E+00  0.00000000000E+00  0.10847211991E+03  0.10847211991E+03  0.00000000000E+00 0. -1.
         21   -1    0    0  502  503 -0.00000000000E+00 -0.00000000000E+00 -0.21805328254E+02  0.21805328254E+02  0.00000000000E+00 0.  1.
          2    1    1    2  501    0 -0.38229460807E+02 -0.12996548429E+02  0.79641502876E+02  0.89292614056E+02  0.00000000000E+00 0. -1.
         -2    1    1    2    0  503  0.38229460807E+02  0.12996548429E+02  0.70252887851E+01  0.40984834112E+02  0.00000000000E+00 0.  1.
</event>
<event>
 4    1  0.1822260E+004  0.2333480E+02  0.7546771E-02  0.1488336E+00
         21   -1    0    0  503  502  0.00000000000E+00  0.00000000000E+00  0.21650820394E+01  0.21650820394E+01  0.00000000000E+00 0.  1.
         21   -1    0    0  501  503 -0.00000000000E+00 -0.00000000000E+00 -0.25634643995E+03  0.25634643995E+03  0.00000000000E+00 0. -1.
          2    1    1    2  501    0 -0.23033324060E+02  0.37388055878E+01 -0.14486775811E+03  0.14673506747E+03  0.00000000000E+00 0. -1.
         -2    1    1    2    0  502  0.23033324060E+02 -0.37388055878E+01 -0.10931359980E+03  0.11177645452E+03  0.00000000000E+00 0.  1.
</event>
<event>
 4    1  0.1822260E+004  0.2300230E+02  0.7546771E-02  0.1492469E+00
         21   -1    0    0  503  502  0.00000000000E+00  0.00000000000E+00  0.32000480430E+01  0.32000480430E+01  0.00000000000E+00 0. -1.
         21   -1    0    0  501  503 -0.00000000000E+00 -0.00000000000E+00 -0.11076857527E+04  0.11076857527E+04  0.00000000000E+00 0.  1.
          2    1    1    2  501    0 -0.14381367691E+02 -0.17952210997E+02 -0.10645560895E+04  0.10648045704E+04  0.00000000000E+00 0.  1.
         -2    1    1    2    0  502  0.14381367691E+02  0.17952210997E+02 -0.39929615164E+02  0.46081230273E+02  0.00000000000E+00 0. -1.
</event>
<event>
 4    1  0.1822260E+004  0.2033975E+02  0.7546771E-02  0.1528904E+00
         21   -1    0    0  503  502  0.00000000000E+00  0.00000000000E+00  0.83812714006E+01  0.83812714006E+01  0.00000000000E+00 0.  1.
         21   -1    0    0  501  503 -0.00000000000E+00 -0.00000000000E+00 -0.78753457251E+02  0.78753457251E+02  0.00000000000E+00 0. -1.
          2    1    1    2  501    0  0.13787259271E+02  0.14953823474E+02 -0.61802332541E+02  0.65063305035E+02  0.00000000000E+00 0. -1.
         -2    1    1    2    0  502 -0.13787259271E+02 -0.14953823474E+02 -0.85698533095E+01  0.22071423616E+02  0.00000000000E+00 0.  1.
</event>
<event>
 4    1  0.1822260E+004  0.2541460E+02  0.7546771E-02  0.1464218E+00
         21   -1    0    0  501  502  0.00000000000E+00  0.00000000000E+00  0.11698332786E+02  0.11698332786E+02  0.00000000000E+00 0. -1.
         21   -1    0    0  502  503 -0.00000000000E+00 -0.00000000000E+00 -0.56046471386E+02  0.56046471386E+02  0.00000000000E+00 0.  1.
          2    1    1    2  501    0  0.24030470568E+02  0.82727452951E+01 -0.18043808192E+02  0.31168587464E+02  0.00000000000E+00 0.  1.
         -2    1    1    2    0  503 -0.24030470568E+02 -0.82727452951E+01 -0.26304330409E+02  0.36576216708E+02  0.00000000000E+00 0. -1.
</event>
<event>
 4    1  0.1822260E+004  0.2202843E+02  0.7546771E-02  0.1505072E+00
         21   -1    0    0  503  502  0.00000000000E+00  0.00000000000E+00  0.44620400705E+03  0.44620400705E+03  0.00000000000E+00 0.  1.
         21   -1    0    0  501  503 -0.00000000000E+00 -0.00000000000E+00 -0.16250313667E+01  0.16250313667E+01  0.00000000000E+00 0. -1.
          2    1    1    2  501    0 -0.21580279947E+02 -0.44207824360E+01  0.93509371664E+02  0.96069008473E+02  0.00000000000E+00 0. -1.
         -2    1    1    2    0  502  0.21580279947E+02  0.44207824360E+01  0.35106960402E+03  0.35176002994E+03  0.00000000000E+00 0.  1.
</event>
<event>
 4    1  0.1822260E+004  0.2580819E+02  0.7546771E-02  0.1459962E+00
         21   -1    0    0  501  502  0.00000000000E+00  0.00000000000E+00  0.75113062626E+03  0.75113062626E+03  0.00000000000E+00 0.  1.
         21   -1    0    0  502  503 -0.00000000000E+00 -0.00000000000E+00 -0.10186320092E+01  0.10186320092E+01  0.00000000000E+00 0. -1.
          2    1    1    2  501    0  0.25437344697E+02  0.43593585898E+01  0.23973543665E+03  0.24112059658E+03  0.00000000000E+00 0. -1.
         -2    1    1    2    0  503 -0.25437344697E+02 -0.43593585898E+01  0.51037655760E+03  0.51102866169E+03  0.00000000000E+00 0.  1.
</event>
<event>
 4    1  0.1822260E+004  0.2370693E+02  0.7546771E-02  0.1483807E+00
         21   -1    0    0  501  502  0.00000000000E+00  0.00000000000E+00  0.46932232787E+01  0.46932232787E+01  0.00000000000E+00 0. -1.
         21   -1    0    0  502  503 -0.00000000000E+00 -0.00000000000E+00 -0.12139680108E+03  0.12139680108E+03  0.00000000000E+00 0.  1.
          2    1    1    2  501    0  0.14926102098E+02  0.18418196469E+02 -0.51011262025E+02  0.56250931889E+02  0.00000000000E+00 0.  1.
         -2    1    1    2    0  503 -0.14926102098E+02 -0.18418196469E+02 -0.65692315781E+02  0.69839092474E+02  0.00000000000E+00 0. -1.
</event>
<event>
 4    1  0.1822260E+004  0.2053712E+02  0.7546771E-02  0.1525977E+00
         21   -1    0    0  501  502  0.00000000000E+00  0.00000000000E+00  0.37843122722E+01  0.37843122722E+01  0.00000000000E+00 0. -1.
         21   -1    0    0  502  503 -0.00000000000E+00 -0.00000000000E+00 -0.31922062063E+03  0.31922062063E+03  0.00000000000E+00 0.  1.
          2    1    1    2  501    0  0.49330169535E-01  0.20537056835E+02 -0.27424707272E+02  0.34262044683E+02  0.00000000000E+00 0. -1.
         -2    1    1    2    0  503 -0.49330169535E-01 -0.20537056835E+02 -0.28801160109E+03  0.28874288822E+03  0.00000000000E+00 0.  1.
</event>
<event>
 4    1  0.1822260E+004  0.2027802E+02  0.7546771E-02  0.1529827E+00
         21   -1    0    0  501  502  0.00000000000E+00  0.00000000000E+00  0.14520447795E+02  0.14520447795E+02  0.00000000000E+00 0. -1.
         21   -1    0    0  502  503 -0.00000000000E+00 -0.00000000000E+00 -0.33172769747E+02  0.33172769747E+02  0.00000000000E+00 0.  1.
          2    1    1    2  501    0 -0.10774691187E+02  0.17178596429E+02 -0.20405505526E+00  0.20279047904E+02  0.00000000000E+00 0. -1.
         -2    1    1    2    0  503  0.10774691187E+02 -0.17178596429E+02 -0.18448266897E+02  0.27414169638E+02  0.00000000000E+00 0.  1.
</event>
<event>
 4    1  0.1822260E+004  0.2075877E+02  0.7546771E-02  0.1522737E+00
         21   -1    0    0  503  502  0.00000000000E+00  0.00000000000E+00  0.17173195669E+03  0.17173195669E+03  0.00000000000E+00 0. -1.
         21   -1    0    0  501  503 -0.00000000000E+00 -0.00000000000E+00 -0.11424659136E+02  0.11424659136E+02  0.00000000000E+00 0.  1.
          2    1    1    2  501    0  0.19602152048E+02 -0.68324251904E+01 -0.74485613258E+00  0.20772125784E+02  0.00000000000E+00 0.  1.
         -2    1    1    2    0  502 -0.19602152048E+02  0.68324251904E+01  0.16105215369E+03  0.16238449004E+03  0.00000000000E+00 0. -1.
</event>
<event>
 4    1  0.1822260E+004  0.2198056E+02  0.7546771E-02  0.1505712E+00
         21   -1    0    0  501  502  0.00000000000E+00  0.00000000000E+00  0.16785555702E+04  0.16785555702E+04  0.00000000000E+00 0. -1.
         21   -1    0    0  502  503 -0.00000000000E+00 -0.00000000000E+00 -0.51453667419E+00  0.51453667419E+00  0.00000000000E+00 0.  1.
          2    1    1    2  501    0 -0.10831049766E+02  0.19126765965E+02  0.13962823524E+04  0.13964553528E+04  0.00000000000E+00 0. -1.
         -2    1    1    2    0  503  0.10831049766E+02 -0.19126765965E+02  0.28175868106E+03  0.28261475398E+03  0.00000000000E+00 0.  1.
</event>
<event>
 4    1  0.1822260E+004  0.2501978E+02  0.7546771E-02  0.1468582E+00
         21   -1    0    0  501  502  0.00000000000E+00  0.00000000000E+00  0.42457167101E+02  0.42457167101E+02  0.00000000000E+00 0.  1.
         21   -1    0    0  502  503 -0.00000000000E+00 -0.00000000000E+00 -0.18714254927E+02  0.18714254927E+02  0.00000000000E+00 0. -1.
          2    1    1    2  501    0  0.13510694306E+02  0.21058266818E+02  0.25959160516E+02  0.36053674941E+02  0.00000000000E+00 0.  1.
         -2    1    1    2    0  503 -0.13510694306E+02 -0.21058266818E+02 -0.22162483423E+01  0.25117747087E+02  0.00000000000E+00 0. -1.
</event>
<event>
 4    1  0.1822260E+004  0.2328833E+02  0.7546771E-02  0.1488909E+00
         21   -1    0    0  503  502  0.00000000000E+00  0.00000000000E+00  0.45336668761E+03  0.45336668761E+03  0.00000000000E+00 0.  1.
         21   -1    0    0  501  503 -0.00000000000E+00 -0.00000000000E+00 -0.72086628181E+01  0.72086628181E+01  0.00000000000E+00 0. -1.
          2    1    1    2  501    0 -0.21995585067E+02  0.76511789593E+01  0.12765476255E+02  0.26557554216E+02  0.00000000000E+00 0. -1.
         -2    1    1    2    0  502  0.21995585067E+02 -0.76511789593E+01  0.43339254854E+03  0.43401779621E+03  0.00000000000E+00 0.  1.
</event>
<event>
 4    1  0.1822260E+004  0.3594384E+02  0.7546771E-02  0.1374046E+00
         21   -1    0    0  503  502  0.00000000000E+00  0.00000000000E+00  0.21173543955E+02  0.21173543955E+02  0.00000000000E+00 0. -1.
         21   -1    0    0  501  503 -0.00000000000E+00 -0.00000000000E+00 -0.23926064335E+03  0.23926064335E+03  0.00000000000E+00 0.  1.
          2    1    1    2  501    0  0.26541808029E+02  0.24238234710E+02 -0.22143638200E+03  0.22433464036E+03  0.00000000000E+00 0.  1.
         -2    1    1    2    0  502 -0.26541808029E+02 -0.24238234710E+02  0.33492826028E+01  0.36099546940E+02  0.00000000000E+00 0. -1.
</event>
<event>
 4    1  0.1822260E+004  0.2096030E+02  0.7546771E-02  0.1519832E+00
         21   -1    0    0  501  502  0.00000000000E+00  0.00000000000E+00  0.12736073906E+03  0.12736073906E+03  0.00000000000E+00 0. -1.
         21   -1    0    0  502  503 -0.00000000000E+00 -0.00000000000E+00 -0.81838286242E+01  0.81838286242E+01  0.00000000000E+00 0.  1.
          2    1    1    2  501    0 -0.20159006891E+02 -0.57400975525E+01  0.11113526953E+03  0.11309457287E+03  0.00000000000E+00 0. -1.
         -2    1    1    2    0  503  0.20159006891E+02  0.57400975525E+01  0.80416409038E+01  0.22449994814E+02  0.00000000000E+00 0.  1.
</event>
<event>
 4    1  0.1822260E+004  0.2187959E+02  0.7546771E-02  0.1507068E+00
         21   -1    0    0  503  502  0.00000000000E+00  0.00000000000E+00  0.86406080183E+01  0.86406080183E+01  0.00000000000E+00 0. -1.
         21   -1    0    0  501  503 -0.00000000000E+00 -0.00000000000E+00 -0.86426157641E+02  0.86426157641E+02  0.00000000000E+00 0.  1.
          2    1    1    2  501    0  0.19641608695E+02 -0.96396910551E+01 -0.67371362503E+02  0.70835139029E+02  0.00000000000E+00 0.  1.
         -2    1    1    2    0  502 -0.19641608695E+02  0.96396910551E+01 -0.10414187120E+02  0.24231626630E+02  0.00000000000E+00 0. -1.
</event>
<event>
 4    1  0.1822260E+004  0.2171517E+02  0.7546771E-02  0.1509294E+00
         21   -1    0    0  501  502  0.00000000000E+00  0.00000000000E+00  0.64010398174E+02  0.64010398174E+02  0.00000000000E+00 0. -1.
         21   -1    0    0  502  503 -0.00000000000E+00 -0.00000000000E+00 -0.13074197963E+02  0.13074197963E+02  0.00000000000E+00 0.  1.
          2    1    1    2  501    0 -0.21709268322E+02  0.50629956843E+00  0.50933530248E+02  0.55369424540E+02  0.00000000000E+00 0. -1.
         -2    1    1    2    0  503  0.21709268322E+02 -0.50629956843E+00  0.26699627740E-02  0.21715171597E+02  0.00000000000E+00 0.  1.
</event>
<event>
 4    1  0.1822260E+004  0.2177703E+02  0.7546771E-02  0.1508454E+00
         21   -1    0    0  503  502  0.00000000000E+00  0.00000000000E+00  0.37533954117E+00  0.37533954117E+00  0.00000000000E+00 0. -1.
         21   -1    0    0  501  503 -0.00000000000E+00 -0.00000000000E+00 -0.13661763841E+04  0.13661763841E+04  0.00000000000E+00 0.  1.
          2    1    1    2  501    0 -0.21318846383E+02  0.44436327780E+01 -0.87022375707E+03  0.87049619554E+03  0.00000000000E+00 0.  1.
         -2    1    1    2    0  502  0.21318846383E+02 -0.44436327780E+01 -0.49557728750E+03  0.49605552811E+03  0.00000000000E+00 0. -1.
</event>
<event>
 4    1  0.1822260E+004  0.2166539E+02  0.7546771E-02  0.1509973E+00
         21   -1    0    0  501  502  0.00000000000E+00  0.00000000000E+00  0.16233898609E+02  0.16233898609E+02  0.00000000000E+00 0.  1.
         21   -1    0    0  502  503 -0.00000000000E+00 -0.00000000000E+00 -0.29444707164E+02  0.29444707164E+02  0.00000000000E+00 0. -1.
          2    1    1    2  501    0 -0.88845920412E+01  0.19759887183E+02 -0.96712615086E+01  0.23725986099E+02  0.00000000000E+00 0. -1.
         -2    1    1    2    0  503  0.88845920412E+01 -0.19759887183E+02 -0.35395470469E+01  0.21952619673E+02  0.00000000000E+00 0.  1.
</event>
<event>
 4    1  0.1822260E+004  0.2237236E+02  0.7546771E-02  0.1500534E+00
         21   -1    0    0  503  502  0.00000000000E+00  0.00000000000E+00  0.37274905655E+01  0.37274905655E+01  0.00000000000E+00 0.  1.
         21   -1    0    0  501  503 -0.00000000000E+00 -0.00000000000E+00 -0.15375632444E+03  0.15375632444E+03  0.00000000000E+00 0. -1.
          2    1    1    2  501    0 -0.99692705533E+01  0.20028378814E+02 -0.10304023192E+03  0.10544103427E+03  0.00000000000E+00 0. -1.
         -2    1    1    2    0  502  0.99692705533E+01 -0.20028378814E+02 -0.46988601957E+02  0.52042780740E+02  0.00000000000E+00 0.  1.
</event>
<event>
 4    1  0.1822260E+004  0.3042750E+02  0.7546771E-02  0.1415917E+00
         21   -1    0    0  501  502  0.00000000000E+00  0.00000000000E+00  0.16268782829E+03  0.16268782829E+03  0.00000000000E+00 0. -1.
         21   -1    0    0  502  503 -0.00000000000E+00 -0.00000000000E+00 -0.14458447787E+02  0.14458447787E+02  0.00000000000E+00 0.  1.
          2    1    1    2  501    0 -0.30400407478E+02  0.12837170842E+01  0.14308805330E+03  0.14628746939E+03  0.00000000000E+00 0. -1.
         -2    1    1    2    0  503  0.30400407478E+02 -0.12837170842E+01  0.51413272016E+01  0.30858806681E+02  0.00000000000E+00 0.  1.
</event>
<event>
 4    1  0.1822260E+004  0.2077141E+02  0.7546771E-02  0.1522554E+00
         21   -1    0    0  503  502  0.00000000000E+00  0.00000000000E+00  0.88310008217E+02  0.88310008217E+02  0.00000000000E+00 0. -1.
         21   -1    0    0  501  503 -0.00000000000E+00 -0.00000000000E+00 -0.48883446751E+01  0.48883446751E+01  0.00000000000E+00 0.  1.
          2    1    1    2  501    0  0.11547204921E+02  0.17265965125E+02  0.42805601362E+02  0.47579102568E+02  0.00000000000E+00 0.  1.
         -2    1    1    2    0  502 -0.11547204921E+02 -0.17265965125E+02  0.40616062179E+02  0.45619250324E+02  0.00000000000E+00 0. -1.
</event>
<event>
 4    1  0.1822260E+004  0.2165997E+02  0.7546771E-02  0.1510047E+00
         21   -1    0    0  501  502  0.00000000000E+00  0.00000000000E+00  0.51502616747E+01  0.51502616747E+01  0.00000000000E+00 0. -1.
         21   -1    0    0  502  503 -0.00000000000E+00 -0.00000000000E+00 -0.37083976918E+03  0.37083976918E+03  0.00000000000E+00 0.  1.
          2    1    1    2  501    0  0.21659796113E+02  0.86291927721E-01 -0.19563807718E+02  0.29187270965E+02  0.00000000000E+00 0. -1.
         -2    1    1    2    0  503 -0.21659796113E+02 -0.86291927721E-01 -0.34612569978E+03  0.34680275989E+03  0.00000000000E+00 0.  1.
</event>
<event>
 4    1  0.1822260E+004  0.3512595E+02  0.7546771E-02  0.1379680E+00
         21   -1    0    0  501  502  0.00000000000E+00  0.00000000000E+00  0.32535080231E+03  0.32535080231E+03  0.00000000000E+00 0.  1.
         21   -1    0    0  502  503 -0.00000000000E+00 -0.00000000000E+00 -0.60450243737E+01  0.60450243737E+01  0.00000000000E+00 0. -1.
          2    1    1    2  501    0  0.35088479752E+02 -0.16219790264E+01  0.58501758092E+02  0.68236998228E+02  0.00000000000E+00 0. -1.
         -2    1    1    2    0  503 -0.35088479752E+02  0.16219790264E+01  0.26080401984E+03  0.26315882845E+03  0.00000000000E+00 0.  1.
</event>
<event>
 4    1  0.1822260E+004  0.3655680E+02  0.7546771E-02  0.1369937E+00
         21   -1    0    0  503  502  0.00000000000E+00  0.00000000000E+00  0.42773628698E+02  0.42773628698E+02  0.00000000000E+00 0. -1.
         21   -1    0    0  501  503 -0.00000000000E+00 -0.00000000000E+00 -0.86494954183E+02  0.86494954183E+02  0.00000000000E+00 0.  1.
          2    1    1    2  501    0 -0.13253542834E+02  0.34069677023E+02 -0.73518870132E+02  0.82106172457E+02  0.00000000000E+00 0.  1.
         -2    1    1    2    0  502  0.13253542834E+02 -0.34069677023E+02  0.29797544646E+02  0.47162410424E+02  0.00000000000E+00 0. -1.
</event>
<event>
 4    1  0.1822260E+004  0.2348466E+02  0.7546771E-02  0.1486500E+00
         21   -1    0    0  503  502  0.00000000000E+00  0.00000000000E+00  0.63451280411E+02  0.63451280411E+02  0.00000000000E+00 0.  1.
         21   -1    0    0  501  503 -0.00000000000E+00 -0.00000000000E+00 -0.27108197608E+02  0.27108197608E+02  0.00000000000E+00 0. -1.
          2    1    1    2  501    0 -0.21437282562E+02 -0.95902108626E+01 -0.19149313936E+02  0.30302235103E+02  0.00000000000E+00 0. -1.
         -2    1    1    2    0  502  0.21437282562E+02  0.95902108626E+01  0.55492396739E+02  0.60257242916E+02  0.00000000000E+00 0.  1.
</event>
<event>
 4    1  0.1822260E+004  0.3458447E+02  0.7546771E-02  0.1383508E+00
         21   -1    0    0  503  502  0.00000000000E+00  0.00000000000E+00  0.57067729035E+01  0.57067729035E+01  0.00000000000E+00 0.  1.
         21   -1    0    0  501  503 -0.00000000000E+00 -0.00000000000E+00 -0.36102210949E+03  0.36102210949E+03  0.00000000000E+00 0. -1.
          2    1    1    2  501    0 -0.34512275811E+02  0.22334947068E+01 -0.29641390175E+03  0.29842467531E+03  0.00000000000E+00 0. -1.
         -2    1    1    2    0  502  0.34512275811E+02 -0.22334947068E+01 -0.58901434839E+02  0.68304207091E+02  0.00000000000E+00 0.  1.
</event>
<event>
 4    1  0.1822260E+004  0.2357894E+02  0.7546771E-02  0.1485354E+00
         21   -1    0    0  503  502  0.00000000000E+00  0.00000000000E+00  0.43245692555E+03  0.43245692555E+03  0.00000000000E+00 0. -1.
         21   -1    0    0  501  503 -0.00000000000E+00 -0.00000000000E+00 -0.22774034485E+01  0.22774034485E+01  0.00000000000E+00 0.  1.
          2    1    1    2  501    0 -0.15745249368E+02 -0.17551459273E+02  0.71644312808E+02  0.75424625673E+02  0.00000000000E+00 0.  1.
         -2    1    1    2    0  502  0.15745249368E+02  0.17551459273E+02  0.35853520929E+03  0.35930970333E+03  0.00000000000E+00 0. -1.
</event>
<event>
 4    1  0.1822260E+004  0.2268574E+02  0.7546771E-02  0.1496482E+00
         21   -1    0    0  501  502  0.00000000000E+00  0.00000000000E+00  0.41098640724E+01  0.41098640724E+01  0.00000000000E+00 0.  1.
         21   -1    0    0  502  503 -0.00000000000E+00 -0.00000000000E+00 -0.13974858268E+03  0.13974858268E+03  0.00000000000E+00 0. -1.
          2    1    1    2  501    0 -0.16067671852E+02  0.16014765852E+02 -0.44628180037E+02  0.50063132717E+02  0.00000000000E+00 0.  1.
         -2    1    1    2    0  503  0.16067671852E+02 -0.16014765852E+02 -0.91010538568E+02  0.93795314033E+02  0.00000000000E+00 0. -1.
</event>
<event>
 4    1  0.1822260E+004  0.2164263E+02  0.7546771E-02  0.1510284E+00
         21   -1    0    0  501  502  0.00000000000E+00  0.00000000000E+00  0.10777131230E+02  0.10777131230E+02  0.00000000000E+00 0.  1.
         21   -1    0    0  502  503 -0.00000000000E+00 -0.00000000000E+00 -0.47327830900E+02  0.47327830900E+02  0.00000000000E+00 0. -1.
          2    1    1    2  501    0 -0.20727935422E+02  0.62254265474E+01 -0.99728873862E+01  0.23829849462E+02  0.00000000000E+00 0.  1.
         -2    1    1    2    0  503  0.20727935422E+02 -0.62254265474E+01 -0.26577812285E+02  0.34275112668E+02  0.00000000000E+00 0. -1.
</event>
<event>
 4    1  0.1822260E+004  0.4740531E+02  0.7546771E-02  0.1309832E+00
         21   -1    0    0  503  502  0.00000000000E+00  0.00000000000E+00  0.41272671177E+03  0.41272671177E+03  0.00000000000E+00 0. -1.
         21   -1    0    0  501  503 -0.00000000000E+00 -0.00000000000E+00 -0.24073741091E+02  0.24073741091E+02  0.00000000000E+00 0.  1.
          2    1    1    2  501    0 -0.45805675714E+02 -0.12210806461E+02  0.22058636678E+01  0.47456607091E+02  0.00000000000E+00 0.  1.
         -2    1    1    2    0  502  0.45805675714E+02  0.12210806461E+02  0.38644710701E+03  0.38934384577E+03  0.00000000000E+00 0. -1.
</event>
<event>
 4    1  0.1822260E+004  0.2508492E+02  0.7546771E-02  0.1467856E+00
         21   -1    0    0  501  502  0.00000000000E+00  0.00000000000E+00  0.17317243986E+01  0.17317243986E+01  0.00000000000E+00 0.  1.
         21   -1    0    0  502  503 -0.00000000000E+00 -0.00000000000E+00 -0.72347723490E+03  0.72347723490E+03  0.00000000000E+00 0. -1.
          2    1    1    2  501    0  0.11905673924E+02 -0.22079583119E+02 -0.10505073849E+03  0.10800421622E+03  0.00000000000E+00 0.  1.
         -2    1    1    2    0  503 -0.11905673924E+02  0.22079583119E+02 -0.61669477201E+03  0.61720474308E+03  0.00000000000E+00 0. -1.
</event>
<event>
 4    1  0.1822260E+004  0.2036700E+02  0.7546771E-02  0.1528497E+00
         21   -1    0    0  503  502  0.00000000000E+00  0.00000000000E+00  0.12486710209E+02  0.12486710209E+02  0.00000000000E+00 0. -1.
         21   -1    0    0  501  503 -0.00000000000E+00 -0.00000000000E+00 -0.37078687766E+02  0.37078687766E+02  0.00000000000E+00 0.  1.
          2    1    1    2  501    0 -0.16780150442E+02 -0.11543022702E+02 -0.20290240310E+02  0.28749063877E+02  0.00000000000E+00 0.  1.
         -2    1    1    2    0  502  0.16780150442E+02  0.11543022702E+02 -0.43017372461E+01  0.20816334098E+02  0.00000000000E+00 0. -1.
</event>
<event>
 4    1  0.1822260E+004  0.2380724E+02  0.7546771E-02  0.1482603E+00
         21   -1    0    0  501  502  0.00000000000E+00  0.00000000000E+00  0.39771184094E+01  0.39771184094E+01  0.00000000000E+00 0. -1.
         21   -1    0    0  502  503 -0.00000000000E+00 -0.00000000000E+00 -0.15547727588E+03  0.15547727588E+03  0.00000000000E+00 0.  1.
          2    1    1    2  501    0 -0.20796822741E+02 -0.11587787122E+02 -0.52726425118E+02  0.57852057459E+02  0.00000000000E+00 0. -1.
         -2    1    1    2    0  503  0.20796822741E+02  0.11587787122E+02 -0.98773732347E+02  0.10160233683E+03  0.00000000000E+00 0.  1.
</event>
<event>
 4    1  0.1822260E+004  0.3643366E+02  0.7546771E-02  0.1370755E+00
         21   -1    0    0  501  502  0.00000000000E+00  0.00000000000E+00  0.43256209616E+02  0.43256209616E+02  0.00000000000E+00 0.  1.
         21   -1    0    0  502  503 -0.00000000000E+00 -0.00000000000E+00 -0.10162702828E+03  0.10162702828E+03  0.00000000000E+00 0. -1.
          2    1    1    2  501    0 -0.34900367321E+02 -0.10458302853E+02  0.31338729134E+02  0.48057545520E+02  0.00000000000E+00 0.  1.
         -2    1    1    2    0  503  0.34900367321E+02  0.10458302853E+02 -0.89709547793E+02  0.96825692370E+02  0.00000000000E+00 0. -1.
</event>
<event>
 4    1  0.1822260E+004  0.2100096E+02  0.7546771E-02  0.1519251E+00
         21   -1    0    0  501  502  0.00000000000E+00  0.00000000000E+00  0.58721677595E+02  0.58721677595E+02  0.00000000000E+00 0. -1.
         21   -1    0    0  502  503 -0.00000000000E+00 -0.00000000000E+00 -0.80396631042E+01  0.80396631042E+01  0.00000000000E+00 0.  1.
          2    1    1    2  501    0 -0.97907917938E+01  0.18579035127E+02  0.33903379164E+02  0.39880813293E+02  0.00000000000E+00 0. -1.
         -2    1    1    2    0  503  0.97907917938E+01 -0.18579035127E+02  0.16778635326E+02  0.26880527405E+02  0.00000000000E+00 0.  1.
</event>
<event>
 4    1  0.1822260E+004  0.4642355E+02  0.7546771E-02  0.1314471E+00
         21   -1    0    0  501  502  0.00000000000E+00  0.00000000000E+00  0.38267926698E+02  0.38267926698E+02  0.00000000000E+00 0. -1.
         21   -1    0    0  502  503 -0.00000000000E+00 -0.00000000000E+00 -0.13790814320E+03  0.13790814320E+03  0.00000000000E+00 0.  1.
          2    1    1    2  501    0 -0.16428360186E+02 -0.43419525123E+02  0.17935100231E+02  0.49767599908E+02  0.00000000000E+00 0. -1.
         -2    1    1    2    0  503  0.16428360186E+02  0.43419525123E+02 -0.11757531673E+03  0.12640846999E+03  0.00000000000E+00 0.  1.
</event>
<event>
 4    1  0.1822260E+004  0.2104592E+02  0.7546771E-02  0.1518610E+00
         21   -1    0    0  501  502  0.00000000000E+00  0.00000000000E+00  0.10257311786E+02  0.10257311786E+02  0.00000000000E+00 0.  1.
         21   -1    0    0  502  503 -0.00000000000E+00 -0.00000000000E+00 -0.54077219736E+02  0.54077219736E+02  0.00000000000E+00 0. -1.
          2    1    1    2  501    0  0.17836513818E+02  0.11170931497E+02 -0.74713384243E+01  0.22332752485E+02  0.00000000000E+00 0.  1.
         -2    1    1    2    0  503 -0.17836513818E+02 -0.11170931497E+02 -0.36348569526E+02  0.42001779037E+02  0.00000000000E+00 0. -1.
</event>
<event>
 4    1  0.1822260E+004  0.2392946E+02  0.7546771E-02  0.1481145E+00
         21   -1    0    0  503  502  0.00000000000E+00  0.00000000000E+00  0.63085205568E+02  0.63085205568E+02  0.00000000000E+00 0. -1.
         21   -1    0    0  501  503 -0.00000000000E+00 -0.00000000000E+00 -0.17295064061E+02  0.17295064061E+02  0.00000000000E+00 0.  1.
          2    1    1    2  501    0 -0.23207279694E+02 -0.58344990921E+01 -0.48091101794E+01  0.24407923942E+02  0.00000000000E+00 0.  1.
         -2    1    1    2    0  502  0.23207279694E+02  0.58344990921E+01  0.50599251687E+02  0.55972345687E+02  0.00000000000E+00 0. -1.
</event>
<event>
 4    1  0.1822260E+004  0.2029672E+02  0.7546771E-02  0.1529547E+00
         21   -1    0    0  503  502  0.00000000000E+00  0.00000000000E+00  0.28201344694E+02  0.28201344694E+02  0.00000000000E+00 0. -1.
         21   -1    0    0  501  503 -0.00000000000E+00 -0.00000000000E+00 -0.24517835441E+02  0.24517835441E+02  0.00000000000E+00 0.  1.
          2    1    1    2  501    0  0.62779201533E+01 -0.19301416763E+02 -0.14916826201E+02  0.25188661624E+02  0.00000000000E+00 0.  1.
         -2    1    1    2    0  502 -0.62779201533E+01  0.19301416763E+02  0.18600335454E+02  0.27530518511E+02  0.00000000000E+00 0. -1.
</event>
<event>
 4    1  0.1822260E+004  0.3090938E+02  0.7546771E-02  0.1411855E+00
         21   -1    0    0  503  502  0.00000000000E+00  0.00000000000E+00  0.10105414637E+02  0.10105414637E+02  0.00000000000E+00 0.  1.
         21   -1    0    0  501  503 -0.00000000000E+00 -0.00000000000E+00 -0.24575952719E+03  0.24575952719E+03  0.00000000000E+00 0. -1.
          2    1    1    2  501    0 -0.24097126700E+02  0.19357632838E+02 -0.21817909410E+03  0.22035767871E+03  0.00000000000E+00 0. -1.
         -2    1    1    2    0  502  0.24097126700E+02 -0.19357632838E+02 -0.17475018458E+02  0.35507263121E+02  0.00000000000E+00 0.  1.
</event>
<event>
 4    1  0.1822260E+004  0.2268871E+02  0.7546771E-02  0.1496444E+00
         21   -1    0    0  501  502  0.00000000000E+00  0.00000000000E+00  0.43974531388E+03  0.43974531388E+03  0.00000000000E+00 0.  1.
         21   -1    0    0  502  503 -0.00000000000E+00 -0.00000000000E+00 -0.12102040826E+01  0.12102040826E+01  0.00000000000E+00 0. -1.
          2    1    1    2  501    0 -0.37267508963E+01 -0.22380546076E+02  0.25913883189E+03  0.26013018223E+03  0.00000000000E+00 0.  1.
         -2    1    1    2    0  503  0.37267508963E+01  0.22380546076E+02  0.17939627790E+03  0.18082533572E+03  0.00000000000E+00 0. -1.
</event>
<event>
 4    1  0.1822260E+004  0.2284378E+02  0.7546771E-02  0.1494469E+00
         21   -1    0    0  501  502  0.00000000000E+00  0.00000000000E+00  0.10871114754E+02  0.10871114754E+02  0.00000000000E+00 0.  1.
         21   -1    0    0  502  503 -0.00000000000E+00 -0.00000000000E+00 -0.54315214025E+02  0.54315214025E+02  0.00000000000E+00 0. -1.
          2    1    1    2  501    0  0.51616638858E+01  0.22252993509E+02 -0.10610342858E+02  0.25187653121E+02  0.00000000000E+00 0. -1.
         -2    1    1    2    0  503 -0.51616638858E+01 -0.22252993509E+02 -0.32833756413E+02  0.39998675658E+02  0.00000000000E+00 0.  1.
</event>
<event>
 4    1  0.1822260E+004  0.2650524E+02  0.7546771E-02  0.1452642E+00
         21   -1    0    0  503  502  0.00000000000E+00  0.00000000000E+00  0.17909501752E+04  0.17909501752E+04  0.00000000000E+00 0. -1.
         21   -1    0    0  501  503 -0.00000000000E+00 -0.00000000000E+00 -0.41181955352E+00  0.41181955352E+00  0.00000000000E+00 0.  1.
          2    1    1    2  501    0  0.16867364456E+02  0.20445531705E+02  0.70009623298E+03  0.70059778987E+03  0.00000000000E+00 0. -1.
         -2    1    1    2    0  502 -0.16867364456E+02 -0.20445531705E+02  0.10904421227E+04  0.10907642049E+04  0.00000000000E+00 0.  1.
</event>
<event>
 4    1  0.1822260E+004  0.3372155E+02  0.7546771E-02  0.1389781E+00
         21   -1    0    0  503  502  0.00000000000E+00  0.00000000000E+00  0.20290715242E+03  0.20290715242E+03  0.00000000000E+00 0. -1.
         21   -1    0    0  501  503 -0.00000000000E+00 -0.00000000000E+00 -0.89163709776E+01  0.89163709776E+01  0.00000000000E+00 0.  1.
          2    1    1    2  501    0  0.33613065485E+02 -0.27026911754E+01  0.32444368320E+02  0.46795082504E+02  0.00000000000E+00 0.  1.
         -2    1    1    2    0  502 -0.33613065485E+02  0.27026911754E+01  0.16154641312E+03  0.16502844089E+03  0.00000000000E+00 0. -1.
</event>
<event>
 4    1  0.1822260E+004  0.2684951E+02  0.7546771E-02  0.1449126E+00
         21   -1    0    0  503  502  0.00000000000E+00  0.00000000000E+00  0.25670937670E+02  0.25670937670E+02  0.00000000000E+00 0. -1.
         21   -1    0    0  501  503 -0.00000000000E+00 -0.00000000000E+00 -0.15728489460E+03  0.15728489460E+03  0.00000000000E+00 0.  1.
          2    1    1    2  501    0  0.26469356314E+02 -0.45021400370E+01 -0.14871729275E+03  0.15112157110E+03  0.00000000000E+00 0.  1.
         -2    1    1    2    0  502 -0.26469356314E+02  0.45021400370E+01  0.17103335815E+02  0.31834261175E+02  0.00000000000E+00 0. -1.
</event>
<event>
 4    1  0.1822260E+004  0.2066070E+02  0.7546771E-02  0.1524165E+00
         21   -1    0    0  503  502  0.00000000000E+00  0.00000000000E+00  0.23185391089E+02  0.23185391089E+02  0.00000000000E+00 0. -1.
         21   -1    0    0  501  503 -0.00000000000E+00 -0.00000000000E+00 -0.84701424827E+02  0.84701424827E+02  0.00000000000E+00 0.  1.
          2    1    1    2  501    0  0.10510725454E+02 -0.17787335401E+02 -0.78480018065E+02  0.81154038012E+02  0.00000000000E+00 0.  1.
         -2    1    1    2    0  502 -0.10510725454E+02  0.17787335401E+02  0.16963984327E+02  0.26732777904E+02  0.00000000000E+00 0. -1.
</event>
<event>
 4    1  0.1822260E+004  0.2646207E+02  0.7546771E-02  0.1453088E+00
         21   -1    0    0  503  502  0.00000000000E+00  0.00000000000E+00  0.58336078498E+03  0.58336078498E+03  0.00000000000E+00 0. -1.
         21   -1    0    0  501  503 -0.00000000000E+00 -0.00000000000E+00 -0.15225458158E+01  0.15225458158E+01  0.00000000000E+00 0.  1.
          2    1    1    2  501    0  0.24651661303E+01  0.26346997385E+02  0.42544602827E+03  0.42626818352E+03  0.00000000000E+00 0. -1.
         -2    1    1    2    0  502 -0.24651661303E+01 -0.26346997385E+02  0.15639221090E+03  0.15861514727E+03  0.00000000000E+00 0.  1.
</event>
<event>
 4    1  0.1822260E+004  0.2654353E+02  0.7546771E-02  0.1452248E+00
         21   -1    0    0  501  502  0.00000000000E+00  0.00000000000E+00  0.14574855213E+02  0.14574855213E+02  0.00000000000E+00 0. -1.
         21   -1    0    0  502  503 -0.00000000000E+00 -0.00000000000E+00 -0.89020514693E+02  0.89020514693E+02  0.00000000000E+00 0.  1.
          2    1    1    2  501    0  0.62854867606E+01 -0.25788596157E+02 -0.22077870107E+01  0.26635190239E+02  0.00000000000E+00 0. -1.
         -2    1    1    2    0  503 -0.62854867606E+01  0.25788596157E+02 -0.72237872469E+02  0.76960179667E+02  0.00000000000E+00 0.  1.
</event>
<event>
 4    1  0.1822260E+004  0.2067154E+02  0.7546771E-02  0.1524006E+00
         21   -1    0    0  503  502  0.00000000000E+00  0.00000000000E+00  0.51321351764E+03  0.51321351764E+03  0.00000000000E+00 0. -1.
         21   -1    0    0  501  503 -0.00000000000E+00 -0.00000000000E+00 -0.84089238434E+00  0.84089238434E+00  0.00000000000E+00 0.  1.
          2    1    1    2  501    0 -0.33076494625E+01 -0.20405196059E+02  0.23069531770E+03  0.23161960664E+03  0.00000000000E+00 0.  1.
         -2    1    1    2    0  502  0.33076494625E+01  0.20405196059E+02  0.28167730755E+03  0.28243480338E+03  0.00000000000E+00 0. -1.
</event>
<event>
 4    1  0.1822260E+004  0.2235985E+02  0.7546771E-02  0.1500697E+00
         21   -1    0    0  503  502  0.00000000000E+00  0.00000000000E+00  0.13307292699E+04  0.13307292699E+04  0.00000000000E+00 0.  1.
         21   -1    0    0  501  503 -0.00000000000E+00 -0.00000000000E+00 -0.45443961199E+00  0.45443961199E+00  0.00000000000E+00 0. -1.
          2    1    1    2  501    0 -0.47736729637E+01  0.21844331356E+02  0.38809234829E+03  0.38873594324E+03  0.00000000000E+00 0. -1.
         -2    1    1    2    0  502  0.47736729637E+01 -0.21844331356E+02  0.94218248205E+03  0.94244776632E+03  0.00000000000E+00 0.  1.
</event>
<event>
 4    1  0.1822260E+004  0.2511946E+02  0.7546771E-02  0.1467471E+00
         21   -1    0    0  501  502  0.00000000000E+00  0.00000000000E+00  0.72451448665E+01  0.72451448665E+01  0.00000000000E+00 0.  1.
         21   -1    0    0  502  503 -0.00000000000E+00 -0.00000000000E+00 -0.15091302065E+03  0.15091302065E+03  0.00000000000E+00 0. -1.
          2    1    1    2  501    0 -0.21917059484E+02 -0.12273132292E+02 -0.20407863613E+02  0.32364612927E+02  0.00000000000E+00 0.  1.
         -2    1    1    2    0  503  0.21917059484E+02  0.12273132292E+02 -0.12326001217E+03  0.12579355259E+03  0.00000000000E+00 0. -1.
</event>
<event>
 4    1  0.1822260E+004  0.4303536E+02  0.7546771E-02  0.1331561E+00
         21   -1    0    0  503  502  0.00000000000E+00  0.00000000000E+00  0.14042103244E+03  0.14042103244E+03  0.00000000000E+00 0. -1.
         21   -1    0    0  501  503 -0.00000000000E+00 -0.00000000000E+00 -0.14172029112E+02  0.14172029112E+02  0.00000000000E+00 0.  1.
          2    1    1    2  501    0 -0.34169075660E+02 -0.26163263304E+02  0.42769018211E+02  0.60673148895E+02  0.00000000000E+00 0. -1.
         -2    1    1    2    0  502  0.34169075660E+02  0.26163263304E+02  0.83479985114E+02  0.93919912653E+02  0.00000000000E+00 0.  1.
</event>
<event>
 4    1  0.1822260E+004  0.2263571E+02  0.7546771E-02  0.1497124E+00
         21   -1    0    0  501  502  0.00000000000E+00  0.00000000000E+00  0.49122947794E+03  0.49122947794E+03  0.00000000000E+00 0. -1.
         21   -1    0    0  502  503 -0.00000000000E+00 -0.00000000000E+00 -0.10534015916E+01  0.10534015916E+01  0.00000000000E+00 0.  1.
          2    1    1    2  501    0 -0.13254378488E+02  0.18349305986E+02  0.26949130711E+03  0.27044027102E+03  0.00000000000E+00 0.  1.
         -2    1    1    2    0  503  0.13254378488E+02 -0.18349305986E+02  0.22068476923E+03  0.22184260851E+03  0.00000000000E+00 0. -1.
</event>
<event>
 4    1  0.1822260E+004  0.2125173E+02  0.7546771E-02  0.1515701E+00
         21   -1    0    0  503  502  0.00000000000E+00  0.00000000000E+00  0.11936133919E+03  0.11936133919E+03  0.00000000000E+00 0. -1.
         21   -1    0    0  501  503 -0.00000000000E+00 -0.00000000000E+00 -0.37954188472E+01  0.37954188472E+01  0.00000000000E+00 0.  1.
          2    1    1    2  501    0  0.19914460603E+02 -0.74195960536E+01  0.61194058296E+02  0.64779232146E+02  0.00000000000E+00 0. -1.
         -2    1    1    2    0  502 -0.19914460603E+02  0.74195960536E+01  0.54371862044E+02  0.58377525888E+02  0.00000000000E+00 0.  1.
</event>
<event>
 4    1  0.1822260E+004  0.2003447E+02  0.7546771E-02  0.1533509E+00
         21   -1    0    0  501  502  0.00000000000E+00  0.00000000000E+00  0.44858855386E+01  0.44858855386E+01  0.00000000000E+00 0.  1.
         21   -1    0    0  502  503 -0.00000000000E+00 -0.00000000000E+00 -0.11370238201E+03  0.11370238201E+03  0.00000000000E+00 0. -1.
          2    1    1    2  501    0 -0.18212501332E+02 -0.83477345618E+01 -0.27330890073E+02  0.33887422877E+02  0.00000000000E+00 0. -1.
         -2    1    1    2    0  503  0.18212501332E+02  0.83477345618E+01 -0.81885606395E+02  0.84300844668E+02  0.00000000000E+00 0.  1.
</event>
<event>
 4    1  0.1822260E+004  0.2611267E+02  0.7546771E-02  0.1456731E+00
         21   -1    0    0  503  502  0.00000000000E+00  0.00000000000E+00  0.27768806445E+02  0.27768806445E+02  0.00000000000E+00 0.  1.
         21   -1    0    0  501  503 -0.00000000000E+00 -0.00000000000E+00 -0.72148584228E+02  0.72148584228E+02  0.00000000000E+00 0. -1.
          2    1    1    2  501    0 -0.37497869923E+01 -0.25842028258E+02 -0.62765963143E+02  0.67981155155E+02  0.00000000000E+00 0. -1.
         -2    1    1    2    0  502  0.37497869923E+01  0.25842028258E+02  0.18386185360E+02  0.31936235518E+02  0.00000000000E+00 0.  1.
</event>
<event>
 4    1  0.1822260E+004  0.3202570E+02  0.7546771E-02  0.1402773E+00
         21   -1    0    0  503  502  0.00000000000E+00  0.00000000000E+00  0.12348568515E+02  0.12348568515E+02  0.00000000000E+00 0.  1.
         21   -1    0    0  501  503 -0.00000000000E+00 -0.00000000000E+00 -0.92210843489E+02  0.92210843489E+02  0.00000000000E+00 0. -1.
          2    1    1    2  501    0  0.87094927848E+01  0.30818665304E+02 -0.56402291011E+02  0.64860340941E+02  0.00000000000E+00 0.  1.
         -2    1    1    2    0  502 -0.87094927848E+01 -0.30818665304E+02 -0.23459983963E+02  0.39699071062E+02  0.00000000000E+00 0. -1.
</event>
<event>
 4    1  0.1822260E+004  0.2401816E+02  0.7546771E-02  0.1480094E+00
         21   -1    0    0  501  502  0.00000000000E+00  0.00000000000E+00  0.26420956374E+01  0.26420956374E+01  0.00000000000E+00 0. -1.
         21   -1    0    0  502  503 -0.00000000000E+00 -0.00000000000E+00 -0.35504599933E+03  0.35504599933E+03  0.00000000000E+00 0.  1.
          2    1    1    2  501    0  0.14615088744E+02 -0.19059678029E+02 -0.65226281147E+02  0.69507840550E+02  0.00000000000E+00 0.  1.
         -2    1    1    2    0  503 -0.14615088744E+02  0.19059678029E+02 -0.28717762255E+03  0.28818025442E+03  0.00000000000E+00 0. -1.
</event>
<event>
 4    1  0.1822260E+004  0.2109095E+02  0.7546771E-02  0.1517970E+00
         21   -1    0    0  501  502  0.00000000000E+00  0.00000000000E+00  0.19690669243E+03  0.19690669243E+03  0.00000000000E+00 0. -1.
         21   -1    0    0  502  503 -0.00000000000E+00 -0.00000000000E+00 -0.24248823067E+01  0.24248823067E+01  0.00000000000E+00 0.  1.
          2    1    1    2  501    0  0.20884200712E+02  0.29459189765E+01  0.12330208113E+03  0.12509289144E+03  0.00000000000E+00 0.  1.
         -2    1    1    2    0  503 -0.20884200712E+02 -0.29459189765E+01  0.71179728996E+02  0.74238683299E+02  0.00000000000E+00 0. -1.
</event>
<event>
 4    1  0.1822260E+004  0.2267916E+02  0.7546771E-02  0.1496567E+00
         21   -1    0    0  503  502  0.00000000000E+00  0.00000000000E+00  0.11567682167E+01  0.11567682167E+01  0.00000000000E+00 0. -1.
         21   -1    0    0  501  503 -0.00000000000E+00 -0.00000000000E+00 -0.47927930249E+03  0.47927930249E+03  0.00000000000E+00 0.  1.
          2    1    1    2  501    0  0.12746638827E+02  0.18758128741E+02 -0.30364192713E+03  0.30448770764E+03  0.00000000000E+00 0.  1.
         -2    1    1    2    0  502 -0.12746638827E+02 -0.18758128741E+02 -0.17448060714E+03  0.17594836306E+03  0.00000000000E+00 0. -1.
</event>
<event>
 4    1  0.1822260E+004  0.2104219E+02  0.7546771E-02  0.1518663E+00
         21   -1    0    0  501  502  0.00000000000E+00  0.00000000000E+00  0.19964447069E+01  0.19964447069E+01  0.00000000000E+00 0. -1.
         21   -1    0    0  502  503 -0.00000000000E+00 -0.00000000000E+00 -0.25828632385E+03  0.25828632385E+03  0.00000000000E+00 0.  1.
          2    1    1    2  501    0 -0.29809658265E+01 -0.20829973381E+02 -0.79218738713E+02  0.81965739865E+02  0.00000000000E+00 0.  1.
         -2    1    1    2    0  503  0.29809658265E+01  0.20829973381E+02 -0.17707114043E+03  0.17831702869E+03  0.00000000000E+00 0. -1.
</event>
<event>
 4    1  0.1822260E+004  0.3285426E+02  0.7546771E-02  0.1396310E+00
         21   -1    0    0  501  502  0.00000000000E+00  0.00000000000E+00  0.51376949527E+01  0.51376949527E+01  0.00000000000E+00 0. -1.
         21   -1    0    0  502  503 -0.00000000000E+00 -0.00000000000E+00 -0.24539863189E+03  0.24539863189E+03  0.00000000000E+00 0.  1.
          2    1    1    2  501    0 -0.18586496327E+02 -0.27091416864E+02 -0.72617091327E+02  0.79703479637E+02  0.00000000000E+00 0. -1.
         -2    1    1    2    0  503  0.18586496327E+02  0.27091416864E+02 -0.16764384561E+03  0.17083284721E+03  0.00000000000E+00 0.  1.
</event>
<event>
 4    1  0.1822260E+004  0.4633838E+02  0.7546771E-02  0.1314879E+00
         21   -1    0    0  501  502  0.00000000000E+00  0.00000000000E+00  0.60161963598E+02  0.60161963598E+02  0.00000000000E+00 0. -1.
         21   -1    0    0  502  503 -0.00000000000E+00 -0.00000000000E+00 -0.39295317417E+02  0.39295317417E+02  0.00000000000E+00 0.  1.
          2    1    1    2  501    0  0.43232660195E+02  0.16678813709E+02  0.25493934479E+02  0.52888433797E+02  0.00000000000E+00 0. -1.
         -2    1    1    2    0  503 -0.43232660195E+02 -0.16678813709E+02 -0.46272882978E+01  0.46568847219E+02  0.00000000000E+00 0.  1.
</event>
<event>
 4    1  0.1822260E+004  0.2504161E+02  0.7546771E-02  0.1468338E+00
         21   -1    0    0  501  502  0.00000000000E+00  0.00000000000E+00  0.85728763654E+03  0.85728763654E+03  0.00000000000E+00 0. -1.
         21   -1    0    0  502  503 -0.00000000000E+00 -0.00000000000E+00 -0.73158255908E+00  0.73158255908E+00  0.00000000000E+00 0.  1.
          2    1    1    2  501    0 -0.24923657042E+02 -0.24276789647E+01  0.43354069951E+03  0.43426330773E+03  0.00000000000E+00 0.  1.
         -2    1    1    2    0  503  0.24923657042E+02  0.24276789647E+01  0.42301535447E+03  0.42375591137E+03  0.00000000000E+00 0. -1.
</event>
<event>
 4    1  0.1822260E+004  0.4376231E+02  0.7546771E-02  0.1327745E+00
         21   -1    0    0  501  502  0.00000000000E+00  0.00000000000E+00  0.13756239202E+03  0.13756239202E+03  0.00000000000E+00 0. -1.
         21   -1    0    0  502  503 -0.00000000000E+00 -0.00000000000E+00 -0.11945510549E+03  0.11945510549E+03  0.00000000000E+00 0.  1.
          2    1    1    2  501    0  0.28246814415E+02 -0.33425393731E+02  0.12984191244E+03  0.13701847210E+03  0.00000000000E+00 0. -1.
         -2    1    1    2    0  503 -0.28246814415E+02  0.33425393731E+02 -0.11173462591E+03  0.11999902541E+03  0.00000000000E+00 0.  1.
</event>
<event>
 4    1  0.1822260E+004  0.2781090E+02  0.7546771E-02  0.1439628E+00
         21   -1    0    0  503  502  0.00000000000E+00  0.00000000000E+00  0.42905241022E+02  0.42905241022E+02  0.00000000000E+00 0. -1.
         21   -1    0    0  501  503 -0.00000000000E+00 -0.00000000000E+00 -0.20443357524E+02  0.20443357524E+02  0.00000000000E+00 0.  1.
          2    1    1    2  501    0  0.13276546746E+02  0.24437253457E+02  0.34099902418E+00  0.27812988519E+02  0.00000000000E+00 0.  1.
         -2    1    1    2    0  502 -0.13276546746E+02 -0.24437253457E+02  0.22120884474E+02  0.35535610026E+02  0.00000000000E+00 0. -1.
</event>
<event>
 4    1  0.1822260E+004  0.3996101E+02  0.7546771E-02  0.1348714E+00
         21   -1    0    0  503  502  0.00000000000E+00  0.00000000000E+00  0.66947636859E+02  0.66947636859E+02  0.00000000000E+00 0. -1.
         21   -1    0    0  501  503 -0.00000000000E+00 -0.00000000000E+00 -0.52001666921E+03  0.52001666921E+03  0.00000000000E+00 0.  1.
          2    1    1    2  501    0 -0.61679006840E+01  0.39482134667E+02 -0.51320677936E+03  0.51476021636E+03  0.00000000000E+00 0.  1.
         -2    1    1    2    0  502  0.61679006840E+01 -0.39482134667E+02  0.60137747009E+02  0.72204089718E+02  0.00000000000E+00 0. -1.
</event>
<event>
 4    1  0.1822260E+004  0.2505032E+02  0.7546771E-02  0.1468241E+00
         21   -1    0    0  503  502  0.00000000000E+00  0.00000000000E+00  0.32467738927E+02  0.32467738927E+02  0.00000000000E+00 0. -1.
         21   -1    0    0  501  503 -0.00000000000E+00 -0.00000000000E+00 -0.40532377637E+02  0.40532377637E+02  0.00000000000E+00 0.  1.
          2    1    1    2  501    0 -0.24800723790E+02 -0.35274123349E+01 -0.30432745361E+02  0.39416627563E+02  0.00000000000E+00 0.  1.
         -2    1    1    2    0  502  0.24800723790E+02  0.35274123349E+01  0.22368106650E+02  0.33583489000E+02  0.00000000000E+00 0. -1.
</event>
<event>
 4    1  0.1822260E+004  0.2480457E+02  0.7546771E-02  0.1471002E+00
         21   -1    0    0  501  502  0.00000000000E+00  0.00000000000E+00  0.68526429715E+01  0.68526429715E+01  0.00000000000E+00 0. -1.
         21   -1    0    0  502  503 -0.00000000000E+00 -0.00000000000E+00 -0.10766574405E+03  0.10766574405E+03  0.00000000000E+00 0.  1.
          2    1    1    2  501    0  0.24723778393E+02  0.20003964400E+01 -0.27072225069E+02  0.36717464157E+02  0.00000000000E+00 0. -1.
         -2    1    1    2    0  503 -0.24723778393E+02 -0.20003964400E+01 -0.73740876006E+02  0.77800922862E+02  0.00000000000E+00 0.  1.
</event>
<event>
 4    1  0.1822260E+004  0.2303681E+02  0.7546771E-02  0.1492036E+00
         21   -1    0    0  503  502  0.00000000000E+00  0.00000000000E+00  0.12353296753E+02  0.12353296753E+02  0.00000000000E+00 0. -1.
         21   -1    0    0  501  503 -0.00000000000E+00 -0.00000000000E+00 -0.78437870609E+02  0.78437870609E+02  0.00000000000E+00 0.  1.
          2    1    1    2  501    0  0.22451380552E+02  0.51604594579E+01 -0.63572572455E+02  0.67617799425E+02  0.00000000000E+00 0.  1.
         -2    1    1    2    0  502 -0.22451380552E+02 -0.51604594579E+01 -0.25120014010E+01  0.23173367937E+02  0.00000000000E+00 0. -1.
</event>
<event>
 4    1  0.1822260E+004  0.2453326E+02  0.7546771E-02  0.1474093E+00
         21   -1    0    0  503  502  0.00000000000E+00  0.00000000000E+00  0.16228359402E+02  0.16228359402E+02  0.00000000000E+00 0.  1.
         21   -1    0    0  501  503 -0.00000000000E+00 -0.00000000000E+00 -0.56894656540E+02  0.56894656540E+02  0.00000000000E+00 0. -1.
          2    1    1    2  501    0  0.24198853792E+02  0.40368897999E+01 -0.41905202926E+02  0.48558490878E+02  0.00000000000E+00 0. -1.
         -2    1    1    2    0  502 -0.24198853792E+02 -0.40368897999E+01  0.12389057876E+01  0.24564525065E+02  0.00000000000E+00 0.  1.
</event>
<event>
 4    1  0.1822260E+004  0.2096951E+02  0.7546771E-02  0.1519701E+00
         21   -1    0    0  503  502  0.00000000000E+00  0.00000000000E+00  0.24648499667E+01  0.24648499667E+01  0.00000000000E+00 0.  1.
         21   -1    0    0  501  503 -0.00000000000E+00 -0.00000000000E+00 -0.41439274531E+03  0.41439274531E+03  0.00000000000E+00 0. -1.
          2    1    1    2  501    0  0.13417611528E+02  0.16114842947E+02 -0.36325508479E+03  0.36385983165E+03  0.00000000000E+00 0. -1.
         -2    1    1    2    0  502 -0.13417611528E+02 -0.16114842947E+02 -0.48672810554E+02  0.52997763628E+02  0.00000000000E+00 0.  1.
</event>
<event>
 4    1  0.1822260E+004  0.4331205E+02  0.7546771E-02  0.1330099E+00
         21   -1    0    0  503  502  0.00000000000E+00  0.00000000000E+00  0.11363129484E+03  0.11363129484E+03  0.00000000000E+00 0. -1.
         21   -1    0    0  501  503 -0.00000000000E+00 -0.00000000000E+00 -0.26483431913E+02  0.26483431913E+02  0.00000000000E+00 0.  1.
          2    1    1    2  501    0 -0.41457193357E+02 -0.12539345188E+02  0.86568312146E+02  0.96798795068E+02  0.00000000000E+00 0. -1.
         -2    1    1    2    0  502  0.41457193357E+02  0.12539345188E+02  0.57955078241E+00  0.43315931687E+02  0.00000000000E+00 0.  1.
</event>
<event>
 4    1  0.1822260E+004  0.3638068E+02  0.7546771E-02  0.1371108E+00
         21   -1    0    0  503  502  0.00000000000E+00  0.00000000000E+00  0.24964041196E+02  0.24964041196E+02  0.00000000000E+00 0.  1.
         21   -1    0    0  501  503 -0.00000000000E+00 -0.00000000000E+00 -0.69377558948E+02  0.69377558948E+02  0.00000000000E+00 0. -1.
          2    1    1    2  501    0 -0.34943141772E+02 -0.10125748043E+02 -0.45112481835E+02  0.57954205608E+02  0.00000000000E+00 0. -1.
         -2    1    1    2    0  502  0.34943141772E+02  0.10125748043E+02  0.69896408307E+00  0.36387394536E+02  0.00000000000E+00 0.  1.
</event>
<event>
 4    1  0.1822260E+004  0.2972244E+02  0.7546771E-02  0.1422024E+00
         21   -1    0    0  503  502  0.00000000000E+00  0.00000000000E+00  0.84797002147E+03  0.84797002147E+03  0.00000000000E+00 0. -1.
         21   -1    0    0  501  503 -0.00000000000E+00 -0.00000000000E+00 -0.35924652544E+01  0.35924652544E+01  0.00000000000E+00 0.  1.
          2    1    1    2  501    0  0.61583283417E+01 -0.29077457953E+02  0.63418772543E+02  0.70038305804E+02  0.00000000000E+00 0.  1.
         -2    1    1    2    0  502 -0.61583283417E+01  0.29077457953E+02  0.78095878367E+03  0.78152418092E+03  0.00000000000E+00 0. -1.
</event>
<event>
 4    1  0.1822260E+004  0.2283152E+02  0.7546771E-02  0.1494625E+00
         21   -1    0    0  503  502  0.00000000000E+00  0.00000000000E+00  0.26875701722E+02  0.26875701722E+02  0.00000000000E+00 0.  1.
         21   -1    0    0  501  503 -0.00000000000E+00 -0.00000000000E+00 -0.40468577248E+02  0.40468577248E+02  0.00000000000E+00 0. -1.
          2    1    1    2  501    0  0.12871637235E+02 -0.18857336283E+02 -0.31094503118E+02  0.38576499335E+02  0.00000000000E+00 0. -1.
         -2    1    1    2    0  502 -0.12871637235E+02  0.18857336283E+02  0.17501627592E+02  0.28767779636E+02  0.00000000000E+00 0.  1.
</event>
<event>
 4    1  0.1822260E+004  0.2141538E+02  0.7546771E-02  0.1513416E+00
         21   -1    0    0  503  502  0.00000000000E+00  0.00000000000E+00  0.11533020479E+02  0.11533020479E+02  0.00000000000E+00 0. -1.
         21   -1    0    0  501  503 -0.00000000000E+00 -0.00000000000E+00 -0.41477268624E+02  0.41477268624E+02  0.00000000000E+00 0.  1.
          2    1    1    2  501    0  0.12896492878E+02  0.17096747113E+02 -0.95878640687E+01  0.23463704477E+02  0.00000000000E+00 0.  1.
         -2    1    1    2    0  502 -0.12896492878E+02 -0.17096747113E+02 -0.20356384076E+02  0.29546584626E+02  0.00000000000E+00 0. -1.
</event>
<event>
 4    1  0.1822260E+004  0.2316548E+02  0.7546771E-02  0.1490431E+00
         21   -1    0    0  501  502  0.00000000000E+00  0.00000000000E+00  0.26862754092E+03  0.26862754092E+03  0.00000000000E+00 0. -1.
         21   -1    0    0  502  503 -0.00000000000E+00 -0.00000000000E+00 -0.29652507143E+01  0.29652507143E+01  0.00000000000E+00 0.  1.
          2    1    1    2  501    0  0.12194854113E+02 -0.19695815315E+02  0.21040090074E+03  0.21167233792E+03  0.00000000000E+00 0. -1.
         -2    1    1    2    0  503 -0.12194854113E+02  0.19695815315E+02  0.55261389465E+02  0.59920453715E+02  0.00000000000E+00 0.  1.
</event>
<event>
 4    1  0.1822260E+004  0.2029305E+02  0.7546771E-02  0.1529602E+00
         21   -1    0    0  503  502  0.00000000000E+00  0.00000000000E+00  0.58776058875E+01  0.58776058875E+01  0.00000000000E+00 0. -1.
         21   -1    0    0  501  503 -0.00000000000E+00 -0.00000000000E+00 -0.22417099739E+03  0.22417099739E+03  0.00000000000E+00 0.  1.
          2    1    1    2  501    0  0.19669799418E+02 -0.49906781042E+01 -0.20451657676E+03  0.20552089442E+03  0.00000000000E+00 0.  1.
         -2    1    1    2    0  502 -0.19669799418E+02  0.49906781042E+01 -0.13776814751E+02  0.24527708857E+02  0.00000000000E+00 0. -1.
</event>
<event>
 4    1  0.1822260E+004  0.5556522E+02  0.7546771E-02  0.1275693E+00
         21   -1    0    0  503  502  0.00000000000E+00  0.00000000000E+00  0.80062979053E+03  0.80062979053E+03  0.00000000000E+00 0. -1.
         21   -1    0    0  501  503 -0.00000000000E+00 -0.00000000000E+00 -0.54822921892E+01  0.54822921892E+01  0.00000000000E+00 0.  1.
          2    1    1    2  501    0  0.25189263606E+02  0.49527712239E+02  0.61707624708E+03  0.61957290773E+03  0.00000000000E+00 0. -1.
         -2    1    1    2    0  502 -0.25189263606E+02 -0.49527712239E+02  0.17807125126E+03  0.18653917499E+03  0.00000000000E+00 0.  1.
</event>
<event>
 4    1  0.1822260E+004  0.2345475E+02  0.7546771E-02  0.1486865E+00
         21   -1    0    0  503  502  0.00000000000E+00  0.00000000000E+00  0.14144259594E+03  0.14144259594E+03  0.00000000000E+00 0.  1.
         21   -1    0    0  501  503 -0.00000000000E+00 -0.00000000000E+00 -0.80043078144E+01  0.80043078144E+01  0.00000000000E+00 0. -1.
          2    1    1    2  501    0 -0.23434232479E+02 -0.98076148575E+00  0.13142473686E+02  0.26885865423E+02  0.00000000000E+00 0. -1.
         -2    1    1    2    0  502  0.23434232479E+02  0.98076148575E+00  0.12029581444E+03  0.12256103833E+03  0.00000000000E+00 0.  1.
</event>
<event>
 4    1  0.1822260E+004  0.2206157E+02  0.7546771E-02  0.1504631E+00
         21   -1    0    0  503  502  0.00000000000E+00  0.00000000000E+00  0.13796195942E+03  0.13796195942E+03  0.00000000000E+00 0.  1.
         21   -1    0    0  501  503 -0.00000000000E+00 -0.00000000000E+00 -0.75367625761E+01  0.75367625761E+01  0.00000000000E+00 0. -1.
          2    1    1    2  501    0  0.20095284821E+02  0.91045250395E+01  0.12154878068E+02  0.25188368528E+02  0.00000000000E+00 0. -1.
         -2    1    1    2    0  502 -0.20095284821E+02 -0.91045250395E+01  0.11827031878E+03  0.12031035347E+03  0.00000000000E+00 0.  1.
</event>
<event>
 4    1  0.1822260E+004  0.2734882E+02  0.7546771E-02  0.1444135E+00
         21   -1    0    0  501  502  0.00000000000E+00  0.00000000000E+00  0.25188643321E+01  0.25188643321E+01  0.00000000000E+00 0.  1.
         21   -1    0    0  502  503 -0.00000000000E+00 -0.00000000000E+00 -0.45210043425E+03  0.45210043425E+03  0.00000000000E+00 0. -1.
          2    1    1    2  501    0 -0.26924157592E+02  0.48008143723E+01 -0.91626645083E+02  0.95621128261E+02  0.00000000000E+00 0.  1.
         -2    1    1    2    0  503  0.26924157592E+02 -0.48008143723E+01 -0.35795492483E+03  0.35899817032E+03  0.00000000000E+00 0. -1.
</event>
<event>
 4    1  0.1822260E+004  0.2896674E+02  0.7546771E-02  0.1428793E+00
         21   -1    0    0  503  502  0.00000000000E+00  0.00000000000E+00  0.83574933510E+02  0.83574933510E+02  0.00000000000E+00 0.  1.
         21   -1    0    0  501  503 -0.00000000000E+00 -0.00000000000E+00 -0.10817191976E+02  0.10817191976E+02  0.00000000000E+00 0. -1.
          2    1    1    2  501    0  0.24792889583E+02  0.14979478649E+02  0.23726261341E+02  0.37443392364E+02  0.00000000000E+00 0. -1.
         -2    1    1    2    0  502 -0.24792889583E+02 -0.14979478649E+02  0.49031480192E+02  0.56948733123E+02  0.00000000000E+00 0.  1.
</event>
<event>
 4    1  0.1822260E+004  0.2859880E+02  0.7546771E-02  0.1432177E+00
         21   -1    0    0  503  502  0.00000000000E+00  0.00000000000E+00  0.25692115736E+02  0.25692115736E+02  0.00000000000E+00 0.  1.
         21   -1    0    0  501  503 -0.00000000000E+00 -0.00000000000E+00 -0.88094307637E+02  0.88094307637E+02  0.00000000000E+00 0. -1.
          2    1    1    2  501    0 -0.27276072878E+02  0.85969241315E+01 -0.76667050175E+02  0.81827427179E+02  0.00000000000E+00 0. -1.
         -2    1    1    2    0  502  0.27276072878E+02 -0.85969241315E+01  0.14264858274E+02  0.31958996194E+02  0.00000000000E+00 0.  1.
</event>
<event>
 4    1  0.1822260E+004  0.2223729E+02  0.7546771E-02  0.1502304E+00
         21   -1    0    0  501  502  0.00000000000E+00  0.00000000000E+00  0.31024675950E+03  0.31024675950E+03  0.00000000000E+00 0. -1.
         21   -1    0    0  502  503 -0.00000000000E+00 -0.00000000000E+00 -0.33536101895E+01  0.33536101895E+01  0.00000000000E+00 0.  1.
          2    1    1    2  501    0 -0.80650610454E+00 -0.22222664390E+02  0.26702945067E+03  0.26795377361E+03  0.00000000000E+00 0. -1.
         -2    1    1    2    0  503  0.80650610454E+00  0.22222664390E+02  0.39863698640E+02  0.45646596083E+02  0.00000000000E+00 0.  1.
</event>
<event>
 4    1  0.1822260E+004  0.2127658E+02  0.7546771E-02  0.1515352E+00
         21   -1    0    0  501  502  0.00000000000E+00  0.00000000000E+00  0.27561048474E+03  0.27561048474E+03  0.00000000000E+00 0. -1.
         21   -1    0    0  502  503 -0.00000000000E+00 -0.00000000000E+00 -0.90915825045E+01  0.90915825045E+01  0.00000000000E+00 0.  1.
          2    1    1    2  501    0 -0.20656507472E+02  0.50991639686E+01  0.26211170067E+03  0.26297383217E+03  0.00000000000E+00 0. -1.
         -2    1    1    2    0  503  0.20656507472E+02 -0.50991639686E+01  0.44072015653E+01  0.21728235082E+02  0.00000000000E+00 0.  1.
</event>
<event>
 4    1  0.1822260E+004  0.2679645E+02  0.7546771E-02  0.1449664E+00
         21   -1    0    0  503  502  0.00000000000E+00  0.00000000000E+00  0.23848547414E+03  0.23848547414E+03  0.00000000000E+00 0. -1.
         21   -1    0    0  501  503 -0.00000000000E+00 -0.00000000000E+00 -0.43383993631E+01  0.43383993631E+01  0.00000000000E+00 0.  1.
          2    1    1    2  501    0 -0.10028219942E+02  0.24849230908E+02  0.49912375250E+02  0.56650637023E+02  0.00000000000E+00 0.  1.
         -2    1    1    2    0  502  0.10028219942E+02 -0.24849230908E+02  0.18423469952E+03  0.18617323648E+03  0.00000000000E+00 0. -1.
</event>
<event>
 4    1  0.1822260E+004  0.2822860E+02  0.7546771E-02  0.1435642E+00
         21   -1    0    0  501  502  0.00000000000E+00  0.00000000000E+00  0.25884199804E+02  0.25884199804E+02  0.00000000000E+00 0. -1.
         21   -1    0    0  502  503 -0.00000000000E+00 -0.00000000000E+00 -0.69594804909E+03  0.69594804909E+03  0.00000000000E+00 0.  1.
          2    1    1    2  501    0  0.25260959123E+02  0.12599125907E+02  0.17811329968E+02  0.33378099177E+02  0.00000000000E+00 0. -1.
         -2    1    1    2    0  503 -0.25260959123E+02 -0.12599125907E+02 -0.68787517925E+03  0.68845414972E+03  0.00000000000E+00 0.  1.
</event>
<event>
 4    1  0.1822260E+004  0.2650292E+02  0.7546771E-02  0.1452666E+00
         21   -1    0    0  501  502  0.00000000000E+00  0.00000000000E+00  0.77054206950E+02  0.77054206950E+02  0.00000000000E+00 0. -1.
         21   -1    0    0  502  503 -0.00000000000E+00 -0.00000000000E+00 -0.71699910330E+02  0.71699910330E+02  0.00000000000E+00 0.  1.
          2    1    1    2  501    0  0.19353474080E+02 -0.18106564793E+02  0.72165499829E+02  0.76878241481E+02  0.00000000000E+00 0. -1.
         -2    1    1    2    0  503 -0.19353474080E+02  0.18106564793E+02 -0.66811203210E+02  0.71875875799E+02  0.00000000000E+00 0.  1.
</event>
<event>
 4    1  0.1822260E+004  0.2567799E+02  0.7546771E-02  0.1461360E+00
         21   -1    0    0  503  502  0.00000000000E+00  0.00000000000E+00  0.33102004694E+02  0.33102004694E+02  0.00000000000E+00 0.  1.
         21   -1    0    0  501  503 -0.00000000000E+00 -0.00000000000E+00 -0.19927787705E+02  0.19927787705E+02  0.00000000000E+00 0. -1.
          2    1    1    2  501    0  0.25156466979E+02  0.51489402111E+01  0.60308697626E+01  0.26376709542E+02  0.00000000000E+00 0.  1.
         -2    1    1    2    0  502 -0.25156466979E+02 -0.51489402111E+01  0.71433472257E+01  0.26653082857E+02  0.00000000000E+00 0. -1.
</event>
<event>
 4    1  0.1822260E+004  0.2326072E+02  0.7546771E-02  0.1489250E+00
         21   -1    0    0  503  502  0.00000000000E+00  0.00000000000E+00  0.29632675786E+02  0.29632675786E+02  0.00000000000E+00 0. -1.
         21   -1    0    0  501  503 -0.00000000000E+00 -0.00000000000E+00 -0.10923933870E+03  0.10923933870E+03  0.00000000000E+00 0.  1.
          2    1    1    2  501    0 -0.16353649863E+02  0.16541438048E+02 -0.10317120645E+03  0.10576085702E+03  0.00000000000E+00 0.  1.
         -2    1    1    2    0  502  0.16353649863E+02 -0.16541438048E+02  0.23564543539E+02  0.33111157466E+02  0.00000000000E+00 0. -1.
</event>
<event>
 4    1  0.1822260E+004  0.4246150E+02  0.7546771E-02  0.1334635E+00
         21   -1    0    0  501  502  0.00000000000E+00  0.00000000000E+00  0.35884227810E+02  0.35884227810E+02  0.00000000000E+00 0.  1.
         21   -1    0    0  502  503 -0.00000000000E+00 -0.00000000000E+00 -0.67727829622E+02  0.67727829622E+02  0.00000000000E+00 0. -1.
          2    1    1    2  501    0  0.41497016007E+02 -0.89987046272E+01  0.10399714760E+02  0.43716508204E+02  0.00000000000E+00 0.  1.
         -2    1    1    2    0  503 -0.41497016007E+02  0.89987046272E+01 -0.42243316573E+02  0.59895549229E+02  0.00000000000E+00 0. -1.
</event>
<event>
 4    1  0.1822260E+004  0.2184148E+02  0.7546771E-02  0.1507582E+00
         21   -1    0    0  501  502  0.00000000000E+00  0.00000000000E+00  0.12731270335E+02  0.12731270335E+02  0.00000000000E+00 0.  1.
         21   -1    0    0  502  503 -0.00000000000E+00 -0.00000000000E+00 -0.17780112659E+03  0.17780112659E+03  0.00000000000E+00 0. -1.
          2    1    1    2  501    0 -0.51455677002E+01 -0.21226716130E+02  0.20995683348E+01  0.21942163335E+02  0.00000000000E+00 0.  1.
         -2    1    1    2    0  503  0.51455677002E+01  0.21226716130E+02 -0.16716942459E+03  0.16859023359E+03  0.00000000000E+00 0. -1.
</event>
<event>
 4    1  0.1822260E+004  0.2081997E+02  0.7546771E-02  0.1521851E+00
         21   -1    0    0  501  502  0.00000000000E+00  0.00000000000E+00  0.25266781656E+02  0.25266781656E+02  0.00000000000E+00 0.  1.
         21   -1    0    0  502  503 -0.00000000000E+00 -0.00000000000E+00 -0.57441297483E+02  0.57441297483E+02  0.00000000000E+00 0. -1.
          2    1    1    2  501    0  0.13172330420E+02  0.16123302730E+02  0.18544961757E+02  0.27881656805E+02  0.00000000000E+00 0.  1.
         -2    1    1    2    0  503 -0.13172330420E+02 -0.16123302730E+02 -0.50719477584E+02  0.54826422334E+02  0.00000000000E+00 0. -1.
</event>
<event>
 4    1  0.1822260E+004  0.2864114E+02  0.7546771E-02  0.1431784E+00
         21   -1    0    0  503  502  0.00000000000E+00  0.00000000000E+00  0.42128763902E+01  0.42128763902E+01  0.00000000000E+00 0.  1.
         21   -1    0    0  501  503 -0.00000000000E+00 -0.00000000000E+00 -0.20031314776E+03  0.20031314776E+03  0.00000000000E+00 0. -1.
          2    1    1    2  501    0  0.24434192848E+02  0.14942727721E+02 -0.80956160479E+02  0.85873248520E+02  0.00000000000E+00 0. -1.
         -2    1    1    2    0  502 -0.24434192848E+02 -0.14942727721E+02 -0.11514411089E+03  0.11865277563E+03  0.00000000000E+00 0.  1.
</event>
<event>
 4    1  0.1822260E+004  0.2798442E+02  0.7546771E-02  0.1437962E+00
         21   -1    0    0  503  502  0.00000000000E+00  0.00000000000E+00  0.13750100351E+03  0.13750100351E+03  0.00000000000E+00 0. -1.
         21   -1    0    0  501  503 -0.00000000000E+00 -0.00000000000E+00 -0.72012949857E+01  0.72012949857E+01  0.00000000000E+00 0.  1.
          2    1    1    2  501    0  0.19969180775E+02  0.19605088649E+02  0.32064728257E+02  0.42559070478E+02  0.00000000000E+00 0.  1.
         -2    1    1    2    0  502 -0.19969180775E+02 -0.19605088649E+02  0.98234980269E+02  0.10214322802E+03  0.00000000000E+00 0. -1.
</event>
<event>
 4    1  0.1822260E+004  0.3913851E+02  0.7546771E-02  0.1353609E+00
         21   -1    0    0  501  502  0.00000000000E+00  0.00000000000E+00  0.30435807591E+03  0.30435807591E+03  0.00000000000E+00 0. -1.
         21   -1    0    0  502  503 -0.00000000000E+00 -0.00000000000E+00 -0.54437199283E+01  0.54437199283E+01  0.00000000000E+00 0.  1.
          2    1    1    2  501    0 -0.39137078671E+02 -0.33421315304E+00  0.19200712611E+03  0.19595550286E+03  0.00000000000E+00 0. -1.
         -2    1    1    2    0  503  0.39137078671E+02  0.33421315304E+00  0.10690722987E+03  0.11384629298E+03  0.00000000000E+00 0.  1.
</event>
<event>
 4    1  0.1822260E+004  0.4192355E+02  0.7546771E-02  0.1337568E+00
         21   -1    0    0  503  502  0.00000000000E+00  0.00000000000E+00  0.50918060478E+01  0.50918060478E+01  0.00000000000E+00 0. -1.
         21   -1    0    0  501  503 -0.00000000000E+00 -0.00000000000E+00 -0.56554679252E+03  0.56554679252E+03  0.00000000000E+00 0.  1.
          2    1    1    2  501    0  0.37766537481E+01  0.41753097075E+02 -0.45833039441E+03  0.46024377743E+03  0.00000000000E+00 0.  1.
         -2    1    1    2    0  502 -0.37766537481E+01 -0.41753097075E+02 -0.10212459207E+03  0.11039482114E+03  0.00000000000E+00 0. -1.
</event>
<event>
 4    1  0.1822260E+004  0.2185801E+02  0.7546771E-02  0.1507359E+00
         21   -1    0    0  503  502  0.00000000000E+00  0.00000000000E+00  0.92711997562E+01  0.92711997562E+01  0.00000000000E+00 0. -1.
         21   -1    0    0  501  503 -0.00000000000E+00 -0.00000000000E+00 -0.71092183691E+02  0.71092183691E+02  0.00000000000E+00 0.  1.
          2    1    1    2  501    0 -0.11662527032E+02  0.18486700914E+02 -0.51986713760E+02  0.56394955936E+02  0.00000000000E+00 0.  1.
         -2    1    1    2    0  502  0.11662527032E+02 -0.18486700914E+02 -0.98342701746E+01  0.23968427511E+02  0.00000000000E+00 0. -1.
</event>
<event>
 4    1  0.1822260E+004  0.3484318E+02  0.7546771E-02  0.1381669E+00
         21   -1    0    0  501  502  0.00000000000E+00  0.00000000000E+00  0.23285632518E+02  0.23285632518E+02  0.00000000000E+00 0. -1.
         21   -1    0    0  502  503 -0.00000000000E+00 -0.00000000000E+00 -0.67504326491E+02  0.67504326491E+02  0.00000000000E+00 0.  1.
          2    1    1    2  501    0 -0.70603489286E+01 -0.34120351574E+02 -0.43768367620E+02  0.55943872968E+02  0.00000000000E+00 0. -1.
         -2    1    1    2    0  503  0.70603489286E+01  0.34120351574E+02 -0.45032635340E+00  0.34846086041E+02  0.00000000000E+00 0.  1.
</event>
<event>
 4    1  0.1822260E+004  0.2071479E+02  0.7546771E-02  0.1523376E+00
         21   -1    0    0  503  502  0.00000000000E+00  0.00000000000E+00  0.17446352290E+02  0.17446352290E+02  0.00000000000E+00 0.  1.
         21   -1    0    0  501  503 -0.00000000000E+00 -0.00000000000E+00 -0.69948331831E+02  0.69948331831E+02  0.00000000000E+00 0. -1.
          2    1    1    2  501    0  0.18944017112E+02  0.83801490724E+01 -0.61436859580E+02  0.64835101587E+02  0.00000000000E+00 0. -1.
         -2    1    1    2    0  502 -0.18944017112E+02 -0.83801490724E+01  0.89348800387E+01  0.22559582534E+02  0.00000000000E+00 0.  1.
</event>
<event>
 4    1  0.1822260E+004  0.7060803E+02  0.7546771E-02  0.1227509E+00
         21   -1    0    0  501  502  0.00000000000E+00  0.00000000000E+00  0.55810744867E+01  0.55810744867E+01  0.00000000000E+00 0. -1.
         21   -1    0    0  502  503 -0.00000000000E+00 -0.00000000000E+00 -0.13079178199E+04  0.13079178199E+04  0.00000000000E+00 0.  1.
          2    1    1    2  501    0 -0.63726674735E+02  0.30404020253E+02 -0.28139042625E+03  0.29011388368E+03  0.00000000000E+00 0.  1.
         -2    1    1    2    0  503  0.63726674735E+02 -0.30404020253E+02 -0.10209463192E+04  0.10233850107E+04  0.00000000000E+00 0. -1.
</event>
<event>
 4    1  0.1822260E+004  0.4728281E+02  0.7546771E-02  0.1310404E+00
         21   -1    0    0  501  502  0.00000000000E+00  0.00000000000E+00  0.89293733342E+02  0.89293733342E+02  0.00000000000E+00 0. -1.
         21   -1    0    0  502  503 -0.00000000000E+00 -0.00000000000E+00 -0.25388442179E+02  0.25388442179E+02  0.00000000000E+00 0.  1.
          2    1    1    2  501    0 -0.38120604184E+02 -0.27972900990E+02  0.25207971390E+02  0.53582697531E+02  0.00000000000E+00 0.  1.
         -2    1    1    2    0  503  0.38120604184E+02  0.27972900990E+02  0.38697319772E+02  0.61099477990E+02  0.00000000000E+00 0. -1.
</event>
<event>
 4    1  0.1822260E+004  0.2171987E+02  0.7546771E-02  0.1509230E+00
         21   -1    0    0  503  502  0.00000000000E+00  0.00000000000E+00  0.29069030179E+02  0.29069030179E+02  0.00000000000E+00 0. -1.
         21   -1    0    0  501  503 -0.00000000000E+00 -0.00000000000E+00 -0.17343157963E+02  0.17343157963E+02  0.00000000000E+00 0.  1.
          2    1    1    2  501    0 -0.21693736134E+02 -0.10651441602E+01  0.11745529118E+02  0.24692310013E+02  0.00000000000E+00 0. -1.
         -2    1    1    2    0  502  0.21693736134E+02  0.10651441602E+01 -0.19656901733E-01  0.21719878129E+02  0.00000000000E+00 0.  1.
</event>
<event>
 4    1  0.1822260E+004  0.2599744E+02  0.7546771E-02  0.1457948E+00
         21   -1    0    0  501  502  0.00000000000E+00  0.00000000000E+00  0.59390922658E+02  0.59390922658E+02  0.00000000000E+00 0. -1.
         21   -1    0    0  502  503 -0.00000000000E+00 -0.00000000000E+00 -0.42987429180E+02  0.42987429180E+02  0.00000000000E+00 0.  1.
          2    1    1    2  501    0 -0.71684263101E+00 -0.25987550806E+02  0.52095450073E+02  0.58222011118E+02  0.00000000000E+00 0. -1.
         -2    1    1    2    0  503  0.71684263101E+00  0.25987550806E+02 -0.35691956595E+02  0.44156340721E+02  0.00000000000E+00 0.  1.
</event>
<event>
 4    1  0.1822260E+004  0.2006139E+02  0.7546771E-02  0.1533099E+00
         21   -1    0    0  501  502  0.00000000000E+00  0.00000000000E+00  0.22957920578E+03  0.22957920578E+03  0.00000000000E+00 0. -1.
         21   -1    0    0  502  503 -0.00000000000E+00 -0.00000000000E+00 -0.16114790084E+02  0.16114790084E+02  0.00000000000E+00 0.  1.
          2    1    1    2  501    0 -0.49611699170E+01  0.19438264824E+02  0.22270498255E+03  0.22360672754E+03  0.00000000000E+00 0. -1.
         -2    1    1    2    0  503  0.49611699170E+01 -0.19438264824E+02 -0.92405668564E+01  0.22087268326E+02  0.00000000000E+00 0.  1.
</event>
<event>
 4    1  0.1822260E+004  0.2144137E+02  0.7546771E-02  0.1513056E+00
         21   -1    0    0  503  502  0.00000000000E+00  0.00000000000E+00  0.14344631696E+03  0.14344631696E+03  0.00000000000E+00 0.  1.
         21   -1    0    0  501  503 -0.00000000000E+00 -0.00000000000E+00 -0.87555099729E+01  0.87555099729E+01  0.00000000000E+00 0. -1.
          2    1    1    2  501    0  0.16459447511E+02  0.13741135117E+02  0.67528575798E+01  0.22479619485E+02  0.00000000000E+00 0. -1.
         -2    1    1    2    0  502 -0.16459447511E+02 -0.13741135117E+02  0.12793794941E+03  0.12972220745E+03  0.00000000000E+00 0.  1.
</event>
<event>
 4    1  0.1822260E+004  0.4385337E+02  0.7546771E-02  0.1327273E+00
         21   -1    0    0  501  502  0.00000000000E+00  0.00000000000E+00  0.89954186522E+01  0.89954186522E+01  0.00000000000E+00 0. -1.
         21   -1    0    0  502  503 -0.00000000000E+00 -0.00000000000E+00 -0.21613221210E+03  0.21613221210E+03  0.00000000000E+00 0.  1.
          2    1    1    2  501    0 -0.23102188102E+02  0.37274744174E+02 -0.91846844348E+02  0.10177897850E+03  0.00000000000E+00 0.  1.
         -2    1    1    2    0  503  0.23102188102E+02 -0.37274744174E+02 -0.11528994910E+03  0.12334865225E+03  0.00000000000E+00 0. -1.
</event>
<event>
 4    1  0.1822260E+004  0.2347302E+02  0.7546771E-02  0.1486642E+00
         21   -1    0    0  503  502  0.00000000000E+00  0.00000000000E+00  0.62895454062E+03  0.62895454062E+03  0.00000000000E+00 0.  1.
         21   -1    0    0  501  503 -0.00000000000E+00 -0.00000000000E+00 -0.12578303735E+01  0.12578303735E+01  0.00000000000E+00 0. -1.
          2    1    1    2  501    0  0.22392393765E+02  0.70401325616E+01  0.14024252000E+03  0.14219334436E+03  0.00000000000E+00 0. -1.
         -2    1    1    2    0  502 -0.22392393765E+02 -0.70401325616E+01  0.48745419025E+03  0.48801902663E+03  0.00000000000E+00 0.  1.
</event>
<event>
 4    1  0.1822260E+004  0.5203002E+02  0.7546771E-02  0.1289603E+00
         21   -1    0    0  501  502  0.00000000000E+00  0.00000000000E+00  0.20374314124E+03  0.20374314124E+03  0.00000000000E+00 0. -1.
         21   -1    0    0  502  503 -0.00000000000E+00 -0.00000000000E+00 -0.17821599178E+02  0.17821599178E+02  0.00000000000E+00 0.  1.
          2    1    1    2  501    0 -0.57872975338E+01 -0.51707157124E+02  0.14884247474E+03  0.15767436443E+03  0.00000000000E+00 0. -1.
         -2    1    1    2    0  503  0.57872975338E+01  0.51707157124E+02  0.37079067315E+02  0.63890375985E+02  0.00000000000E+00 0.  1.
</event>
<event>
 4    1  0.1822260E+004  0.2637010E+02  0.7546771E-02  0.1454040E+00
         21   -1    0    0  501  502  0.00000000000E+00  0.00000000000E+00  0.56335915495E+02  0.56335915495E+02  0.00000000000E+00 0. -1.
         21   -1    0    0  502  503 -0.00000000000E+00 -0.00000000000E+00 -0.15316203711E+02  0.15316203711E+02  0.00000000000E+00 0.  1.
          2    1    1    2  501    0 -0.13975532055E+02 -0.22362174544E+02  0.36293210858E+02  0.44861782187E+02  0.00000000000E+00 0. -1.
         -2    1    1    2    0  503  0.13975532055E+02  0.22362174544E+02  0.47265009262E+01  0.26790337019E+02  0.00000000000E+00 0.  1.
</event>
<event>
 4    1  0.1822260E+004  0.2338430E+02  0.7546771E-02  0.1487728E+00
         21   -1    0    0  501  502  0.00000000000E+00  0.00000000000E+00  0.18601407089E+03  0.18601407089E+03  0.00000000000E+00 0.  1.
         21   -1    0    0  502  503 -0.00000000000E+00 -0.00000000000E+00 -0.30576812194E+01  0.30576812194E+01  0.00000000000E+00 0. -1.
          2    1    1    2  501    0  0.21387104791E+02 -0.94560697477E+01  0.11004800919E+03  0.11250506581E+03  0.00000000000E+00 0.  1.
         -2    1    1    2    0  503 -0.21387104791E+02  0.94560697477E+01  0.72908380474E+02  0.76566686292E+02  0.00000000000E+00 0. -1.
</event>
<event>
 4    1  0.1822260E+004  0.2203281E+02  0.7546771E-02  0.1505014E+00
         21   -1    0    0  503  502  0.00000000000E+00  0.00000000000E+00  0.10639645231E+03  0.10639645231E+03  0.00000000000E+00 0.  1.
         21   -1    0    0  501  503 -0.00000000000E+00 -0.00000000000E+00 -0.18520428042E+02  0.18520428042E+02  0.00000000000E+00 0. -1.
          2    1    1    2  501    0 -0.25594163395E+01  0.21883654194E+02 -0.10283855917E+02  0.24314658652E+02  0.00000000000E+00 0. -1.
         -2    1    1    2    0  502  0.25594163395E+01 -0.21883654194E+02  0.98159880186E+02  0.10060222170E+03  0.00000000000E+00 0.  1.
</event>
<event>
 4    1  0.1822260E+004  0.3465092E+02  0.7546771E-02  0.1383034E+00
         21   -1    0    0  503  502  0.00000000000E+00  0.00000000000E+00  0.33756159621E+02  0.33756159621E+02  0.00000000000E+00 0. -1.
         21   -1    0    0  501  503 -0.00000000000E+00 -0.00000000000E+00 -0.13867003553E+03  0.13867003553E+03  0.00000000000E+00 0.  1.
          2    1    1    2  501    0 -0.30213815839E+02 -0.16965009026E+02 -0.12679523639E+03  0.13144473428E+03  0.00000000000E+00 0.  1.
         -2    1    1    2    0  502  0.30213815839E+02  0.16965009026E+02  0.21881360480E+02  0.40981460872E+02  0.00000000000E+00 0. -1.
</event>
<event>
 4    1  0.1822260E+004  0.4662134E+02  0.7546771E-02  0.1313525E+00
         21   -1    0    0  503  502  0.00000000000E+00  0.00000000000E+00  0.28211102090E+01  0.28211102090E+01  0.00000000000E+00 0. -1.
         21   -1    0    0  501  503 -0.00000000000E+00 -0.00000000000E+00 -0.77721176416E+03  0.77721176416E+03  0.00000000000E+00 0.  1.
          2    1    1    2  501    0  0.43625800992E+01  0.46416779807E+02 -0.42354966771E+03  0.42610781567E+03  0.00000000000E+00 0.  1.
         -2    1    1    2    0  502 -0.43625800992E+01 -0.46416779807E+02 -0.35084098624E+03  0.35392505870E+03  0.00000000000E+00 0. -1.
</event>
<event>
 4    1  0.1822260E+004  0.2554289E+02  0.7546771E-02  0.1462821E+00
         21   -1    0    0  503  502  0.00000000000E+00  0.00000000000E+00  0.59475307201E+02  0.59475307201E+02  0.00000000000E+00 0.  1.
         21   -1    0    0  501  503 -0.00000000000E+00 -0.00000000000E+00 -0.40077468679E+02  0.40077468679E+02  0.00000000000E+00 0. -1.
          2    1    1    2  501    0 -0.76180238193E+01 -0.24380419636E+02 -0.32721609718E+02  0.41510756330E+02  0.00000000000E+00 0. -1.
         -2    1    1    2    0  502  0.76180238193E+01  0.24380419636E+02  0.52119448240E+02  0.58042019549E+02  0.00000000000E+00 0.  1.
</event>
<event>
 4    1  0.1822260E+004  0.3249976E+02  0.7546771E-02  0.1399048E+00
         21   -1    0    0  501  502  0.00000000000E+00  0.00000000000E+00  0.99127633937E+01  0.99127633937E+01  0.00000000000E+00 0.  1.
         21   -1    0    0  502  503 -0.00000000000E+00 -0.00000000000E+00 -0.10928796526E+03  0.10928796526E+03  0.00000000000E+00 0. -1.
          2    1    1    2  501    0 -0.14633225230E+02 -0.29019017351E+02 -0.40259181681E+02  0.51740084637E+02  0.00000000000E+00 0. -1.
         -2    1    1    2    0  503  0.14633225230E+02  0.29019017351E+02 -0.59116020186E+02  0.67460644017E+02  0.00000000000E+00 0.  1.
</event>
<event>
 4    1  0.1822260E+004  0.4539715E+02  0.7546771E-02  0.1319465E+00
         21   -1    0    0  501  502  0.00000000000E+00  0.00000000000E+00  0.14542857374E+03  0.14542857374E+03  0.00000000000E+00 0.  1.
         21   -1    0    0  502  503 -0.00000000000E+00 -0.00000000000E+00 -0.15240029070E+03  0.15240029070E+03  0.00000000000E+00 0. -1.
          2    1    1    2  501    0  0.27651011970E+00  0.45396309652E+02  0.13833613146E+03  0.14559459693E+03  0.00000000000E+00 0.  1.
         -2    1    1    2    0  503 -0.27651011970E+00 -0.45396309652E+02 -0.14530784842E+03  0.15223426750E+03  0.00000000000E+00 0. -1.
</event>
<event>
 4    1  0.1822260E+004  0.3667331E+02  0.7546771E-02  0.1369166E+00
         21   -1    0    0  501  502  0.00000000000E+00  0.00000000000E+00  0.67192389612E+02  0.67192389612E+02  0.00000000000E+00 0. -1.
         21   -1    0    0  502  503 -0.00000000000E+00 -0.00000000000E+00 -0.90857456889E+02  0.90857456889E+02  0.00000000000E+00 0.  1.
          2    1    1    2  501    0  0.27596966678E+02 -0.24152407796E+02  0.57946853145E+02  0.68576739216E+02  0.00000000000E+00 0. -1.
         -2    1    1    2    0  503 -0.27596966678E+02  0.24152407796E+02 -0.81611920422E+02  0.89473107284E+02  0.00000000000E+00 0.  1.
</event>
<event>
 4    1  0.1822260E+004  0.2235985E+02  0.7546771E-02  0.1500697E+00
         21   -1    0    0  501  502  0.00000000000E+00  0.00000000000E+00  0.11598062544E+03  0.11598062544E+03  0.00000000000E+00 0. -1.
         21   -1    0    0  502  503 -0.00000000000E+00 -0.00000000000E+00 -0.33697423486E+02  0.33697423486E+02  0.00000000000E+00 0.  1.
          2    1    1    2  501    0  0.18486361226E+02 -0.12578448737E+02  0.11102998828E+03  0.11325908892E+03  0.00000000000E+00 0. -1.
         -2    1    1    2    0  503 -0.18486361226E+02  0.12578448737E+02 -0.28746786329E+02  0.36418960011E+02  0.00000000000E+00 0.  1.
</event>
<event>
 4    1  0.1822260E+004  0.2713296E+02  0.7546771E-02  0.1446277E+00
         21   -1    0    0  501  502  0.00000000000E+00  0.00000000000E+00  0.25224614043E+03  0.25224614043E+03  0.00000000000E+00 0.  1.
         21   -1    0    0  502  503 -0.00000000000E+00 -0.00000000000E+00 -0.70578017882E+01  0.70578017882E+01  0.00000000000E+00 0. -1.
          2    1    1    2  501    0 -0.13912394049E-01 -0.27132961419E+02  0.22188389619E+03  0.22353671103E+03  0.00000000000E+00 0.  1.
         -2    1    1    2    0  503  0.13912394049E-01  0.27132961419E+02  0.23304442448E+02  0.35767231186E+02  0.00000000000E+00 0. -1.
</event>
<event>
 4    1  0.1822260E+004  0.2978477E+02  0.7546771E-02  0.1421476E+00
         21   -1    0    0  501  502  0.00000000000E+00  0.00000000000E+00  0.21261804266E+02  0.21261804266E+02  0.00000000000E+00 0. -1.
         21   -1    0    0  502  503 -0.00000000000E+00 -0.00000000000E+00 -0.17859361686E+03  0.17859361686E+03  0.00000000000E+00 0.  1.
          2    1    1    2  501    0  0.25715143127E+02  0.15028776712E+02  0.88135568776E+01  0.31061414976E+02  0.00000000000E+00 0. -1.
         -2    1    1    2    0  503 -0.25715143127E+02 -0.15028776712E+02 -0.16614536948E+03  0.16879400615E+03  0.00000000000E+00 0.  1.
</event>
<event>
 4    1  0.1822260E+004  0.3617071E+02  0.7546771E-02  0.1372514E+00
         21   -1    0    0  503  502  0.00000000000E+00  0.00000000000E+00  0.14664269709E+03  0.14664269709E+03  0.00000000000E+00 0. -1.
         21   -1    0    0  501  503 -0.00000000000E+00 -0.00000000000E+00 -0.14502017440E+02  0.14502017440E+02  0.00000000000E+00 0.  1.
          2    1    1    2  501    0  0.26754135254E+02 -0.24342078568E+02  0.16090319297E+02  0.39588115859E+02  0.00000000000E+00 0.  1.
         -2    1    1    2    0  502 -0.26754135254E+02  0.24342078568E+02  0.11605036035E+03  0.12155659867E+03  0.00000000000E+00 0. -1.
</event>
<event>
 4    1  0.1822260E+004  0.2905745E+02  0.7546771E-02  0.1427968E+00
         21   -1    0    0  503  502  0.00000000000E+00  0.00000000000E+00  0.72975276464E+03  0.72975276464E+03  0.00000000000E+00 0. -1.
         21   -1    0    0  501  503 -0.00000000000E+00 -0.00000000000E+00 -0.14468217187E+01  0.14468217187E+01  0.00000000000E+00 0.  1.
          2    1    1    2  501    0  0.15871661724E+02  0.24339803526E+02  0.20052714663E+03  0.20262149988E+03  0.00000000000E+00 0.  1.
         -2    1    1    2    0  502 -0.15871661724E+02 -0.24339803526E+02  0.52777879630E+03  0.52857808648E+03  0.00000000000E+00 0. -1.
</event>
<event>
 4    1  0.1822260E+004  0.3250864E+02  0.7546771E-02  0.1398978E+00
         21   -1    0    0  503  502  0.00000000000E+00  0.00000000000E+00  0.95218189557E+01  0.95218189557E+01  0.00000000000E+00 0.  1.
         21   -1    0    0  501  503 -0.00000000000E+00 -0.00000000000E+00 -0.21519333900E+03  0.21519333900E+03  0.00000000000E+00 0. -1.
          2    1    1    2  501    0  0.92757985732E+01  0.31157207065E+02 -0.18102229994E+03  0.18391814773E+03  0.00000000000E+00 0. -1.
         -2    1    1    2    0  502 -0.92757985732E+01 -0.31157207065E+02 -0.24649220110E+02  0.40797010225E+02  0.00000000000E+00 0.  1.
</event>
<event>
 4    1  0.1822260E+004  0.2728064E+02  0.7546771E-02  0.1444809E+00
         21   -1    0    0  501  502  0.00000000000E+00  0.00000000000E+00  0.20770713969E+02  0.20770713969E+02  0.00000000000E+00 0. -1.
         21   -1    0    0  502  503 -0.00000000000E+00 -0.00000000000E+00 -0.45796653794E+02  0.45796653794E+02  0.00000000000E+00 0.  1.
          2    1    1    2  501    0 -0.26934610647E+02  0.43312939003E+01 -0.28039328439E+02  0.39120803888E+02  0.00000000000E+00 0.  1.
         -2    1    1    2    0  503  0.26934610647E+02 -0.43312939003E+01  0.30133886148E+01  0.27446563874E+02  0.00000000000E+00 0. -1.
</event>
<event>
 4    1  0.1822260E+004  0.2124957E+02  0.7546771E-02  0.1515731E+00
         21   -1    0    0  503  502  0.00000000000E+00  0.00000000000E+00  0.22796368148E+03  0.22796368148E+03  0.00000000000E+00 0. -1.
         21   -1    0    0  501  503 -0.00000000000E+00 -0.00000000000E+00 -0.39399378750E+01  0.39399378750E+01  0.00000000000E+00 0.  1.
          2    1    1    2  501    0 -0.17231157607E+02 -0.12435092430E+02  0.30246704108E+02  0.36964948608E+02  0.00000000000E+00 0.  1.
         -2    1    1    2    0  502  0.17231157607E+02  0.12435092430E+02  0.19377703950E+03  0.19493867074E+03  0.00000000000E+00 0. -1.
</event>
<event>
 4    1  0.1822260E+004  0.2079342E+02  0.7546771E-02  0.1522235E+00
         21   -1    0    0  501  502  0.00000000000E+00  0.00000000000E+00  0.14061973548E+02  0.14061973548E+02  0.00000000000E+00 0. -1.
         21   -1    0    0  502  503 -0.00000000000E+00 -0.00000000000E+00 -0.31639068292E+02  0.31639068292E+02  0.00000000000E+00 0.  1.
          2    1    1    2  501    0 -0.19809814571E+02  0.63196069683E+01 -0.49520329783E+01  0.21374957688E+02  0.00000000000E+00 0.  1.
         -2    1    1    2    0  503  0.19809814571E+02 -0.63196069683E+01 -0.12625061766E+02  0.24326084152E+02  0.00000000000E+00 0. -1.
</event>
<event>
 4    1  0.1822260E+004  0.2650321E+02  0.7546771E-02  0.1452663E+00
         21   -1    0    0  501  502  0.00000000000E+00  0.00000000000E+00  0.15608020019E+03  0.15608020019E+03  0.00000000000E+00 0. -1.
         21   -1    0    0  502  503 -0.00000000000E+00 -0.00000000000E+00 -0.12790781061E+02  0.12790781061E+02  0.00000000000E+00 0.  1.
          2    1    1    2  501    0  0.24373483239E+02 -0.10409299920E+02  0.13962206567E+03  0.14211523997E+03  0.00000000000E+00 0. -1.
         -2    1    1    2    0  503 -0.24373483239E+02  0.10409299920E+02  0.36673534576E+01  0.26755741279E+02  0.00000000000E+00 0.  1.
</event>
<event>
 4    1  0.1822260E+004  0.2425044E+02  0.7546771E-02  0.1477366E+00
         21   -1    0    0  501  502  0.00000000000E+00  0.00000000000E+00  0.40532483239E+02  0.40532483239E+02  0.00000000000E+00 0. -1.
         21   -1    0    0  502  503 -0.00000000000E+00 -0.00000000000E+00 -0.10818463723E+03  0.10818463723E+03  0.00000000000E+00 0.  1.
          2    1    1    2  501    0 -0.18322610095E+02  0.15886025205E+02  0.35366836194E+02  0.42882361640E+02  0.00000000000E+00 0. -1.
         -2    1    1    2    0  503  0.18322610095E+02 -0.15886025205E+02 -0.10301899019E+03  0.10583475883E+03  0.00000000000E+00 0.  1.
</event>
<event>
 4    1  0.1822260E+004  0.3255092E+02  0.7546771E-02  0.1398650E+00
         21   -1    0    0  501  502  0.00000000000E+00  0.00000000000E+00  0.41268178263E+01  0.41268178263E+01  0.00000000000E+00 0. -1.
         21   -1    0    0  502  503 -0.00000000000E+00 -0.00000000000E+00 -0.94495638527E+03  0.94495638527E+03  0.00000000000E+00 0.  1.
          2    1    1    2  501    0 -0.11561897481E+02  0.30428356127E+02 -0.65440340642E+02  0.73088990370E+02  0.00000000000E+00 0. -1.
         -2    1    1    2    0  503  0.11561897481E+02 -0.30428356127E+02 -0.87538922680E+03  0.87599421273E+03  0.00000000000E+00 0.  1.
</event>
<event>
 4    1  0.1822260E+004  0.3309743E+02  0.7546771E-02  0.1394456E+00
         21   -1    0    0  501  502  0.00000000000E+00  0.00000000000E+00  0.17820579163E+03  0.17820579163E+03  0.00000000000E+00 0.  1.
         21   -1    0    0  502  503 -0.00000000000E+00 -0.00000000000E+00 -0.83896790750E+01  0.83896790750E+01  0.00000000000E+00 0. -1.
          2    1    1    2  501    0  0.10017357945E+02  0.31545087738E+02  0.13314470118E+03  0.13719676189E+03  0.00000000000E+00 0.  1.
         -2    1    1    2    0  503 -0.10017357945E+02 -0.31545087738E+02  0.36671411383E+02  0.49398708824E+02  0.00000000000E+00 0. -1.
</event>
<event>
 4    1  0.1822260E+004  0.3273791E+02  0.7546771E-02  0.1397204E+00
         21   -1    0    0  503  502  0.00000000000E+00  0.00000000000E+00  0.10478708867E+03  0.10478708867E+03  0.00000000000E+00 0. -1.
         21   -1    0    0  501  503 -0.00000000000E+00 -0.00000000000E+00 -0.13921987875E+02  0.13921987875E+02  0.00000000000E+00 0.  1.
          2    1    1    2  501    0  0.15668921790E+02  0.28744668313E+02  0.14858981028E+02  0.35952195812E+02  0.00000000000E+00 0.  1.
         -2    1    1    2    0  502 -0.15668921790E+02 -0.28744668313E+02  0.76006119764E+02  0.82756880729E+02  0.00000000000E+00 0. -1.
</event>
<event>
 4    1  0.1822260E+004  0.2515465E+02  0.7546771E-02  0.1467081E+00
         21   -1    0    0  503  502  0.00000000000E+00  0.00000000000E+00  0.62027644264E+01  0.62027644264E+01  0.00000000000E+00 0. -1.
         21   -1    0    0  501  503 -0.00000000000E+00 -0.00000000000E+00 -0.10350105653E+03  0.10350105653E+03  0.00000000000E+00 0.  1.
          2    1    1    2  501    0  0.75600145289E+01 -0.23991720661E+02 -0.55228347575E+02  0.60687122652E+02  0.00000000000E+00 0.  1.
         -2    1    1    2    0  502 -0.75600145289E+01  0.23991720661E+02 -0.42069944526E+02  0.49016698301E+02  0.00000000000E+00 0. -1.
</event>
<event>
 4    1  0.1822260E+004  0.2047221E+02  0.7546771E-02  0.1526935E+00
         21   -1    0    0  501  502  0.00000000000E+00  0.00000000000E+00  0.18429060979E+02  0.18429060979E+02  0.00000000000E+00 0. -1.
         21   -1    0    0  502  503 -0.00000000000E+00 -0.00000000000E+00 -0.60163483279E+02  0.60163483279E+02  0.00000000000E+00 0.  1.
          2    1    1    2  501    0 -0.15511616582E+02  0.13360438779E+02  0.10124534299E+02  0.22838952868E+02  0.00000000000E+00 0. -1.
         -2    1    1    2    0  503  0.15511616582E+02 -0.13360438779E+02 -0.51858956599E+02  0.55753591390E+02  0.00000000000E+00 0.  1.
</event>
<event>
 4    1  0.1822260E+004  0.2615412E+02  0.7546771E-02  0.1456295E+00
         21   -1    0    0  503  502  0.00000000000E+00  0.00000000000E+00  0.30831726824E+03  0.30831726824E+03  0.00000000000E+00 0. -1.
         21   -1    0    0  501  503 -0.00000000000E+00 -0.00000000000E+00 -0.31000828864E+01  0.31000828864E+01  0.00000000000E+00 0.  1.
          2    1    1    2  501    0  0.26074657908E+02 -0.20372261894E+01  0.69579785565E+02  0.74332931026E+02  0.00000000000E+00 0.  1.
         -2    1    1    2    0  502 -0.26074657908E+02  0.20372261894E+01  0.23563739978E+03  0.23708442010E+03  0.00000000000E+00 0. -1.
</event>
<event>
 4    1  0.1822260E+004  0.3504517E+02  0.7546771E-02  0.1380246E+00
         21   -1    0    0  501  502  0.00000000000E+00  0.00000000000E+00  0.43307378500E+02  0.43307378500E+02  0.00000000000E+00 0. -1.
         21   -1    0    0  502  503 -0.00000000000E+00 -0.00000000000E+00 -0.88362624054E+02  0.88362624054E+02  0.00000000000E+00 0.  1.
          2    1    1    2  501    0 -0.33719281201E+02  0.95485210594E+01  0.31723712490E+02  0.47271112884E+02  0.00000000000E+00 0. -1.
         -2    1    1    2    0  503  0.33719281201E+02 -0.95485210594E+01 -0.76778958044E+02  0.84398889670E+02  0.00000000000E+00 0.  1.
</event>
<event>
 4    1  0.1822260E+004  0.2450617E+02  0.7546771E-02  0.1474404E+00
         21   -1    0    0  501  502  0.00000000000E+00  0.00000000000E+00  0.69511583053E+02  0.69511583053E+02  0.00000000000E+00 0.  1.
         21   -1    0    0  502  503 -0.00000000000E+00 -0.00000000000E+00 -0.96178751056E+01  0.96178751056E+01  0.00000000000E+00 0. -1.
          2    1    1    2  501    0 -0.22390026344E+02  0.99618859091E+01  0.17328620362E+02  0.30013889021E+02  0.00000000000E+00 0. -1.
         -2    1    1    2    0  503  0.22390026344E+02 -0.99618859091E+01  0.42565087585E+02  0.49115569137E+02  0.00000000000E+00 0.  1.
</event>
<event>
 4    1  0.1822260E+004  0.2104210E+02  0.7546771E-02  0.1518665E+00
         21   -1    0    0  501  502  0.00000000000E+00  0.00000000000E+00  0.14078136328E+01  0.14078136328E+01  0.00000000000E+00 0. -1.
         21   -1    0    0  502  503 -0.00000000000E+00 -0.00000000000E+00 -0.35142619646E+03  0.35142619646E+03  0.00000000000E+00 0.  1.
          2    1    1    2  501    0 -0.15669749944E+01  0.20983673487E+02 -0.23218839853E+03  0.23313992017E+03  0.00000000000E+00 0.  1.
         -2    1    1    2    0  503  0.15669749944E+01 -0.20983673487E+02 -0.11782998430E+03  0.11969408993E+03  0.00000000000E+00 0. -1.
</event>
<event>
 4    1  0.1822260E+004  0.2115902E+02  0.7546771E-02  0.1517006E+00
         21   -1    0    0  501  502  0.00000000000E+00  0.00000000000E+00  0.18020064267E+02  0.18020064267E+02  0.00000000000E+00 0.  1.
         21   -1    0    0  502  503 -0.00000000000E+00 -0.00000000000E+00 -0.24922552095E+02  0.24922552095E+02  0.00000000000E+00 0. -1.
          2    1    1    2  501    0 -0.17758552116E+02 -0.11503830441E+02 -0.22517114986E+01  0.21278498367E+02  0.00000000000E+00 0.  1.
         -2    1    1    2    0  503  0.17758552116E+02  0.11503830441E+02 -0.46507763291E+01  0.21664117996E+02  0.00000000000E+00 0. -1.
</event>
<event>
 4    1  0.1822260E+004  0.2643602E+02  0.7546771E-02  0.1453357E+00
         21   -1    0    0  501  502  0.00000000000E+00  0.00000000000E+00  0.12249464261E+02  0.12249464261E+02  0.00000000000E+00 0.  1.
         21   -1    0    0  502  503 -0.00000000000E+00 -0.00000000000E+00 -0.92559339819E+02  0.92559339819E+02  0.00000000000E+00 0. -1.
          2    1    1    2  501    0 -0.15302298685E+02  0.21556969298E+02 -0.76975696449E+01  0.27533903624E+02  0.00000000000E+00 0.  1.
         -2    1    1    2    0  503  0.15302298685E+02 -0.21556969298E+02 -0.72612305913E+02  0.77274900455E+02  0.00000000000E+00 0. -1.
</event>
<event>
 4    1  0.1822260E+004  0.2067529E+02  0.7546771E-02  0.1523952E+00
         21   -1    0    0  503  502  0.00000000000E+00  0.00000000000E+00  0.36190545517E+01  0.36190545517E+01  0.00000000000E+00 0. -1.
         21   -1    0    0  501  503 -0.00000000000E+00 -0.00000000000E+00 -0.14235563094E+03  0.14235563094E+03  0.00000000000E+00 0.  1.
          2    1    1    2  501    0 -0.52545665539E+01 -0.19996424240E+02 -0.99486223612E+02  0.10161188976E+03  0.00000000000E+00 0.  1.
         -2    1    1    2    0  502  0.52545665539E+01  0.19996424240E+02 -0.39250352776E+02  0.44362795731E+02  0.00000000000E+00 0. -1.
</event>
<event>
 4    1  0.1822260E+004  0.2782496E+02  0.7546771E-02  0.1439493E+00
         21   -1    0    0  501  502  0.00000000000E+00  0.00000000000E+00  0.12734077365E+02  0.12734077365E+02  0.00000000000E+00 0. -1.
         21   -1    0    0  502  503 -0.00000000000E+00 -0.00000000000E+00 -0.67302664760E+02  0.67302664760E+02  0.00000000000E+00 0.  1.
          2    1    1    2  501    0  0.27465979811E+02 -0.44551681123E+01 -0.14844943284E+02  0.31537293971E+02  0.00000000000E+00 0. -1.
         -2    1    1    2    0  503 -0.27465979811E+02  0.44551681123E+01 -0.39723644111E+02  0.48499448155E+02  0.00000000000E+00 0.  1.
</event>
<event>
 4    1  0.1822260E+004  0.5962357E+02  0.7546771E-02  0.1261117E+00
         21   -1    0    0  501  502  0.00000000000E+00  0.00000000000E+00  0.44367161588E+03  0.44367161588E+03  0.00000000000E+00 0.  1.
         21   -1    0    0  502  503 -0.00000000000E+00 -0.00000000000E+00 -0.89681493431E+01  0.89681493431E+01  0.00000000000E+00 0. -1.
          2    1    1    2  501    0  0.42118417107E+01 -0.59474617684E+02  0.29122622185E+03  0.29726702147E+03  0.00000000000E+00 0.  1.
         -2    1    1    2    0  503 -0.42118417107E+01  0.59474617684E+02  0.14347724469E+03  0.15537274376E+03  0.00000000000E+00 0. -1.
</event>
<event>
 4    1  0.1822260E+004  0.2020972E+02  0.7546771E-02  0.1530854E+00
         21   -1    0    0  503  502  0.00000000000E+00  0.00000000000E+00  0.81011873798E+01  0.81011873798E+01  0.00000000000E+00 0. -1.
         21   -1    0    0  501  503 -0.00000000000E+00 -0.00000000000E+00 -0.66713127470E+02  0.66713127470E+02  0.00000000000E+00 0.  1.
          2    1    1    2  501    0 -0.20209686538E+02  0.36672381439E-01 -0.47794362060E+02  0.51891558269E+02  0.00000000000E+00 0.  1.
         -2    1    1    2    0  502  0.20209686538E+02 -0.36672381439E-01 -0.10817578031E+02  0.22922756581E+02  0.00000000000E+00 0. -1.
</event>
<event>
 4    1  0.1822260E+004  0.2763247E+02  0.7546771E-02  0.1441356E+00
         21   -1    0    0  503  502  0.00000000000E+00  0.00000000000E+00  0.97760398106E+02  0.97760398106E+02  0.00000000000E+00 0.  1.
         21   -1    0    0  501  503 -0.00000000000E+00 -0.00000000000E+00 -0.33445751499E+02  0.33445751499E+02  0.00000000000E+00 0. -1.
          2    1    1    2  501    0  0.17696107369E+02 -0.21222661276E+02 -0.25277178140E+02  0.37449823796E+02  0.00000000000E+00 0. -1.
         -2    1    1    2    0  502 -0.17696107369E+02  0.21222661276E+02  0.89591824747E+02  0.93756325808E+02  0.00000000000E+00 0.  1.
</event>
<event>
 4    1  0.1822260E+004  0.2548680E+02  0.7546771E-02  0.1463431E+00
         21   -1    0    0  501  502  0.00000000000E+00  0.00000000000E+00  0.15098400806E+02  0.15098400806E+02  0.00000000000E+00 0. -1.
         21   -1    0    0  502  503 -0.00000000000E+00 -0.00000000000E+00 -0.43039669666E+02  0.43039669666E+02  0.00000000000E+00 0.  1.
          2    1    1    2  501    0 -0.96204145458E+01 -0.23601363440E+02 -0.14544721341E+02  0.29344942514E+02  0.00000000000E+00 0. -1.
         -2    1    1    2    0  503  0.96204145458E+01  0.23601363440E+02 -0.13396547519E+02  0.28793127959E+02  0.00000000000E+00 0.  1.
</event>
<event>
 4    1  0.1822260E+004  0.2153906E+02  0.7546771E-02  0.1511706E+00
         21   -1    0    0  501  502  0.00000000000E+00  0.00000000000E+00  0.85369000592E+02  0.85369000592E+02  0.00000000000E+00 0.  1.
         21   -1    0    0  502  503 -0.00000000000E+00 -0.00000000000E+00 -0.80750269437E+01  0.80750269437E+01  0.00000000000E+00 0. -1.
          2    1    1    2  501    0  0.15853081797E+02 -0.14581181558E+02  0.11929143943E+02  0.24621850729E+02  0.00000000000E+00 0. -1.
         -2    1    1    2    0  503 -0.15853081797E+02  0.14581181558E+02  0.65364829704E+02  0.68822176806E+02  0.00000000000E+00 0.  1.
</event>
<event>
 4    1  0.1822260E+004  0.7512922E+02  0.7546771E-02  0.1215630E+00
         21   -1    0    0  503  502  0.00000000000E+00  0.00000000000E+00  0.46189348465E+02  0.46189348465E+02  0.00000000000E+00 0.  1.
         21   -1    0    0  501  503 -0.00000000000E+00 -0.00000000000E+00 -0.12799207804E+03  0.12799207804E+03  0.00000000000E+00 0. -1.
          2    1    1    2  501    0  0.73408020001E+02 -0.15989428774E+02 -0.59425933639E+02  0.95790609257E+02  0.00000000000E+00 0.  1.
         -2    1    1    2    0  502 -0.73408020001E+02  0.15989428774E+02 -0.22376795940E+02  0.78390817252E+02  0.00000000000E+00 0. -1.
</event>
<event>
 4    1  0.1822260E+004  0.2182704E+02  0.7546771E-02  0.1507777E+00
         21   -1    0    0  503  502  0.00000000000E+00  0.00000000000E+00  0.20401545179E+01  0.20401545179E+01  0.00000000000E+00 0.  1.
         21   -1    0    0  501  503 -0.00000000000E+00 -0.00000000000E+00 -0.34778964326E+03  0.34778964326E+03  0.00000000000E+00 0. -1.
          2    1    1    2  501    0 -0.19311361253E+02  0.10173046068E+02 -0.27313560816E+03  0.27400635026E+03  0.00000000000E+00 0. -1.
         -2    1    1    2    0  502  0.19311361253E+02 -0.10173046068E+02 -0.72613880582E+02  0.75823447514E+02  0.00000000000E+00 0.  1.
</event>
<event>
 4    1  0.1822260E+004  0.2098929E+02  0.7546771E-02  0.1519418E+00
         21   -1    0    0  503  502  0.00000000000E+00  0.00000000000E+00  0.69922944855E+01  0.69922944855E+01  0.00000000000E+00 0. -1.
         21   -1    0    0  501  503 -0.00000000000E+00 -0.00000000000E+00 -0.82208253485E+02  0.82208253485E+02  0.00000000000E+00 0.  1.
          2    1    1    2  501    0  0.17587453853E+02  0.11455644597E+02 -0.59163867073E+02  0.62776695462E+02  0.00000000000E+00 0.  1.
         -2    1    1    2    0  502 -0.17587453853E+02 -0.11455644597E+02 -0.16052091926E+02  0.26423852508E+02  0.00000000000E+00 0. -1.
</event>
<event>
 4    1  0.1822260E+004  0.2262366E+02  0.7546771E-02  0.1497279E+00
         21   -1    0    0  501  502  0.00000000000E+00  0.00000000000E+00  0.53627641821E+02  0.53627641821E+02  0.00000000000E+00 0.  1.
         21   -1    0    0  502  503 -0.00000000000E+00 -0.00000000000E+00 -0.10669996465E+02  0.10669996465E+02  0.00000000000E+00 0. -1.
          2    1    1    2  501    0  0.13496070226E+02  0.18157261484E+02  0.31921772637E+02  0.39125817876E+02  0.00000000000E+00 0.  1.
         -2    1    1    2    0  503 -0.13496070226E+02 -0.18157261484E+02  0.11035872718E+02  0.25171820411E+02  0.00000000000E+00 0. -1.
</event>
<event>
 4    1  0.1822260E+004  0.2459360E+02  0.7546771E-02  0.1473401E+00
         21   -1    0    0  501  502  0.00000000000E+00  0.00000000000E+00  0.25746605705E+03  0.25746605705E+03  0.00000000000E+00 0.  1.
         21   -1    0    0  502  503 -0.00000000000E+00 -0.00000000000E+00 -0.51797900003E+01  0.51797900003E+01  0.00000000000E+00 0. -1.
          2    1    1    2  501    0 -0.17567934544E+02 -0.17210839370E+02  0.22322120630E+03  0.22457193114E+03  0.00000000000E+00 0.  1.
         -2    1    1    2    0  503  0.17567934544E+02  0.17210839370E+02  0.29065060747E+02  0.38073915903E+02  0.00000000000E+00 0. -1.
</event>
<event>
 4    1  0.1822260E+004  0.2502044E+02  0.7546771E-02  0.1468575E+00
         21   -1    0    0  501  502  0.00000000000E+00  0.00000000000E+00  0.18367954122E+03  0.18367954122E+03  0.00000000000E+00 0.  1.
         21   -1    0    0  502  503 -0.00000000000E+00 -0.00000000000E+00 -0.40758412196E+01  0.40758412196E+01  0.00000000000E+00 0. -1.
          2    1    1    2  501    0  0.64124377863E+01 -0.24184765321E+02  0.12779588265E+03  0.13022215577E+03  0.00000000000E+00 0.  1.
         -2    1    1    2    0  503 -0.64124377863E+01  0.24184765321E+02  0.51807817350E+02  0.57533226666E+02  0.00000000000E+00 0. -1.
</event>
<event>
 4    1  0.1822260E+004  0.2573716E+02  0.7546771E-02  0.1460723E+00
         21   -1    0    0  503  502  0.00000000000E+00  0.00000000000E+00  0.10094780824E+04  0.10094780824E+04  0.00000000000E+00 0.  1.
         21   -1    0    0  501  503 -0.00000000000E+00 -0.00000000000E+00 -0.74500766273E+00  0.74500766273E+00  0.00000000000E+00 0. -1.
          2    1    1    2  501    0  0.20182165092E+02  0.15971280133E+02  0.32995484474E+03  0.33095709864E+03  0.00000000000E+00 0. -1.
         -2    1    1    2    0  502 -0.20182165092E+02 -0.15971280133E+02  0.67877822997E+03  0.67926599139E+03  0.00000000000E+00 0.  1.
</event>
<event>
 4    1  0.1822260E+004  0.2197424E+02  0.7546771E-02  0.1505797E+00
         21   -1    0    0  501  502  0.00000000000E+00  0.00000000000E+00  0.58206705710E+01  0.58206705710E+01  0.00000000000E+00 0.  1.
         21   -1    0    0  502  503 -0.00000000000E+00 -0.00000000000E+00 -0.23131168803E+03  0.23131168803E+03  0.00000000000E+00 0. -1.
          2    1    1    2  501    0  0.13913920264E+02 -0.17007944953E+02 -0.17791747857E+02  0.28273904231E+02  0.00000000000E+00 0.  1.
         -2    1    1    2    0  503 -0.13913920264E+02  0.17007944953E+02 -0.20769926960E+03  0.20885845437E+03  0.00000000000E+00 0. -1.
</event>
<event>
 4    1  0.1822260E+004  0.2350349E+02  0.7546771E-02  0.1486271E+00
         21   -1    0    0  501  502  0.00000000000E+00  0.00000000000E+00  0.10802929458E+01  0.10802929458E+01  0.00000000000E+00 0. -1.
         21   -1    0    0  502  503 -0.00000000000E+00 -0.00000000000E+00 -0.71684382019E+03  0.71684382019E+03  0.00000000000E+00 0.  1.
          2    1    1    2  501    0  0.20299141141E+02 -0.11847316341E+02 -0.16569230952E+03  0.16735099482E+03  0.00000000000E+00 0. -1.
         -2    1    1    2    0  503 -0.20299141141E+02  0.11847316341E+02 -0.55007121773E+03  0.55057311831E+03  0.00000000000E+00 0.  1.
</event>
<event>
 4    1  0.1822260E+004  0.2715117E+02  0.7546771E-02  0.1446095E+00
         21   -1    0    0  501  502  0.00000000000E+00  0.00000000000E+00  0.60380831691E+03  0.60380831691E+03  0.00000000000E+00 0.  1.
         21   -1    0    0  502  503 -0.00000000000E+00 -0.00000000000E+00 -0.12214222215E+01  0.12214222215E+01  0.00000000000E+00 0. -1.
          2    1    1    2  501    0 -0.26568319886E+02 -0.55955702755E+01  0.30758371947E+03  0.30877974433E+03  0.00000000000E+00 0.  1.
         -2    1    1    2    0  503  0.26568319886E+02  0.55955702755E+01  0.29500317522E+03  0.29624999480E+03  0.00000000000E+00 0. -1.
</event>
<event>
 4    1  0.1822260E+004  0.6825071E+02  0.7546771E-02  0.1234113E+00
         21   -1    0    0  503  502  0.00000000000E+00  0.00000000000E+00  0.16050300466E+03  0.16050300466E+03  0.00000000000E+00 0.  1.
         21   -1    0    0  501  503 -0.00000000000E+00 -0.00000000000E+00 -0.31199979851E+02  0.31199979851E+02  0.00000000000E+00 0. -1.
          2    1    1    2  501    0 -0.66429477929E+02 -0.15661559673E+02  0.89974951832E+02  0.11293206784E+03  0.00000000000E+00 0.  1.
         -2    1    1    2    0  502  0.66429477929E+02  0.15661559673E+02  0.39328072978E+02  0.78770916673E+02  0.00000000000E+00 0. -1.
</event>
<event>
 4    1  0.1822260E+004  0.2472559E+02  0.7546771E-02  0.1471897E+00
         21   -1    0    0  501  502  0.00000000000E+00  0.00000000000E+00  0.81348075731E+01  0.81348075731E+01  0.00000000000E+00 0.  1.
         21   -1    0    0  502  503 -0.00000000000E+00 -0.00000000000E+00 -0.77948149767E+02  0.77948149767E+02  0.00000000000E+00 0. -1.
          2    1    1    2  501    0 -0.22593345766E+02  0.10044670687E+02 -0.26756031255E+02  0.36431303718E+02  0.00000000000E+00 0.  1.
         -2    1    1    2    0  503  0.22593345766E+02 -0.10044670687E+02 -0.43057310939E+02  0.49651653622E+02  0.00000000000E+00 0. -1.
</event>
<event>
 4    1  0.1822260E+004  0.2059058E+02  0.7546771E-02  0.1525191E+00
         21   -1    0    0  503  502  0.00000000000E+00  0.00000000000E+00  0.21954868134E+03  0.21954868134E+03  0.00000000000E+00 0. -1.
         21   -1    0    0  501  503 -0.00000000000E+00 -0.00000000000E+00 -0.28066347773E+01  0.28066347773E+01  0.00000000000E+00 0.  1.
          2    1    1    2  501    0 -0.20588511193E+02 -0.29184747351E+00  0.46275603737E+02  0.50649812135E+02  0.00000000000E+00 0.  1.
         -2    1    1    2    0  502  0.20588511193E+02  0.29184747351E+00  0.17046644282E+03  0.17170550398E+03  0.00000000000E+00 0. -1.
</event>
<event>
 4    1  0.1822260E+004  0.2058951E+02  0.7546771E-02  0.1525207E+00
         21   -1    0    0  501  502  0.00000000000E+00  0.00000000000E+00  0.52086796341E+01  0.52086796341E+01  0.00000000000E+00 0.  1.
         21   -1    0    0  502  503 -0.00000000000E+00 -0.00000000000E+00 -0.81618941720E+02  0.81618941720E+02  0.00000000000E+00 0. -1.
          2    1    1    2  501    0 -0.71445609524E+01  0.19310187369E+02 -0.40510538947E+02  0.45442621549E+02  0.00000000000E+00 0. -1.
         -2    1    1    2    0  503  0.71445609524E+01 -0.19310187369E+02 -0.35899723139E+02  0.41384999805E+02  0.00000000000E+00 0.  1.
</event>
<event>
 4    1  0.1822260E+004  0.2222578E+02  0.7546771E-02  0.1502456E+00
         21   -1    0    0  501  502  0.00000000000E+00  0.00000000000E+00  0.72235733679E+03  0.72235733679E+03  0.00000000000E+00 0. -1.
         21   -1    0    0  502  503 -0.00000000000E+00 -0.00000000000E+00 -0.68515019351E+00  0.68515019351E+00  0.00000000000E+00 0.  1.
          2    1    1    2  501    0 -0.10901903092E+02 -0.19368365743E+02  0.37657626527E+03  0.37723158490E+03  0.00000000000E+00 0. -1.
         -2    1    1    2    0  503  0.10901903092E+02  0.19368365743E+02  0.34509592133E+03  0.34581090209E+03  0.00000000000E+00 0.  1.
</event>
<event>
 4    1  0.1822260E+004  0.2613802E+02  0.7546771E-02  0.1456464E+00
         21   -1    0    0  501  502  0.00000000000E+00  0.00000000000E+00  0.13429575445E+03  0.13429575445E+03  0.00000000000E+00 0.  1.
         21   -1    0    0  502  503 -0.00000000000E+00 -0.00000000000E+00 -0.62921291882E+01  0.62921291882E+01  0.00000000000E+00 0. -1.
          2    1    1    2  501    0  0.25708517871E+02  0.47189122737E+01  0.94762136536E+02  0.98300857295E+02  0.00000000000E+00 0.  1.
         -2    1    1    2    0  503 -0.25708517871E+02 -0.47189122737E+01  0.33241488723E+02  0.42287026340E+02  0.00000000000E+00 0. -1.
</event>
<event>
 4    1  0.1822260E+004  0.2446984E+02  0.7546771E-02  0.1474822E+00
         21   -1    0    0  503  502  0.00000000000E+00  0.00000000000E+00  0.41994290876E+01  0.41994290876E+01  0.00000000000E+00 0. -1.
         21   -1    0    0  501  503 -0.00000000000E+00 -0.00000000000E+00 -0.17085529026E+03  0.17085529026E+03  0.00000000000E+00 0.  1.
          2    1    1    2  501    0 -0.16355286954E+02 -0.18201035230E+02 -0.47723887166E+02  0.53631543899E+02  0.00000000000E+00 0. -1.
         -2    1    1    2    0  502  0.16355286954E+02  0.18201035230E+02 -0.11893197401E+03  0.12142317545E+03  0.00000000000E+00 0.  1.
</event>
<event>
 4    1  0.1822260E+004  0.3105329E+02  0.7546771E-02  0.1410659E+00
         21   -1    0    0  501  502  0.00000000000E+00  0.00000000000E+00  0.15618883680E+02  0.15618883680E+02  0.00000000000E+00 0.  1.
         21   -1    0    0  502  503 -0.00000000000E+00 -0.00000000000E+00 -0.75249553828E+02  0.75249553828E+02  0.00000000000E+00 0. -1.
          2    1    1    2  501    0 -0.30335172494E+02  0.66396017661E+01 -0.10564278805E+02  0.32801082124E+02  0.00000000000E+00 0.  1.
         -2    1    1    2    0  503  0.30335172494E+02 -0.66396017661E+01 -0.49066391343E+02  0.58067355384E+02  0.00000000000E+00 0. -1.
</event>
<event>
 4    1  0.1822260E+004  0.3181009E+02  0.7546771E-02  0.1404493E+00
         21   -1    0    0  501  502  0.00000000000E+00  0.00000000000E+00  0.38526501568E+01  0.38526501568E+01  0.00000000000E+00 0. -1.
         21   -1    0    0  502  503 -0.00000000000E+00 -0.00000000000E+00 -0.11091120136E+04  0.11091120136E+04  0.00000000000E+00 0.  1.
          2    1    1    2  501    0 -0.65877324790E+01 -0.31120472215E+02 -0.66481669547E+02  0.73700029822E+02  0.00000000000E+00 0. -1.
         -2    1    1    2    0  503  0.65877324790E+01  0.31120472215E+02 -0.10387776939E+04  0.10392646340E+04  0.00000000000E+00 0.  1.
</event>
<event>
 4    1  0.1822260E+004  0.2124436E+02  0.7546771E-02  0.1515805E+00
         21   -1    0    0  503  502  0.00000000000E+00  0.00000000000E+00  0.62545711813E+01  0.62545711813E+01  0.00000000000E+00 0.  1.
         21   -1    0    0  501  503 -0.00000000000E+00 -0.00000000000E+00 -0.73151040490E+02  0.73151040490E+02  0.00000000000E+00 0. -1.
          2    1    1    2  501    0 -0.15906561156E+02  0.14082044886E+02 -0.38072130527E+02  0.43598277476E+02  0.00000000000E+00 0.  1.
         -2    1    1    2    0  502  0.15906561156E+02 -0.14082044886E+02 -0.28824338781E+02  0.35807334195E+02  0.00000000000E+00 0. -1.
</event>
<event>
 4    1  0.1822260E+004  0.2307953E+02  0.7546771E-02  0.1491502E+00
         21   -1    0    0  503  502  0.00000000000E+00  0.00000000000E+00  0.37637969763E+02  0.37637969763E+02  0.00000000000E+00 0.  1.
         21   -1    0    0  501  503 -0.00000000000E+00 -0.00000000000E+00 -0.10852075512E+03  0.10852075512E+03  0.00000000000E+00 0. -1.
          2    1    1    2  501    0 -0.12902402908E+02 -0.19136160771E+02 -0.10358917374E+03  0.10612907973E+03  0.00000000000E+00 0. -1.
         -2    1    1    2    0  502  0.12902402908E+02  0.19136160771E+02  0.32706388379E+02  0.40029645148E+02  0.00000000000E+00 0.  1.
</event>
<event>
 4    1  0.1822260E+004  0.3068148E+02  0.7546771E-02  0.1413765E+00
         21   -1    0    0  501  502  0.00000000000E+00  0.00000000000E+00  0.38159428871E+03  0.38159428871E+03  0.00000000000E+00 0.  1.
         21   -1    0    0  502  503 -0.00000000000E+00 -0.00000000000E+00 -0.77688035898E+01  0.77688035898E+01  0.00000000000E+00 0. -1.
          2    1    1    2  501    0 -0.83855358205E+01 -0.29513314439E+02  0.34774155115E+03  0.34909245099E+03  0.00000000000E+00 0.  1.
         -2    1    1    2    0  503  0.83855358205E+01  0.29513314439E+02  0.26083933964E+02  0.40270641307E+02  0.00000000000E+00 0. -1.
</event>
<event>
 4    1  0.1822260E+004  0.2011696E+02  0.7546771E-02  0.1532255E+00
         21   -1    0    0  503  502  0.00000000000E+00  0.00000000000E+00  0.21598657223E+03  0.21598657223E+03  0.00000000000E+00 0.  1.
         21   -1    0    0  501  503 -0.00000000000E+00 -0.00000000000E+00 -0.24491740997E+01  0.24491740997E+01  0.00000000000E+00 0. -1.
          2    1    1    2  501    0 -0.18884375310E+02  0.69334389581E+01  0.53826743303E+02  0.57463122968E+02  0.00000000000E+00 0. -1.
         -2    1    1    2    0  502  0.18884375310E+02 -0.69334389581E+01  0.15971065483E+03  0.16097262337E+03  0.00000000000E+00 0.  1.
</event>
<event>
 4    1  0.1822260E+004  0.2127771E+02  0.7546771E-02  0.1515337E+00
         21   -1    0    0  503  502  0.00000000000E+00  0.00000000000E+00  0.44533392344E+02  0.44533392344E+02  0.00000000000E+00 0. -1.
         21   -1    0    0  501  503 -0.00000000000E+00 -0.00000000000E+00 -0.33900505618E+02  0.33900505618E+02  0.00000000000E+00 0.  1.
          2    1    1    2  501    0  0.16794384379E+02 -0.13064815353E+02 -0.27497458624E+02  0.34768534304E+02  0.00000000000E+00 0.  1.
         -2    1    1    2    0  502 -0.16794384379E+02  0.13064815353E+02  0.38130345350E+02  0.43665363658E+02  0.00000000000E+00 0. -1.
</event>
<event>
 4    1  0.1822260E+004  0.5036700E+02  0.7546771E-02  0.1296589E+00
         21   -1    0    0  501  502  0.00000000000E+00  0.00000000000E+00  0.61610164702E+02  0.61610164702E+02  0.00000000000E+00 0.  1.
         21   -1    0    0  502  503 -0.00000000000E+00 -0.00000000000E+00 -0.59845527100E+02  0.59845527100E+02  0.00000000000E+00 0. -1.
          2    1    1    2  501    0 -0.50356151586E+02  0.10454233169E+01  0.34801350809E+02  0.61220657711E+02  0.00000000000E+00 0.  1.
         -2    1    1    2    0  503  0.50356151586E+02 -0.10454233169E+01 -0.33036713207E+02  0.60235034091E+02  0.00000000000E+00 0. -1.
</event>
<event>
 4    1  0.1822260E+004  0.3021210E+02  0.7546771E-02  0.1417762E+00
         21   -1    0    0  501  502  0.00000000000E+00  0.00000000000E+00  0.10763478650E+03  0.10763478650E+03  0.00000000000E+00 0.  1.
         21   -1    0    0  502  503 -0.00000000000E+00 -0.00000000000E+00 -0.10499418851E+02  0.10499418851E+02  0.00000000000E+00 0. -1.
          2    1    1    2  501    0 -0.24025334152E+02  0.18318134355E+02  0.74470592154E+02  0.80365663209E+02  0.00000000000E+00 0.  1.
         -2    1    1    2    0  503  0.24025334152E+02 -0.18318134355E+02  0.22664775496E+02  0.37768542143E+02  0.00000000000E+00 0. -1.
</event>
<event>
 4    1  0.1822260E+004  0.3050366E+02  0.7546771E-02  0.1415269E+00
         21   -1    0    0  503  502  0.00000000000E+00  0.00000000000E+00  0.92513234938E+02  0.92513234938E+02  0.00000000000E+00 0. -1.
         21   -1    0    0  501  503 -0.00000000000E+00 -0.00000000000E+00 -0.10787631821E+02  0.10787631821E+02  0.00000000000E+00 0.  1.
          2    1    1    2  501    0  0.22403501784E+02  0.20701603500E+02  0.27427646552E+02  0.41021324638E+02  0.00000000000E+00 0. -1.
         -2    1    1    2    0  502 -0.22403501784E+02 -0.20701603500E+02  0.54297956564E+02  0.62279542120E+02  0.00000000000E+00 0.  1.
</event>
<event>
 4    1  0.1822260E+004  0.4259090E+02  0.7546771E-02  0.1333937E+00
         21   -1    0    0  501  502  0.00000000000E+00  0.00000000000E+00  0.96376077539E+02  0.96376077539E+02  0.00000000000E+00 0. -1.
         21   -1    0    0  502  503 -0.00000000000E+00 -0.00000000000E+00 -0.32474673604E+02  0.32474673604E+02  0.00000000000E+00 0.  1.
          2    1    1    2  501    0  0.34620651807E+02 -0.24807159453E+02  0.73723578191E+02  0.85141944263E+02  0.00000000000E+00 0. -1.
         -2    1    1    2    0  503 -0.34620651807E+02  0.24807159453E+02 -0.98221742554E+01  0.43708806879E+02  0.00000000000E+00 0.  1.
</event>
<event>
 4    1  0.1822260E+004  0.2927055E+02  0.7546771E-02  0.1426043E+00
         21   -1    0    0  503  502  0.00000000000E+00  0.00000000000E+00  0.28146568236E+03  0.28146568236E+03  0.00000000000E+00 0. -1.
         21   -1    0    0  501  503 -0.00000000000E+00 -0.00000000000E+00 -0.46620234958E+01  0.46620234958E+01  0.00000000000E+00 0.  1.
          2    1    1    2  501    0  0.98918497693E+01  0.27548434078E+02  0.54118239224E+02  0.61526813088E+02  0.00000000000E+00 0.  1.
         -2    1    1    2    0  502 -0.98918497693E+01 -0.27548434078E+02  0.22268541964E+03  0.22460089277E+03  0.00000000000E+00 0. -1.
</event>
<event>
 4    1  0.1822260E+004  0.3171406E+02  0.7546771E-02  0.1405264E+00
         21   -1    0    0  503  502  0.00000000000E+00  0.00000000000E+00  0.13371803857E+02  0.13371803857E+02  0.00000000000E+00 0.  1.
         21   -1    0    0  501  503 -0.00000000000E+00 -0.00000000000E+00 -0.77076294064E+02  0.77076294064E+02  0.00000000000E+00 0. -1.
          2    1    1    2  501    0 -0.10263391064E+02 -0.30007411088E+02 -0.24827554320E+02  0.40276412078E+02  0.00000000000E+00 0.  1.
         -2    1    1    2    0  502  0.10263391064E+02  0.30007411088E+02 -0.38876935888E+02  0.50171685843E+02  0.00000000000E+00 0. -1.
</event>
<event>
 4    1  0.1822260E+004  0.2156039E+02  0.7546771E-02  0.1511412E+00
         21   -1    0    0  503  502  0.00000000000E+00  0.00000000000E+00  0.14534843084E+03  0.14534843084E+03  0.00000000000E+00 0.  1.
         21   -1    0    0  501  503 -0.00000000000E+00 -0.00000000000E+00 -0.50331353824E+01  0.50331353824E+01  0.00000000000E+00 0. -1.
          2    1    1    2  501    0 -0.93532385016E+01  0.19425940973E+02  0.24757401105E+02  0.32829547098E+02  0.00000000000E+00 0. -1.
         -2    1    1    2    0  502  0.93532385016E+01 -0.19425940973E+02  0.11555789436E+03  0.11755201913E+03  0.00000000000E+00 0.  1.
</event>
<event>
 4    1  0.1822260E+004  0.4002922E+02  0.7546771E-02  0.1348315E+00
         21   -1    0    0  503  502  0.00000000000E+00  0.00000000000E+00  0.16432983923E+03  0.16432983923E+03  0.00000000000E+00 0.  1.
         21   -1    0    0  501  503 -0.00000000000E+00 -0.00000000000E+00 -0.10141142255E+02  0.10141142255E+02  0.00000000000E+00 0. -1.
          2    1    1    2  501    0  0.38503013878E+02 -0.10947907802E+02  0.94210328830E+02  0.10236173514E+03  0.00000000000E+00 0. -1.
         -2    1    1    2    0  502 -0.38503013878E+02  0.10947907802E+02  0.59978368144E+02  0.72109246343E+02  0.00000000000E+00 0.  1.
</event>
<event>
 4    1  0.1822260E+004  0.2843367E+02  0.7546771E-02  0.1433715E+00
         21   -1    0    0  503  502  0.00000000000E+00  0.00000000000E+00  0.90330005853E+01  0.90330005853E+01  0.00000000000E+00 0. -1.
         21   -1    0    0  501  503 -0.00000000000E+00 -0.00000000000E+00 -0.16851464112E+03  0.16851464112E+03  0.00000000000E+00 0.  1.
          2    1    1    2  501    0 -0.55298776874E+01  0.27890746836E+02 -0.14052826231E+03  0.14337595968E+03  0.00000000000E+00 0.  1.
         -2    1    1    2    0  502  0.55298776874E+01 -0.27890746836E+02 -0.18953378225E+02  0.34171682025E+02  0.00000000000E+00 0. -1.
</event>
<event>
 4    1  0.1822260E+004  0.2458310E+02  0.7546771E-02  0.1473522E+00
         21   -1    0    0  503  502  0.00000000000E+00  0.00000000000E+00  0.14290670657E+04  0.14290670657E+04  0.00000000000E+00 0. -1.
         21   -1    0    0  501  503 -0.00000000000E+00 -0.00000000000E+00 -0.11088208079E+01  0.11088208079E+01  0.00000000000E+00 0.  1.
          2    1    1    2  501    0 -0.74767741012E+01 -0.23418508146E+02  0.15154581682E+03  0.15352675100E+03  0.00000000000E+00 0.  1.
         -2    1    1    2    0  502  0.74767741012E+01  0.23418508146E+02  0.12764124280E+04  0.12766491355E+04  0.00000000000E+00 0. -1.
</event>
<event>
 4    1  0.1822260E+004  0.2443652E+02  0.7546771E-02  0.1475207E+00
         21   -1    0    0  503  502  0.00000000000E+00  0.00000000000E+00  0.67693737996E+03  0.67693737996E+03  0.00000000000E+00 0. -1.
         21   -1    0    0  501  503 -0.00000000000E+00 -0.00000000000E+00 -0.19887758672E+01  0.19887758672E+01  0.00000000000E+00 0.  1.
          2    1    1    2  501    0  0.16060471862E+02 -0.18417511691E+02  0.84250277249E+02  0.87722589507E+02  0.00000000000E+00 0.  1.
         -2    1    1    2    0  502 -0.16060471862E+02  0.18417511691E+02  0.59069832684E+03  0.59120356632E+03  0.00000000000E+00 0. -1.
</event>
<event>
 4    1  0.1822260E+004  0.3144582E+02  0.7546771E-02  0.1407435E+00
         21   -1    0    0  503  502  0.00000000000E+00  0.00000000000E+00  0.78972211619E+02  0.78972211619E+02  0.00000000000E+00 0.  1.
         21   -1    0    0  501  503 -0.00000000000E+00 -0.00000000000E+00 -0.21886099809E+02  0.21886099809E+02  0.00000000000E+00 0. -1.
          2    1    1    2  501    0  0.16571816239E+02 -0.26724786251E+02 -0.44441419527E+01  0.31758301140E+02  0.00000000000E+00 0. -1.
         -2    1    1    2    0  502 -0.16571816239E+02  0.26724786251E+02  0.61530253763E+02  0.69100010288E+02  0.00000000000E+00 0.  1.
</event>
<event>
 4    1  0.1822260E+004  0.3003784E+02  0.7546771E-02  0.1419268E+00
         21   -1    0    0  501  502  0.00000000000E+00  0.00000000000E+00  0.64339069694E+02  0.64339069694E+02  0.00000000000E+00 0.  1.
         21   -1    0    0  502  503 -0.00000000000E+00 -0.00000000000E+00 -0.39844101146E+02  0.39844101146E+02  0.00000000000E+00 0. -1.
          2    1    1    2  501    0 -0.27487414335E+02 -0.12112556956E+02  0.54181555524E+02  0.61950891372E+02  0.00000000000E+00 0.  1.
         -2    1    1    2    0  503  0.27487414335E+02  0.12112556956E+02 -0.29686586975E+02  0.42232279468E+02  0.00000000000E+00 0. -1.
</event>
<event>
 4    1  0.1822260E+004  0.2782849E+02  0.7546771E-02  0.1439459E+00
         21   -1    0    0  501  502  0.00000000000E+00  0.00000000000E+00  0.62259633921E+01  0.62259633921E+01  0.00000000000E+00 0. -1.
         21   -1    0    0  502  503 -0.00000000000E+00 -0.00000000000E+00 -0.13013484720E+03  0.13013484720E+03  0.00000000000E+00 0.  1.
          2    1    1    2  501    0 -0.54975282886E+01  0.27280063573E+02 -0.76284270763E+02  0.81201691187E+02  0.00000000000E+00 0. -1.
         -2    1    1    2    0  503  0.54975282886E+01 -0.27280063573E+02 -0.47624613048E+02  0.55159119408E+02  0.00000000000E+00 0.  1.
</event>
<event>
 4    1  0.1822260E+004  0.2166449E+02  0.7546771E-02  0.1509985E+00
         21   -1    0    0  503  502  0.00000000000E+00  0.00000000000E+00  0.19291204010E+02  0.19291204010E+02  0.00000000000E+00 0. -1.
         21   -1    0    0  501  503 -0.00000000000E+00 -0.00000000000E+00 -0.24818405384E+02  0.24818405384E+02  0.00000000000E+00 0.  1.
          2    1    1    2  501    0 -0.18158777483E+02 -0.11815624225E+02 -0.58582932739E+01  0.22442588433E+02  0.00000000000E+00 0.  1.
         -2    1    1    2    0  502  0.18158777483E+02  0.11815624225E+02  0.33109189933E+00  0.21667020961E+02  0.00000000000E+00 0. -1.
</event>
<event>
 4    1  0.1822260E+004  0.2740849E+02  0.7546771E-02  0.1443547E+00
         21   -1    0    0  503  502  0.00000000000E+00  0.00000000000E+00  0.53550892584E+02  0.53550892584E+02  0.00000000000E+00 0.  1.
         21   -1    0    0  501  503 -0.00000000000E+00 -0.00000000000E+00 -0.30815844248E+02  0.30815844248E+02  0.00000000000E+00 0. -1.
          2    1    1    2  501    0 -0.23509438773E+02 -0.14090127946E+02 -0.19767444040E+02  0.33793154053E+02  0.00000000000E+00 0. -1.
         -2    1    1    2    0  502  0.23509438773E+02  0.14090127946E+02  0.42502492376E+02  0.50573582779E+02  0.00000000000E+00 0.  1.
</event>
<event>
 4    1  0.1822260E+004  0.2402249E+02  0.7546771E-02  0.1480043E+00
         21   -1    0    0  503  502  0.00000000000E+00  0.00000000000E+00  0.29053759952E+03  0.29053759952E+03  0.00000000000E+00 0. -1.
         21   -1    0    0  501  503 -0.00000000000E+00 -0.00000000000E+00 -0.20619566138E+01  0.20619566138E+01  0.00000000000E+00 0.  1.
          2    1    1    2  501    0 -0.11403166125E+02  0.21143503514E+02  0.11620450661E+03  0.11866156621E+03  0.00000000000E+00 0. -1.
         -2    1    1    2    0  502  0.11403166125E+02 -0.21143503514E+02  0.17227113630E+03  0.17393798993E+03  0.00000000000E+00 0.  1.
</event>
<event>
 4    1  0.1822260E+004  0.2181655E+02  0.7546771E-02  0.1507919E+00
         21   -1    0    0  501  502  0.00000000000E+00  0.00000000000E+00  0.14430602441E+03  0.14430602441E+03  0.00000000000E+00 0.  1.
         21   -1    0    0  502  503 -0.00000000000E+00 -0.00000000000E+00 -0.33784827858E+01  0.33784827858E+01  0.00000000000E+00 0. -1.
          2    1    1    2  501    0  0.21361700015E+02 -0.44316456485E+01  0.81841042488E+02  0.84698984329E+02  0.00000000000E+00 0.  1.
         -2    1    1    2    0  503 -0.21361700015E+02  0.44316456485E+01  0.59086499131E+02  0.62985522862E+02  0.00000000000E+00 0. -1.
</event>
<event>
 4    1  0.1822260E+004  0.2034483E+02  0.7546771E-02  0.1528828E+00
         21   -1    0    0  503  502  0.00000000000E+00  0.00000000000E+00  0.70560930193E+01  0.70560930193E+01  0.00000000000E+00 0. -1.
         21   -1    0    0  501  503 -0.00000000000E+00 -0.00000000000E+00 -0.60515458251E+02  0.60515458251E+02  0.00000000000E+00 0.  1.
          2    1    1    2  501    0  0.18131080104E+02  0.92290975503E+01 -0.20814134912E+02  0.29105678474E+02  0.00000000000E+00 0. -1.
         -2    1    1    2    0  502 -0.18131080104E+02 -0.92290975503E+01 -0.32645230320E+02  0.38465872796E+02  0.00000000000E+00 0.  1.
</event>
<event>
 4    1  0.1822260E+004  0.4013291E+02  0.7546771E-02  0.1347709E+00
         21   -1    0    0  503  502  0.00000000000E+00  0.00000000000E+00  0.18874387955E+02  0.18874387955E+02  0.00000000000E+00 0.  1.
         21   -1    0    0  501  503 -0.00000000000E+00 -0.00000000000E+00 -0.86492668324E+02  0.86492668324E+02  0.00000000000E+00 0. -1.
          2    1    1    2  501    0 -0.50125134836E+01  0.39818656554E+02 -0.27714760307E+02  0.48772519312E+02  0.00000000000E+00 0.  1.
         -2    1    1    2    0  502  0.50125134836E+01 -0.39818656554E+02 -0.39903520062E+02  0.56594536967E+02  0.00000000000E+00 0. -1.
</event>
<event>
 4    1  0.1822260E+004  0.3291494E+02  0.7546771E-02  0.1395846E+00
         21   -1    0    0  501  502  0.00000000000E+00  0.00000000000E+00  0.11915558725E+02  0.11915558725E+02  0.00000000000E+00 0. -1.
         21   -1    0    0  502  503 -0.00000000000E+00 -0.00000000000E+00 -0.24370907182E+03  0.24370907182E+03  0.00000000000E+00 0.  1.
          2    1    1    2  501    0 -0.90090711420E+01 -0.31658011879E+02 -0.14697023941E+02  0.36047130145E+02  0.00000000000E+00 0. -1.
         -2    1    1    2    0  503  0.90090711420E+01  0.31658011879E+02 -0.21709648915E+03  0.21957750040E+03  0.00000000000E+00 0.  1.
</event>
<event>
 4    1  0.1822260E+004  0.2032207E+02  0.7546771E-02  0.1529168E+00
         21   -1    0    0  501  502  0.00000000000E+00  0.00000000000E+00  0.28593415157E+02  0.28593415157E+02  0.00000000000E+00 0.  1.
         21   -1    0    0  502  503 -0.00000000000E+00 -0.00000000000E+00 -0.19870982876E+02  0.19870982876E+02  0.00000000000E+00 0. -1.
          2    1    1    2  501    0  0.19276632295E+02 -0.64341171513E+01  0.17025656044E+02  0.26511495240E+02  0.00000000000E+00 0.  1.
         -2    1    1    2    0  503 -0.19276632295E+02  0.64341171513E+01 -0.83032237632E+01  0.21952902793E+02  0.00000000000E+00 0. -1.
</event>
<event>
 4    1  0.1822260E+004  0.6488610E+02  0.7546771E-02  0.1244078E+00
         21   -1    0    0  501  502  0.00000000000E+00  0.00000000000E+00  0.89726473783E+02  0.89726473783E+02  0.00000000000E+00 0. -1.
         21   -1    0    0  502  503 -0.00000000000E+00 -0.00000000000E+00 -0.49249964289E+02  0.49249964289E+02  0.00000000000E+00 0.  1.
          2    1    1    2  501    0  0.64881132349E+02  0.80313852307E+00  0.51328210017E+01  0.65088802553E+02  0.00000000000E+00 0. -1.
         -2    1    1    2    0  503 -0.64881132349E+02 -0.80313852307E+00  0.35343688492E+02  0.73887635519E+02  0.00000000000E+00 0.  1.
</event>
<event>
 4    1  0.1822260E+004  0.2134359E+02  0.7546771E-02  0.1514415E+00
         21   -1    0    0  501  502  0.00000000000E+00  0.00000000000E+00  0.42294790470E+02  0.42294790470E+02  0.00000000000E+00 0. -1.
         21   -1    0    0  502  503 -0.00000000000E+00 -0.00000000000E+00 -0.17068376326E+02  0.17068376326E+02  0.00000000000E+00 0.  1.
          2    1    1    2  501    0 -0.20283852967E+02 -0.66418459760E+01  0.30642455171E+02  0.37343123437E+02  0.00000000000E+00 0. -1.
         -2    1    1    2    0  503  0.20283852967E+02  0.66418459760E+01 -0.54160410270E+01  0.22020043359E+02  0.00000000000E+00 0.  1.
</event>
<event>
 4    1  0.1822260E+004  0.2023017E+02  0.7546771E-02  0.1530546E+00
         21   -1    0    0  503  502  0.00000000000E+00  0.00000000000E+00  0.13232997008E+01  0.13232997008E+01  0.00000000000E+00 0.  1.
         21   -1    0    0  501  503 -0.00000000000E+00 -0.00000000000E+00 -0.47478930278E+03  0.47478930278E+03  0.00000000000E+00 0. -1.
          2    1    1    2  501    0 -0.13674880394E+01  0.20183901458E+02 -0.37728938223E+03  0.37783136165E+03  0.00000000000E+00 0. -1.
         -2    1    1    2    0  502  0.13674880394E+01 -0.20183901458E+02 -0.96176620850E+02  0.98281240833E+02  0.00000000000E+00 0.  1.
</event>
<event>
 4    1  0.1822260E+004  0.2118182E+02  0.7546771E-02  0.1516685E+00
         21   -1    0    0  501  502  0.00000000000E+00  0.00000000000E+00  0.34728216439E+01  0.34728216439E+01  0.00000000000E+00 0.  1.
         21   -1    0    0  502  503 -0.00000000000E+00 -0.00000000000E+00 -0.14708069250E+03  0.14708069250E+03  0.00000000000E+00 0. -1.
          2    1    1    2  501    0  0.19995634123E+02  0.69888581832E+01 -0.98054689611E+02  0.10031645766E+03  0.00000000000E+00 0.  1.
         -2    1    1    2    0  503 -0.19995634123E+02 -0.69888581832E+01 -0.45553181248E+02  0.50237056487E+02  0.00000000000E+00 0. -1.
</event>
<event>
 4    1  0.1822260E+004  0.3745638E+02  0.7546771E-02  0.1364072E+00
         21   -1    0    0  503  502  0.00000000000E+00  0.00000000000E+00  0.11723074416E+02  0.11723074416E+02  0.00000000000E+00 0. -1.
         21   -1    0    0  501  503 -0.00000000000E+00 -0.00000000000E+00 -0.92814196699E+03  0.92814196699E+03  0.00000000000E+00 0.  1.
          2    1    1    2  501    0 -0.66337983441E+01  0.36864251357E+02 -0.89679966859E+03  0.89758154275E+03  0.00000000000E+00 0.  1.
         -2    1    1    2    0  502  0.66337983441E+01 -0.36864251357E+02 -0.19619223982E+02  0.42283498652E+02  0.00000000000E+00 0. -1.
</event>
<event>
 4    1  0.1822260E+004  0.2365445E+02  0.7546771E-02  0.1484440E+00
         21   -1    0    0  501  502  0.00000000000E+00  0.00000000000E+00  0.25276510131E+03  0.25276510131E+03  0.00000000000E+00 0. -1.
         21   -1    0    0  502  503 -0.00000000000E+00 -0.00000000000E+00 -0.18124749951E+02  0.18124749951E+02  0.00000000000E+00 0.  1.
          2    1    1    2  501    0 -0.23519916941E+02 -0.25192711153E+01  0.24422462312E+03  0.24536747902E+03  0.00000000000E+00 0. -1.
         -2    1    1    2    0  503  0.23519916941E+02  0.25192711153E+01 -0.95842717615E+01  0.25522372246E+02  0.00000000000E+00 0.  1.
</event>
<event>
 4    1  0.1822260E+004  0.3300752E+02  0.7546771E-02  0.1395139E+00
         21   -1    0    0  501  502  0.00000000000E+00  0.00000000000E+00  0.87045480392E+03  0.87045480392E+03  0.00000000000E+00 0. -1.
         21   -1    0    0  502  503 -0.00000000000E+00 -0.00000000000E+00 -0.12516419211E+01  0.12516419211E+01  0.00000000000E+00 0.  1.
          2    1    1    2  501    0  0.19339704229E+02  0.26748308072E+02  0.43407693313E+03  0.43533008169E+03  0.00000000000E+00 0. -1.
         -2    1    1    2    0  503 -0.19339704229E+02 -0.26748308072E+02  0.43512622886E+03  0.43637636415E+03  0.00000000000E+00 0.  1.
</event>
<event>
 4    1  0.1822260E+004  0.2919866E+02  0.7546771E-02  0.1426690E+00
         21   -1    0    0  503  502  0.00000000000E+00  0.00000000000E+00  0.17733096176E+03  0.17733096176E+03  0.00000000000E+00 0. -1.
         21   -1    0    0  501  503 -0.00000000000E+00 -0.00000000000E+00 -0.48688971076E+01  0.48688971076E+01  0.00000000000E+00 0.  1.
          2    1    1    2  501    0 -0.36636018129E+01  0.28967906775E+02  0.76021229868E+02  0.81435796747E+02  0.00000000000E+00 0.  1.
         -2    1    1    2    0  502  0.36636018129E+01 -0.28967906775E+02  0.96440834782E+02  0.10076406212E+03  0.00000000000E+00 0. -1.
</event>
<event>
 4    1  0.1822260E+004  0.2041280E+02  0.7546771E-02  0.1527816E+00
         21   -1    0    0  501  502  0.00000000000E+00  0.00000000000E+00  0.18556229828E+01  0.18556229828E+01  0.00000000000E+00 0.  1.
         21   -1    0    0  502  503 -0.00000000000E+00 -0.00000000000E+00 -0.43730426829E+03  0.43730426829E+03  0.00000000000E+00 0. -1.
          2    1    1    2  501    0  0.13221428084E+02 -0.15552372631E+02 -0.64566676547E+02  0.67716601919E+02  0.00000000000E+00 0.  1.
         -2    1    1    2    0  503 -0.13221428084E+02  0.15552372631E+02 -0.37088196876E+03  0.37144328935E+03  0.00000000000E+00 0. -1.
</event>
<event>
 4    1  0.1822260E+004  0.2062645E+02  0.7546771E-02  0.1524666E+00
         21   -1    0    0  501  502  0.00000000000E+00  0.00000000000E+00  0.20948829116E+03  0.20948829116E+03  0.00000000000E+00 0.  1.
         21   -1    0    0  502  503 -0.00000000000E+00 -0.00000000000E+00 -0.57734513698E+01  0.57734513698E+01  0.00000000000E+00 0. -1.
          2    1    1    2  501    0 -0.19811832940E+02  0.57394943736E+01  0.18851424575E+03  0.18963931916E+03  0.00000000000E+00 0.  1.
         -2    1    1    2    0  503  0.19811832940E+02 -0.57394943736E+01  0.15200594033E+02  0.25622423364E+02  0.00000000000E+00 0. -1.
</event>
<event>
 4    1  0.1822260E+004  0.3197681E+02  0.7546771E-02  0.1403162E+00
         21   -1    0    0  503  502  0.00000000000E+00  0.00000000000E+00  0.16459348683E+02  0.16459348683E+02  0.00000000000E+00 0.  1.
         21   -1    0    0  501  503 -0.00000000000E+00 -0.00000000000E+00 -0.12315680679E+03  0.12315680679E+03  0.00000000000E+00 0. -1.
          2    1    1    2  501    0  0.28882663184E+02 -0.13722542597E+02 -0.10249143224E+03  0.10736391428E+03  0.00000000000E+00 0. -1.
         -2    1    1    2    0  502 -0.28882663184E+02  0.13722542597E+02 -0.42060258646E+01  0.32252241186E+02  0.00000000000E+00 0.  1.
</event>
<event>
 4    1  0.1822260E+004  0.3175575E+02  0.7546771E-02  0.1404929E+00
         21   -1    0    0  503  502  0.00000000000E+00  0.00000000000E+00  0.19412944025E+03  0.19412944025E+03  0.00000000000E+00 0. -1.
         21   -1    0    0  501  503 -0.00000000000E+00 -0.00000000000E+00 -0.98374332723E+01  0.98374332723E+01  0.00000000000E+00 0.  1.
          2    1    1    2  501    0  0.31409364187E+02  0.46775355400E+01  0.22084470560E+02  0.38680115528E+02  0.00000000000E+00 0.  1.
         -2    1    1    2    0  502 -0.31409364187E+02 -0.46775355400E+01  0.16220753642E+03  0.16528675799E+03  0.00000000000E+00 0. -1.
</event>
<event>
 4    1  0.1822260E+004  0.2085408E+02  0.7546771E-02  0.1521358E+00
         21   -1    0    0  503  502  0.00000000000E+00  0.00000000000E+00  0.24721167301E+03  0.24721167301E+03  0.00000000000E+00 0. -1.
         21   -1    0    0  501  503 -0.00000000000E+00 -0.00000000000E+00 -0.45111471136E+01  0.45111471136E+01  0.00000000000E+00 0.  1.
          2    1    1    2  501    0  0.99703322225E+01  0.18316250342E+02  0.23046566311E+02  0.31081132057E+02  0.00000000000E+00 0.  1.
         -2    1    1    2    0  502 -0.99703322225E+01 -0.18316250342E+02  0.21965395958E+03  0.22064168806E+03  0.00000000000E+00 0. -1.
</event>
<event>
 4    1  0.1822260E+004  0.2313859E+02  0.7546771E-02  0.1490765E+00
         21   -1    0    0  503  502  0.00000000000E+00  0.00000000000E+00  0.73310045057E+01  0.73310045057E+01  0.00000000000E+00 0.  1.
         21   -1    0    0  501  503 -0.00000000000E+00 -0.00000000000E+00 -0.23177304775E+03  0.23177304775E+03  0.00000000000E+00 0. -1.
          2    1    1    2  501    0  0.22800025257E+02  0.39437708416E+01 -0.21116075559E+03  0.21242471415E+03  0.00000000000E+00 0. -1.
         -2    1    1    2    0  502 -0.22800025257E+02 -0.39437708416E+01 -0.13281287661E+02  0.26679338112E+02  0.00000000000E+00 0.  1.
</event>
<event>
 4    1  0.1822260E+004  0.2025266E+02  0.7546771E-02  0.1530208E+00
         21   -1    0    0  501  502  0.00000000000E+00  0.00000000000E+00  0.39105561869E+02  0.39105561869E+02  0.00000000000E+00 0. -1.
         21   -1    0    0  502  503 -0.00000000000E+00 -0.00000000000E+00 -0.45892877299E+02  0.45892877299E+02  0.00000000000E+00 0.  1.
          2    1    1    2  501    0  0.16851027529E+02 -0.11234464461E+02  0.33934363385E+02  0.39518493631E+02  0.00000000000E+00 0. -1.
         -2    1    1    2    0  503 -0.16851027529E+02  0.11234464461E+02 -0.40721678816E+02  0.45479945537E+02  0.00000000000E+00 0.  1.
</event>
<event>
 4    1  0.1822260E+004  0.2489800E+02  0.7546771E-02  0.1469948E+00
         21   -1    0    0  503  502  0.00000000000E+00  0.00000000000E+00  0.26958356873E+01  0.26958356873E+01  0.00000000000E+00 0.  1.
         21   -1    0    0  501  503 -0.00000000000E+00 -0.00000000000E+00 -0.32721059772E+03  0.32721059772E+03  0.00000000000E+00 0. -1.
          2    1    1    2  501    0  0.23144184732E+02  0.91791804700E+01 -0.25218910210E+03  0.25341518080E+03  0.00000000000E+00 0. -1.
         -2    1    1    2    0  502 -0.23144184732E+02 -0.91791804700E+01 -0.72325659936E+02  0.76491252612E+02  0.00000000000E+00 0.  1.
</event>
<event>
 4    1  0.1822260E+004  0.2218440E+02  0.7546771E-02  0.1503002E+00
         21   -1    0    0  501  502  0.00000000000E+00  0.00000000000E+00  0.35200375518E+00  0.35200375518E+00  0.00000000000E+00 0.  1.
         21   -1    0    0  502  503 -0.00000000000E+00 -0.00000000000E+00 -0.15192507892E+04  0.15192507892E+04  0.00000000000E+00 0. -1.
          2    1    1    2  501    0 -0.14994831662E+02 -0.16349396500E+02 -0.54491794248E+03  0.54536933520E+03  0.00000000000E+00 0.  1.
         -2    1    1    2    0  503  0.14994831662E+02  0.16349396500E+02 -0.97398084294E+03  0.97423345773E+03  0.00000000000E+00 0. -1.
</event>
<event>
 4    1  0.1822260E+004  0.2218037E+02  0.7546771E-02  0.1503055E+00
         21   -1    0    0  503  502  0.00000000000E+00  0.00000000000E+00  0.20518027316E+03  0.20518027316E+03  0.00000000000E+00 0. -1.
         21   -1    0    0  501  503 -0.00000000000E+00 -0.00000000000E+00 -0.21648734131E+02  0.21648734131E+02  0.00000000000E+00 0.  1.
          2    1    1    2  501    0 -0.19960918977E+02 -0.96711113868E+01 -0.15183774790E+02  0.26879652132E+02  0.00000000000E+00 0.  1.
         -2    1    1    2    0  502  0.19960918977E+02  0.96711113868E+01  0.19871531382E+03  0.19994935516E+03  0.00000000000E+00 0. -1.
</event>
<event>
 4    1  0.1822260E+004  0.4986578E+02  0.7546771E-02  0.1298755E+00
         21   -1    0    0  501  502  0.00000000000E+00  0.00000000000E+00  0.39993908867E+03  0.39993908867E+03  0.00000000000E+00 0.  1.
         21   -1    0    0  502  503 -0.00000000000E+00 -0.00000000000E+00 -0.17956730052E+02  0.17956730052E+02  0.00000000000E+00 0. -1.
          2    1    1    2  501    0  0.47008592995E+02 -0.16636948335E+02  0.35993619582E+03  0.36337399594E+03  0.00000000000E+00 0.  1.
         -2    1    1    2    0  503 -0.47008592995E+02  0.16636948335E+02  0.22046162801E+02  0.54521822783E+02  0.00000000000E+00 0. -1.
</event>
<event>
 4    1  0.1822260E+004  0.2028518E+02  0.7546771E-02  0.1529720E+00
         21   -1    0    0  501  502  0.00000000000E+00  0.00000000000E+00  0.96408897057E+02  0.96408897057E+02  0.00000000000E+00 0. -1.
         21   -1    0    0  502  503 -0.00000000000E+00 -0.00000000000E+00 -0.17629503908E+02  0.17629503908E+02  0.00000000000E+00 0.  1.
          2    1    1    2  501    0  0.23775591012E+01  0.20145363965E+02  0.89029056100E+02  0.91310795126E+02  0.00000000000E+00 0. -1.
         -2    1    1    2    0  503 -0.23775591012E+01 -0.20145363965E+02 -0.10249662951E+02  0.22727605839E+02  0.00000000000E+00 0.  1.
</event>
<event>
 4    1  0.1822260E+004  0.2223824E+02  0.7546771E-02  0.1502292E+00
         21   -1    0    0  503  502  0.00000000000E+00  0.00000000000E+00  0.11696346621E+02  0.11696346621E+02  0.00000000000E+00 0. -1.
         21   -1    0    0  501  503 -0.00000000000E+00 -0.00000000000E+00 -0.51304896291E+02  0.51304896291E+02  0.00000000000E+00 0.  1.
          2    1    1    2  501    0 -0.21730317176E+02  0.47257405367E+01 -0.33014927074E+02  0.39806088955E+02  0.00000000000E+00 0.  1.
         -2    1    1    2    0  502  0.21730317176E+02 -0.47257405367E+01 -0.65936225958E+01  0.23195153958E+02  0.00000000000E+00 0. -1.
</event>
<event>
 4    1  0.1822260E+004  0.2123251E+02  0.7546771E-02  0.1515971E+00
         21   -1    0    0  501  502  0.00000000000E+00  0.00000000000E+00  0.16985726142E+03  0.16985726142E+03  0.00000000000E+00 0. -1.
         21   -1    0    0  502  503 -0.00000000000E+00 -0.00000000000E+00 -0.82641025140E+01  0.82641025140E+01  0.00000000000E+00 0.  1.
          2    1    1    2  501    0 -0.48738054450E+01 -0.20665561585E+02  0.15417517746E+03  0.15563034653E+03  0.00000000000E+00 0. -1.
         -2    1    1    2    0  503  0.48738054450E+01  0.20665561585E+02  0.74179814410E+01  0.22491017402E+02  0.00000000000E+00 0.  1.
</event>
<event>
 4    1  0.1822260E+004  0.2313931E+02  0.7546771E-02  0.1490756E+00
         21   -1    0    0  503  502  0.00000000000E+00  0.00000000000E+00  0.38460908291E+02  0.38460908291E+02  0.00000000000E+00 0. -1.
         21   -1    0    0  501  503 -0.00000000000E+00 -0.00000000000E+00 -0.14106415733E+02  0.14106415733E+02  0.00000000000E+00 0.  1.
          2    1    1    2  501    0  0.15980183577E+02  0.16735037961E+02  0.15187760129E+02  0.27678436019E+02  0.00000000000E+00 0. -1.
         -2    1    1    2    0  502 -0.15980183577E+02 -0.16735037961E+02  0.91667324293E+01  0.24888888005E+02  0.00000000000E+00 0.  1.
</event>
<event>
 4    1  0.1822260E+004  0.2088959E+02  0.7546771E-02  0.1520847E+00
         21   -1    0    0  503  502  0.00000000000E+00  0.00000000000E+00  0.33003261112E+03  0.33003261112E+03  0.00000000000E+00 0.  1.
         21   -1    0    0  501  503 -0.00000000000E+00 -0.00000000000E+00 -0.88201608153E+01  0.88201608153E+01  0.00000000000E+00 0. -1.
          2    1    1    2  501    0  0.95888655014E+01 -0.18558785723E+02  0.43944118084E+01  0.21346796581E+02  0.00000000000E+00 0. -1.
         -2    1    1    2    0  502 -0.95888655014E+01  0.18558785723E+02  0.31681803850E+03  0.31750597536E+03  0.00000000000E+00 0.  1.
</event>
<event>
 4    1  0.1822260E+004  0.2350235E+02  0.7546771E-02  0.1486285E+00
         21   -1    0    0  503  502  0.00000000000E+00  0.00000000000E+00  0.21823265988E+03  0.21823265988E+03  0.00000000000E+00 0. -1.
         21   -1    0    0  501  503 -0.00000000000E+00 -0.00000000000E+00 -0.26013070730E+01  0.26013070730E+01  0.00000000000E+00 0.  1.
          2    1    1    2  501    0 -0.21706619675E+02 -0.90101699246E+01  0.12596023815E+03  0.12813407859E+03  0.00000000000E+00 0. -1.
         -2    1    1    2    0  502  0.21706619675E+02  0.90101699246E+01  0.89671114652E+02  0.92699888364E+02  0.00000000000E+00 0.  1.
</event>
<event>
 4    1  0.1822260E+004  0.2775606E+02  0.7546771E-02  0.1440158E+00
         21   -1    0    0  503  502  0.00000000000E+00  0.00000000000E+00  0.91367811366E+02  0.91367811366E+02  0.00000000000E+00 0. -1.
         21   -1    0    0  501  503 -0.00000000000E+00 -0.00000000000E+00 -0.85406471490E+01  0.85406471490E+01  0.00000000000E+00 0.  1.
          2    1    1    2  501    0  0.83010318687E-01  0.27755932816E+02  0.47051997960E+02  0.54628648246E+02  0.00000000000E+00 0. -1.
         -2    1    1    2    0  502 -0.83010318687E-01 -0.27755932816E+02  0.35775166257E+02  0.45279810268E+02  0.00000000000E+00 0.  1.
</event>
<event>
 4    1  0.1822260E+004  0.2342818E+02  0.7546771E-02  0.1487190E+00
         21   -1    0    0  501  502  0.00000000000E+00  0.00000000000E+00  0.19081521455E+02  0.19081521455E+02  0.00000000000E+00 0.  1.
         21   -1    0    0  502  503 -0.00000000000E+00 -0.00000000000E+00 -0.76216814647E+02  0.76216814647E+02  0.00000000000E+00 0. -1.
          2    1    1    2  501    0  0.50482099018E+01 -0.22877832923E+02  0.90296319838E+01  0.25108044851E+02  0.00000000000E+00 0.  1.
         -2    1    1    2    0  503 -0.50482099018E+01  0.22877832923E+02 -0.66164925176E+02  0.70190291252E+02  0.00000000000E+00 0. -1.
</event>
<event>
 4    1  0.1822260E+004  0.2760251E+02  0.7546771E-02  0.1441648E+00
         21   -1    0    0  503  502  0.00000000000E+00  0.00000000000E+00  0.13965682844E+03  0.13965682844E+03  0.00000000000E+00 0.  1.
         21   -1    0    0  501  503 -0.00000000000E+00 -0.00000000000E+00 -0.11058643206E+02  0.11058643206E+02  0.00000000000E+00 0. -1.
          2    1    1    2  501    0 -0.23772594652E+02  0.14027197631E+02  0.10658621388E+02  0.29588929344E+02  0.00000000000E+00 0. -1.
         -2    1    1    2    0  502  0.23772594652E+02 -0.14027197631E+02  0.11793956384E+03  0.12112654230E+03  0.00000000000E+00 0.  1.
</event>
<event>
 4    1  0.1822260E+004  0.2332074E+02  0.7546771E-02  0.1488509E+00
         21   -1    0    0  501  502  0.00000000000E+00  0.00000000000E+00  0.15511992828E+03  0.15511992828E+03  0.00000000000E+00 0. -1.
         21   -1    0    0  502  503 -0.00000000000E+00 -0.00000000000E+00 -0.43257033781E+01  0.43257033781E+01  0.00000000000E+00 0.  1.
          2    1    1    2  501    0  0.22793063174E+02 -0.49328513975E+01  0.40693723029E+02  0.46902407675E+02  0.00000000000E+00 0.  1.
         -2    1    1    2    0  503 -0.22793063174E+02  0.49328513975E+01  0.11010050188E+03  0.11254322399E+03  0.00000000000E+00 0. -1.
</event>
<event>
 4    1  0.1822260E+004  0.2492744E+02  0.7546771E-02  0.1469617E+00
         21   -1    0    0  503  502  0.00000000000E+00  0.00000000000E+00  0.86908134209E+02  0.86908134209E+02  0.00000000000E+00 0. -1.
         21   -1    0    0  501  503 -0.00000000000E+00 -0.00000000000E+00 -0.96040195123E+01  0.96040195123E+01  0.00000000000E+00 0.  1.
          2    1    1    2  501    0 -0.14060262813E+02 -0.20583644382E+02  0.14258196666E+02  0.28717130403E+02  0.00000000000E+00 0.  1.
         -2    1    1    2    0  502  0.14060262813E+02  0.20583644382E+02  0.63045918031E+02  0.67795023319E+02  0.00000000000E+00 0. -1.
</event>
<event>
 4    1  0.1822260E+004  0.2615380E+02  0.7546771E-02  0.1456299E+00
         21   -1    0    0  503  502  0.00000000000E+00  0.00000000000E+00  0.12880679350E+03  0.12880679350E+03  0.00000000000E+00 0.  1.
         21   -1    0    0  501  503 -0.00000000000E+00 -0.00000000000E+00 -0.81218861645E+01  0.81218861645E+01  0.00000000000E+00 0. -1.
          2    1    1    2  501    0 -0.34161938853E+01 -0.25929729621E+02  0.20061424737E+02  0.32961826730E+02  0.00000000000E+00 0. -1.
         -2    1    1    2    0  502  0.34161938853E+01  0.25929729621E+02  0.10062348260E+03  0.10396685294E+03  0.00000000000E+00 0.  1.
</event>
<event>
 4    1  0.1822260E+004  0.7653612E+02  0.7546771E-02  0.1212126E+00
         21   -1    0    0  503  502  0.00000000000E+00  0.00000000000E+00  0.12673108207E+02  0.12673108207E+02  0.00000000000E+00 0.  1.
         21   -1    0    0  501  503 -0.00000000000E+00 -0.00000000000E+00 -0.73744111319E+03  0.73744111319E+03  0.00000000000E+00 0. -1.
          2    1    1    2  501    0 -0.62125782900E+02 -0.44700838321E+02 -0.59150967179E+03  0.59644066735E+03  0.00000000000E+00 0. -1.
         -2    1    1    2    0  502  0.62125782900E+02  0.44700838321E+02 -0.13325833319E+03  0.15367355404E+03  0.00000000000E+00 0.  1.
</event>
<event>
 4    1  0.1822260E+004  0.2257376E+02  0.7546771E-02  0.1497921E+00
         21   -1    0    0  503  502  0.00000000000E+00  0.00000000000E+00  0.91762250946E+01  0.91762250946E+01  0.00000000000E+00 0.  1.
         21   -1    0    0  501  503 -0.00000000000E+00 -0.00000000000E+00 -0.15628116889E+03  0.15628116889E+03  0.00000000000E+00 0. -1.
          2    1    1    2  501    0  0.18848553648E+02 -0.12422032490E+02 -0.13997622680E+03  0.14178476270E+03  0.00000000000E+00 0. -1.
         -2    1    1    2    0  502 -0.18848553648E+02  0.12422032490E+02 -0.71287169968E+01  0.23672631282E+02  0.00000000000E+00 0.  1.
</event>
<event>
 4    1  0.1822260E+004  0.2983964E+02  0.7546771E-02  0.1420995E+00
         21   -1    0    0  503  502  0.00000000000E+00  0.00000000000E+00  0.21002035094E+03  0.21002035094E+03  0.00000000000E+00 0. -1.
         21   -1    0    0  501  503 -0.00000000000E+00 -0.00000000000E+00 -0.24461665501E+02  0.24461665501E+02  0.00000000000E+00 0.  1.
          2    1    1    2  501    0 -0.20209943198E+02  0.21953645535E+02 -0.13818688370E+02  0.32884046354E+02  0.00000000000E+00 0.  1.
         -2    1    1    2    0  502  0.20209943198E+02 -0.21953645535E+02  0.19937737381E+03  0.20159797009E+03  0.00000000000E+00 0. -1.
</event>
<event>
 4    1  0.1822260E+004  0.2086737E+02  0.7546771E-02  0.1521167E+00
         21   -1    0    0  501  502  0.00000000000E+00  0.00000000000E+00  0.13607440623E+03  0.13607440623E+03  0.00000000000E+00 0.  1.
         21   -1    0    0  502  503 -0.00000000000E+00 -0.00000000000E+00 -0.32059991845E+01  0.32059991845E+01  0.00000000000E+00 0. -1.
          2    1    1    2  501    0  0.20302873224E+02 -0.48208190216E+01  0.69430297958E+02  0.72498367097E+02  0.00000000000E+00 0. -1.
         -2    1    1    2    0  503 -0.20302873224E+02  0.48208190216E+01  0.63438109085E+02  0.66782038315E+02  0.00000000000E+00 0.  1.
</event>
<event>
 4    1  0.1822260E+004  0.2324281E+02  0.7546771E-02  0.1489471E+00
         21   -1    0    0  501  502  0.00000000000E+00  0.00000000000E+00  0.15853819992E+02  0.15853819992E+02  0.00000000000E+00 0. -1.
         21   -1    0    0  502  503 -0.00000000000E+00 -0.00000000000E+00 -0.53509286530E+02  0.53509286530E+02  0.00000000000E+00 0.  1.
          2    1    1    2  501    0  0.10697526968E+02  0.20634706621E+02  0.20730093313E+01  0.23335071636E+02  0.00000000000E+00 0. -1.
         -2    1    1    2    0  503 -0.10697526968E+02 -0.20634706621E+02 -0.39728475869E+02  0.46028034886E+02  0.00000000000E+00 0.  1.
</event>
<event>
 4    1  0.1822260E+004  0.2004128E+02  0.7546771E-02  0.1533406E+00
         21   -1    0    0  501  502  0.00000000000E+00  0.00000000000E+00  0.73041377878E+02  0.73041377878E+02  0.00000000000E+00 0.  1.
         21   -1    0    0  502  503 -0.00000000000E+00 -0.00000000000E+00 -0.30371749298E+02  0.30371749298E+02  0.00000000000E+00 0. -1.
          2    1    1    2  501    0 -0.19236351915E+02  0.56227885506E+01  0.68126948499E+02  0.71013619101E+02  0.00000000000E+00 0.  1.
         -2    1    1    2    0  503  0.19236351915E+02 -0.56227885506E+01 -0.25457319919E+02  0.32399508075E+02  0.00000000000E+00 0. -1.
</event>
<event>
 4    1  0.1822260E+004  0.2947541E+02  0.7546771E-02  0.1424211E+00
         21   -1    0    0  503  502  0.00000000000E+00  0.00000000000E+00  0.43132903999E+02  0.43132903999E+02  0.00000000000E+00 0. -1.
         21   -1    0    0  501  503 -0.00000000000E+00 -0.00000000000E+00 -0.39703087176E+02  0.39703087176E+02  0.00000000000E+00 0.  1.
          2    1    1    2  501    0 -0.79639930110E+01  0.28379126695E+02 -0.27356698738E+02  0.40214288288E+02  0.00000000000E+00 0.  1.
         -2    1    1    2    0  502  0.79639930110E+01 -0.28379126695E+02  0.30786515561E+02  0.42621702887E+02  0.00000000000E+00 0. -1.
</event>
<event>
 4    1  0.1822260E+004  0.2317066E+02  0.7546771E-02  0.1490366E+00
         21   -1    0    0  501  502  0.00000000000E+00  0.00000000000E+00  0.10006416435E+04  0.10006416435E+04  0.00000000000E+00 0.  1.
         21   -1    0    0  502  503 -0.00000000000E+00 -0.00000000000E+00 -0.97700606709E+00  0.97700606709E+00  0.00000000000E+00 0. -1.
          2    1    1    2  501    0  0.20094970958E+02  0.11535661200E+02  0.83609791277E+03  0.83641891363E+03  0.00000000000E+00 0.  1.
         -2    1    1    2    0  503 -0.20094970958E+02 -0.11535661200E+02  0.16356672462E+03  0.16519973590E+03  0.00000000000E+00 0. -1.
</event>
<event>
 4    1  0.1822260E+004  0.2072454E+02  0.7546771E-02  0.1523234E+00
         21   -1    0    0  501  502  0.00000000000E+00  0.00000000000E+00  0.29839837613E+02  0.29839837613E+02  0.00000000000E+00 0. -1.
         21   -1    0    0  502  503 -0.00000000000E+00 -0.00000000000E+00 -0.37544686008E+02  0.37544686008E+02  0.00000000000E+00 0.  1.
          2    1    1    2  501    0  0.49898169827E+01  0.20114875263E+02  0.22604565013E+02  0.30667129630E+02  0.00000000000E+00 0. -1.
         -2    1    1    2    0  503 -0.49898169827E+01 -0.20114875263E+02 -0.30309413408E+02  0.36717393991E+02  0.00000000000E+00 0.  1.
</event>
<event>
 4    1  0.1822260E+004  0.2038217E+02  0.7546771E-02  0.1528271E+00
         21   -1    0    0  501  502  0.00000000000E+00  0.00000000000E+00  0.30009967469E+02  0.30009967469E+02  0.00000000000E+00 0.  1.
         21   -1    0    0  502  503 -0.00000000000E+00 -0.00000000000E+00 -0.15423173479E+02  0.15423173479E+02  0.00000000000E+00 0. -1.
          2    1    1    2  501    0  0.44540586799E-01  0.20382122868E+02  0.14564255138E+02  0.25050956952E+02  0.00000000000E+00 0. -1.
         -2    1    1    2    0  503 -0.44540586799E-01 -0.20382122868E+02  0.22538852062E-01  0.20382183997E+02  0.00000000000E+00 0.  1.
</event>
<event>
 4    1  0.1822260E+004  0.4217867E+02  0.7546771E-02  0.1336171E+00
         21   -1    0    0  501  502  0.00000000000E+00  0.00000000000E+00  0.31044786001E+01  0.31044786001E+01  0.00000000000E+00 0. -1.
         21   -1    0    0  502  503 -0.00000000000E+00 -0.00000000000E+00 -0.10104116169E+04  0.10104116169E+04  0.00000000000E+00 0.  1.
          2    1    1    2  501    0  0.23021445312E+02  0.35341948856E+02 -0.17025110100E+03  0.17539805496E+03  0.00000000000E+00 0. -1.
         -2    1    1    2    0  503 -0.23021445312E+02 -0.35341948856E+02 -0.83705603732E+03  0.83811804055E+03  0.00000000000E+00 0.  1.
</event>
<event>
 4    1  0.1822260E+004  0.4876909E+02  0.7546771E-02  0.1303599E+00
         21   -1    0    0  503  502  0.00000000000E+00  0.00000000000E+00  0.37586758866E+02  0.37586758866E+02  0.00000000000E+00 0. -1.
         21   -1    0    0  501  503 -0.00000000000E+00 -0.00000000000E+00 -0.26578010506E+03  0.26578010506E+03  0.00000000000E+00 0.  1.
          2    1    1    2  501    0  0.27767683301E+02 -0.40092139471E+02 -0.24649772259E+03  0.25127584668E+03  0.00000000000E+00 0.  1.
         -2    1    1    2    0  502 -0.27767683301E+02  0.40092139471E+02  0.18304376389E+02  0.52091017252E+02  0.00000000000E+00 0. -1.
</event>
<event>
 4    1  0.1822260E+004  0.4048096E+02  0.7546771E-02  0.1345690E+00
         21   -1    0    0  503  502  0.00000000000E+00  0.00000000000E+00  0.20419506441E+02  0.20419506441E+02  0.00000000000E+00 0.  1.
         21   -1    0    0  501  503 -0.00000000000E+00 -0.00000000000E+00 -0.18138877718E+03  0.18138877718E+03  0.00000000000E+00 0. -1.
          2    1    1    2  501    0  0.25121141351E+02 -0.31743293968E+02 -0.15583027219E+03  0.16100242913E+03  0.00000000000E+00 0. -1.
         -2    1    1    2    0  502 -0.25121141351E+02  0.31743293968E+02 -0.51389985487E+01  0.40805854492E+02  0.00000000000E+00 0.  1.
</event>
<event>
 4    1  0.1822260E+004  0.3358461E+02  0.7546771E-02  0.1390796E+00
         21   -1    0    0  503  502  0.00000000000E+00  0.00000000000E+00  0.64462169503E+01  0.64462169503E+01  0.00000000000E+00 0. -1.
         21   -1    0    0  501  503 -0.00000000000E+00 -0.00000000000E+00 -0.36445766401E+03  0.36445766401E+03  0.00000000000E+00 0.  1.
          2    1    1    2  501    0 -0.22083260274E+02  0.25303277064E+02 -0.31272458966E+03  0.31452280552E+03  0.00000000000E+00 0.  1.
         -2    1    1    2    0  502  0.22083260274E+02 -0.25303277064E+02 -0.45286857394E+02  0.56381075434E+02  0.00000000000E+00 0. -1.
</event>
<event>
 4    1  0.1822260E+004  0.2255658E+02  0.7546771E-02  0.1498143E+00
         21   -1    0    0  503  502  0.00000000000E+00  0.00000000000E+00  0.29483502574E+03  0.29483502574E+03  0.00000000000E+00 0.  1.
         21   -1    0    0  501  503 -0.00000000000E+00 -0.00000000000E+00 -0.21615742434E+01  0.21615742434E+01  0.00000000000E+00 0. -1.
          2    1    1    2  501    0  0.96193082962E+01 -0.20402650613E+02  0.79654070703E+02  0.82786292487E+02  0.00000000000E+00 0. -1.
         -2    1    1    2    0  502 -0.96193082962E+01  0.20402650613E+02  0.21301938080E+03  0.21421030750E+03  0.00000000000E+00 0.  1.
</event>
<event>
 4    1  0.1822260E+004  0.2821195E+02  0.7546771E-02  0.1435799E+00
         21   -1    0    0  503  502  0.00000000000E+00  0.00000000000E+00  0.18100848658E+02  0.18100848658E+02  0.00000000000E+00 0. -1.
         21   -1    0    0  501  503 -0.00000000000E+00 -0.00000000000E+00 -0.44480208272E+02  0.44480208272E+02  0.00000000000E+00 0.  1.
          2    1    1    2  501    0  0.23707657583E+02 -0.15292518214E+02 -0.98420565786E+01  0.29879428025E+02  0.00000000000E+00 0. -1.
         -2    1    1    2    0  502 -0.23707657583E+02  0.15292518214E+02 -0.16537303035E+02  0.32701628905E+02  0.00000000000E+00 0.  1.
</event>
<event>
 4    1  0.1822260E+004  0.2722501E+02  0.7546771E-02  0.1445361E+00
         21   -1    0    0  501  502  0.00000000000E+00  0.00000000000E+00  0.24302238160E+03  0.24302238160E+03  0.00000000000E+00 0.  1.
         21   -1    0    0  502  503 -0.00000000000E+00 -0.00000000000E+00 -0.10304008717E+02  0.10304008717E+02  0.00000000000E+00 0. -1.
          2    1    1    2  501    0 -0.54773366589E+01 -0.26668328688E+02  0.22263599322E+03  0.22429441913E+03  0.00000000000E+00 0.  1.
         -2    1    1    2    0  503  0.54773366589E+01  0.26668328688E+02  0.10082379663E+02  0.29031971196E+02  0.00000000000E+00 0. -1.
</event>
<event>
 4    1  0.1822260E+004  0.2785772E+02  0.7546771E-02  0.1439177E+00
         21   -1    0    0  503  502  0.00000000000E+00  0.00000000000E+00  0.17375236579E+02  0.17375236579E+02  0.00000000000E+00 0.  1.
         21   -1    0    0  501  503 -0.00000000000E+00 -0.00000000000E+00 -0.84653958095E+02  0.84653958095E+02  0.00000000000E+00 0. -1.
          2    1    1    2  501    0  0.71163584589E+01 -0.26933438829E+02 -0.68702008099E+02  0.74135137429E+02  0.00000000000E+00 0. -1.
         -2    1    1    2    0  502 -0.71163584589E+01  0.26933438829E+02  0.14232865824E+01  0.27894057245E+02  0.00000000000E+00 0.  1.
</event>
<event>
 4    1  0.1822260E+004  0.2384386E+02  0.7546771E-02  0.1482165E+00
         21   -1    0    0  501  502  0.00000000000E+00  0.00000000000E+00  0.82985966194E+02  0.82985966194E+02  0.00000000000E+00 0. -1.
         21   -1    0    0  502  503 -0.00000000000E+00 -0.00000000000E+00 -0.10669573408E+02  0.10669573408E+02  0.00000000000E+00 0.  1.
          2    1    1    2  501    0 -0.12456958664E+02  0.20331103020E+02  0.64172866385E+02  0.68459377366E+02  0.00000000000E+00 0. -1.
         -2    1    1    2    0  503  0.12456958664E+02 -0.20331103020E+02  0.81435264016E+01  0.25196162236E+02  0.00000000000E+00 0.  1.
</event>
<event>
 4    1  0.1822260E+004  0.3009716E+02  0.7546771E-02  0.1418754E+00
         21   -1    0    0  501  502  0.00000000000E+00  0.00000000000E+00  0.75513816740E+01  0.75513816740E+01  0.00000000000E+00 0. -1.
         21   -1    0    0  502  503 -0.00000000000E+00 -0.00000000000E+00 -0.39001759769E+03  0.39001759769E+03  0.00000000000E+00 0.  1.
          2    1    1    2  501    0  0.88911240016E+01  0.28753905800E+02 -0.25819509746E+02  0.39654586977E+02  0.00000000000E+00 0. -1.
         -2    1    1    2    0  503 -0.88911240016E+01 -0.28753905800E+02 -0.35664670627E+03  0.35791439239E+03  0.00000000000E+00 0.  1.
</event>
<event>
 4    1  0.1822260E+004  0.2799213E+02  0.7546771E-02  0.1437889E+00
         21   -1    0    0  503  502  0.00000000000E+00  0.00000000000E+00  0.59703027467E+01  0.59703027467E+01  0.00000000000E+00 0.  1.
         21   -1    0    0  501  503 -0.00000000000E+00 -0.00000000000E+00 -0.37474750458E+03  0.37474750458E+03  0.00000000000E+00 0. -1.
          2    1    1    2  501    0  0.63248683372E+01 -0.27268215341E+02 -0.33783526690E+03  0.33899296024E+03  0.00000000000E+00 0. -1.
         -2    1    1    2    0  502 -0.63248683372E+01  0.27268215341E+02 -0.30941934930E+02  0.41724847088E+02  0.00000000000E+00 0.  1.
</event>
<event>
 4    1  0.1822260E+004  0.2283085E+02  0.7546771E-02  0.1494633E+00
         21   -1    0    0  501  502  0.00000000000E+00  0.00000000000E+00  0.36062617984E+01  0.36062617984E+01  0.00000000000E+00 0.  1.
         21   -1    0    0  502  503 -0.00000000000E+00 -0.00000000000E+00 -0.14867071528E+03  0.14867071528E+03  0.00000000000E+00 0. -1.
          2    1    1    2  501    0  0.10306279530E+02 -0.20372240847E+02 -0.59840350773E+02  0.64047756990E+02  0.00000000000E+00 0.  1.
         -2    1    1    2    0  503 -0.10306279530E+02  0.20372240847E+02 -0.85224102711E+02  0.88229220090E+02  0.00000000000E+00 0. -1.
</event>
<event>
 4    1  0.1822260E+004  0.2502933E+02  0.7546771E-02  0.1468476E+00
         21   -1    0    0  503  502  0.00000000000E+00  0.00000000000E+00  0.36786795436E+01  0.36786795436E+01  0.00000000000E+00 0. -1.
         21   -1    0    0  501  503 -0.00000000000E+00 -0.00000000000E+00 -0.61402790765E+03  0.61402790765E+03  0.00000000000E+00 0.  1.
          2    1    1    2  501    0 -0.20578795315E+02 -0.14247122586E+02 -0.56772830296E+03  0.56827976675E+03  0.00000000000E+00 0.  1.
         -2    1    1    2    0  502  0.20578795315E+02  0.14247122586E+02 -0.42620925147E+02  0.49426820441E+02  0.00000000000E+00 0. -1.
</event>
<event>
 4    1  0.1822260E+004  0.2260948E+02  0.7546771E-02  0.1497461E+00
         21   -1    0    0  501  502  0.00000000000E+00  0.00000000000E+00  0.18315572773E+03  0.18315572773E+03  0.00000000000E+00 0. -1.
         21   -1    0    0  502  503 -0.00000000000E+00 -0.00000000000E+00 -0.36013608909E+01  0.36013608909E+01  0.00000000000E+00 0.  1.
          2    1    1    2  501    0 -0.17016804155E+02  0.14886806231E+02  0.45482503318E+02  0.50792191639E+02  0.00000000000E+00 0.  1.
         -2    1    1    2    0  503  0.17016804155E+02 -0.14886806231E+02  0.13407186352E+03  0.13596489699E+03  0.00000000000E+00 0. -1.
</event>
<event>
 4    1  0.1822260E+004  0.2153312E+02  0.7546771E-02  0.1511788E+00
         21   -1    0    0  501  502  0.00000000000E+00  0.00000000000E+00  0.12514679354E+03  0.12514679354E+03  0.00000000000E+00 0.  1.
         21   -1    0    0  502  503 -0.00000000000E+00 -0.00000000000E+00 -0.11112358545E+02  0.11112358545E+02  0.00000000000E+00 0. -1.
          2    1    1    2  501    0 -0.16448775259E+02 -0.13896519088E+02  0.11264128015E+03  0.11468100734E+03  0.00000000000E+00 0.  1.
         -2    1    1    2    0  503  0.16448775259E+02  0.13896519088E+02  0.13931548456E+01  0.21578144747E+02  0.00000000000E+00 0. -1.
</event>
<event>
 4    1  0.1822260E+004  0.3216209E+02  0.7546771E-02  0.1401693E+00
         21   -1    0    0  503  502  0.00000000000E+00  0.00000000000E+00  0.39177200624E+03  0.39177200624E+03  0.00000000000E+00 0. -1.
         21   -1    0    0  501  503 -0.00000000000E+00 -0.00000000000E+00 -0.26408338766E+01  0.26408338766E+01  0.00000000000E+00 0.  1.
          2    1    1    2  501    0  0.17112028853E+02  0.27231942645E+02  0.19179266152E+03  0.19447062823E+03  0.00000000000E+00 0. -1.
         -2    1    1    2    0  502 -0.17112028853E+02 -0.27231942645E+02  0.19733851084E+03  0.19994221188E+03  0.00000000000E+00 0.  1.
</event>
<event>
 4    1  0.1822260E+004  0.2425646E+02  0.7546771E-02  0.1477296E+00
         21   -1    0    0  503  502  0.00000000000E+00  0.00000000000E+00  0.16038851561E+02  0.16038851561E+02  0.00000000000E+00 0. -1.
         21   -1    0    0  501  503 -0.00000000000E+00 -0.00000000000E+00 -0.57391937042E+02  0.57391937042E+02  0.00000000000E+00 0.  1.
          2    1    1    2  501    0  0.23668348805E+02 -0.53089743889E+01 -0.42730512960E+02  0.49135248875E+02  0.00000000000E+00 0.  1.
         -2    1    1    2    0  502 -0.23668348805E+02  0.53089743889E+01  0.13774274786E+01  0.24295539728E+02  0.00000000000E+00 0. -1.
</event>
<event>
 4    1  0.1822260E+004  0.2516680E+02  0.7546771E-02  0.1466946E+00
         21   -1    0    0  501  502  0.00000000000E+00  0.00000000000E+00  0.66081958818E+01  0.66081958818E+01  0.00000000000E+00 0. -1.
         21   -1    0    0  502  503 -0.00000000000E+00 -0.00000000000E+00 -0.12351710081E+03  0.12351710081E+03  0.00000000000E+00 0.  1.
          2    1    1    2  501    0  0.95202767081E+01 -0.23296609392E+02 -0.89249661052E+02  0.92730090455E+02  0.00000000000E+00 0. -1.
         -2    1    1    2    0  503 -0.95202767081E+01  0.23296609392E+02 -0.27659243879E+02  0.37395206240E+02  0.00000000000E+00 0.  1.
</event>
<event>
 4    1  0.1822260E+004  0.2263187E+02  0.7546771E-02  0.1497173E+00
         21   -1    0    0  503  502  0.00000000000E+00  0.00000000000E+00  0.34597827438E+02  0.34597827438E+02  0.00000000000E+00 0. -1.
         21   -1    0    0  501  503 -0.00000000000E+00 -0.00000000000E+00 -0.23098084409E+02  0.23098084409E+02  0.00000000000E+00 0.  1.
          2    1    1    2  501    0  0.22450142782E+02 -0.28622590182E+01 -0.11536338560E+02  0.25402530287E+02  0.00000000000E+00 0.  1.
         -2    1    1    2    0  502 -0.22450142782E+02  0.28622590182E+01  0.23036081589E+02  0.32293381560E+02  0.00000000000E+00 0. -1.
</event>
<event>
 4    1  0.1822260E+004  0.2134953E+02  0.7546771E-02  0.1514333E+00
         21   -1    0    0  501  502  0.00000000000E+00  0.00000000000E+00  0.89927043957E+03  0.89927043957E+03  0.00000000000E+00 0.  1.
         21   -1    0    0  502  503 -0.00000000000E+00 -0.00000000000E+00 -0.45451895412E+01  0.45451895412E+01  0.00000000000E+00 0. -1.
          2    1    1    2  501    0 -0.59566608155E+01 -0.20501719897E+02  0.87332853399E+03  0.87358945198E+03  0.00000000000E+00 0.  1.
         -2    1    1    2    0  503  0.59566608155E+01  0.20501719897E+02  0.21396716037E+02  0.30226177131E+02  0.00000000000E+00 0. -1.
</event>
<event>
 4    1  0.1822260E+004  0.2007804E+02  0.7546771E-02  0.1532846E+00
         21   -1    0    0  501  502  0.00000000000E+00  0.00000000000E+00  0.78117689268E+02  0.78117689268E+02  0.00000000000E+00 0. -1.
         21   -1    0    0  502  503 -0.00000000000E+00 -0.00000000000E+00 -0.16349795049E+02  0.16349795049E+02  0.00000000000E+00 0.  1.
          2    1    1    2  501    0 -0.20077442184E+02 -0.15462381208E+00  0.69958790719E+02  0.72782964985E+02  0.00000000000E+00 0. -1.
         -2    1    1    2    0  503  0.20077442184E+02  0.15462381208E+00 -0.81908965003E+01  0.21684519331E+02  0.00000000000E+00 0.  1.
</event>
<event>
 4    1  0.1822260E+004  0.3415351E+02  0.7546771E-02  0.1386614E+00
         21   -1    0    0  501  502  0.00000000000E+00  0.00000000000E+00  0.21186200663E+02  0.21186200663E+02  0.00000000000E+00 0.  1.
         21   -1    0    0  502  503 -0.00000000000E+00 -0.00000000000E+00 -0.71095552088E+02  0.71095552088E+02  0.00000000000E+00 0. -1.
          2    1    1    2  501    0 -0.31521968316E+02 -0.13146398617E+02 -0.30398263143E+01  0.34288523257E+02  0.00000000000E+00 0.  1.
         -2    1    1    2    0  503  0.31521968316E+02  0.13146398617E+02 -0.46869525111E+02  0.57993229495E+02  0.00000000000E+00 0. -1.
</event>
<event>
 4    1  0.1822260E+004  0.2753710E+02  0.7546771E-02  0.1442286E+00
         21   -1    0    0  503  502  0.00000000000E+00  0.00000000000E+00  0.11087815994E+02  0.11087815994E+02  0.00000000000E+00 0. -1.
         21   -1    0    0  501  503 -0.00000000000E+00 -0.00000000000E+00 -0.88419332894E+02  0.88419332894E+02  0.00000000000E+00 0.  1.
          2    1    1    2  501    0 -0.71758913702E+01  0.26585683409E+02 -0.62346079474E+02  0.68156625541E+02  0.00000000000E+00 0. -1.
         -2    1    1    2    0  502  0.71758913702E+01 -0.26585683409E+02 -0.14985437426E+02  0.31350523347E+02  0.00000000000E+00 0.  1.
</event>
<event>
 4    1  0.1822260E+004  0.2098830E+02  0.7546771E-02  0.1519432E+00
         21   -1    0    0  501  502  0.00000000000E+00  0.00000000000E+00  0.63379217471E+02  0.63379217471E+02  0.00000000000E+00 0.  1.
         21   -1    0    0  502  503 -0.00000000000E+00 -0.00000000000E+00 -0.80014720387E+01  0.80014720387E+01  0.00000000000E+00 0. -1.
          2    1    1    2  501    0  0.51411550420E+01  0.20348891300E+02  0.40624537598E+02  0.45725943483E+02  0.00000000000E+00 0.  1.
         -2    1    1    2    0  503 -0.51411550420E+01 -0.20348891300E+02  0.14753207834E+02  0.25654746027E+02  0.00000000000E+00 0. -1.
</event>
<event>
 4    1  0.1822260E+004  0.2042874E+02  0.7546771E-02  0.1527579E+00
         21   -1    0    0  501  502  0.00000000000E+00  0.00000000000E+00  0.35304217611E+01  0.35304217611E+01  0.00000000000E+00 0.  1.
         21   -1    0    0  502  503 -0.00000000000E+00 -0.00000000000E+00 -0.11833805535E+03  0.11833805535E+03  0.00000000000E+00 0. -1.
          2    1    1    2  501    0 -0.15655425351E+02  0.13124057109E+02 -0.59403704310E+02  0.62818256134E+02  0.00000000000E+00 0.  1.
         -2    1    1    2    0  503  0.15655425351E+02 -0.13124057109E+02 -0.55403929276E+02  0.59050220974E+02  0.00000000000E+00 0. -1.
</event>
<event>
 4    1  0.1822260E+004  0.2835129E+02  0.7546771E-02  0.1434487E+00
         21   -1    0    0  503  502  0.00000000000E+00  0.00000000000E+00  0.63458894462E+02  0.63458894462E+02  0.00000000000E+00 0. -1.
         21   -1    0    0  501  503 -0.00000000000E+00 -0.00000000000E+00 -0.22905107327E+02  0.22905107327E+02  0.00000000000E+00 0.  1.
          2    1    1    2  501    0 -0.94279329102E+01  0.26737794210E+02 -0.85939332753E+01  0.29625179279E+02  0.00000000000E+00 0.  1.
         -2    1    1    2    0  502  0.94279329102E+01 -0.26737794210E+02  0.49147720410E+02  0.56738822509E+02  0.00000000000E+00 0. -1.
</event>
<event>
 4    1  0.1822260E+004  0.2890713E+02  0.7546771E-02  0.1429337E+00
         21   -1    0    0  503  502  0.00000000000E+00  0.00000000000E+00  0.23845466929E+03  0.23845466929E+03  0.00000000000E+00 0.  1.
         21   -1    0    0  501  503 -0.00000000000E+00 -0.00000000000E+00 -0.48876993757E+01  0.48876993757E+01  0.00000000000E+00 0. -1.
          2    1    1    2  501    0  0.78107914812E+01 -0.27831884042E+02  0.52053480592E+02  0.59541473568E+02  0.00000000000E+00 0. -1.
         -2    1    1    2    0  502 -0.78107914812E+01  0.27831884042E+02  0.18151348933E+03  0.18380089510E+03  0.00000000000E+00 0.  1.
</event>
<event>
 4    1  0.1822260E+004  0.2841435E+02  0.7546771E-02  0.1433896E+00
         21   -1    0    0  501  502  0.00000000000E+00  0.00000000000E+00  0.13225348075E+03  0.13225348075E+03  0.00000000000E+00 0. -1.
         21   -1    0    0  502  503 -0.00000000000E+00 -0.00000000000E+00 -0.61112119696E+01  0.61112119696E+01  0.00000000000E+00 0.  1.
          2    1    1    2  501    0 -0.28707119326E+01  0.28268958682E+02  0.65320022416E+02  0.71232579207E+02  0.00000000000E+00 0.  1.
         -2    1    1    2    0  503  0.28707119326E+01 -0.28268958682E+02  0.60822246361E+02  0.67132113511E+02  0.00000000000E+00 0. -1.
</event>
<event>
 4    1  0.1822260E+004  0.2098048E+02  0.7546771E-02  0.1519544E+00
         21   -1    0    0  501  502  0.00000000000E+00  0.00000000000E+00  0.35180801881E+01  0.35180801881E+01  0.00000000000E+00 0.  1.
         21   -1    0    0  502  503 -0.00000000000E+00 -0.00000000000E+00 -0.16867639818E+03  0.16867639818E+03  0.00000000000E+00 0. -1.
          2    1    1    2  501    0 -0.64753526920E+01  0.19956210000E+02 -0.38827912497E+02  0.44133743314E+02  0.00000000000E+00 0.  1.
         -2    1    1    2    0  503  0.64753526920E+01 -0.19956210000E+02 -0.12633040549E+03  0.12806073505E+03  0.00000000000E+00 0. -1.
</event>
<event>
 4    1  0.1822260E+004  0.2807925E+02  0.7546771E-02  0.1437058E+00
         21   -1    0    0  501  502  0.00000000000E+00  0.00000000000E+00  0.45357959896E+02  0.45357959896E+02  0.00000000000E+00 0. -1.
         21   -1    0    0  502  503 -0.00000000000E+00 -0.00000000000E+00 -0.23863759894E+02  0.23863759894E+02  0.00000000000E+00 0.  1.
          2    1    1    2  501    0 -0.26547583016E+02 -0.91471237675E+01  0.28784162214E+02  0.40211590761E+02  0.00000000000E+00 0. -1.
         -2    1    1    2    0  503  0.26547583016E+02  0.91471237675E+01 -0.72899622122E+01  0.29010129029E+02  0.00000000000E+00 0.  1.
</event>
<event>
 4    1  0.1822260E+004  0.2167625E+02  0.7546771E-02  0.1509825E+00
         21   -1    0    0  503  502  0.00000000000E+00  0.00000000000E+00  0.97140238346E+02  0.97140238346E+02  0.00000000000E+00 0.  1.
         21   -1    0    0  501  503 -0.00000000000E+00 -0.00000000000E+00 -0.16612771762E+02  0.16612771762E+02  0.00000000000E+00 0. -1.
          2    1    1    2  501    0 -0.60328033281E+01 -0.20819828710E+02 -0.76221979619E+01  0.22977334164E+02  0.00000000000E+00 0. -1.
         -2    1    1    2    0  502  0.60328033281E+01  0.20819828710E+02  0.88149664545E+02  0.90775675943E+02  0.00000000000E+00 0.  1.
</event>
<event>
 4    1  0.1822260E+004  0.4263506E+02  0.7546771E-02  0.1333700E+00
         21   -1    0    0  503  502  0.00000000000E+00  0.00000000000E+00  0.14410866935E+02  0.14410866935E+02  0.00000000000E+00 0. -1.
         21   -1    0    0  501  503 -0.00000000000E+00 -0.00000000000E+00 -0.36257868803E+03  0.36257868803E+03  0.00000000000E+00 0.  1.
          2    1    1    2  501    0 -0.16390568687E+02  0.39358581286E+02 -0.32629976273E+03  0.32907337149E+03  0.00000000000E+00 0.  1.
         -2    1    1    2    0  502  0.16390568687E+02 -0.39358581286E+02 -0.21868058365E+02  0.47916183481E+02  0.00000000000E+00 0. -1.
</event>
<event>
 4    1  0.1822260E+004  0.2266007E+02  0.7546771E-02  0.1496811E+00
         21   -1    0    0  503  502  0.00000000000E+00  0.00000000000E+00  0.78479963677E+03  0.78479963677E+03  0.00000000000E+00 0.  1.
         21   -1    0    0  501  503 -0.00000000000E+00 -0.00000000000E+00 -0.68655888385E+00  0.68655888385E+00  0.00000000000E+00 0. -1.
          2    1    1    2  501    0 -0.19956978073E+02 -0.10733026251E+02  0.30689806070E+03  0.30773348614E+03  0.00000000000E+00 0.  1.
         -2    1    1    2    0  502  0.19956978073E+02  0.10733026251E+02  0.47721501718E+03  0.47775270952E+03  0.00000000000E+00 0. -1.
</event>
<event>
 4    1  0.1822260E+004  0.2882500E+02  0.7546771E-02  0.1430089E+00
         21   -1    0    0  503  502  0.00000000000E+00  0.00000000000E+00  0.18784542367E+02  0.18784542367E+02  0.00000000000E+00 0.  1.
         21   -1    0    0  501  503 -0.00000000000E+00 -0.00000000000E+00 -0.13995424297E+03  0.13995424297E+03  0.00000000000E+00 0. -1.
          2    1    1    2  501    0 -0.26692748503E+02  0.10880163439E+02 -0.12622447742E+03  0.12947393359E+03  0.00000000000E+00 0. -1.
         -2    1    1    2    0  502  0.26692748503E+02 -0.10880163439E+02  0.50547768167E+01  0.29264851747E+02  0.00000000000E+00 0.  1.
</event>
<event>
 4    1  0.1822260E+004  0.2261689E+02  0.7546771E-02  0.1497366E+00
         21   -1    0    0  501  502  0.00000000000E+00  0.00000000000E+00  0.28626221667E+02  0.28626221667E+02  0.00000000000E+00 0.  1.
         21   -1    0    0  502  503 -0.00000000000E+00 -0.00000000000E+00 -0.58747971528E+02  0.58747971528E+02  0.00000000000E+00 0. -1.
          2    1    1    2  501    0 -0.10659491368E+02 -0.19947408499E+02  0.21381474792E+02  0.31123806424E+02  0.00000000000E+00 0.  1.
         -2    1    1    2    0  503  0.10659491368E+02  0.19947408499E+02 -0.51503224654E+02  0.56250386771E+02  0.00000000000E+00 0. -1.
</event>
<event>
 4    1  0.1822260E+004  0.3502540E+02  0.7546771E-02  0.1380385E+00
         21   -1    0    0  503  502  0.00000000000E+00  0.00000000000E+00  0.41927637855E+02  0.41927637855E+02  0.00000000000E+00 0. -1.
         21   -1    0    0  501  503 -0.00000000000E+00 -0.00000000000E+00 -0.70432325880E+02  0.70432325880E+02  0.00000000000E+00 0.  1.
          2    1    1    2  501    0 -0.35010513786E+01 -0.34849979665E+02 -0.57206118183E+02  0.67076958794E+02  0.00000000000E+00 0.  1.
         -2    1    1    2    0  502  0.35010513786E+01  0.34849979665E+02  0.28701430158E+02  0.45283004941E+02  0.00000000000E+00 0. -1.
</event>
<event>
 4    1  0.1822260E+004  0.3122425E+02  0.7546771E-02  0.1409248E+00
         21   -1    0    0  501  502  0.00000000000E+00  0.00000000000E+00  0.20346262551E+03  0.20346262551E+03  0.00000000000E+00 0.  1.
         21   -1    0    0  502  503 -0.00000000000E+00 -0.00000000000E+00 -0.69113195545E+01  0.69113195545E+01  0.00000000000E+00 0. -1.
          2    1    1    2  501    0  0.44670227673E+01  0.30903064169E+02  0.40025181063E+02  0.50763853149E+02  0.00000000000E+00 0. -1.
         -2    1    1    2    0  503 -0.44670227673E+01 -0.30903064169E+02  0.15652612490E+03  0.15961009192E+03  0.00000000000E+00 0.  1.
</event>
<event>
 4    1  0.1822260E+004  0.2832204E+02  0.7546771E-02  0.1434762E+00
         21   -1    0    0  503  502  0.00000000000E+00  0.00000000000E+00  0.22534591856E+01  0.22534591856E+01  0.00000000000E+00 0. -1.
         21   -1    0    0  501  503 -0.00000000000E+00 -0.00000000000E+00 -0.62538856691E+03  0.62538856691E+03  0.00000000000E+00 0.  1.
          2    1    1    2  501    0 -0.20873068419E+02  0.19142958353E+02 -0.51754995707E+03  0.51832431537E+03  0.00000000000E+00 0.  1.
         -2    1    1    2    0  502  0.20873068419E+02 -0.19142958353E+02 -0.10558515065E+03  0.10931771072E+03  0.00000000000E+00 0. -1.
</event>
<event>
 4    1  0.1822260E+004  0.2765577E+02  0.7546771E-02  0.1441130E+00
         21   -1    0    0  501  502  0.00000000000E+00  0.00000000000E+00  0.19911706311E+01  0.19911706311E+01  0.00000000000E+00 0. -1.
         21   -1    0    0  502  503 -0.00000000000E+00 -0.00000000000E+00 -0.49920916673E+03  0.49920916673E+03  0.00000000000E+00 0.  1.
          2    1    1    2  501    0  0.14004375082E+02  0.23847832748E+02 -0.12828181121E+03  0.13122905447E+03  0.00000000000E+00 0. -1.
         -2    1    1    2    0  503 -0.14004375082E+02 -0.23847832748E+02 -0.36893618489E+03  0.36997128289E+03  0.00000000000E+00 0.  1.
</event>
<event>
 4    1  0.1822260E+004  0.2329248E+02  0.7546771E-02  0.1488858E+00
         21   -1    0    0  503  502  0.00000000000E+00  0.00000000000E+00  0.10104252674E+02  0.10104252674E+02  0.00000000000E+00 0. -1.
         21   -1    0    0  501  503 -0.00000000000E+00 -0.00000000000E+00 -0.82416394959E+03  0.82416394959E+03  0.00000000000E+00 0.  1.
          2    1    1    2  501    0  0.22424887081E+02  0.62979575286E+01 -0.81034699191E+03  0.81068168051E+03  0.00000000000E+00 0.  1.
         -2    1    1    2    0  502 -0.22424887081E+02 -0.62979575286E+01 -0.37127050069E+01  0.23586521746E+02  0.00000000000E+00 0. -1.
</event>
<event>
 4    1  0.1822260E+004  0.2074456E+02  0.7546771E-02  0.1522943E+00
         21   -1    0    0  503  502  0.00000000000E+00  0.00000000000E+00  0.27873130178E+01  0.27873130178E+01  0.00000000000E+00 0. -1.
         21   -1    0    0  501  503 -0.00000000000E+00 -0.00000000000E+00 -0.23904360435E+03  0.23904360435E+03  0.00000000000E+00 0.  1.
          2    1    1    2  501    0  0.64103383767E+01 -0.19729275433E+02 -0.19008344401E+03  0.19121206142E+03  0.00000000000E+00 0.  1.
         -2    1    1    2    0  502 -0.64103383767E+01  0.19729275433E+02 -0.46172847320E+02  0.50618855942E+02  0.00000000000E+00 0. -1.
</event>
<event>
 4    1  0.1822260E+004  0.2153357E+02  0.7546771E-02  0.1511781E+00
         21   -1    0    0  503  502  0.00000000000E+00  0.00000000000E+00  0.18420024077E+02  0.18420024077E+02  0.00000000000E+00 0.  1.
         21   -1    0    0  501  503 -0.00000000000E+00 -0.00000000000E+00 -0.27886686295E+02  0.27886686295E+02  0.00000000000E+00 0. -1.
          2    1    1    2  501    0  0.40064254975E+01  0.21157582118E+02 -0.11955420980E+02  0.24629795313E+02  0.00000000000E+00 0. -1.
         -2    1    1    2    0  502 -0.40064254975E+01 -0.21157582118E+02  0.24887587625E+01  0.21676915060E+02  0.00000000000E+00 0.  1.
</event>
<event>
 4    1  0.1822260E+004  0.2362608E+02  0.7546771E-02  0.1484783E+00
         21   -1    0    0  503  502  0.00000000000E+00  0.00000000000E+00  0.26232009427E+03  0.26232009427E+03  0.00000000000E+00 0.  1.
         21   -1    0    0  501  503 -0.00000000000E+00 -0.00000000000E+00 -0.55309364995E+01  0.55309364995E+01  0.00000000000E+00 0. -1.
          2    1    1    2  501    0 -0.13979072850E+02  0.19046709407E+02  0.23344320176E+02  0.33213685455E+02  0.00000000000E+00 0. -1.
         -2    1    1    2    0  502  0.13979072850E+02 -0.19046709407E+02  0.23344483759E+03  0.23463734531E+03  0.00000000000E+00 0.  1.
</event>
<event>
 4    1  0.1822260E+004  0.2175037E+02  0.7546771E-02  0.1508816E+00
         21   -1    0    0  501  502  0.00000000000E+00  0.00000000000E+00  0.65224980555E+02  0.65224980555E+02  0.00000000000E+00 0. -1.
         21   -1    0    0  502  503 -0.00000000000E+00 -0.00000000000E+00 -0.86877658994E+01  0.86877658994E+01  0.00000000000E+00 0.  1.
          2    1    1    2  501    0 -0.21282914603E+02  0.44851169262E+01  0.43286925540E+02  0.48444160128E+02  0.00000000000E+00 0. -1.
         -2    1    1    2    0  503  0.21282914603E+02 -0.44851169262E+01  0.13250289116E+02  0.25468586327E+02  0.00000000000E+00 0.  1.
</event>
<event>
 4    1  0.1822260E+004  0.2317001E+02  0.7546771E-02  0.1490374E+00
         21   -1    0    0  503  502  0.00000000000E+00  0.00000000000E+00  0.10818113876E+02  0.10818113876E+02  0.00000000000E+00 0. -1.
         21   -1    0    0  501  503 -0.00000000000E+00 -0.00000000000E+00 -0.13941108286E+03  0.13941108286E+03  0.00000000000E+00 0.  1.
          2    1    1    2  501    0 -0.48261037456E+01 -0.22661820117E+02 -0.12457743715E+03  0.12671380041E+03  0.00000000000E+00 0.  1.
         -2    1    1    2    0  502  0.48261037456E+01  0.22661820117E+02 -0.40155318352E+01  0.23515396324E+02  0.00000000000E+00 0. -1.
</event>
<event>
 4    1  0.1822260E+004  0.2130886E+02  0.7546771E-02  0.1514901E+00
         21   -1    0    0  503  502  0.00000000000E+00  0.00000000000E+00  0.65073508337E+03  0.65073508337E+03  0.00000000000E+00 0. -1.
         21   -1    0    0  501  503 -0.00000000000E+00 -0.00000000000E+00 -0.24672338874E+01  0.24672338874E+01  0.00000000000E+00 0.  1.
          2    1    1    2  501    0  0.18663088078E+01  0.21226970797E+02  0.47546352773E+02  0.52103004326E+02  0.00000000000E+00 0.  1.
         -2    1    1    2    0  502 -0.18663088078E+01 -0.21226970797E+02  0.60072149671E+03  0.60109931293E+03  0.00000000000E+00 0. -1.
</event>
<event>
 4    1  0.1822260E+004  0.2449614E+02  0.7546771E-02  0.1474520E+00
         21   -1    0    0  501  502  0.00000000000E+00  0.00000000000E+00  0.82460220760E+03  0.82460220760E+03  0.00000000000E+00 0.  1.
         21   -1    0    0  502  503 -0.00000000000E+00 -0.00000000000E+00 -0.12642945709E+01  0.12642945709E+01  0.00000000000E+00 0. -1.
          2    1    1    2  501    0  0.20875435514E+02 -0.12817070845E+02  0.68068599983E+03  0.68112663395E+03  0.00000000000E+00 0.  1.
         -2    1    1    2    0  503 -0.20875435514E+02  0.12817070845E+02  0.14265191320E+03  0.14473986822E+03  0.00000000000E+00 0. -1.
</event>
<event>
 4    1  0.1822260E+004  0.2859051E+02  0.7546771E-02  0.1432254E+00
         21   -1    0    0  501  502  0.00000000000E+00  0.00000000000E+00  0.79854598358E+03  0.79854598358E+03  0.00000000000E+00 0.  1.
         21   -1    0    0  502  503 -0.00000000000E+00 -0.00000000000E+00 -0.10266115354E+01  0.10266115354E+01  0.00000000000E+00 0. -1.
          2    1    1    2  501    0  0.23057987033E+02 -0.16904040643E+02  0.37722260240E+03  0.37830451903E+03  0.00000000000E+00 0.  1.
         -2    1    1    2    0  503 -0.23057987033E+02  0.16904040643E+02  0.42029676964E+03  0.42126807609E+03  0.00000000000E+00 0. -1.
</event>
<event>
 4    1  0.1822260E+004  0.3051011E+02  0.7546771E-02  0.1415214E+00
         21   -1    0    0  503  502  0.00000000000E+00  0.00000000000E+00  0.48332548733E+02  0.48332548733E+02  0.00000000000E+00 0. -1.
         21   -1    0    0  501  503 -0.00000000000E+00 -0.00000000000E+00 -0.26424376533E+02  0.26424376533E+02  0.00000000000E+00 0.  1.
          2    1    1    2  501    0  0.24147321153E+02 -0.18648685944E+02 -0.85093595300E+01  0.31674529293E+02  0.00000000000E+00 0.  1.
         -2    1    1    2    0  502 -0.24147321153E+02  0.18648685944E+02  0.30417531729E+02  0.43082395973E+02  0.00000000000E+00 0. -1.
</event>
<event>
 4    1  0.1822260E+004  0.2221297E+02  0.7546771E-02  0.1502625E+00
         21   -1    0    0  501  502  0.00000000000E+00  0.00000000000E+00  0.64343583049E+01  0.64343583049E+01  0.00000000000E+00 0.  1.
         21   -1    0    0  502  503 -0.00000000000E+00 -0.00000000000E+00 -0.29897596867E+03  0.29897596867E+03  0.00000000000E+00 0. -1.
          2    1    1    2  501    0 -0.12076424963E+02 -0.18643386844E+02 -0.14597746553E+02  0.26580258038E+02  0.00000000000E+00 0.  1.
         -2    1    1    2    0  503  0.12076424963E+02  0.18643386844E+02 -0.27794386381E+03  0.27883006894E+03  0.00000000000E+00 0. -1.
</event>
<event>
 4    1  0.1822260E+004  0.2509151E+02  0.7546771E-02  0.1467782E+00
         21   -1    0    0  503  502  0.00000000000E+00  0.00000000000E+00  0.22926714719E+02  0.22926714719E+02  0.00000000000E+00 0.  1.
         21   -1    0    0  501  503 -0.00000000000E+00 -0.00000000000E+00 -0.32067563231E+02  0.32067563231E+02  0.00000000000E+00 0. -1.
          2    1    1    2  501    0  0.93555870587E+00  0.25074059876E+02  0.58517169779E+01  0.25764827583E+02  0.00000000000E+00 0.  1.
         -2    1    1    2    0  502 -0.93555870587E+00 -0.25074059876E+02 -0.14992565491E+02  0.29229450367E+02  0.00000000000E+00 0. -1.
</event>
<event>
 4    1  0.1822260E+004  0.2006443E+02  0.7546771E-02  0.1533053E+00
         21   -1    0    0  503  502  0.00000000000E+00  0.00000000000E+00  0.22575429210E+03  0.22575429210E+03  0.00000000000E+00 0. -1.
         21   -1    0    0  501  503 -0.00000000000E+00 -0.00000000000E+00 -0.22895735350E+01  0.22895735350E+01  0.00000000000E+00 0.  1.
          2    1    1    2  501    0  0.89355344295E+01  0.17964897325E+02  0.58113728964E+02  0.61479970768E+02  0.00000000000E+00 0.  1.
         -2    1    1    2    0  502 -0.89355344295E+01 -0.17964897325E+02  0.16535098960E+03  0.16656389487E+03  0.00000000000E+00 0. -1.
</event>
<event>
 4    1  0.1822260E+004  0.2015968E+02  0.7546771E-02  0.1531609E+00
         21   -1    0    0  503  502  0.00000000000E+00  0.00000000000E+00  0.11736426747E+02  0.11736426747E+02  0.00000000000E+00 0.  1.
         21   -1    0    0  501  503 -0.00000000000E+00 -0.00000000000E+00 -0.44145371872E+02  0.44145371872E+02  0.00000000000E+00 0. -1.
          2    1    1    2  501    0 -0.83351876227E+01  0.18355857425E+02 -0.29177722589E+02  0.35464804384E+02  0.00000000000E+00 0. -1.
         -2    1    1    2    0  502  0.83351876227E+01 -0.18355857425E+02 -0.32312225355E+01  0.20416994235E+02  0.00000000000E+00 0.  1.
</event>
<event>
 4    1  0.1822260E+004  0.2798284E+02  0.7546771E-02  0.1437977E+00
         21   -1    0    0  503  502  0.00000000000E+00  0.00000000000E+00  0.37464487136E+03  0.37464487136E+03  0.00000000000E+00 0.  1.
         21   -1    0    0  501  503 -0.00000000000E+00 -0.00000000000E+00 -0.24706684440E+01  0.24706684440E+01  0.00000000000E+00 0. -1.
          2    1    1    2  501    0 -0.26145980766E+02  0.99713210989E+01  0.26009230431E+03  0.26159328416E+03  0.00000000000E+00 0.  1.
         -2    1    1    2    0  502  0.26145980766E+02 -0.99713210989E+01  0.11208189861E+03  0.11552225565E+03  0.00000000000E+00 0. -1.
</event>
<event>
 4    1  0.1822260E+004  0.3829266E+02  0.7546771E-02  0.1358792E+00
         21   -1    0    0  501  502  0.00000000000E+00  0.00000000000E+00  0.77133269610E+01  0.77133269610E+01  0.00000000000E+00 0. -1.
         21   -1    0    0  502  503 -0.00000000000E+00 -0.00000000000E+00 -0.19042676086E+03  0.19042676086E+03  0.00000000000E+00 0.  1.
          2    1    1    2  501    0 -0.27147761260E+02  0.27006059094E+02 -0.87273018782E+02  0.95304291490E+02  0.00000000000E+00 0. -1.
         -2    1    1    2    0  503  0.27147761260E+02 -0.27006059094E+02 -0.95440415115E+02  0.10283579633E+03  0.00000000000E+00 0.  1.
</event>
<event>
 4    1  0.1822260E+004  0.4473429E+02  0.7546771E-02  0.1322773E+00
         21   -1    0    0  501  502  0.00000000000E+00  0.00000000000E+00  0.36851692322E+03  0.36851692322E+03  0.00000000000E+00 0. -1.
         21   -1    0    0  502  503 -0.00000000000E+00 -0.00000000000E+00 -0.62862712851E+01  0.62862712851E+01  0.00000000000E+00 0.  1.
          2    1    1    2  501    0  0.42600868181E+02  0.13649998132E+02  0.25026769058E+03  0.25423428834E+03  0.00000000000E+00 0. -1.
         -2    1    1    2    0  503 -0.42600868181E+02 -0.13649998132E+02  0.11196296135E+03  0.12056890616E+03  0.00000000000E+00 0.  1.
</event>
<event>
 4    1  0.1822260E+004  0.2287888E+02  0.7546771E-02  0.1494025E+00
         21   -1    0    0  503  502  0.00000000000E+00  0.00000000000E+00  0.27652225850E+01  0.27652225850E+01  0.00000000000E+00 0. -1.
         21   -1    0    0  501  503 -0.00000000000E+00 -0.00000000000E+00 -0.37260004340E+03  0.37260004340E+03  0.00000000000E+00 0.  1.
          2    1    1    2  501    0  0.22555052432E+02  0.38357489028E+01 -0.31655793616E+03  0.31738363270E+03  0.00000000000E+00 0.  1.
         -2    1    1    2    0  502 -0.22555052432E+02 -0.38357489028E+01 -0.53276884654E+02  0.57981633284E+02  0.00000000000E+00 0. -1.
</event>
<event>
 4    1  0.1822260E+004  0.2066177E+02  0.7546771E-02  0.1524149E+00
         21   -1    0    0  501  502  0.00000000000E+00  0.00000000000E+00  0.79739068782E+01  0.79739068782E+01  0.00000000000E+00 0.  1.
         21   -1    0    0  502  503 -0.00000000000E+00 -0.00000000000E+00 -0.29101955045E+03  0.29101955045E+03  0.00000000000E+00 0. -1.
          2    1    1    2  501    0 -0.87368529239E+00  0.20643292281E+02 -0.64756988809E+01  0.21652794697E+02  0.00000000000E+00 0.  1.
         -2    1    1    2    0  503  0.87368529239E+00 -0.20643292281E+02 -0.27656994469E+03  0.27734066263E+03  0.00000000000E+00 0. -1.
</event>
<event>
 4    1  0.1822260E+004  0.3199554E+02  0.7546771E-02  0.1403013E+00
         21   -1    0    0  501  502  0.00000000000E+00  0.00000000000E+00  0.41655854808E+02  0.41655854808E+02  0.00000000000E+00 0.  1.
         21   -1    0    0  502  503 -0.00000000000E+00 -0.00000000000E+00 -0.28379223269E+02  0.28379223269E+02  0.00000000000E+00 0. -1.
          2    1    1    2  501    0  0.25614551606E+02 -0.19173146744E+02  0.19458314297E+02  0.37447841131E+02  0.00000000000E+00 0.  1.
         -2    1    1    2    0  503 -0.25614551606E+02  0.19173146744E+02 -0.61816827574E+01  0.32587236946E+02  0.00000000000E+00 0. -1.
</event>
<event>
 4    1  0.1822260E+004  0.2258661E+02  0.7546771E-02  0.1497755E+00
         21   -1    0    0  501  502  0.00000000000E+00  0.00000000000E+00  0.25891593915E+02  0.25891593915E+02  0.00000000000E+00 0.  1.
         21   -1    0    0  502  503 -0.00000000000E+00 -0.00000000000E+00 -0.37769909075E+02  0.37769909075E+02  0.00000000000E+00 0. -1.
          2    1    1    2  501    0 -0.21661704968E+02  0.63973100300E+01  0.16075393527E+02  0.27723154849E+02  0.00000000000E+00 0.  1.
         -2    1    1    2    0  503  0.21661704968E+02 -0.63973100300E+01 -0.27953708687E+02  0.35938348141E+02  0.00000000000E+00 0. -1.
</event>
<event>
 4    1  0.1822260E+004  0.2517687E+02  0.7546771E-02  0.1466834E+00
         21   -1    0    0  501  502  0.00000000000E+00  0.00000000000E+00  0.72785490757E+03  0.72785490757E+03  0.00000000000E+00 0.  1.
         21   -1    0    0  502  503 -0.00000000000E+00 -0.00000000000E+00 -0.13654637732E+01  0.13654637732E+01  0.00000000000E+00 0. -1.
          2    1    1    2  501    0 -0.24763989309E+02  0.45408635089E+01  0.14380843764E+03  0.14599568947E+03  0.00000000000E+00 0. -1.
         -2    1    1    2    0  503  0.24763989309E+02 -0.45408635089E+01  0.58268100616E+03  0.58322468187E+03  0.00000000000E+00 0.  1.
</event>
<event>
 4    1  0.1822260E+004  0.2520406E+02  0.7546771E-02  0.1466533E+00
         21   -1    0    0  503  502  0.00000000000E+00  0.00000000000E+00  0.30928266214E+02  0.30928266214E+02  0.00000000000E+00 0. -1.
         21   -1    0    0  501  503 -0.00000000000E+00 -0.00000000000E+00 -0.31327113548E+02  0.31327113548E+02  0.00000000000E+00 0.  1.
          2    1    1    2  501    0  0.15892047251E+02 -0.19562403004E+02 -0.18465847115E+02  0.31244716142E+02  0.00000000000E+00 0.  1.
         -2    1    1    2    0  502 -0.15892047251E+02  0.19562403004E+02  0.18066999781E+02  0.31010663620E+02  0.00000000000E+00 0. -1.
</event>
<event>
 4    1  0.1822260E+004  0.2299504E+02  0.7546771E-02  0.1492560E+00
         21   -1    0    0  503  502  0.00000000000E+00  0.00000000000E+00  0.15119268601E+01  0.15119268601E+01  0.00000000000E+00 0. -1.
         21   -1    0    0  501  503 -0.00000000000E+00 -0.00000000000E+00 -0.11517612445E+04  0.11517612445E+04  0.00000000000E+00 0.  1.
          2    1    1    2  501    0 -0.21847972204E+02 -0.71720294030E+01 -0.10563135398E+04  0.10565638013E+04  0.00000000000E+00 0.  1.
         -2    1    1    2    0  502  0.21847972204E+02  0.71720294030E+01 -0.93935777844E+02  0.96709370044E+02  0.00000000000E+00 0. -1.
</event>
<event>
 4    1  0.1822260E+004  0.2146118E+02  0.7546771E-02  0.1512781E+00
         21   -1    0    0  501  502  0.00000000000E+00  0.00000000000E+00  0.24571289606E+03  0.24571289606E+03  0.00000000000E+00 0.  1.
         21   -1    0    0  502  503 -0.00000000000E+00 -0.00000000000E+00 -0.26818776856E+01  0.26818776856E+01  0.00000000000E+00 0. -1.
          2    1    1    2  501    0 -0.10478947799E+02  0.18728958296E+02  0.18966122657E+03  0.19087158795E+03  0.00000000000E+00 0.  1.
         -2    1    1    2    0  503  0.10478947799E+02 -0.18728958296E+02  0.53369791806E+02  0.57523185788E+02  0.00000000000E+00 0. -1.
</event>
<event>
 4    1  0.1822260E+004  0.2020668E+02  0.7546771E-02  0.1530899E+00
         21   -1    0    0  503  502  0.00000000000E+00  0.00000000000E+00  0.13223613743E+03  0.13223613743E+03  0.00000000000E+00 0.  1.
         21   -1    0    0  501  503 -0.00000000000E+00 -0.00000000000E+00 -0.55530160622E+01  0.55530160622E+01  0.00000000000E+00 0. -1.
          2    1    1    2  501    0 -0.19459075103E+02  0.54455667670E+01  0.17437191523E+02  0.26690175149E+02  0.00000000000E+00 0. -1.
         -2    1    1    2    0  502  0.19459075103E+02 -0.54455667670E+01  0.10924592985E+03  0.11109897835E+03  0.00000000000E+00 0.  1.
</event>
<event>
 4    1  0.1822260E+004  0.2063633E+02  0.7546771E-02  0.1524521E+00
         21   -1    0    0  503  502  0.00000000000E+00  0.00000000000E+00  0.39430307749E+02  0.39430307749E+02  0.00000000000E+00 0. -1.
         21   -1    0    0  501  503 -0.00000000000E+00 -0.00000000000E+00 -0.13638606528E+02  0.13638606528E+02  0.00000000000E+00 0.  1.
          2    1    1    2  501    0  0.20324988501E+02 -0.35711079597E+01  0.79106364884E+00  0.20651483030E+02  0.00000000000E+00 0.  1.
         -2    1    1    2    0  502 -0.20324988501E+02  0.35711079597E+01  0.25000637572E+02  0.32417431247E+02  0.00000000000E+00 0. -1.
</event>
<event>
 4    1  0.1822260E+004  0.2306151E+02  0.7546771E-02  0.1491727E+00
         21   -1    0    0  503  502  0.00000000000E+00  0.00000000000E+00  0.69000508291E+02  0.69000508291E+02  0.00000000000E+00 0.  1.
         21   -1    0    0  501  503 -0.00000000000E+00 -0.00000000000E+00 -0.11700551897E+03  0.11700551897E+03  0.00000000000E+00 0. -1.
          2    1    1    2  501    0  0.16304053862E+02  0.16309852840E+02 -0.11389007659E+03  0.11620147597E+03  0.00000000000E+00 0. -1.
         -2    1    1    2    0  502 -0.16304053862E+02 -0.16309852840E+02  0.65885065907E+02  0.69804551295E+02  0.00000000000E+00 0.  1.
</event>
<event>
 4    1  0.1822260E+004  0.2227628E+02  0.7546771E-02  0.1501792E+00
         21   -1    0    0  503  502  0.00000000000E+00  0.00000000000E+00  0.71334568362E+01  0.71334568362E+01  0.00000000000E+00 0.  1.
         21   -1    0    0  501  503 -0.00000000000E+00 -0.00000000000E+00 -0.54134242990E+03  0.54134242990E+03  0.00000000000E+00 0. -1.
          2    1    1    2  501    0  0.21994900781E+02 -0.35294349830E+01 -0.52311659081E+03  0.52359067997E+03  0.00000000000E+00 0. -1.
         -2    1    1    2    0  502 -0.21994900781E+02  0.35294349830E+01 -0.11092382254E+02  0.24885206765E+02  0.00000000000E+00 0.  1.
</event>
<event>
 4    1  0.1822260E+004  0.2384321E+02  0.7546771E-02  0.1482173E+00
         21   -1    0    0  501  502  0.00000000000E+00  0.00000000000E+00  0.14872375855E+02  0.14872375855E+02  0.00000000000E+00 0. -1.
         21   -1    0    0  502  503 -0.00000000000E+00 -0.00000000000E+00 -0.38727917097E+02  0.38727917097E+02  0.00000000000E+00 0.  1.
          2    1    1    2  501    0  0.11418243876E+02 -0.20931375825E+02 -0.88741939093E+01  0.25441110524E+02  0.00000000000E+00 0.  1.
         -2    1    1    2    0  503 -0.11418243876E+02  0.20931375825E+02 -0.14981347332E+02  0.28159182428E+02  0.00000000000E+00 0. -1.
</event>
<event>
 4    1  0.1822260E+004  0.2560103E+02  0.7546771E-02  0.1462191E+00
         21   -1    0    0  501  502  0.00000000000E+00  0.00000000000E+00  0.19888059639E+01  0.19888059639E+01  0.00000000000E+00 0.  1.
         21   -1    0    0  502  503 -0.00000000000E+00 -0.00000000000E+00 -0.34510233916E+03  0.34510233916E+03  0.00000000000E+00 0. -1.
          2    1    1    2  501    0  0.24960183287E+02  0.56922806671E+01 -0.13471632862E+03  0.13712732042E+03  0.00000000000E+00 0.  1.
         -2    1    1    2    0  503 -0.24960183287E+02 -0.56922806671E+01 -0.20839720457E+03  0.20996382470E+03  0.00000000000E+00 0. -1.
</event>
<event>
 4    1  0.1822260E+004  0.2959626E+02  0.7546771E-02  0.1423138E+00
         21   -1    0    0  501  502  0.00000000000E+00  0.00000000000E+00  0.70714851834E+02  0.70714851834E+02  0.00000000000E+00 0. -1.
         21   -1    0    0  502  503 -0.00000000000E+00 -0.00000000000E+00 -0.27319682903E+03  0.27319682903E+03  0.00000000000E+00 0.  1.
          2    1    1    2  501    0  0.49380598292E+01 -0.29181398520E+02  0.66771342204E+02  0.73036638711E+02  0.00000000000E+00 0. -1.
         -2    1    1    2    0  503 -0.49380598292E+01  0.29181398520E+02 -0.26925331940E+03  0.27087504215E+03  0.00000000000E+00 0.  1.
</event>
<event>
 4    1  0.1822260E+004  0.3345493E+02  0.7546771E-02  0.1391763E+00
         21   -1    0    0  503  502  0.00000000000E+00  0.00000000000E+00  0.11183337911E+03  0.11183337911E+03  0.00000000000E+00 0.  1.
         21   -1    0    0  501  503 -0.00000000000E+00 -0.00000000000E+00 -0.45964903492E+02  0.45964903492E+02  0.00000000000E+00 0. -1.
          2    1    1    2  501    0  0.31721941966E+02  0.10627814743E+02 -0.36848828492E+02  0.49770153803E+02  0.00000000000E+00 0. -1.
         -2    1    1    2    0  502 -0.31721941966E+02 -0.10627814743E+02  0.10271730411E+03  0.10802812880E+03  0.00000000000E+00 0.  1.
</event>
<event>
 4    1  0.1822260E+004  0.2051244E+02  0.7546771E-02  0.1526341E+00
         21   -1    0    0  503  502  0.00000000000E+00  0.00000000000E+00  0.45592347773E+03  0.45592347773E+03  0.00000000000E+00 0. -1.
         21   -1    0    0  501  503 -0.00000000000E+00 -0.00000000000E+00 -0.20261060162E+01  0.20261060162E+01  0.00000000000E+00 0.  1.
          2    1    1    2  501    0  0.12748995853E+01  0.20472783538E+02  0.57986358163E+02  0.61507543990E+02  0.00000000000E+00 0.  1.
         -2    1    1    2    0  502 -0.12748995853E+01 -0.20472783538E+02  0.39591101355E+03  0.39644203976E+03  0.00000000000E+00 0. -1.
</event>
<event>
 4    1  0.1822260E+004  0.2204804E+02  0.7546771E-02  0.1504811E+00
         21   -1    0    0  503  502  0.00000000000E+00  0.00000000000E+00  0.19302562025E+02  0.19302562025E+02  0.00000000000E+00 0. -1.
         21   -1    0    0  501  503 -0.00000000000E+00 -0.00000000000E+00 -0.27063677979E+02  0.27063677979E+02  0.00000000000E+00 0.  1.
          2    1    1    2  501    0 -0.16596537351E+02  0.14514508191E+02 -0.99902390063E+01  0.24205802517E+02  0.00000000000E+00 0.  1.
         -2    1    1    2    0  502  0.16596537351E+02 -0.14514508191E+02  0.22291230517E+01  0.22160437488E+02  0.00000000000E+00 0. -1.
</event>
<event>
 4    1  0.1822260E+004  0.2117453E+02  0.7546771E-02  0.1516787E+00
         21   -1    0    0  501  502  0.00000000000E+00  0.00000000000E+00  0.18185909787E+03  0.18185909787E+03  0.00000000000E+00 0.  1.
         21   -1    0    0  502  503 -0.00000000000E+00 -0.00000000000E+00 -0.47937396081E+01  0.47937396081E+01  0.00000000000E+00 0. -1.
          2    1    1    2  501    0  0.28863100483E+01 -0.20976890972E+02  0.15357376980E+03  0.15502665419E+03  0.00000000000E+00 0.  1.
         -2    1    1    2    0  503 -0.28863100483E+01  0.20976890972E+02  0.23491588462E+02  0.31626183283E+02  0.00000000000E+00 0. -1.
</event>
<event>
 4    1  0.1822260E+004  0.3809682E+02  0.7546771E-02  0.1360014E+00
         21   -1    0    0  503  502  0.00000000000E+00  0.00000000000E+00  0.22384431443E+03  0.22384431443E+03  0.00000000000E+00 0.  1.
         21   -1    0    0  501  503 -0.00000000000E+00 -0.00000000000E+00 -0.12818537839E+02  0.12818537839E+02  0.00000000000E+00 0. -1.
          2    1    1    2  501    0  0.18236096134E+02  0.33448658726E+02  0.22328040453E+02  0.44157778060E+02  0.00000000000E+00 0. -1.
         -2    1    1    2    0  502 -0.18236096134E+02 -0.33448658726E+02  0.18869773614E+03  0.19250507421E+03  0.00000000000E+00 0.  1.
</event>
<event>
 4    1  0.1822260E+004  0.3068191E+02  0.7546771E-02  0.1413761E+00
         21   -1    0    0  501  502  0.00000000000E+00  0.00000000000E+00  0.34331612806E+02  0.34331612806E+02  0.00000000000E+00 0.  1.
         21   -1    0    0  502  503 -0.00000000000E+00 -0.00000000000E+00 -0.30169315919E+02  0.30169315919E+02  0.00000000000E+00 0. -1.
          2    1    1    2  501    0  0.49623844528E+01 -0.30277949452E+02  0.11816468713E+02  0.32878692421E+02  0.00000000000E+00 0.  1.
         -2    1    1    2    0  503 -0.49623844528E+01  0.30277949452E+02 -0.76541718266E+01  0.31622236304E+02  0.00000000000E+00 0. -1.
</event>
<event>
 4    1  0.1822260E+004  0.3075500E+02  0.7546771E-02  0.1413147E+00
         21   -1    0    0  503  502  0.00000000000E+00  0.00000000000E+00  0.45899745891E+01  0.45899745891E+01  0.00000000000E+00 0.  1.
         21   -1    0    0  501  503 -0.00000000000E+00 -0.00000000000E+00 -0.18240133149E+04  0.18240133149E+04  0.00000000000E+00 0. -1.
          2    1    1    2  501    0 -0.25258950294E+02 -0.17545807468E+02 -0.17708179261E+04  0.17710849774E+04  0.00000000000E+00 0. -1.
         -2    1    1    2    0  502  0.25258950294E+02  0.17545807468E+02 -0.48605414195E+02  0.57518312030E+02  0.00000000000E+00 0.  1.
</event>
<event>
 4    1  0.1822260E+004  0.2096785E+02  0.7546771E-02  0.1519724E+00
         21   -1    0    0  503  502  0.00000000000E+00  0.00000000000E+00  0.21242989432E+02  0.21242989432E+02  0.00000000000E+00 0. -1.
         21   -1    0    0  501  503 -0.00000000000E+00 -0.00000000000E+00 -0.48928497462E+02  0.48928497462E+02  0.00000000000E+00 0.  1.
          2    1    1    2  501    0  0.13585156949E+02  0.15971666036E+02 -0.40494295334E+02  0.45600861394E+02  0.00000000000E+00 0.  1.
         -2    1    1    2    0  502 -0.13585156949E+02 -0.15971666036E+02  0.12808787304E+02  0.24570625500E+02  0.00000000000E+00 0. -1.
</event>
<event>
 4    1  0.1822260E+004  0.2051060E+02  0.7546771E-02  0.1526368E+00
         21   -1    0    0  501  502  0.00000000000E+00  0.00000000000E+00  0.53134092651E+00  0.53134092651E+00  0.00000000000E+00 0. -1.
         21   -1    0    0  502  503 -0.00000000000E+00 -0.00000000000E+00 -0.90343360551E+03  0.90343360551E+03  0.00000000000E+00 0.  1.
          2    1    1    2  501    0  0.20067120444E+02  0.42420878988E+01 -0.29252884006E+03  0.29324700664E+03  0.00000000000E+00 0. -1.
         -2    1    1    2    0  503 -0.20067120444E+02 -0.42420878988E+01 -0.61037342452E+03  0.61071793980E+03  0.00000000000E+00 0.  1.
</event>
<event>
 4    1  0.1822260E+004  0.2153338E+02  0.7546771E-02  0.1511784E+00
         21   -1    0    0  501  502  0.00000000000E+00  0.00000000000E+00  0.32337258380E+03  0.32337258380E+03  0.00000000000E+00 0. -1.
         21   -1    0    0  502  503 -0.00000000000E+00 -0.00000000000E+00 -0.14684745720E+01  0.14684745720E+01  0.00000000000E+00 0.  1.
          2    1    1    2  501    0  0.17588102501E+02  0.12423567650E+02  0.18587152553E+03  0.18711469848E+03  0.00000000000E+00 0. -1.
         -2    1    1    2    0  503 -0.17588102501E+02 -0.12423567650E+02  0.13603258369E+03  0.13772635989E+03  0.00000000000E+00 0.  1.
</event>
<event>
 4    1  0.1822260E+004  0.2178564E+02  0.7546771E-02  0.1508337E+00
         21   -1    0    0  503  502  0.00000000000E+00  0.00000000000E+00  0.10019392465E+04  0.10019392465E+04  0.00000000000E+00 0. -1.
         21   -1    0    0  501  503 -0.00000000000E+00 -0.00000000000E+00 -0.67521298824E+00  0.67521298824E+00  0.00000000000E+00 0.  1.
          2    1    1    2  501    0 -0.32482956057E+01 -0.21542111816E+02  0.22676479296E+03  0.22780887896E+03  0.00000000000E+00 0.  1.
         -2    1    1    2    0  502  0.32482956057E+01  0.21542111816E+02  0.77449924057E+03  0.77480558054E+03  0.00000000000E+00 0. -1.
</event>
<event>
 4    1  0.1822260E+004  0.2147520E+02  0.7546771E-02  0.1512587E+00
         21   -1    0    0  503  502  0.00000000000E+00  0.00000000000E+00  0.21566565753E+03  0.21566565753E+03  0.00000000000E+00 0. -1.
         21   -1    0    0  501  503 -0.00000000000E+00 -0.00000000000E+00 -0.24936588347E+01  0.24936588347E+01  0.00000000000E+00 0.  1.
          2    1    1    2  501    0 -0.21456029777E+02  0.90708548191E+00  0.65415633646E+02  0.68850483972E+02  0.00000000000E+00 0.  1.
         -2    1    1    2    0  502  0.21456029777E+02 -0.90708548191E+00  0.14775636505E+03  0.14930883239E+03  0.00000000000E+00 0. -1.
</event>
<event>
 4    1  0.1822260E+004  0.2516518E+02  0.7546771E-02  0.1466964E+00
         21   -1    0    0  501  502  0.00000000000E+00  0.00000000000E+00  0.33195381994E+03  0.33195381994E+03  0.00000000000E+00 0.  1.
         21   -1    0    0  502  503 -0.00000000000E+00 -0.00000000000E+00 -0.25494673325E+01  0.25494673325E+01  0.00000000000E+00 0. -1.
          2    1    1    2  501    0 -0.24229624311E+02  0.67978983201E+01  0.24861267729E+03  0.24988307150E+03  0.00000000000E+00 0.  1.
         -2    1    1    2    0  503  0.24229624311E+02 -0.67978983201E+01  0.80791675318E+02  0.84620215767E+02  0.00000000000E+00 0. -1.
</event>
<event>
 4    1  0.1822260E+004  0.2787752E+02  0.7546771E-02  0.1438987E+00
         21   -1    0    0  501  502  0.00000000000E+00  0.00000000000E+00  0.50580494477E+00  0.50580494477E+00  0.00000000000E+00 0.  1.
         21   -1    0    0  502  503 -0.00000000000E+00 -0.00000000000E+00 -0.15740724201E+04  0.15740724201E+04  0.00000000000E+00 0. -1.
          2    1    1    2  501    0  0.20565663569E+02 -0.18820456213E+02 -0.66510663203E+03  0.66569060986E+03  0.00000000000E+00 0.  1.
         -2    1    1    2    0  503 -0.20565663569E+02  0.18820456213E+02 -0.90845998315E+03  0.90888761520E+03  0.00000000000E+00 0. -1.
</event>
<event>
 4    1  0.1822260E+004  0.3045434E+02  0.7546771E-02  0.1415689E+00
         21   -1    0    0  503  502  0.00000000000E+00  0.00000000000E+00  0.31438914598E+02  0.31438914598E+02  0.00000000000E+00 0.  1.
         21   -1    0    0  501  503 -0.00000000000E+00 -0.00000000000E+00 -0.74601962701E+02  0.74601962701E+02  0.00000000000E+00 0. -1.
          2    1    1    2  501    0  0.14051882032E+02 -0.27018718235E+02 -0.62806752477E+02  0.69800821488E+02  0.00000000000E+00 0. -1.
         -2    1    1    2    0  502 -0.14051882032E+02  0.27018718235E+02  0.19643704373E+02  0.36240055812E+02  0.00000000000E+00 0.  1.
</event>
<event>
 4    1  0.1822260E+004  0.2314027E+02  0.7546771E-02  0.1490744E+00
         21   -1    0    0  503  502  0.00000000000E+00  0.00000000000E+00  0.22883226060E+02  0.22883226060E+02  0.00000000000E+00 0.  1.
         21   -1    0    0  501  503 -0.00000000000E+00 -0.00000000000E+00 -0.25008279420E+03  0.25008279420E+03  0.00000000000E+00 0. -1.
          2    1    1    2  501    0  0.23123192791E+02 -0.88897645527E+00 -0.24354065163E+03  0.24463753048E+03  0.00000000000E+00 0. -1.
         -2    1    1    2    0  502 -0.23123192791E+02  0.88897645527E+00  0.16341083484E+02  0.28328489784E+02  0.00000000000E+00 0.  1.
</event>
<event>
 4    1  0.1822260E+004  0.8727894E+02  0.7546771E-02  0.1187888E+00
         21   -1    0    0  501  502  0.00000000000E+00  0.00000000000E+00  0.52297815692E+02  0.52297815692E+02  0.00000000000E+00 0. -1.
         21   -1    0    0  502  503 -0.00000000000E+00 -0.00000000000E+00 -0.15128479725E+03  0.15128479725E+03  0.00000000000E+00 0.  1.
          2    1    1    2  501    0 -0.49644670857E+02 -0.71784541196E+02 -0.29863049846E+02  0.92246492862E+02  0.00000000000E+00 0. -1.
         -2    1    1    2    0  503  0.49644670857E+02  0.71784541196E+02 -0.69123931712E+02  0.11133612008E+03  0.00000000000E+00 0.  1.
</event>
<event>
 4    1  0.1822260E+004  0.3713085E+02  0.7546771E-02  0.1366172E+00
         21   -1    0    0  501  502  0.00000000000E+00  0.00000000000E+00  0.57984793259E+02  0.57984793259E+02  0.00000000000E+00 0. -1.
         21   -1    0    0  502  503 -0.00000000000E+00 -0.00000000000E+00 -0.15622679901E+03  0.15622679901E+03  0.00000000000E+00 0.  1.
          2    1    1    2  501    0 -0.31494630614E+02  0.19666933324E+02  0.49498085327E+02  0.61876978554E+02  0.00000000000E+00 0. -1.
         -2    1    1    2    0  503  0.31494630614E+02 -0.19666933324E+02 -0.14774009108E+03  0.15233461371E+03  0.00000000000E+00 0.  1.
</event>
<event>
 4    1  0.1822260E+004  0.2253918E+02  0.7546771E-02  0.1498367E+00
         21   -1    0    0  503  502  0.00000000000E+00  0.00000000000E+00  0.83145677385E+02  0.83145677385E+02  0.00000000000E+00 0.  1.
         21   -1    0    0  501  503 -0.00000000000E+00 -0.00000000000E+00 -0.12883156978E+02  0.12883156978E+02  0.00000000000E+00 0. -1.
          2    1    1    2  501    0  0.22533449670E+02 -0.50815328153E+00  0.31691675355E+00  0.22541406567E+02  0.00000000000E+00 0. -1.
         -2    1    1    2    0  502 -0.22533449670E+02  0.50815328153E+00  0.69945603654E+02  0.73487427797E+02  0.00000000000E+00 0.  1.
</event>
<event>
 4    1  0.1822260E+004  0.2839425E+02  0.7546771E-02  0.1434084E+00
         21   -1    0    0  501  502  0.00000000000E+00  0.00000000000E+00  0.72581294651E+02  0.72581294651E+02  0.00000000000E+00 0.  1.
         21   -1    0    0  502  503 -0.00000000000E+00 -0.00000000000E+00 -0.39297193228E+02  0.39297193228E+02  0.00000000000E+00 0. -1.
          2    1    1    2  501    0 -0.13155815997E+02  0.25162628523E+02  0.64020093135E+02  0.70034317972E+02  0.00000000000E+00 0.  1.
         -2    1    1    2    0  503  0.13155815997E+02 -0.25162628523E+02 -0.30735991711E+02  0.41844169907E+02  0.00000000000E+00 0. -1.
</event>
<event>
 4    1  0.1822260E+004  0.2009016E+02  0.7546771E-02  0.1532662E+00
         21   -1    0    0  503  502  0.00000000000E+00  0.00000000000E+00  0.35835267092E+01  0.35835267092E+01  0.00000000000E+00 0.  1.
         21   -1    0    0  501  503 -0.00000000000E+00 -0.00000000000E+00 -0.21875408369E+03  0.21875408369E+03  0.00000000000E+00 0. -1.
          2    1    1    2  501    0 -0.18374758725E+02 -0.81229750538E+01 -0.18501554662E+03  0.18610310845E+03  0.00000000000E+00 0. -1.
         -2    1    1    2    0  502  0.18374758725E+02  0.81229750538E+01 -0.30155010356E+02  0.36234501949E+02  0.00000000000E+00 0.  1.
</event>
<event>
 4    1  0.1822260E+004  0.2433372E+02  0.7546771E-02  0.1476397E+00
         21   -1    0    0  501  502  0.00000000000E+00  0.00000000000E+00  0.60945578069E+01  0.60945578069E+01  0.00000000000E+00 0. -1.
         21   -1    0    0  502  503 -0.00000000000E+00 -0.00000000000E+00 -0.27625364116E+03  0.27625364116E+03  0.00000000000E+00 0.  1.
          2    1    1    2  501    0 -0.75439183691E+01 -0.23134802239E+02 -0.21409877524E+02  0.32411612651E+02  0.00000000000E+00 0. -1.
         -2    1    1    2    0  503  0.75439183691E+01  0.23134802239E+02 -0.24874920583E+03  0.24993658632E+03  0.00000000000E+00 0.  1.
</event>
<event>
 4    1  0.1822260E+004  0.2432239E+02  0.7546771E-02  0.1476528E+00
         21   -1    0    0  501  502  0.00000000000E+00  0.00000000000E+00  0.12842130940E+04  0.12842130940E+04  0.00000000000E+00 0.  1.
         21   -1    0    0  502  503 -0.00000000000E+00 -0.00000000000E+00 -0.19489316228E+01  0.19489316228E+01  0.00000000000E+00 0. -1.
          2    1    1    2  501    0  0.24124635925E+02  0.30952785551E+01  0.12030970690E+04  0.12033429006E+04  0.00000000000E+00 0.  1.
         -2    1    1    2    0  503 -0.24124635925E+02 -0.30952785551E+01  0.79167093332E+02  0.82819125052E+02  0.00000000000E+00 0. -1.
</event>
<event>
 4    1  0.1822260E+004  0.2087931E+02  0.7546771E-02  0.1520995E+00
         21   -1    0    0  501  502  0.00000000000E+00  0.00000000000E+00  0.12774864430E+04  0.12774864430E+04  0.00000000000E+00 0. -1.
         21   -1    0    0  502  503 -0.00000000000E+00 -0.00000000000E+00 -0.36910144060E+00  0.36910144060E+00  0.00000000000E+00 0.  1.
          2    1    1    2  501    0  0.14704697738E+02  0.14822866692E+02  0.81406096861E+03  0.81432868433E+03  0.00000000000E+00 0. -1.
         -2    1    1    2    0  503 -0.14704697738E+02 -0.14822866692E+02  0.46305637292E+03  0.46352686008E+03  0.00000000000E+00 0.  1.
</event>
<event>
 4    1  0.1822260E+004  0.2405441E+02  0.7546771E-02  0.1479666E+00
         21   -1    0    0  503  502  0.00000000000E+00  0.00000000000E+00  0.17392453601E+02  0.17392453601E+02  0.00000000000E+00 0. -1.
         21   -1    0    0  501  503 -0.00000000000E+00 -0.00000000000E+00 -0.74758000097E+02  0.74758000097E+02  0.00000000000E+00 0.  1.
          2    1    1    2  501    0 -0.21499404405E+02  0.10788422434E+02 -0.63007704016E+02  0.67443199907E+02  0.00000000000E+00 0.  1.
         -2    1    1    2    0  502  0.21499404405E+02 -0.10788422434E+02  0.56421575202E+01  0.24707253790E+02  0.00000000000E+00 0. -1.
</event>
<event>
 4    1  0.1822260E+004  0.2163138E+02  0.7546771E-02  0.1510438E+00
         21   -1    0    0  503  502  0.00000000000E+00  0.00000000000E+00  0.17411335833E+02  0.17411335833E+02  0.00000000000E+00 0. -1.
         21   -1    0    0  501  503 -0.00000000000E+00 -0.00000000000E+00 -0.72647042769E+02  0.72647042769E+02  0.00000000000E+00 0.  1.
          2    1    1    2  501    0 -0.42837519521E+01  0.21202970075E+02 -0.63360680259E+02  0.66951417264E+02  0.00000000000E+00 0.  1.
         -2    1    1    2    0  502  0.42837519521E+01 -0.21202970075E+02  0.81249733229E+01  0.23106961338E+02  0.00000000000E+00 0. -1.
</event>
<event>
 4    1  0.1822260E+004  0.3463574E+02  0.7546771E-02  0.1383142E+00
         21   -1    0    0  503  502  0.00000000000E+00  0.00000000000E+00  0.10468103010E+02  0.10468103010E+02  0.00000000000E+00 0.  1.
         21   -1    0    0  501  503 -0.00000000000E+00 -0.00000000000E+00 -0.48235496188E+03  0.48235496188E+03  0.00000000000E+00 0. -1.
          2    1    1    2  501    0 -0.30471568325E+02 -0.16465653489E+02 -0.45110143541E+03  0.45242915385E+03  0.00000000000E+00 0. -1.
         -2    1    1    2    0  502  0.30471568325E+02  0.16465653489E+02 -0.20785423458E+02  0.40393911042E+02  0.00000000000E+00 0.  1.
</event>
<event>
 4    1  0.1822260E+004  0.3813765E+02  0.7546771E-02  0.1359759E+00
         21   -1    0    0  503  502  0.00000000000E+00  0.00000000000E+00  0.74778704318E+01  0.74778704318E+01  0.00000000000E+00 0.  1.
         21   -1    0    0  501  503 -0.00000000000E+00 -0.00000000000E+00 -0.19901774531E+03  0.19901774531E+03  0.00000000000E+00 0. -1.
          2    1    1    2  501    0 -0.37340372872E+02 -0.77573989787E+01 -0.80222047508E+02  0.88825996147E+02  0.00000000000E+00 0.  1.
         -2    1    1    2    0  502  0.37340372872E+02  0.77573989787E+01 -0.11131782737E+03  0.11766961960E+03  0.00000000000E+00 0. -1.
</event>
<event>
 4    1  0.1822260E+004  0.2418900E+02  0.7546771E-02  0.1478084E+00
         21   -1    0    0  503  502  0.00000000000E+00  0.00000000000E+00  0.58194962198E+02  0.58194962198E+02  0.00000000000E+00 0. -1.
         21   -1    0    0  501  503 -0.00000000000E+00 -0.00000000000E+00 -0.12350094376E+02  0.12350094376E+02  0.00000000000E+00 0.  1.
          2    1    1    2  501    0 -0.16034656574E+02 -0.18110704059E+02  0.77144773180E+01  0.25389387020E+02  0.00000000000E+00 0.  1.
         -2    1    1    2    0  502  0.16034656574E+02  0.18110704059E+02  0.38130390504E+02  0.45155669555E+02  0.00000000000E+00 0. -1.
</event>
<event>
 4    1  0.1822260E+004  0.2517299E+02  0.7546771E-02  0.1466877E+00
         21   -1    0    0  501  502  0.00000000000E+00  0.00000000000E+00  0.22501240080E+02  0.22501240080E+02  0.00000000000E+00 0. -1.
         21   -1    0    0  502  503 -0.00000000000E+00 -0.00000000000E+00 -0.76707537831E+02  0.76707537831E+02  0.00000000000E+00 0.  1.
          2    1    1    2  501    0  0.25130479146E+02  0.14623283080E+01  0.12358556335E+02  0.28043061546E+02  0.00000000000E+00 0. -1.
         -2    1    1    2    0  503 -0.25130479146E+02 -0.14623283080E+01 -0.66564854086E+02  0.71165716365E+02  0.00000000000E+00 0.  1.
</event>
<event>
 4    1  0.1822260E+004  0.3298966E+02  0.7546771E-02  0.1395275E+00
         21   -1    0    0  503  502  0.00000000000E+00  0.00000000000E+00  0.42863764598E+02  0.42863764598E+02  0.00000000000E+00 0. -1.
         21   -1    0    0  501  503 -0.00000000000E+00 -0.00000000000E+00 -0.50794317957E+02  0.50794317957E+02  0.00000000000E+00 0.  1.
          2    1    1    2  501    0 -0.39969110782E+01  0.32746637346E+02 -0.37082976031E+02  0.49633301995E+02  0.00000000000E+00 0.  1.
         -2    1    1    2    0  502  0.39969110782E+01 -0.32746637346E+02  0.29152422672E+02  0.44024780559E+02  0.00000000000E+00 0. -1.
</event>
<event>
 4    1  0.1822260E+004  0.2170663E+02  0.7546771E-02  0.1509411E+00
         21   -1    0    0  503  502  0.00000000000E+00  0.00000000000E+00  0.42604130785E+01  0.42604130785E+01  0.00000000000E+00 0. -1.
         21   -1    0    0  501  503 -0.00000000000E+00 -0.00000000000E+00 -0.13264549023E+03  0.13264549023E+03  0.00000000000E+00 0.  1.
          2    1    1    2  501    0 -0.13176405949E+01  0.21666598838E+02 -0.92102633009E+02  0.94625962025E+02  0.00000000000E+00 0.  1.
         -2    1    1    2    0  502  0.13176405949E+01 -0.21666598838E+02 -0.36282444138E+02  0.42279941279E+02  0.00000000000E+00 0. -1.
</event>
<event>
 4    1  0.1822260E+004  0.2542749E+02  0.7546771E-02  0.1464077E+00
         21   -1    0    0  503  502  0.00000000000E+00  0.00000000000E+00  0.19470242694E+03  0.19470242694E+03  0.00000000000E+00 0.  1.
         21   -1    0    0  501  503 -0.00000000000E+00 -0.00000000000E+00 -0.79498324700E+01  0.79498324700E+01  0.00000000000E+00 0. -1.
          2    1    1    2  501    0 -0.23997176708E+02  0.84078982811E+01  0.17069599143E+03  0.17257948527E+03  0.00000000000E+00 0.  1.
         -2    1    1    2    0  502  0.23997176708E+02 -0.84078982811E+01  0.16056603031E+02  0.30072774138E+02  0.00000000000E+00 0. -1.
</event>
<event>
 4    1  0.1822260E+004  0.2118821E+02  0.7546771E-02  0.1516595E+00
         21   -1    0    0  503  502  0.00000000000E+00  0.00000000000E+00  0.47454896131E+02  0.47454896131E+02  0.00000000000E+00 0.  1.
         21   -1    0    0  501  503 -0.00000000000E+00 -0.00000000000E+00 -0.26219802513E+02  0.26219802513E+02  0.00000000000E+00 0. -1.
          2    1    1    2  501    0  0.44757838472E+01  0.20710083780E+02 -0.18833687455E+02  0.28348685937E+02  0.00000000000E+00 0. -1.
         -2    1    1    2    0  502 -0.44757838472E+01 -0.20710083780E+02  0.40068781073E+02  0.45326012707E+02  0.00000000000E+00 0.  1.
</event>
<event>
 4    1  0.1822260E+004  0.3052746E+02  0.7546771E-02  0.1415067E+00
         21   -1    0    0  501  502  0.00000000000E+00  0.00000000000E+00  0.57631779111E+01  0.57631779111E+01  0.00000000000E+00 0.  1.
         21   -1    0    0  502  503 -0.00000000000E+00 -0.00000000000E+00 -0.19319424945E+03  0.19319424945E+03  0.00000000000E+00 0. -1.
          2    1    1    2  501    0 -0.29163573901E+02 -0.90228470321E+01 -0.53552656980E+02  0.61642622275E+02  0.00000000000E+00 0. -1.
         -2    1    1    2    0  503  0.29163573901E+02  0.90228470321E+01 -0.13387841456E+03  0.13731480509E+03  0.00000000000E+00 0.  1.
</event>
<event>
 4    1  0.1822260E+004  0.2091177E+02  0.7546771E-02  0.1520528E+00
         21   -1    0    0  501  502  0.00000000000E+00  0.00000000000E+00  0.21847747658E+01  0.21847747658E+01  0.00000000000E+00 0. -1.
         21   -1    0    0  502  503 -0.00000000000E+00 -0.00000000000E+00 -0.25439608344E+03  0.25439608344E+03  0.00000000000E+00 0.  1.
          2    1    1    2  501    0 -0.10312111638E+02  0.18192374423E+02 -0.18534190680E+03  0.18651789338E+03  0.00000000000E+00 0.  1.
         -2    1    1    2    0  503  0.10312111638E+02 -0.18192374423E+02 -0.66869401873E+02  0.70062964828E+02  0.00000000000E+00 0. -1.
</event>
<event>
 4    1  0.1822260E+004  0.2013731E+02  0.7546771E-02  0.1531947E+00
         21   -1    0    0  503  502  0.00000000000E+00  0.00000000000E+00  0.38546919982E+02  0.38546919982E+02  0.00000000000E+00 0. -1.
         21   -1    0    0  501  503 -0.00000000000E+00 -0.00000000000E+00 -0.18357428151E+02  0.18357428151E+02  0.00000000000E+00 0.  1.
          2    1    1    2  501    0  0.19799708371E+02 -0.36719172132E+01 -0.84960457845E+01  0.21856217001E+02  0.00000000000E+00 0.  1.
         -2    1    1    2    0  502 -0.19799708371E+02  0.36719172132E+01  0.28685537615E+02  0.35048131132E+02  0.00000000000E+00 0. -1.
</event>
<event>
 4    1  0.1822260E+004  0.2299413E+02  0.7546771E-02  0.1492572E+00
         21   -1    0    0  501  502  0.00000000000E+00  0.00000000000E+00  0.92262585860E+02  0.92262585860E+02  0.00000000000E+00 0. -1.
         21   -1    0    0  502  503 -0.00000000000E+00 -0.00000000000E+00 -0.61888587423E+01  0.61888587423E+01  0.00000000000E+00 0.  1.
          2    1    1    2  501    0  0.22978629947E+02  0.84428013566E+00  0.56430220591E+02  0.60935211817E+02  0.00000000000E+00 0.  1.
         -2    1    1    2    0  503 -0.22978629947E+02 -0.84428013566E+00  0.29643506526E+02  0.37516232785E+02  0.00000000000E+00 0. -1.
</event>
<event>
 4    1  0.1822260E+004  0.2503446E+02  0.7546771E-02  0.1468418E+00
         21   -1    0    0  501  502  0.00000000000E+00  0.00000000000E+00  0.36259642549E+02  0.36259642549E+02  0.00000000000E+00 0.  1.
         21   -1    0    0  502  503 -0.00000000000E+00 -0.00000000000E+00 -0.28325322374E+02  0.28325322374E+02  0.00000000000E+00 0. -1.
          2    1    1    2  501    0  0.53132170177E+01 -0.24464130999E+02  0.24128429131E+02  0.34769312230E+02  0.00000000000E+00 0.  1.
         -2    1    1    2    0  503 -0.53132170177E+01  0.24464130999E+02 -0.16194108956E+02  0.29815652693E+02  0.00000000000E+00 0. -1.
</event>
<event>
 4    1  0.1822260E+004  0.4868824E+02  0.7546771E-02  0.1303962E+00
         21   -1    0    0  503  502  0.00000000000E+00  0.00000000000E+00  0.58449647272E+02  0.58449647272E+02  0.00000000000E+00 0.  1.
         21   -1    0    0  501  503 -0.00000000000E+00 -0.00000000000E+00 -0.78390802391E+02  0.78390802391E+02  0.00000000000E+00 0. -1.
          2    1    1    2  501    0  0.45990315860E+02  0.15982339837E+02 -0.57503196294E+02  0.75346943691E+02  0.00000000000E+00 0. -1.
         -2    1    1    2    0  502 -0.45990315860E+02 -0.15982339837E+02  0.37562041175E+02  0.61493505973E+02  0.00000000000E+00 0.  1.
</event>
<event>
 4    1  0.1822260E+004  0.2092230E+02  0.7546771E-02  0.1520377E+00
         21   -1    0    0  501  502  0.00000000000E+00  0.00000000000E+00  0.69031288334E+02  0.69031288334E+02  0.00000000000E+00 0. -1.
         21   -1    0    0  502  503 -0.00000000000E+00 -0.00000000000E+00 -0.77221123426E+01  0.77221123426E+01  0.00000000000E+00 0.  1.
          2    1    1    2  501    0 -0.97914094855E+01 -0.18489755650E+02  0.46883114143E+02  0.51339742456E+02  0.00000000000E+00 0. -1.
         -2    1    1    2    0  503  0.97914094855E+01  0.18489755650E+02  0.14426061849E+02  0.25413658221E+02  0.00000000000E+00 0.  1.
</event>
<event>
 4    1  0.1822260E+004  0.2199129E+02  0.7546771E-02  0.1505568E+00
         21   -1    0    0  503  502  0.00000000000E+00  0.00000000000E+00  0.73619276844E+03  0.73619276844E+03  0.00000000000E+00 0.  1.
         21   -1    0    0  501  503 -0.00000000000E+00 -0.00000000000E+00 -0.73465858563E+00  0.73465858563E+00  0.00000000000E+00 0. -1.
          2    1    1    2  501    0 -0.90739885031E+01 -0.20031967195E+02  0.24786725447E+03  0.24884089860E+03  0.00000000000E+00 0. -1.
         -2    1    1    2    0  502  0.90739885031E+01  0.20031967195E+02  0.48759085538E+03  0.48808652843E+03  0.00000000000E+00 0.  1.
</event>
<event>
 4    1  0.1822260E+004  0.2676899E+02  0.7546771E-02  0.1449942E+00
         21   -1    0    0  501  502  0.00000000000E+00  0.00000000000E+00  0.30933818759E+02  0.30933818759E+02  0.00000000000E+00 0.  1.
         21   -1    0    0  502  503 -0.00000000000E+00 -0.00000000000E+00 -0.24029012969E+02  0.24029012969E+02  0.00000000000E+00 0. -1.
          2    1    1    2  501    0  0.19105659559E+02 -0.18749742480E+02 -0.17589964258E+01  0.26826724338E+02  0.00000000000E+00 0.  1.
         -2    1    1    2    0  503 -0.19105659559E+02  0.18749742480E+02  0.86638022159E+01  0.28136107391E+02  0.00000000000E+00 0. -1.
</event>
<event>
 4    1  0.1822260E+004  0.2388054E+02  0.7546771E-02  0.1481728E+00
         21   -1    0    0  501  502  0.00000000000E+00  0.00000000000E+00  0.32412239108E+02  0.32412239108E+02  0.00000000000E+00 0.  1.
         21   -1    0    0  502  503 -0.00000000000E+00 -0.00000000000E+00 -0.29672166415E+02  0.29672166415E+02  0.00000000000E+00 0. -1.
          2    1    1    2  501    0  0.59704614199E+01 -0.23122147209E+02  0.21174713922E+02  0.31916275014E+02  0.00000000000E+00 0.  1.
         -2    1    1    2    0  503 -0.59704614199E+01  0.23122147209E+02 -0.18434641229E+02  0.30168130508E+02  0.00000000000E+00 0. -1.
</event>
<event>
 4    1  0.1822260E+004  0.5089329E+02  0.7546771E-02  0.1294345E+00
         21   -1    0    0  501  502  0.00000000000E+00  0.00000000000E+00  0.90716793867E+03  0.90716793867E+03  0.00000000000E+00 0.  1.
         21   -1    0    0  502  503 -0.00000000000E+00 -0.00000000000E+00 -0.11876185993E+02  0.11876185993E+02  0.00000000000E+00 0. -1.
          2    1    1    2  501    0  0.48990673151E+02  0.13785522665E+02  0.84813929715E+03  0.84966487162E+03  0.00000000000E+00 0.  1.
         -2    1    1    2    0  503 -0.48990673151E+02 -0.13785522665E+02  0.47152455531E+02  0.69379253048E+02  0.00000000000E+00 0. -1.
</event>
<event>
 4    1  0.1822260E+004  0.2296052E+02  0.7546771E-02  0.1492995E+00
         21   -1    0    0  503  502  0.00000000000E+00  0.00000000000E+00  0.17604913802E+02  0.17604913802E+02  0.00000000000E+00 0. -1.
         21   -1    0    0  501  503 -0.00000000000E+00 -0.00000000000E+00 -0.15260928184E+03  0.15260928184E+03  0.00000000000E+00 0.  1.
          2    1    1    2  501    0 -0.22937298963E+02 -0.10323571820E+01 -0.14380379958E+03  0.14562526641E+03  0.00000000000E+00 0.  1.
         -2    1    1    2    0  502  0.22937298963E+02  0.10323571820E+01  0.87994315407E+01  0.24588929227E+02  0.00000000000E+00 0. -1.
</event>
<event>
 4    1  0.1822260E+004  0.2470692E+02  0.7546771E-02  0.1472109E+00
         21   -1    0    0  501  502  0.00000000000E+00  0.00000000000E+00  0.32372060688E+02  0.32372060688E+02  0.00000000000E+00 0.  1.
         21   -1    0    0  502  503 -0.00000000000E+00 -0.00000000000E+00 -0.32588574837E+02  0.32588574837E+02  0.00000000000E+00 0. -1.
          2    1    1    2  501    0  0.70147764368E+00 -0.24696956000E+02  0.20975683594E+02  0.32410044875E+02  0.00000000000E+00 0.  1.
         -2    1    1    2    0  503 -0.70147764368E+00  0.24696956000E+02 -0.21192197743E+02  0.32550590651E+02  0.00000000000E+00 0. -1.
</event>
<event>
 4    1  0.1822260E+004  0.2073277E+02  0.7546771E-02  0.1523115E+00
         21   -1    0    0  503  502  0.00000000000E+00  0.00000000000E+00  0.22405955213E+02  0.22405955213E+02  0.00000000000E+00 0. -1.
         21   -1    0    0  501  503 -0.00000000000E+00 -0.00000000000E+00 -0.25373484611E+02  0.25373484611E+02  0.00000000000E+00 0.  1.
          2    1    1    2  501    0  0.19220081034E+02  0.77740658152E+01 -0.13282346701E+02  0.24622517096E+02  0.00000000000E+00 0.  1.
         -2    1    1    2    0  502 -0.19220081034E+02 -0.77740658152E+01  0.10314817303E+02  0.23156922728E+02  0.00000000000E+00 0. -1.
</event>
<event>
 4    1  0.1822260E+004  0.4580860E+02  0.7546771E-02  0.1317445E+00
         21   -1    0    0  503  502  0.00000000000E+00  0.00000000000E+00  0.74793934074E+02  0.74793934074E+02  0.00000000000E+00 0. -1.
         21   -1    0    0  501  503 -0.00000000000E+00 -0.00000000000E+00 -0.33592030538E+02  0.33592030538E+02  0.00000000000E+00 0.  1.
          2    1    1    2  501    0 -0.45799478431E+02 -0.91394997485E+00 -0.13988864195E+01  0.45829951040E+02  0.00000000000E+00 0.  1.
         -2    1    1    2    0  502  0.45799478431E+02  0.91394997485E+00  0.42600789955E+02  0.62556013571E+02  0.00000000000E+00 0. -1.
</event>
<event>
 4    1  0.1822260E+004  0.2793821E+02  0.7546771E-02  0.1438405E+00
         21   -1    0    0  501  502  0.00000000000E+00  0.00000000000E+00  0.34707719894E+03  0.34707719894E+03  0.00000000000E+00 0. -1.
         21   -1    0    0  502  503 -0.00000000000E+00 -0.00000000000E+00 -0.29195688468E+01  0.29195688468E+01  0.00000000000E+00 0.  1.
          2    1    1    2  501    0  0.15985527972E+02  0.22913016869E+02  0.25595280696E+03  0.25747307206E+03  0.00000000000E+00 0. -1.
         -2    1    1    2    0  503 -0.15985527972E+02 -0.22913016869E+02  0.88204823139E+02  0.92523695730E+02  0.00000000000E+00 0.  1.
</event>
<event>
 4    1  0.1822260E+004  0.2770881E+02  0.7546771E-02  0.1440615E+00
         21   -1    0    0  503  502  0.00000000000E+00  0.00000000000E+00  0.98610150770E+01  0.98610150770E+01  0.00000000000E+00 0. -1.
         21   -1    0    0  501  503 -0.00000000000E+00 -0.00000000000E+00 -0.82934655238E+02  0.82934655238E+02  0.00000000000E+00 0.  1.
          2    1    1    2  501    0  0.11362822706E+02 -0.25271810869E+02 -0.48013995094E+02  0.55435745592E+02  0.00000000000E+00 0. -1.
         -2    1    1    2    0  502 -0.11362822706E+02  0.25271810869E+02 -0.25059645067E+02  0.37359924723E+02  0.00000000000E+00 0.  1.
</event>
<event>
 4    1  0.1822260E+004  0.3364395E+02  0.7546771E-02  0.1390356E+00
         21   -1    0    0  501  502  0.00000000000E+00  0.00000000000E+00  0.10152373322E+02  0.10152373322E+02  0.00000000000E+00 0.  1.
         21   -1    0    0  502  503 -0.00000000000E+00 -0.00000000000E+00 -0.17565112131E+03  0.17565112131E+03  0.00000000000E+00 0. -1.
          2    1    1    2  501    0 -0.68299808950E+01  0.32943386135E+02 -0.26602534483E+02  0.42890676958E+02  0.00000000000E+00 0.  1.
         -2    1    1    2    0  503  0.68299808950E+01 -0.32943386135E+02 -0.13889621350E+03  0.14291281767E+03  0.00000000000E+00 0. -1.
</event>
<event>
 4    1  0.1822260E+004  0.2059381E+02  0.7546771E-02  0.1525144E+00
         21   -1    0    0  501  502  0.00000000000E+00  0.00000000000E+00  0.48274245618E+01  0.48274245618E+01  0.00000000000E+00 0. -1.
         21   -1    0    0  502  503 -0.00000000000E+00 -0.00000000000E+00 -0.19421309968E+03  0.19421309968E+03  0.00000000000E+00 0.  1.
          2    1    1    2  501    0 -0.13064560602E+01  0.20552325646E+02 -0.21044810482E+02  0.29444676346E+02  0.00000000000E+00 0. -1.
         -2    1    1    2    0  503  0.13064560602E+01 -0.20552325646E+02 -0.16834086464E+03  0.16959584790E+03  0.00000000000E+00 0.  1.
</event>
<event>
 4    1  0.1822260E+004  0.2105402E+02  0.7546771E-02  0.1518495E+00
         21   -1    0    0  503  502  0.00000000000E+00  0.00000000000E+00  0.34893765687E+02  0.34893765687E+02  0.00000000000E+00 0. -1.
         21   -1    0    0  501  503 -0.00000000000E+00 -0.00000000000E+00 -0.45672827083E+02  0.45672827083E+02  0.00000000000E+00 0.  1.
          2    1    1    2  501    0  0.87540336057E+00 -0.21035810042E+02 -0.39615152305E+02  0.44862366493E+02  0.00000000000E+00 0.  1.
         -2    1    1    2    0  502 -0.87540336057E+00  0.21035810042E+02  0.28836090909E+02  0.35704226277E+02  0.00000000000E+00 0. -1.
</event>
<event>
 4    1  0.1822260E+004  0.2223178E+02  0.7546771E-02  0.1502377E+00
         21   -1    0    0  501  502  0.00000000000E+00  0.00000000000E+00  0.47737538805E+03  0.47737538805E+03  0.00000000000E+00 0. -1.
         21   -1    0    0  502  503 -0.00000000000E+00 -0.00000000000E+00 -0.13134038627E+01  0.13134038627E+01  0.00000000000E+00 0.  1.
          2    1    1    2  501    0  0.16438634729E+02 -0.14967403235E+02  0.34815614345E+03  0.34886523486E+03  0.00000000000E+00 0. -1.
         -2    1    1    2    0  503 -0.16438634729E+02  0.14967403235E+02  0.12790584074E+03  0.12982355706E+03  0.00000000000E+00 0.  1.
</event>
<event>
 4    1  0.1822260E+004  0.2834330E+02  0.7546771E-02  0.1434562E+00
         21   -1    0    0  501  502  0.00000000000E+00  0.00000000000E+00  0.13071841613E+03  0.13071841613E+03  0.00000000000E+00 0. -1.
         21   -1    0    0  502  503 -0.00000000000E+00 -0.00000000000E+00 -0.35751146454E+02  0.35751146454E+02  0.00000000000E+00 0.  1.
          2    1    1    2  501    0  0.26400255898E+02  0.10313539970E+02  0.12322731875E+03  0.12644490778E+03  0.00000000000E+00 0. -1.
         -2    1    1    2    0  503 -0.26400255898E+02 -0.10313539970E+02 -0.28260049074E+02  0.40024654799E+02  0.00000000000E+00 0.  1.
</event>
<event>
 4    1  0.1822260E+004  0.2152424E+02  0.7546771E-02  0.1511910E+00
         21   -1    0    0  503  502  0.00000000000E+00  0.00000000000E+00  0.31832580935E+02  0.31832580935E+02  0.00000000000E+00 0. -1.
         21   -1    0    0  501  503 -0.00000000000E+00 -0.00000000000E+00 -0.15471691189E+02  0.15471691189E+02  0.00000000000E+00 0.  1.
          2    1    1    2  501    0 -0.18424962944E+02  0.11127159106E+02  0.13940654132E+02  0.25644390553E+02  0.00000000000E+00 0. -1.
         -2    1    1    2    0  502  0.18424962944E+02 -0.11127159106E+02  0.24202356149E+01  0.21659881571E+02  0.00000000000E+00 0.  1.
</event>
<event>
 4    1  0.1822260E+004  0.2022387E+02  0.7546771E-02  0.1530641E+00
         21   -1    0    0  503  502  0.00000000000E+00  0.00000000000E+00  0.14490140018E+04  0.14490140018E+04  0.00000000000E+00 0. -1.
         21   -1    0    0  501  503 -0.00000000000E+00 -0.00000000000E+00 -0.30270521780E+00  0.30270521780E+00  0.00000000000E+00 0.  1.
          2    1    1    2  501    0  0.64382957582E+01  0.19171679363E+02  0.53604563843E+03  0.53642700475E+03  0.00000000000E+00 0. -1.
         -2    1    1    2    0  502 -0.64382957582E+01 -0.19171679363E+02  0.91266565811E+03  0.91288970223E+03  0.00000000000E+00 0.  1.
</event>
<event>
 4    1  0.1822260E+004  0.2045431E+02  0.7546771E-02  0.1527200E+00
         21   -1    0    0  501  502  0.00000000000E+00  0.00000000000E+00  0.14122819491E+01  0.14122819491E+01  0.00000000000E+00 0. -1.
         21   -1    0    0  502  503 -0.00000000000E+00 -0.00000000000E+00 -0.52775317523E+03  0.52775317523E+03  0.00000000000E+00 0.  1.
          2    1    1    2  501    0  0.20048616769E+02  0.40535952791E+01 -0.87931317207E+02  0.90278985455E+02  0.00000000000E+00 0. -1.
         -2    1    1    2    0  503 -0.20048616769E+02 -0.40535952791E+01 -0.43840957608E+03  0.43888647173E+03  0.00000000000E+00 0.  1.
</event>
<event>
 4    1  0.1822260E+004  0.2163615E+02  0.7546771E-02  0.1510373E+00
         21   -1    0    0  503  502  0.00000000000E+00  0.00000000000E+00  0.15193906507E+03  0.15193906507E+03  0.00000000000E+00 0. -1.
         21   -1    0    0  501  503 -0.00000000000E+00 -0.00000000000E+00 -0.41966883441E+01  0.41966883441E+01  0.00000000000E+00 0.  1.
          2    1    1    2  501    0  0.20543692936E+02 -0.67882146444E+01  0.33618782580E+02  0.39979316148E+02  0.00000000000E+00 0.  1.
         -2    1    1    2    0  502 -0.20543692936E+02  0.67882146444E+01  0.11412359415E+03  0.11615643727E+03  0.00000000000E+00 0. -1.
</event>
<event>
 4    1  0.1822260E+004  0.2120986E+02  0.7546771E-02  0.1516290E+00
         21   -1    0    0  503  502  0.00000000000E+00  0.00000000000E+00  0.20336569422E+03  0.20336569422E+03  0.00000000000E+00 0.  1.
         21   -1    0    0  501  503 -0.00000000000E+00 -0.00000000000E+00 -0.63577468030E+01  0.63577468030E+01  0.00000000000E+00 0. -1.
          2    1    1    2  501    0  0.11058134078E+01  0.21181017798E+02  0.13827396411E+02  0.25319068501E+02  0.00000000000E+00 0. -1.
         -2    1    1    2    0  502 -0.11058134078E+01 -0.21181017798E+02  0.18318055100E+03  0.18440437252E+03  0.00000000000E+00 0.  1.
</event>
<event>
 4    1  0.1822260E+004  0.2144423E+02  0.7546771E-02  0.1513016E+00
         21   -1    0    0  501  502  0.00000000000E+00  0.00000000000E+00  0.19693810322E+02  0.19693810322E+02  0.00000000000E+00 0. -1.
         21   -1    0    0  502  503 -0.00000000000E+00 -0.00000000000E+00 -0.23859232786E+02  0.23859232786E+02  0.00000000000E+00 0.  1.
          2    1    1    2  501    0 -0.14591078577E+02  0.15714817303E+02 -0.52633850379E+01  0.22080721885E+02  0.00000000000E+00 0. -1.
         -2    1    1    2    0  503  0.14591078577E+02 -0.15714817303E+02  0.10979625735E+01  0.21472321223E+02  0.00000000000E+00 0.  1.
</event>
<event>
 4    1  0.1822260E+004  0.2291757E+02  0.7546771E-02  0.1493536E+00
         21   -1    0    0  503  502  0.00000000000E+00  0.00000000000E+00  0.35732385729E+02  0.35732385729E+02  0.00000000000E+00 0. -1.
         21   -1    0    0  501  503 -0.00000000000E+00 -0.00000000000E+00 -0.20343830162E+02  0.20343830162E+02  0.00000000000E+00 0.  1.
          2    1    1    2  501    0  0.34408994793E+01 -0.22657786735E+02 -0.70755080631E+01  0.23984951601E+02  0.00000000000E+00 0.  1.
         -2    1    1    2    0  502 -0.34408994793E+01  0.22657786735E+02  0.22464063630E+02  0.32091264290E+02  0.00000000000E+00 0. -1.
</event>
<event>
 4    1  0.1822260E+004  0.2638907E+02  0.7546771E-02  0.1453843E+00
         21   -1    0    0  503  502  0.00000000000E+00  0.00000000000E+00  0.20666092798E+04  0.20666092798E+04  0.00000000000E+00 0.  1.
         21   -1    0    0  501  503 -0.00000000000E+00 -0.00000000000E+00 -0.40446880172E+00  0.40446880172E+00  0.00000000000E+00 0. -1.
          2    1    1    2  501    0 -0.26203607277E+02  0.31231769636E+01  0.61089864784E+03  0.61146834849E+03  0.00000000000E+00 0. -1.
         -2    1    1    2    0  502  0.26203607277E+02 -0.31231769636E+01  0.14553061632E+04  0.14555454002E+04  0.00000000000E+00 0.  1.
</event>
<event>
 4    1  0.1822260E+004  0.3939242E+02  0.7546771E-02  0.1352083E+00
         21   -1    0    0  503  502  0.00000000000E+00  0.00000000000E+00  0.21662900319E+03  0.21662900319E+03  0.00000000000E+00 0.  1.
         21   -1    0    0  501  503 -0.00000000000E+00 -0.00000000000E+00 -0.13240383091E+02  0.13240383091E+02  0.00000000000E+00 0. -1.
          2    1    1    2  501    0 -0.33184197849E+02 -0.21226673920E+02  0.23827735597E+02  0.46038284680E+02  0.00000000000E+00 0. -1.
         -2    1    1    2    0  502  0.33184197849E+02  0.21226673920E+02  0.17956088451E+03  0.18383110160E+03  0.00000000000E+00 0.  1.
</event>
<event>
 4    1  0.1822260E+004  0.2078868E+02  0.7546771E-02  0.1522303E+00
         21   -1    0    0  501  502  0.00000000000E+00  0.00000000000E+00  0.17383998887E+02  0.17383998887E+02  0.00000000000E+00 0.  1.
         21   -1    0    0  502  503 -0.00000000000E+00 -0.00000000000E+00 -0.30055987427E+02  0.30055987427E+02  0.00000000000E+00 0. -1.
          2    1    1    2  501    0  0.18347949536E+02  0.97735301388E+01  0.35262568831E+01  0.21085626174E+02  0.00000000000E+00 0. -1.
         -2    1    1    2    0  503 -0.18347949536E+02 -0.97735301388E+01 -0.16198245423E+02  0.26354360139E+02  0.00000000000E+00 0.  1.
</event>
<event>
 4    1  0.1822260E+004  0.2195580E+02  0.7546771E-02  0.1506044E+00
         21   -1    0    0  503  502  0.00000000000E+00  0.00000000000E+00  0.25716283126E+03  0.25716283126E+03  0.00000000000E+00 0. -1.
         21   -1    0    0  501  503 -0.00000000000E+00 -0.00000000000E+00 -0.36949495177E+01  0.36949495177E+01  0.00000000000E+00 0.  1.
          2    1    1    2  501    0 -0.80186284133E+01 -0.20439142640E+02  0.35184343031E+02  0.41472821799E+02  0.00000000000E+00 0.  1.
         -2    1    1    2    0  502  0.80186284133E+01  0.20439142640E+02  0.21828353871E+03  0.21938495898E+03  0.00000000000E+00 0. -1.
</event>
<event>
 4    1  0.1822260E+004  0.2554765E+02  0.7546771E-02  0.1462769E+00
         21   -1    0    0  503  502  0.00000000000E+00  0.00000000000E+00  0.90854033382E+00  0.90854033382E+00  0.00000000000E+00 0. -1.
         21   -1    0    0  501  503 -0.00000000000E+00 -0.00000000000E+00 -0.87270197296E+03  0.87270197296E+03  0.00000000000E+00 0.  1.
          2    1    1    2  501    0 -0.22822476594E+02 -0.11481162160E+02 -0.61957614725E+03  0.62010264051E+03  0.00000000000E+00 0.  1.
         -2    1    1    2    0  502  0.22822476594E+02  0.11481162160E+02 -0.25221728537E+03  0.25350787278E+03  0.00000000000E+00 0. -1.
</event>
<event>
 4    1  0.1822260E+004  0.5447702E+02  0.7546771E-02  0.1279847E+00
         21   -1    0    0  503  502  0.00000000000E+00  0.00000000000E+00  0.47678317865E+02  0.47678317865E+02  0.00000000000E+00 0.  1.
         21   -1    0    0  501  503 -0.00000000000E+00 -0.00000000000E+00 -0.62484209532E+02  0.62484209532E+02  0.00000000000E+00 0. -1.
          2    1    1    2  501    0  0.49384427572E+02 -0.22998350940E+02 -0.39962153869E+01  0.54623397642E+02  0.00000000000E+00 0.  1.
         -2    1    1    2    0  502 -0.49384427572E+02  0.22998350940E+02 -0.10809676280E+02  0.55539129754E+02  0.00000000000E+00 0. -1.
</event>
<event>
 4    1  0.1822260E+004  0.2011296E+02  0.7546771E-02  0.1532316E+00
         21   -1    0    0  501  502  0.00000000000E+00  0.00000000000E+00  0.40281754348E+02  0.40281754348E+02  0.00000000000E+00 0.  1.
         21   -1    0    0  502  503 -0.00000000000E+00 -0.00000000000E+00 -0.11763529978E+02  0.11763529978E+02  0.00000000000E+00 0. -1.
          2    1    1    2  501    0 -0.17688317835E+02 -0.95736403765E+01  0.24212514911E+02  0.31476611257E+02  0.00000000000E+00 0.  1.
         -2    1    1    2    0  503  0.17688317835E+02  0.95736403765E+01  0.43057094597E+01  0.20568673069E+02  0.00000000000E+00 0. -1.
</event>
<event>
 4    1  0.1822260E+004  0.2061440E+02  0.7546771E-02  0.1524842E+00
         21   -1    0    0  501  502  0.00000000000E+00  0.00000000000E+00  0.16523742659E+03  0.16523742659E+03  0.00000000000E+00 0. -1.
         21   -1    0    0  502  503 -0.00000000000E+00 -0.00000000000E+00 -0.71311225770E+01  0.71311225770E+01  0.00000000000E+00 0.  1.
          2    1    1    2  501    0  0.94336990558E+01 -0.18329183202E+02  0.14796602984E+03  0.14939511244E+03  0.00000000000E+00 0. -1.
         -2    1    1    2    0  503 -0.94336990558E+01  0.18329183202E+02  0.10140274174E+02  0.22973436727E+02  0.00000000000E+00 0.  1.
</event>
<event>
 4    1  0.1822260E+004  0.3679357E+02  0.7546771E-02  0.1368374E+00
         21   -1    0    0  501  502  0.00000000000E+00  0.00000000000E+00  0.60875681449E+01  0.60875681449E+01  0.00000000000E+00 0.  1.
         21   -1    0    0  502  503 -0.00000000000E+00 -0.00000000000E+00 -0.27590809161E+03  0.27590809161E+03  0.00000000000E+00 0. -1.
          2    1    1    2  501    0 -0.35718179423E+02  0.88305578758E+01 -0.19701317406E+03  0.20041945476E+03  0.00000000000E+00 0. -1.
         -2    1    1    2    0  503  0.35718179423E+02 -0.88305578758E+01 -0.72807349401E+02  0.81576204989E+02  0.00000000000E+00 0.  1.
</event>
<event>
 4    1  0.1822260E+004  0.2716918E+02  0.7546771E-02  0.1445916E+00
         21   -1    0    0  503  502  0.00000000000E+00  0.00000000000E+00  0.93833562770E+02  0.93833562770E+02  0.00000000000E+00 0. -1.
         21   -1    0    0  501  503 -0.00000000000E+00 -0.00000000000E+00 -0.25354812379E+02  0.25354812379E+02  0.00000000000E+00 0.  1.
          2    1    1    2  501    0 -0.22577872468E+02 -0.15113039804E+02 -0.15253725936E+02  0.31158312731E+02  0.00000000000E+00 0.  1.
         -2    1    1    2    0  502  0.22577872468E+02  0.15113039804E+02  0.83732476327E+02  0.88030062417E+02  0.00000000000E+00 0. -1.
</event>
<event>
 4    1  0.1822260E+004  0.2068106E+02  0.7546771E-02  0.1523868E+00
         21   -1    0    0  501  502  0.00000000000E+00  0.00000000000E+00  0.13353168916E+01  0.13353168916E+01  0.00000000000E+00 0.  1.
         21   -1    0    0  502  503 -0.00000000000E+00 -0.00000000000E+00 -0.39566754451E+03  0.39566754451E+03  0.00000000000E+00 0. -1.
          2    1    1    2  501    0  0.17538998589E+02 -0.10958547142E+02 -0.11053348547E+03  0.11245157908E+03  0.00000000000E+00 0.  1.
         -2    1    1    2    0  503 -0.17538998589E+02  0.10958547142E+02 -0.28379874215E+03  0.28455128232E+03  0.00000000000E+00 0. -1.
</event>
<event>
 4    1  0.1822260E+004  0.5836010E+02  0.7546771E-02  0.1265509E+00
         21   -1    0    0  501  502  0.00000000000E+00  0.00000000000E+00  0.28657697748E+02  0.28657697748E+02  0.00000000000E+00 0.  1.
         21   -1    0    0  502  503 -0.00000000000E+00 -0.00000000000E+00 -0.15451451559E+03  0.15451451559E+03  0.00000000000E+00 0. -1.
          2    1    1    2  501    0  0.52331141825E+02  0.25833168138E+02 -0.18925921631E+02  0.61352192221E+02  0.00000000000E+00 0. -1.
         -2    1    1    2    0  503 -0.52331141825E+02 -0.25833168138E+02 -0.10693089621E+03  0.12182002112E+03  0.00000000000E+00 0.  1.
</event>
<event>
 4    1  0.1822260E+004  0.2184827E+02  0.7546771E-02  0.1507490E+00
         21   -1    0    0  501  502  0.00000000000E+00  0.00000000000E+00  0.22308810105E+02  0.22308810105E+02  0.00000000000E+00 0. -1.
         21   -1    0    0  502  503 -0.00000000000E+00 -0.00000000000E+00 -0.71189225468E+02  0.71189225468E+02  0.00000000000E+00 0.  1.
          2    1    1    2  501    0 -0.18769271098E+02 -0.11183089154E+02  0.14656939367E+02  0.26309178858E+02  0.00000000000E+00 0. -1.
         -2    1    1    2    0  503  0.18769271098E+02  0.11183089154E+02 -0.63537354730E+02  0.67188856715E+02  0.00000000000E+00 0.  1.
</event>
<event>
 4    1  0.1822260E+004  0.2373234E+02  0.7546771E-02  0.1483501E+00
         21   -1    0    0  501  502  0.00000000000E+00  0.00000000000E+00  0.88387593569E+01  0.88387593569E+01  0.00000000000E+00 0.  1.
         21   -1    0    0  502  503 -0.00000000000E+00 -0.00000000000E+00 -0.97352493026E+02  0.97352493026E+02  0.00000000000E+00 0. -1.
          2    1    1    2  501    0  0.19724835616E+02  0.13196771036E+02 -0.13049906193E+02  0.27083647419E+02  0.00000000000E+00 0.  1.
         -2    1    1    2    0  503 -0.19724835616E+02 -0.13196771036E+02 -0.75463827476E+02  0.79107604964E+02  0.00000000000E+00 0. -1.
</event>
<event>
 4    1  0.1822260E+004  0.6210469E+02  0.7546771E-02  0.1252844E+00
         21   -1    0    0  503  502  0.00000000000E+00  0.00000000000E+00  0.15289196177E+03  0.15289196177E+03  0.00000000000E+00 0.  1.
         21   -1    0    0  501  503 -0.00000000000E+00 -0.00000000000E+00 -0.36957256745E+02  0.36957256745E+02  0.00000000000E+00 0. -1.
          2    1    1    2  501    0 -0.22281209402E+02  0.57970170130E+02  0.44882341105E+01  0.62266661728E+02  0.00000000000E+00 0. -1.
         -2    1    1    2    0  502  0.22281209402E+02 -0.57970170130E+02  0.11144647092E+03  0.12758255679E+03  0.00000000000E+00 0.  1.
</event>
<event>
 4    1  0.1822260E+004  0.2036469E+02  0.7546771E-02  0.1528532E+00
         21   -1    0    0  503  502  0.00000000000E+00  0.00000000000E+00  0.19304490932E+01  0.19304490932E+01  0.00000000000E+00 0.  1.
         21   -1    0    0  501  503 -0.00000000000E+00 -0.00000000000E+00 -0.29993586183E+03  0.29993586183E+03  0.00000000000E+00 0. -1.
          2    1    1    2  501    0  0.19051449537E+02  0.71946386822E+01 -0.22940108939E+03  0.23030323569E+03  0.00000000000E+00 0. -1.
         -2    1    1    2    0  502 -0.19051449537E+02 -0.71946386822E+01 -0.68604323352E+02  0.71563075240E+02  0.00000000000E+00 0.  1.
</event>
<event>
 4    1  0.1822260E+004  0.2225789E+02  0.7546771E-02  0.1502033E+00
         21   -1    0    0  503  502  0.00000000000E+00  0.00000000000E+00  0.60355192416E+01  0.60355192416E+01  0.00000000000E+00 0. -1.
         21   -1    0    0  501  503 -0.00000000000E+00 -0.00000000000E+00 -0.95324481957E+02  0.95324481957E+02  0.00000000000E+00 0.  1.
          2    1    1    2  501    0  0.16646388747E+01  0.22195556834E+02 -0.25755783084E+02  0.34040771555E+02  0.00000000000E+00 0. -1.
         -2    1    1    2    0  502 -0.16646388747E+01 -0.22195556834E+02 -0.63533179631E+02  0.67319229643E+02  0.00000000000E+00 0.  1.
</event>
<event>
 4    1  0.1822260E+004  0.2527697E+02  0.7546771E-02  0.1465729E+00
         21   -1    0    0  503  502  0.00000000000E+00  0.00000000000E+00  0.46757091330E+02  0.46757091330E+02  0.00000000000E+00 0. -1.
         21   -1    0    0  501  503 -0.00000000000E+00 -0.00000000000E+00 -0.16965012637E+02  0.16965012637E+02  0.00000000000E+00 0.  1.
          2    1    1    2  501    0 -0.24916308150E+02 -0.42547202945E+01  0.84347020190E+00  0.25291035933E+02  0.00000000000E+00 0.  1.
         -2    1    1    2    0  502  0.24916308150E+02  0.42547202945E+01  0.28948608491E+02  0.38431068033E+02  0.00000000000E+00 0. -1.
</event>
<event>
 4    1  0.1822260E+004  0.3373931E+02  0.7546771E-02  0.1389650E+00
         21   -1    0    0  501  502  0.00000000000E+00  0.00000000000E+00  0.71021455101E+01  0.71021455101E+01  0.00000000000E+00 0. -1.
         21   -1    0    0  502  503 -0.00000000000E+00 -0.00000000000E+00 -0.18745696698E+03  0.18745696698E+03  0.00000000000E+00 0.  1.
          2    1    1    2  501    0  0.18169122133E+02 -0.28429280145E+02 -0.53138256727E+02  0.62944541436E+02  0.00000000000E+00 0.  1.
         -2    1    1    2    0  503 -0.18169122133E+02  0.28429280145E+02 -0.12721656474E+03  0.13161457105E+03  0.00000000000E+00 0. -1.
</event>
<event>
 4    1  0.1822260E+004  0.2756514E+02  0.7546771E-02  0.1442012E+00
         21   -1    0    0  503  502  0.00000000000E+00  0.00000000000E+00  0.27097729143E+02  0.27097729143E+02  0.00000000000E+00 0. -1.
         21   -1    0    0  501  503 -0.00000000000E+00 -0.00000000000E+00 -0.28193594382E+02  0.28193594382E+02  0.00000000000E+00 0.  1.
          2    1    1    2  501    0 -0.27507252189E+02 -0.17855676272E+01  0.14884461262E+01  0.27605301060E+02  0.00000000000E+00 0. -1.
         -2    1    1    2    0  502  0.27507252189E+02  0.17855676272E+01 -0.25843113651E+01  0.27686022466E+02  0.00000000000E+00 0.  1.
</event>
<event>
 4    1  0.1822260E+004  0.2549456E+02  0.7546771E-02  0.1463346E+00
         21   -1    0    0  501  502  0.00000000000E+00  0.00000000000E+00  0.27950492403E+01  0.27950492403E+01  0.00000000000E+00 0. -1.
         21   -1    0    0  502  503 -0.00000000000E+00 -0.00000000000E+00 -0.50589028899E+03  0.50589028899E+03  0.00000000000E+00 0.  1.
          2    1    1    2  501    0  0.18384115138E+02 -0.17663440645E+02 -0.64588183537E+02  0.69437787100E+02  0.00000000000E+00 0. -1.
         -2    1    1    2    0  503 -0.18384115138E+02  0.17663440645E+02 -0.43850705621E+03  0.43924755113E+03  0.00000000000E+00 0.  1.
</event>
<event>
 4    1  0.1822260E+004  0.2580050E+02  0.7546771E-02  0.1460044E+00
         21   -1    0    0  501  502  0.00000000000E+00  0.00000000000E+00  0.47268825774E+01  0.47268825774E+01  0.00000000000E+00 0.  1.
         21   -1    0    0  502  503 -0.00000000000E+00 -0.00000000000E+00 -0.28235530867E+03  0.28235530867E+03  0.00000000000E+00 0. -1.
          2    1    1    2  501    0 -0.16834444232E+02 -0.19551659351E+02 -0.37188842403E+02  0.45262301038E+02  0.00000000000E+00 0. -1.
         -2    1    1    2    0  503  0.16834444232E+02  0.19551659351E+02 -0.24043958369E+03  0.24181989021E+03  0.00000000000E+00 0.  1.
</event>
<event>
 4    1  0.1822260E+004  0.2537071E+02  0.7546771E-02  0.1464699E+00
         21   -1    0    0  503  502  0.00000000000E+00  0.00000000000E+00  0.12228254316E+02  0.12228254316E+02  0.00000000000E+00 0.  1.
         21   -1    0    0  501  503 -0.00000000000E+00 -0.00000000000E+00 -0.67906276366E+02  0.67906276366E+02  0.00000000000E+00 0. -1.
          2    1    1    2  501    0  0.11004829678E+02 -0.22859719476E+02 -0.46837855656E+02  0.53267793020E+02  0.00000000000E+00 0. -1.
         -2    1    1    2    0  502 -0.11004829678E+02  0.22859719476E+02 -0.88401663937E+01  0.26866737662E+02  0.00000000000E+00 0.  1.
</event>
<event>
 4    1  0.1822260E+004  0.2894873E+02  0.7546771E-02  0.1428957E+00
         21   -1    0    0  503  502  0.00000000000E+00  0.00000000000E+00  0.55287210949E+01  0.55287210949E+01  0.00000000000E+00 0. -1.
         21   -1    0    0  501  503 -0.00000000000E+00 -0.00000000000E+00 -0.20511937546E+03  0.20511937546E+03  0.00000000000E+00 0.  1.
          2    1    1    2  501    0 -0.23962110750E+02 -0.16243341077E+02 -0.15360639464E+03  0.15631043905E+03  0.00000000000E+00 0.  1.
         -2    1    1    2    0  502  0.23962110750E+02  0.16243341077E+02 -0.45984259729E+02  0.54337657511E+02  0.00000000000E+00 0. -1.
</event>
<event>
 4    1  0.1822260E+004  0.2077756E+02  0.7546771E-02  0.1522465E+00
         21   -1    0    0  503  502  0.00000000000E+00  0.00000000000E+00  0.29148579493E+03  0.29148579493E+03  0.00000000000E+00 0. -1.
         21   -1    0    0  501  503 -0.00000000000E+00 -0.00000000000E+00 -0.15733823868E+01  0.15733823868E+01  0.00000000000E+00 0.  1.
          2    1    1    2  501    0  0.59018050569E+01 -0.19921739886E+02  0.10946104191E+03  0.11141555869E+03  0.00000000000E+00 0. -1.
         -2    1    1    2    0  502 -0.59018050569E+01  0.19921739886E+02  0.18045137064E+03  0.18164361863E+03  0.00000000000E+00 0.  1.
</event>
<event>
 4    1  0.1822260E+004  0.2317472E+02  0.7546771E-02  0.1490316E+00
         21   -1    0    0  503  502  0.00000000000E+00  0.00000000000E+00  0.11691840947E+03  0.11691840947E+03  0.00000000000E+00 0.  1.
         21   -1    0    0  501  503 -0.00000000000E+00 -0.00000000000E+00 -0.46239841306E+01  0.46239841306E+01  0.00000000000E+00 0. -1.
          2    1    1    2  501    0 -0.17456056199E+02  0.15243147427E+02  0.51214789987E+02  0.56214074349E+02  0.00000000000E+00 0. -1.
         -2    1    1    2    0  502  0.17456056199E+02 -0.15243147427E+02  0.61079635351E+02  0.65328319250E+02  0.00000000000E+00 0.  1.
</event>
<event>
 4    1  0.1822260E+004  0.3360580E+02  0.7546771E-02  0.1390639E+00
         21   -1    0    0  501  502  0.00000000000E+00  0.00000000000E+00  0.93599182709E+02  0.93599182709E+02  0.00000000000E+00 0. -1.
         21   -1    0    0  502  503 -0.00000000000E+00 -0.00000000000E+00 -0.14638336821E+02  0.14638336821E+02  0.00000000000E+00 0.  1.
          2    1    1    2  501    0 -0.68461152502E+01 -0.32901067193E+02  0.62167697058E+02  0.70669456443E+02  0.00000000000E+00 0. -1.
         -2    1    1    2    0  503  0.68461152502E+01  0.32901067193E+02  0.16793148830E+02  0.37568063087E+02  0.00000000000E+00 0.  1.
</event>
<event>
 4    1  0.1822260E+004  0.2244019E+02  0.7546771E-02  0.1499650E+00
         21   -1    0    0  501  502  0.00000000000E+00  0.00000000000E+00  0.52836599190E+01  0.52836599190E+01  0.00000000000E+00 0. -1.
         21   -1    0    0  502  503 -0.00000000000E+00 -0.00000000000E+00 -0.26173386870E+03  0.26173386870E+03  0.00000000000E+00 0.  1.
          2    1    1    2  501    0  0.18517897174E+02  0.12674770995E+02 -0.21763410367E+02  0.31260332153E+02  0.00000000000E+00 0. -1.
         -2    1    1    2    0  503 -0.18517897174E+02 -0.12674770995E+02 -0.23468679842E+03  0.23575719647E+03  0.00000000000E+00 0.  1.
</event>
<event>
 4    1  0.1822260E+004  0.3454664E+02  0.7546771E-02  0.1383779E+00
         21   -1    0    0  501  502  0.00000000000E+00  0.00000000000E+00  0.12497613665E+04  0.12497613665E+04  0.00000000000E+00 0.  1.
         21   -1    0    0  502  503 -0.00000000000E+00 -0.00000000000E+00 -0.96976135636E+00  0.96976135636E+00  0.00000000000E+00 0. -1.
          2    1    1    2  501    0  0.33098198098E+02  0.98984622899E+01  0.70165921755E+03  0.70250916566E+03  0.00000000000E+00 0.  1.
         -2    1    1    2    0  503 -0.33098198098E+02 -0.98984622899E+01  0.54713238763E+03  0.54822196222E+03  0.00000000000E+00 0. -1.
</event>
<event>
 4    1  0.1822260E+004  0.2144186E+02  0.7546771E-02  0.1513049E+00
         21   -1    0    0  503  502  0.00000000000E+00  0.00000000000E+00  0.71171431173E+01  0.71171431173E+01  0.00000000000E+00 0.  1.
         21   -1    0    0  501  503 -0.00000000000E+00 -0.00000000000E+00 -0.81592548474E+02  0.81592548474E+02  0.00000000000E+00 0. -1.
          2    1    1    2  501    0  0.16122876286E+02  0.14135277591E+02 -0.57480505165E+02  0.61349504369E+02  0.00000000000E+00 0. -1.
         -2    1    1    2    0  502 -0.16122876286E+02 -0.14135277591E+02 -0.16994900192E+02  0.27360187222E+02  0.00000000000E+00 0.  1.
</event>
<event>
 4    1  0.1822260E+004  0.2144576E+02  0.7546771E-02  0.1512995E+00
         21   -1    0    0  503  502  0.00000000000E+00  0.00000000000E+00  0.14705684254E+01  0.14705684254E+01  0.00000000000E+00 0. -1.
         21   -1    0    0  501  503 -0.00000000000E+00 -0.00000000000E+00 -0.41848565849E+03  0.41848565849E+03  0.00000000000E+00 0.  1.
          2    1    1    2  501    0 -0.10693764635E+02 -0.18589353486E+02 -0.31405406835E+03  0.31478544838E+03  0.00000000000E+00 0.  1.
         -2    1    1    2    0  502  0.10693764635E+02  0.18589353486E+02 -0.10296102171E+03  0.10517077853E+03  0.00000000000E+00 0. -1.
</event>
<event>
 4    1  0.1822260E+004  0.2074777E+02  0.7546771E-02  0.1522897E+00
         21   -1    0    0  503  502  0.00000000000E+00  0.00000000000E+00  0.10449572358E+01  0.10449572358E+01  0.00000000000E+00 0. -1.
         21   -1    0    0  501  503 -0.00000000000E+00 -0.00000000000E+00 -0.51194701009E+03  0.51194701009E+03  0.00000000000E+00 0.  1.
          2    1    1    2  501    0  0.20684686154E+02  0.16167237359E+01 -0.36881153127E+03  0.36939466108E+03  0.00000000000E+00 0. -1.
         -2    1    1    2    0  502 -0.20684686154E+02 -0.16167237359E+01 -0.14209052159E+03  0.14359730625E+03  0.00000000000E+00 0.  1.
</event>
<event>
 4    1  0.1822260E+004  0.2014508E+02  0.7546771E-02  0.1531829E+00
         21   -1    0    0  501  502  0.00000000000E+00  0.00000000000E+00  0.38313635519E+02  0.38313635519E+02  0.00000000000E+00 0.  1.
         21   -1    0    0  502  503 -0.00000000000E+00 -0.00000000000E+00 -0.50966187102E+02  0.50966187102E+02  0.00000000000E+00 0. -1.
          2    1    1    2  501    0 -0.16823495941E+02 -0.11081260335E+02  0.33405068512E+02  0.39009267471E+02  0.00000000000E+00 0.  1.
         -2    1    1    2    0  503  0.16823495941E+02  0.11081260335E+02 -0.46057620095E+02  0.50270555150E+02  0.00000000000E+00 0. -1.
</event>
<event>
 4    1  0.1822260E+004  0.2087728E+02  0.7546771E-02  0.1521024E+00
         21   -1    0    0  501  502  0.00000000000E+00  0.00000000000E+00  0.13197866794E+03  0.13197866794E+03  0.00000000000E+00 0. -1.
         21   -1    0    0  502  503 -0.00000000000E+00 -0.00000000000E+00 -0.66925664966E+01  0.66925664966E+01  0.00000000000E+00 0.  1.
          2    1    1    2  501    0  0.18999401837E+02  0.86535285379E+01  0.11199036577E+03  0.11391972108E+03  0.00000000000E+00 0. -1.
         -2    1    1    2    0  503 -0.18999401837E+02 -0.86535285379E+01  0.13295735678E+02  0.24751513358E+02  0.00000000000E+00 0.  1.
</event>
<event>
 4    1  0.1822260E+004  0.3267493E+02  0.7546771E-02  0.1397690E+00
         21   -1    0    0  503  502  0.00000000000E+00  0.00000000000E+00  0.28661120666E+02  0.28661120666E+02  0.00000000000E+00 0.  1.
         21   -1    0    0  501  503 -0.00000000000E+00 -0.00000000000E+00 -0.44097738442E+02  0.44097738442E+02  0.00000000000E+00 0. -1.
          2    1    1    2  501    0 -0.72544076139E+01 -0.31859448792E+02 -0.22053205765E+02  0.39420740628E+02  0.00000000000E+00 0. -1.
         -2    1    1    2    0  502  0.72544076139E+01  0.31859448792E+02  0.66165879885E+01  0.33338118480E+02  0.00000000000E+00 0.  1.
</event>
<event>
 4    1  0.1822260E+004  0.2136081E+02  0.7546771E-02  0.1514175E+00
         21   -1    0    0  501  502  0.00000000000E+00  0.00000000000E+00  0.13297690555E+03  0.13297690555E+03  0.00000000000E+00 0.  1.
         21   -1    0    0  502  503 -0.00000000000E+00 -0.00000000000E+00 -0.70134901413E+01  0.70134901413E+01  0.00000000000E+00 0. -1.
          2    1    1    2  501    0 -0.10684913276E+01  0.21334073059E+02  0.11300533180E+03  0.11500647531E+03  0.00000000000E+00 0.  1.
         -2    1    1    2    0  503  0.10684913276E+01 -0.21334073059E+02  0.12958083608E+02  0.24983920385E+02  0.00000000000E+00 0. -1.
</event>
<event>
 4    1  0.1822260E+004  0.2659578E+02  0.7546771E-02  0.1451711E+00
         21   -1    0    0  501  502  0.00000000000E+00  0.00000000000E+00  0.86744684790E+03  0.86744684790E+03  0.00000000000E+00 0.  1.
         21   -1    0    0  502  503 -0.00000000000E+00 -0.00000000000E+00 -0.31466081508E+01  0.31466081508E+01  0.00000000000E+00 0. -1.
          2    1    1    2  501    0 -0.43991898080E+01 -0.26229427806E+02  0.80682320246E+03  0.80726142964E+03  0.00000000000E+00 0.  1.
         -2    1    1    2    0  503  0.43991898080E+01  0.26229427806E+02  0.57477037290E+02  0.63332026413E+02  0.00000000000E+00 0. -1.
</event>
<event>
 4    1  0.1822260E+004  0.2148839E+02  0.7546771E-02  0.1512405E+00
         21   -1    0    0  501  502  0.00000000000E+00  0.00000000000E+00  0.12474442864E+01  0.12474442864E+01  0.00000000000E+00 0.  1.
         21   -1    0    0  502  503 -0.00000000000E+00 -0.00000000000E+00 -0.37041966719E+03  0.37041966719E+03  0.00000000000E+00 0. -1.
          2    1    1    2  501    0  0.16874942470E+01 -0.21422023857E+02 -0.17964137719E+03  0.18092201398E+03  0.00000000000E+00 0.  1.
         -2    1    1    2    0  503 -0.16874942470E+01  0.21422023857E+02 -0.18953084572E+03  0.19074509750E+03  0.00000000000E+00 0. -1.
</event>
<event>
 4    1  0.1822260E+004  0.2270578E+02  0.7546771E-02  0.1496226E+00
         21   -1    0    0  503  502  0.00000000000E+00  0.00000000000E+00  0.39383591248E+00  0.39383591248E+00  0.00000000000E+00 0.  1.
         21   -1    0    0  501  503 -0.00000000000E+00 -0.00000000000E+00 -0.14481811924E+04  0.14481811924E+04  0.00000000000E+00 0. -1.
          2    1    1    2  501    0 -0.19877766057E+02 -0.10973922315E+02 -0.49939941411E+03  0.49991532019E+03  0.00000000000E+00 0.  1.
         -2    1    1    2    0  502  0.19877766057E+02  0.10973922315E+02 -0.94838794240E+03  0.94865970814E+03  0.00000000000E+00 0. -1.
</event>
<event>
 4    1  0.1822260E+004  0.2299434E+02  0.7546771E-02  0.1492569E+00
         21   -1    0    0  501  502  0.00000000000E+00  0.00000000000E+00  0.54618061827E+01  0.54618061827E+01  0.00000000000E+00 0.  1.
         21   -1    0    0  502  503 -0.00000000000E+00 -0.00000000000E+00 -0.12892027815E+03  0.12892027815E+03  0.00000000000E+00 0. -1.
          2    1    1    2  501    0  0.49574705452E+01 -0.22453574335E+02 -0.28194491019E+02  0.36382259941E+02  0.00000000000E+00 0.  1.
         -2    1    1    2    0  503 -0.49574705452E+01  0.22453574335E+02 -0.95263980947E+02  0.97999824390E+02  0.00000000000E+00 0. -1.
</event>
<event>
 4    1  0.1822260E+004  0.2167025E+02  0.7546771E-02  0.1509907E+00
         21   -1    0    0  501  502  0.00000000000E+00  0.00000000000E+00  0.11846633049E+01  0.11846633049E+01  0.00000000000E+00 0.  1.
         21   -1    0    0  502  503 -0.00000000000E+00 -0.00000000000E+00 -0.39897494803E+03  0.39897494803E+03  0.00000000000E+00 0. -1.
          2    1    1    2  501    0  0.47568645730E+01  0.21141716491E+02 -0.21497037237E+03  0.21605985498E+03  0.00000000000E+00 0.  1.
         -2    1    1    2    0  503 -0.47568645730E+01 -0.21141716491E+02 -0.18281991236E+03  0.18409975636E+03  0.00000000000E+00 0. -1.
</event>
<event>
 4    1  0.1822260E+004  0.3202117E+02  0.7546771E-02  0.1402809E+00
         21   -1    0    0  501  502  0.00000000000E+00  0.00000000000E+00  0.52592653878E+01  0.52592653878E+01  0.00000000000E+00 0. -1.
         21   -1    0    0  502  503 -0.00000000000E+00 -0.00000000000E+00 -0.65450672964E+03  0.65450672964E+03  0.00000000000E+00 0.  1.
          2    1    1    2  501    0  0.28925909733E+02 -0.13734894828E+02 -0.48205371823E+02  0.57871525489E+02  0.00000000000E+00 0. -1.
         -2    1    1    2    0  503 -0.28925909733E+02  0.13734894828E+02 -0.60104209243E+03  0.60189446954E+03  0.00000000000E+00 0.  1.
</event>
<event>
 4    1  0.1822260E+004  0.2411085E+02  0.7546771E-02  0.1479001E+00
         21   -1    0    0  503  502  0.00000000000E+00  0.00000000000E+00  0.32060411709E+03  0.32060411709E+03  0.00000000000E+00 0. -1.
         21   -1    0    0  501  503 -0.00000000000E+00 -0.00000000000E+00 -0.32923762951E+01  0.32923762951E+01  0.00000000000E+00 0.  1.
          2    1    1    2  501    0 -0.11808596092E+02 -0.21021180141E+02  0.50107008983E+02  0.55606162477E+02  0.00000000000E+00 0.  1.
         -2    1    1    2    0  502  0.11808596092E+02  0.21021180141E+02  0.26720473181E+03  0.26829033091E+03  0.00000000000E+00 0. -1.
</event>
<event>
 4    1  0.1822260E+004  0.3001015E+02  0.7546771E-02  0.1419508E+00
         21   -1    0    0  501  502  0.00000000000E+00  0.00000000000E+00  0.57087556541E+02  0.57087556541E+02  0.00000000000E+00 0. -1.
         21   -1    0    0  502  503 -0.00000000000E+00 -0.00000000000E+00 -0.33263417646E+02  0.33263417646E+02  0.00000000000E+00 0.  1.
          2    1    1    2  501    0 -0.62306688958E+01 -0.29356218730E+02  0.44667493407E+02  0.53812580130E+02  0.00000000000E+00 0. -1.
         -2    1    1    2    0  503  0.62306688958E+01  0.29356218730E+02 -0.20843354511E+02  0.36538394057E+02  0.00000000000E+00 0.  1.
</event>
<event>
 4    1  0.1822260E+004  0.2060672E+02  0.7546771E-02  0.1524955E+00
         21   -1    0    0  503  502  0.00000000000E+00  0.00000000000E+00  0.17483207215E+02  0.17483207215E+02  0.00000000000E+00 0.  1.
         21   -1    0    0  501  503 -0.00000000000E+00 -0.00000000000E+00 -0.24294815307E+02  0.24294815307E+02  0.00000000000E+00 0. -1.
          2    1    1    2  501    0  0.18359990771E+02 -0.93566892356E+01 -0.37486155683E+01  0.20944904231E+02  0.00000000000E+00 0.  1.
         -2    1    1    2    0  502 -0.18359990771E+02  0.93566892356E+01 -0.30629925233E+01  0.20833118292E+02  0.00000000000E+00 0. -1.
</event>
<event>
 4    1  0.1822260E+004  0.3856613E+02  0.7546771E-02  0.1357099E+00
         21   -1    0    0  501  502  0.00000000000E+00  0.00000000000E+00  0.17907833792E+03  0.17907833792E+03  0.00000000000E+00 0. -1.
         21   -1    0    0  502  503 -0.00000000000E+00 -0.00000000000E+00 -0.99938948067E+01  0.99938948067E+01  0.00000000000E+00 0.  1.
          2    1    1    2  501    0 -0.30913790937E+02  0.23058268666E+02  0.12339833963E+03  0.12928455611E+03  0.00000000000E+00 0.  1.
         -2    1    1    2    0  503  0.30913790937E+02 -0.23058268666E+02  0.45686103474E+02  0.59787676612E+02  0.00000000000E+00 0. -1.
</event>
<event>
 4    1  0.1822260E+004  0.2436294E+02  0.7546771E-02  0.1476058E+00
         21   -1    0    0  503  502  0.00000000000E+00  0.00000000000E+00  0.91191290533E+02  0.91191290533E+02  0.00000000000E+00 0.  1.
         21   -1    0    0  501  503 -0.00000000000E+00 -0.00000000000E+00 -0.10706108370E+02  0.10706108370E+02  0.00000000000E+00 0. -1.
          2    1    1    2  501    0  0.20730882920E+02 -0.12797782212E+02  0.83419927225E+01  0.25751535464E+02  0.00000000000E+00 0.  1.
         -2    1    1    2    0  502 -0.20730882920E+02  0.12797782212E+02  0.72143189440E+02  0.76145863438E+02  0.00000000000E+00 0. -1.
</event>
<event>
 4    1  0.1822260E+004  0.4151064E+02  0.7546771E-02  0.1339854E+00
         21   -1    0    0  501  502  0.00000000000E+00  0.00000000000E+00  0.75025928950E+01  0.75025928950E+01  0.00000000000E+00 0. -1.
         21   -1    0    0  502  503 -0.00000000000E+00 -0.00000000000E+00 -0.30980001978E+03  0.30980001978E+03  0.00000000000E+00 0.  1.
          2    1    1    2  501    0 -0.35003732995E+02  0.22313041122E+02 -0.23183430721E+03  0.23552129231E+03  0.00000000000E+00 0.  1.
         -2    1    1    2    0  503  0.35003732995E+02 -0.22313041122E+02 -0.70463119670E+02  0.81781320369E+02  0.00000000000E+00 0. -1.
</event>
<event>
 4    1  0.1822260E+004  0.2738761E+02  0.7546771E-02  0.1443753E+00
         21   -1    0    0  503  502  0.00000000000E+00  0.00000000000E+00  0.35459820661E+02  0.35459820661E+02  0.00000000000E+00 0. -1.
         21   -1    0    0  501  503 -0.00000000000E+00 -0.00000000000E+00 -0.46659746919E+02  0.46659746919E+02  0.00000000000E+00 0.  1.
          2    1    1    2  501    0 -0.91987979804E+01  0.25796577053E+02 -0.35957957826E+02  0.45200177023E+02  0.00000000000E+00 0.  1.
         -2    1    1    2    0  502  0.91987979804E+01 -0.25796577053E+02  0.24758031569E+02  0.36919390557E+02  0.00000000000E+00 0. -1.
</event>
<event>
 4    1  0.1822260E+004  0.3674207E+02  0.7546771E-02  0.1368713E+00
         21   -1    0    0  503  502  0.00000000000E+00  0.00000000000E+00  0.33632739166E+02  0.33632739166E+02  0.00000000000E+00 0.  1.
         21   -1    0    0  501  503 -0.00000000000E+00 -0.00000000000E+00 -0.81672606655E+02  0.81672606655E+02  0.00000000000E+00 0. -1.
          2    1    1    2  501    0  0.12994517619E+02 -0.34367456272E+02 -0.65133186231E+02  0.74781759055E+02  0.00000000000E+00 0.  1.
         -2    1    1    2    0  502 -0.12994517619E+02  0.34367456272E+02  0.17093318741E+02  0.40523586766E+02  0.00000000000E+00 0. -1.
</event>
<event>
 4    1  0.1822260E+004  0.2955956E+02  0.7546771E-02  0.1423463E+00
         21   -1    0    0  503  502  0.00000000000E+00  0.00000000000E+00  0.19068346497E+03  0.19068346497E+03  0.00000000000E+00 0.  1.
         21   -1    0    0  501  503 -0.00000000000E+00 -0.00000000000E+00 -0.45832230176E+01  0.45832230176E+01  0.00000000000E+00 0. -1.
          2    1    1    2  501    0  0.22547844857E+02  0.19114449048E+02  0.91659197885E+02  0.96307715303E+02  0.00000000000E+00 0. -1.
         -2    1    1    2    0  502 -0.22547844857E+02 -0.19114449048E+02  0.94441044064E+02  0.98958972681E+02  0.00000000000E+00 0.  1.
</event>
<event>
 4    1  0.1822260E+004  0.2068223E+02  0.7546771E-02  0.1523850E+00
         21   -1    0    0  501  502  0.00000000000E+00  0.00000000000E+00  0.18552398929E+01  0.18552398929E+01  0.00000000000E+00 0. -1.
         21   -1    0    0  502  503 -0.00000000000E+00 -0.00000000000E+00 -0.23185620133E+03  0.23185620133E+03  0.00000000000E+00 0.  1.
          2    1    1    2  501    0  0.20651488219E+02 -0.11273281759E+01 -0.10628269372E+03  0.10827634007E+03  0.00000000000E+00 0.  1.
         -2    1    1    2    0  503 -0.20651488219E+02  0.11273281759E+01 -0.12371826772E+03  0.12543510115E+03  0.00000000000E+00 0. -1.
</event>
<event>
 4    1  0.1822260E+004  0.2702136E+02  0.7546771E-02  0.1447394E+00
         21   -1    0    0  501  502  0.00000000000E+00  0.00000000000E+00  0.43429187793E+03  0.43429187793E+03  0.00000000000E+00 0. -1.
         21   -1    0    0  502  503 -0.00000000000E+00 -0.00000000000E+00 -0.45468870329E+01  0.45468870329E+01  0.00000000000E+00 0.  1.
          2    1    1    2  501    0 -0.62799020590E+01  0.26281486297E+02  0.38906457922E+03  0.39000179550E+03  0.00000000000E+00 0. -1.
         -2    1    1    2    0  503  0.62799020590E+01 -0.26281486297E+02  0.40680411678E+02  0.48836969461E+02  0.00000000000E+00 0.  1.
</event>
<event>
 4    1  0.1822260E+004  0.2377874E+02  0.7546771E-02  0.1482944E+00
         21   -1    0    0  503  502  0.00000000000E+00  0.00000000000E+00  0.29155953232E+02  0.29155953232E+02  0.00000000000E+00 0. -1.
         21   -1    0    0  501  503 -0.00000000000E+00 -0.00000000000E+00 -0.25884661307E+02  0.25884661307E+02  0.00000000000E+00 0.  1.
          2    1    1    2  501    0  0.57665781272E+01  0.23068917154E+02 -0.12146028125E+02  0.26701205239E+02  0.00000000000E+00 0.  1.
         -2    1    1    2    0  502 -0.57665781272E+01 -0.23068917154E+02  0.15417320050E+02  0.28339409300E+02  0.00000000000E+00 0. -1.
</event>
<event>
 4    1  0.1822260E+004  0.2453093E+02  0.7546771E-02  0.1474120E+00
         21   -1    0    0  503  502  0.00000000000E+00  0.00000000000E+00  0.68328219731E+03  0.68328219731E+03  0.00000000000E+00 0.  1.
         21   -1    0    0  501  503 -0.00000000000E+00 -0.00000000000E+00 -0.16642359711E+01  0.16642359711E+01  0.00000000000E+00 0. -1.
          2    1    1    2  501    0 -0.21813250331E+02 -0.11222674685E+02  0.10581931820E+03  0.10862547777E+03  0.00000000000E+00 0. -1.
         -2    1    1    2    0  502  0.21813250331E+02  0.11222674685E+02  0.57579864314E+03  0.57632095551E+03  0.00000000000E+00 0.  1.
</event>
<event>
 4    1  0.1822260E+004  0.5229268E+02  0.7546771E-02  0.1288527E+00
         21   -1    0    0  501  502  0.00000000000E+00  0.00000000000E+00  0.79620446077E+01  0.79620446077E+01  0.00000000000E+00 0. -1.
         21   -1    0    0  502  503 -0.00000000000E+00 -0.00000000000E+00 -0.38200048951E+03  0.38200048951E+03  0.00000000000E+00 0.  1.
          2    1    1    2  501    0 -0.39957239862E+02 -0.33733421188E+02 -0.12507457030E+03  0.13556611988E+03  0.00000000000E+00 0.  1.
         -2    1    1    2    0  503  0.39957239862E+02  0.33733421188E+02 -0.24896387460E+03  0.25439641424E+03  0.00000000000E+00 0. -1.
</event>
<event>
 4    1  0.1822260E+004  0.2041742E+02  0.7546771E-02  0.1527747E+00
         21   -1    0    0  503  502  0.00000000000E+00  0.00000000000E+00  0.81327005987E+02  0.81327005987E+02  0.00000000000E+00 0. -1.
         21   -1    0    0  501  503 -0.00000000000E+00 -0.00000000000E+00 -0.52373465806E+01  0.52373465806E+01  0.00000000000E+00 0.  1.
          2    1    1    2  501    0  0.53436097273E+00  0.20410428946E+02  0.44359598258E+02  0.48832828190E+02  0.00000000000E+00 0.  1.
         -2    1    1    2    0  502 -0.53436097273E+00 -0.20410428946E+02  0.31730061148E+02  0.37731524377E+02  0.00000000000E+00 0. -1.
</event>
<event>
 4    1  0.1822260E+004  0.2809257E+02  0.7546771E-02  0.1436931E+00
         21   -1    0    0  501  502  0.00000000000E+00  0.00000000000E+00  0.31700556909E+03  0.31700556909E+03  0.00000000000E+00 0. -1.
         21   -1    0    0  502  503 -0.00000000000E+00 -0.00000000000E+00 -0.48096902892E+01  0.48096902892E+01  0.00000000000E+00 0.  1.
          2    1    1    2  501    0 -0.23827951212E+02  0.14880237826E+02  0.26785570424E+03  0.26932484295E+03  0.00000000000E+00 0. -1.
         -2    1    1    2    0  503  0.23827951212E+02 -0.14880237826E+02  0.44340174561E+02  0.52490416428E+02  0.00000000000E+00 0.  1.
</event>
<event>
 4    1  0.1822260E+004  0.2550006E+02  0.7546771E-02  0.1463286E+00
         21   -1    0    0  503  502  0.00000000000E+00  0.00000000000E+00  0.10496800377E+03  0.10496800377E+03  0.00000000000E+00 0. -1.
         21   -1    0    0  501  503 -0.00000000000E+00 -0.00000000000E+00 -0.26656612019E+02  0.26656612019E+02  0.00000000000E+00 0.  1.
          2    1    1    2  501    0 -0.19095477634E+01  0.25428458427E+02 -0.18504615820E+02  0.31506724318E+02  0.00000000000E+00 0.  1.
         -2    1    1    2    0  502  0.19095477634E+01 -0.25428458427E+02  0.96816007572E+02  0.10011789147E+03  0.00000000000E+00 0. -1.
</event>
<event>
 4    1  0.1822260E+004  0.6494122E+02  0.7546771E-02  0.1243909E+00
         21   -1    0    0  501  502  0.00000000000E+00  0.00000000000E+00  0.56987116454E+02  0.56987116454E+02  0.00000000000E+00 0.  1.
         21   -1    0    0  502  503 -0.00000000000E+00 -0.00000000000E+00 -0.83242656967E+02  0.83242656967E+02  0.00000000000E+00 0. -1.
          2    1    1    2  501    0  0.38705199269E+01 -0.64825771413E+02 -0.36484164958E+02  0.74487957795E+02  0.00000000000E+00 0. -1.
         -2    1    1    2    0  503 -0.38705199269E+01  0.64825771413E+02  0.10228624445E+02  0.65741815626E+02  0.00000000000E+00 0.  1.
</event>
<event>
 4    1  0.1822260E+004  0.2014461E+02  0.7546771E-02  0.1531837E+00
         21   -1    0    0  501  502  0.00000000000E+00  0.00000000000E+00  0.13432225547E+03  0.13432225547E+03  0.00000000000E+00 0. -1.
         21   -1    0    0  502  503 -0.00000000000E+00 -0.00000000000E+00 -0.11424574132E+02  0.11424574132E+02  0.00000000000E+00 0.  1.
          2    1    1    2  501    0  0.13376226721E+02 -0.15062596301E+02  0.12394851015E+03  0.12557483194E+03  0.00000000000E+00 0. -1.
         -2    1    1    2    0  503 -0.13376226721E+02  0.15062596301E+02 -0.10508288071E+01  0.20171997665E+02  0.00000000000E+00 0.  1.
</event>
<event>
 4    1  0.1822260E+004  0.2004947E+02  0.7546771E-02  0.1533281E+00
         21   -1    0    0  503  502  0.00000000000E+00  0.00000000000E+00  0.92617474390E+01  0.92617474390E+01  0.00000000000E+00 0.  1.
         21   -1    0    0  501  503 -0.00000000000E+00 -0.00000000000E+00 -0.48726237338E+02  0.48726237338E+02  0.00000000000E+00 0. -1.
          2    1    1    2  501    0 -0.10727641714E+02  0.16938091775E+02 -0.29316151505E+02  0.35516446736E+02  0.00000000000E+00 0. -1.
         -2    1    1    2    0  502  0.10727641714E+02 -0.16938091775E+02 -0.10148338394E+02  0.22471538041E+02  0.00000000000E+00 0.  1.
</event>
<event>
 4    1  0.1822260E+004  0.2112739E+02  0.7546771E-02  0.1517454E+00
         21   -1    0    0  503  502  0.00000000000E+00  0.00000000000E+00  0.15559539066E+03  0.15559539066E+03  0.00000000000E+00 0.  1.
         21   -1    0    0  501  503 -0.00000000000E+00 -0.00000000000E+00 -0.31873874829E+01  0.31873874829E+01  0.00000000000E+00 0. -1.
          2    1    1    2  501    0 -0.19320917730E+02 -0.85480248551E+01  0.51102814207E+02  0.55297958468E+02  0.00000000000E+00 0. -1.
         -2    1    1    2    0  502  0.19320917730E+02  0.85480248551E+01  0.10130518897E+03  0.10348481968E+03  0.00000000000E+00 0.  1.
</event>
<event>
 4    1  0.1822260E+004  0.2325245E+02  0.7546771E-02  0.1489352E+00
         21   -1    0    0  503  502  0.00000000000E+00  0.00000000000E+00  0.17309446490E+02  0.17309446490E+02  0.00000000000E+00 0.  1.
         21   -1    0    0  501  503 -0.00000000000E+00 -0.00000000000E+00 -0.53356218172E+02  0.53356218172E+02  0.00000000000E+00 0. -1.
          2    1    1    2  501    0  0.22603149587E+02 -0.54565496572E+01 -0.40773392249E+02  0.46937680183E+02  0.00000000000E+00 0. -1.
         -2    1    1    2    0  502 -0.22603149587E+02  0.54565496572E+01  0.47266205672E+01  0.23727984479E+02  0.00000000000E+00 0.  1.
</event>
<event>
 4    1  0.1822260E+004  0.2569640E+02  0.7546771E-02  0.1461161E+00
         21   -1    0    0  503  502  0.00000000000E+00  0.00000000000E+00  0.34441312454E+03  0.34441312454E+03  0.00000000000E+00 0.  1.
         21   -1    0    0  501  503 -0.00000000000E+00 -0.00000000000E+00 -0.21400552406E+01  0.21400552406E+01  0.00000000000E+00 0. -1.
          2    1    1    2  501    0 -0.24060175389E+02 -0.90229188344E+01  0.11521882147E+03  0.11804948931E+03  0.00000000000E+00 0.  1.
         -2    1    1    2    0  502  0.24060175389E+02  0.90229188344E+01  0.22705424782E+03  0.22850369047E+03  0.00000000000E+00 0. -1.
</event>
<event>
 4    1  0.1822260E+004  0.2915631E+02  0.7546771E-02  0.1427072E+00
         21   -1    0    0  503  502  0.00000000000E+00  0.00000000000E+00  0.12120919114E+03  0.12120919114E+03  0.00000000000E+00 0. -1.
         21   -1    0    0  501  503 -0.00000000000E+00 -0.00000000000E+00 -0.13777544810E+02  0.13777544810E+02  0.00000000000E+00 0.  1.
          2    1    1    2  501    0 -0.34625416250E+01 -0.28949976787E+02  0.64245339732E+01  0.29855736253E+02  0.00000000000E+00 0.  1.
         -2    1    1    2    0  502  0.34625416250E+01  0.28949976787E+02  0.10100711236E+03  0.10513099970E+03  0.00000000000E+00 0. -1.
</event>
<event>
 4    1  0.1822260E+004  0.2044471E+02  0.7546771E-02  0.1527343E+00
         21   -1    0    0  501  502  0.00000000000E+00  0.00000000000E+00  0.19242901979E+03  0.19242901979E+03  0.00000000000E+00 0.  1.
         21   -1    0    0  502  503 -0.00000000000E+00 -0.00000000000E+00 -0.68068536554E+01  0.68068536554E+01  0.00000000000E+00 0. -1.
          2    1    1    2  501    0  0.11224631194E+02 -0.17087821410E+02  0.17501168667E+03  0.17620180606E+03  0.00000000000E+00 0.  1.
         -2    1    1    2    0  503 -0.11224631194E+02  0.17087821410E+02  0.10610479462E+02  0.23034067387E+02  0.00000000000E+00 0. -1.
</event>
<event>
 4    1  0.1822260E+004  0.2575666E+02  0.7546771E-02  0.1460514E+00
         21   -1    0    0  503  502  0.00000000000E+00  0.00000000000E+00  0.30187928969E+03  0.30187928969E+03  0.00000000000E+00 0.  1.
         21   -1    0    0  501  503 -0.00000000000E+00 -0.00000000000E+00 -0.30115774409E+01  0.30115774409E+01  0.00000000000E+00 0. -1.
          2    1    1    2  501    0 -0.25909058282E+01 -0.25626015459E+02  0.70178698711E+02  0.74755971093E+02  0.00000000000E+00 0. -1.
         -2    1    1    2    0  502  0.25909058282E+01  0.25626015459E+02  0.22868901353E+03  0.23013489603E+03  0.00000000000E+00 0.  1.
</event>
<event>
 4    1  0.1822260E+004  0.2259371E+02  0.7546771E-02  0.1497664E+00
         21   -1    0    0  503  502  0.00000000000E+00  0.00000000000E+00  0.19710548854E+01  0.19710548854E+01  0.00000000000E+00 0.  1.
         21   -1    0    0  501  503 -0.00000000000E+00 -0.00000000000E+00 -0.48675421709E+03  0.48675421709E+03  0.00000000000E+00 0. -1.
          2    1    1    2  501    0  0.19440246242E+02  0.11513137447E+02 -0.40954934603E+03  0.41017208869E+03  0.00000000000E+00 0. -1.
         -2    1    1    2    0  502 -0.19440246242E+02 -0.11513137447E+02 -0.75233816168E+02  0.78553183277E+02  0.00000000000E+00 0.  1.
</event>
<event>
 4    1  0.1822260E+004  0.2889158E+02  0.7546771E-02  0.1429479E+00
         21   -1    0    0  501  502  0.00000000000E+00  0.00000000000E+00  0.70135268741E+02  0.70135268741E+02  0.00000000000E+00 0. -1.
         21   -1    0    0  502  503 -0.00000000000E+00 -0.00000000000E+00 -0.33240495913E+02  0.33240495913E+02  0.00000000000E+00 0.  1.
          2    1    1    2  501    0 -0.16678516818E+02 -0.23591321706E+02  0.59860773486E+02  0.66468305119E+02  0.00000000000E+00 0. -1.
         -2    1    1    2    0  503  0.16678516818E+02  0.23591321706E+02 -0.22966000658E+02  0.36907459535E+02  0.00000000000E+00 0.  1.
</event>
<event>
 4    1  0.1822260E+004  0.3029393E+02  0.7546771E-02  0.1417059E+00
         21   -1    0    0  503  502  0.00000000000E+00  0.00000000000E+00  0.69823889081E+02  0.69823889081E+02  0.00000000000E+00 0. -1.
         21   -1    0    0  501  503 -0.00000000000E+00 -0.00000000000E+00 -0.43093523846E+02  0.43093523846E+02  0.00000000000E+00 0.  1.
          2    1    1    2  501    0  0.27403549467E+00  0.30292689053E+02 -0.33702666770E+02  0.45316573711E+02  0.00000000000E+00 0.  1.
         -2    1    1    2    0  502 -0.27403549467E+00 -0.30292689053E+02  0.60433032005E+02  0.67600839217E+02  0.00000000000E+00 0. -1.
</event>
<event>
 4    1  0.1822260E+004  0.3373957E+02  0.7546771E-02  0.1389648E+00
         21   -1    0    0  501  502  0.00000000000E+00  0.00000000000E+00  0.23415880019E+03  0.23415880019E+03  0.00000000000E+00 0.  1.
         21   -1    0    0  502  503 -0.00000000000E+00 -0.00000000000E+00 -0.53650388821E+01  0.53650388821E+01  0.00000000000E+00 0. -1.
          2    1    1    2  501    0  0.20584869227E+02 -0.26732411067E+02  0.15108765310E+03  0.15480903579E+03  0.00000000000E+00 0. -1.
         -2    1    1    2    0  503 -0.20584869227E+02  0.26732411067E+02  0.77706108206E+02  0.84714803282E+02  0.00000000000E+00 0.  1.
</event>
<event>
 4    1  0.1822260E+004  0.2048088E+02  0.7546771E-02  0.1526807E+00
         21   -1    0    0  501  502  0.00000000000E+00  0.00000000000E+00  0.28535701389E+01  0.28535701389E+01  0.00000000000E+00 0. -1.
         21   -1    0    0  502  503 -0.00000000000E+00 -0.00000000000E+00 -0.16686609013E+03  0.16686609013E+03  0.00000000000E+00 0.  1.
          2    1    1    2  501    0  0.14782097432E+02  0.14175894682E+02 -0.52723868116E+02  0.56562113324E+02  0.00000000000E+00 0. -1.
         -2    1    1    2    0  503 -0.14782097432E+02 -0.14175894682E+02 -0.11128865188E+03  0.11315754695E+03  0.00000000000E+00 0.  1.
</event>
<event>
 4    1  0.1822260E+004  0.2143295E+02  0.7546771E-02  0.1513172E+00
         21   -1    0    0  501  502  0.00000000000E+00  0.00000000000E+00  0.28822686982E+02  0.28822686982E+02  0.00000000000E+00 0.  1.
         21   -1    0    0  502  503 -0.00000000000E+00 -0.00000000000E+00 -0.20287961056E+02  0.20287961056E+02  0.00000000000E+00 0. -1.
          2    1    1    2  501    0 -0.58862214488E+00  0.21424861299E+02  0.15637809304E+02  0.26531344435E+02  0.00000000000E+00 0.  1.
         -2    1    1    2    0  503  0.58862214488E+00 -0.21424861299E+02 -0.71030833773E+01  0.22579303603E+02  0.00000000000E+00 0. -1.
</event>
<event>
 4    1  0.1822260E+004  0.6819983E+02  0.7546771E-02  0.1234259E+00
         21   -1    0    0  503  502  0.00000000000E+00  0.00000000000E+00  0.12479431157E+03  0.12479431157E+03  0.00000000000E+00 0. -1.
         21   -1    0    0  501  503 -0.00000000000E+00 -0.00000000000E+00 -0.68435597915E+02  0.68435597915E+02  0.00000000000E+00 0.  1.
          2    1    1    2  501    0 -0.63305190928E+02 -0.25370646834E+02 -0.37018546805E+02  0.77598902871E+02  0.00000000000E+00 0.  1.
         -2    1    1    2    0  502  0.63305190928E+02  0.25370646834E+02  0.93377260459E+02  0.11563100661E+03  0.00000000000E+00 0. -1.
</event>
<event>
 4    1  0.1822260E+004  0.2564095E+02  0.7546771E-02  0.1461759E+00
         21   -1    0    0  501  502  0.00000000000E+00  0.00000000000E+00  0.21734440711E+02  0.21734440711E+02  0.00000000000E+00 0. -1.
         21   -1    0    0  502  503 -0.00000000000E+00 -0.00000000000E+00 -0.33323674775E+02  0.33323674775E+02  0.00000000000E+00 0.  1.
          2    1    1    2  501    0  0.83904224275E+01 -0.24229303213E+02  0.25666388708E+01  0.25769089192E+02  0.00000000000E+00 0. -1.
         -2    1    1    2    0  503 -0.83904224275E+01  0.24229303213E+02 -0.14155872934E+02  0.29289026294E+02  0.00000000000E+00 0.  1.
</event>
<event>
 4    1  0.1822260E+004  0.2150828E+02  0.7546771E-02  0.1512130E+00
         21   -1    0    0  503  502  0.00000000000E+00  0.00000000000E+00  0.39451834620E+02  0.39451834620E+02  0.00000000000E+00 0.  1.
         21   -1    0    0  501  503 -0.00000000000E+00 -0.00000000000E+00 -0.11669954017E+03  0.11669954017E+03  0.00000000000E+00 0. -1.
          2    1    1    2  501    0  0.66770414443E+01 -0.20445613281E+02 -0.11267324402E+03  0.11470774125E+03  0.00000000000E+00 0. -1.
         -2    1    1    2    0  502 -0.66770414443E+01  0.20445613281E+02  0.35425538471E+02  0.41443633538E+02  0.00000000000E+00 0.  1.
</event>
<event>
 4    1  0.1822260E+004  0.2201382E+02  0.7546771E-02  0.1505267E+00
         21   -1    0    0  501  502  0.00000000000E+00  0.00000000000E+00  0.57838328322E+01  0.57838328322E+01  0.00000000000E+00 0. -1.
         21   -1    0    0  502  503 -0.00000000000E+00 -0.00000000000E+00 -0.83881764535E+02  0.83881764535E+02  0.00000000000E+00 0.  1.
          2    1    1    2  501    0  0.13410015294E+02 -0.17457941032E+02 -0.40558321272E+02  0.46147433728E+02  0.00000000000E+00 0.  1.
         -2    1    1    2    0  503 -0.13410015294E+02  0.17457941032E+02 -0.37539610431E+02  0.43518163640E+02  0.00000000000E+00 0. -1.
</event>
<event>
 4    1  0.1822260E+004  0.2815431E+02  0.7546771E-02  0.1436345E+00
         21   -1    0    0  503  502  0.00000000000E+00  0.00000000000E+00  0.15853747939E+03  0.15853747939E+03  0.00000000000E+00 0. -1.
         21   -1    0    0  501  503 -0.00000000000E+00 -0.00000000000E+00 -0.51155228679E+01  0.51155228679E+01  0.00000000000E+00 0.  1.
          2    1    1    2  501    0  0.28128439767E+02  0.12066930208E+01  0.64406999061E+02  0.70291726112E+02  0.00000000000E+00 0. -1.
         -2    1    1    2    0  502 -0.28128439767E+02 -0.12066930208E+01  0.89014957459E+02  0.93361276144E+02  0.00000000000E+00 0.  1.
</event>
<event>
 4    1  0.1822260E+004  0.2045776E+02  0.7546771E-02  0.1527149E+00
         21   -1    0    0  501  502  0.00000000000E+00  0.00000000000E+00  0.29732209148E+02  0.29732209148E+02  0.00000000000E+00 0.  1.
         21   -1    0    0  502  503 -0.00000000000E+00 -0.00000000000E+00 -0.54725017491E+02  0.54725017491E+02  0.00000000000E+00 0. -1.
          2    1    1    2  501    0  0.19508191383E+02  0.61603970499E+01  0.23898216323E+02  0.31458619904E+02  0.00000000000E+00 0.  1.
         -2    1    1    2    0  503 -0.19508191383E+02 -0.61603970499E+01 -0.48891024666E+02  0.52998606734E+02  0.00000000000E+00 0. -1.
</event>
<event>
 4    1  0.1822260E+004  0.2549997E+02  0.7546771E-02  0.1463287E+00
         21   -1    0    0  503  502  0.00000000000E+00  0.00000000000E+00  0.15479269478E+04  0.15479269478E+04  0.00000000000E+00 0.  1.
         21   -1    0    0  501  503 -0.00000000000E+00 -0.00000000000E+00 -0.46833416898E+00  0.46833416898E+00  0.00000000000E+00 0. -1.
          2    1    1    2  501    0  0.25328616076E+02 -0.29512069305E+01  0.52521287220E+03  0.52583154103E+03  0.00000000000E+00 0. -1.
         -2    1    1    2    0  502 -0.25328616076E+02  0.29512069305E+01  0.10222457414E+04  0.10225637410E+04  0.00000000000E+00 0.  1.
</event>
<event>
 4    1  0.1822260E+004  0.2819287E+02  0.7546771E-02  0.1435980E+00
         21   -1    0    0  501  502  0.00000000000E+00  0.00000000000E+00  0.20414962970E+03  0.20414962970E+03  0.00000000000E+00 0.  1.
         21   -1    0    0  502  503 -0.00000000000E+00 -0.00000000000E+00 -0.39260616501E+01  0.39260616501E+01  0.00000000000E+00 0. -1.
          2    1    1    2  501    0  0.10895870559E+02 -0.26002270547E+02  0.90623887226E+02  0.94907992313E+02  0.00000000000E+00 0.  1.
         -2    1    1    2    0  503 -0.10895870559E+02  0.26002270547E+02  0.10959968083E+03  0.11316769904E+03  0.00000000000E+00 0. -1.
</event>
<event>
 4    1  0.1822260E+004  0.2085554E+02  0.7546771E-02  0.1521337E+00
         21   -1    0    0  503  502  0.00000000000E+00  0.00000000000E+00  0.41832566624E+03  0.41832566624E+03  0.00000000000E+00 0. -1.
         21   -1    0    0  501  503 -0.00000000000E+00 -0.00000000000E+00 -0.16635656490E+01  0.16635656490E+01  0.00000000000E+00 0.  1.
          2    1    1    2  501    0  0.13434947357E+02 -0.15951665787E+02  0.79738186154E+02  0.82420457309E+02  0.00000000000E+00 0.  1.
         -2    1    1    2    0  502 -0.13434947357E+02  0.15951665787E+02  0.33692391444E+03  0.33756877458E+03  0.00000000000E+00 0. -1.
</event>
<event>
 4    1  0.1822260E+004  0.2130184E+02  0.7546771E-02  0.1514999E+00
         21   -1    0    0  501  502  0.00000000000E+00  0.00000000000E+00  0.93501389346E+01  0.93501389346E+01  0.00000000000E+00 0. -1.
         21   -1    0    0  502  503 -0.00000000000E+00 -0.00000000000E+00 -0.54122703962E+02  0.54122703962E+02  0.00000000000E+00 0.  1.
          2    1    1    2  501    0  0.18243488782E+02  0.10997440071E+02 -0.32587519724E+02  0.38932184794E+02  0.00000000000E+00 0. -1.
         -2    1    1    2    0  503 -0.18243488782E+02 -0.10997440071E+02 -0.12185045303E+02  0.24540658102E+02  0.00000000000E+00 0.  1.
</event>
<event>
 4    1  0.1822260E+004  0.2599717E+02  0.7546771E-02  0.1457950E+00
         21   -1    0    0  503  502  0.00000000000E+00  0.00000000000E+00  0.14285979077E+03  0.14285979077E+03  0.00000000000E+00 0.  1.
         21   -1    0    0  501  503 -0.00000000000E+00 -0.00000000000E+00 -0.70953705896E+01  0.70953705896E+01  0.00000000000E+00 0. -1.
          2    1    1    2  501    0  0.24978191827E+02  0.72071419784E+01  0.24599704272E+02  0.35791038162E+02  0.00000000000E+00 0. -1.
         -2    1    1    2    0  502 -0.24978191827E+02 -0.72071419784E+01  0.11116471590E+03  0.11416412319E+03  0.00000000000E+00 0.  1.
</event>
<event>
 4    1  0.1822260E+004  0.3682908E+02  0.7546771E-02  0.1368141E+00
         21   -1    0    0  501  502  0.00000000000E+00  0.00000000000E+00  0.13158424592E+03  0.13158424592E+03  0.00000000000E+00 0.  1.
         21   -1    0    0  502  503 -0.00000000000E+00 -0.00000000000E+00 -0.39665078442E+02  0.39665078442E+02  0.00000000000E+00 0. -1.
          2    1    1    2  501    0  0.34863977473E+02 -0.11869474576E+02  0.11962277230E+03  0.12516384864E+03  0.00000000000E+00 0.  1.
         -2    1    1    2    0  503 -0.34863977473E+02  0.11869474576E+02 -0.27703604829E+02  0.46085475721E+02  0.00000000000E+00 0. -1.
</event>
<event>
 4    1  0.1822260E+004  0.3350536E+02  0.7546771E-02  0.1391387E+00
         21   -1    0    0  501  502  0.00000000000E+00  0.00000000000E+00  0.15064245578E+03  0.15064245578E+03  0.00000000000E+00 0. -1.
         21   -1    0    0  502  503 -0.00000000000E+00 -0.00000000000E+00 -0.86816453705E+01  0.86816453705E+01  0.00000000000E+00 0.  1.
          2    1    1    2  501    0 -0.18656610958E+02  0.27830564658E+02  0.10095923994E+03  0.10637376364E+03  0.00000000000E+00 0. -1.
         -2    1    1    2    0  503  0.18656610958E+02 -0.27830564658E+02  0.41001570475E+02  0.52950337516E+02  0.00000000000E+00 0.  1.
</event>
<event>
 4    1  0.1822260E+004  0.2022241E+02  0.7546771E-02  0.1530662E+00
         21   -1    0    0  501  502  0.00000000000E+00  0.00000000000E+00  0.99102325586E+02  0.99102325586E+02  0.00000000000E+00 0. -1.
         21   -1    0    0  502  503 -0.00000000000E+00 -0.00000000000E+00 -0.69067964201E+01  0.69067964201E+01  0.00000000000E+00 0.  1.
          2    1    1    2  501    0  0.11365763187E+02 -0.16726190874E+02  0.79727251242E+02  0.82251933865E+02  0.00000000000E+00 0. -1.
         -2    1    1    2    0  503 -0.11365763187E+02  0.16726190874E+02  0.12468277924E+02  0.23757188141E+02  0.00000000000E+00 0.  1.
</event>
<event>
 4    1  0.1822260E+004  0.2299823E+02  0.7546771E-02  0.1492520E+00
         21   -1    0    0  501  502  0.00000000000E+00  0.00000000000E+00  0.43042709809E+03  0.43042709809E+03  0.00000000000E+00 0. -1.
         21   -1    0    0  502  503 -0.00000000000E+00 -0.00000000000E+00 -0.25781471240E+01  0.25781471240E+01  0.00000000000E+00 0.  1.
          2    1    1    2  501    0  0.19062175828E+02 -0.12866704988E+02  0.37055178323E+03  0.37126478786E+03  0.00000000000E+00 0. -1.
         -2    1    1    2    0  503 -0.19062175828E+02  0.12866704988E+02  0.57297167731E+02  0.61740457356E+02  0.00000000000E+00 0.  1.
</event>
<event>
 4    1  0.1822260E+004  0.2114681E+02  0.7546771E-02  0.1517179E+00
         21   -1    0    0  501  502  0.00000000000E+00  0.00000000000E+00  0.27092288926E+02  0.27092288926E+02  0.00000000000E+00 0.  1.
         21   -1    0    0  502  503 -0.00000000000E+00 -0.00000000000E+00 -0.15438197986E+03  0.15438197986E+03  0.00000000000E+00 0. -1.
          2    1    1    2  501    0 -0.17095226996E+02  0.12447528778E+02  0.22104521115E+02  0.30590809281E+02  0.00000000000E+00 0.  1.
         -2    1    1    2    0  503  0.17095226996E+02 -0.12447528778E+02 -0.14939421205E+03  0.15088345951E+03  0.00000000000E+00 0. -1.
</event>
<event>
 4    1  0.1822260E+004  0.6774008E+02  0.7546771E-02  0.1235583E+00
         21   -1    0    0  503  502  0.00000000000E+00  0.00000000000E+00  0.25900736279E+03  0.25900736279E+03  0.00000000000E+00 0. -1.
         21   -1    0    0  501  503 -0.00000000000E+00 -0.00000000000E+00 -0.22924476471E+02  0.22924476471E+02  0.00000000000E+00 0.  1.
          2    1    1    2  501    0 -0.40503660250E+02  0.54297072732E+02  0.50852692947E+02  0.84703689299E+02  0.00000000000E+00 0.  1.
         -2    1    1    2    0  502  0.40503660250E+02 -0.54297072732E+02  0.18523019338E+03  0.19722814997E+03  0.00000000000E+00 0. -1.
</event>
<event>
 4    1  0.1822260E+004  0.2076890E+02  0.7546771E-02  0.1522590E+00
         21   -1    0    0  501  502  0.00000000000E+00  0.00000000000E+00  0.64594080128E+01  0.64594080128E+01  0.00000000000E+00 0.  1.
         21   -1    0    0  502  503 -0.00000000000E+00 -0.00000000000E+00 -0.12215676826E+03  0.12215676826E+03  0.00000000000E+00 0. -1.
          2    1    1    2  501    0  0.18158650705E+02  0.10080199674E+02 -0.14549659956E+02  0.25358225997E+02  0.00000000000E+00 0.  1.
         -2    1    1    2    0  503 -0.18158650705E+02 -0.10080199674E+02 -0.10114770029E+03  0.10325795027E+03  0.00000000000E+00 0. -1.
</event>
<event>
 4    1  0.1822260E+004  0.2715778E+02  0.7546771E-02  0.1446030E+00
         21   -1    0    0  503  502  0.00000000000E+00  0.00000000000E+00  0.37600805531E+01  0.37600805531E+01  0.00000000000E+00 0.  1.
         21   -1    0    0  501  503 -0.00000000000E+00 -0.00000000000E+00 -0.19724337539E+03  0.19724337539E+03  0.00000000000E+00 0. -1.
          2    1    1    2  501    0 -0.26923524353E+02 -0.35593058546E+01 -0.89263542007E+02  0.93303401618E+02  0.00000000000E+00 0.  1.
         -2    1    1    2    0  502  0.26923524353E+02  0.35593058546E+01 -0.10421975283E+03  0.10770005432E+03  0.00000000000E+00 0. -1.
</event>
<event>
 4    1  0.1822260E+004  0.2087990E+02  0.7546771E-02  0.1520987E+00
         21   -1    0    0  503  502  0.00000000000E+00  0.00000000000E+00  0.54027058283E+03  0.54027058283E+03  0.00000000000E+00 0. -1.
         21   -1    0    0  501  503 -0.00000000000E+00 -0.00000000000E+00 -0.11610860990E+01  0.11610860990E+01  0.00000000000E+00 0.  1.
          2    1    1    2  501    0 -0.10366196858E+02 -0.18124902083E+02  0.12004553858E+03  0.12184786188E+03  0.00000000000E+00 0.  1.
         -2    1    1    2    0  502  0.10366196858E+02  0.18124902083E+02  0.41906395815E+03  0.41958380705E+03  0.00000000000E+00 0. -1.
</event>
<event>
 4    1  0.1822260E+004  0.2502262E+02  0.7546771E-02  0.1468551E+00
         21   -1    0    0  503  502  0.00000000000E+00  0.00000000000E+00  0.39169829252E+01  0.39169829252E+01  0.00000000000E+00 0.  1.
         21   -1    0    0  501  503 -0.00000000000E+00 -0.00000000000E+00 -0.17258256849E+03  0.17258256849E+03  0.00000000000E+00 0. -1.
          2    1    1    2  501    0 -0.21417004884E+02  0.12939988943E+02 -0.10830266903E+03  0.11115574448E+03  0.00000000000E+00 0. -1.
         -2    1    1    2    0  502  0.21417004884E+02 -0.12939988943E+02 -0.60362916532E+02  0.65343806931E+02  0.00000000000E+00 0.  1.
</event>
<event>
 4    1  0.1822260E+004  0.2382501E+02  0.7546771E-02  0.1482390E+00
         21   -1    0    0  503  502  0.00000000000E+00  0.00000000000E+00  0.56248415480E+02  0.56248415480E+02  0.00000000000E+00 0.  1.
         21   -1    0    0  501  503 -0.00000000000E+00 -0.00000000000E+00 -0.28101012056E+02  0.28101012056E+02  0.00000000000E+00 0. -1.
          2    1    1    2  501    0  0.67084653580E+01  0.22861053988E+02 -0.19689377526E+02  0.30907974444E+02  0.00000000000E+00 0. -1.
         -2    1    1    2    0  502 -0.67084653580E+01 -0.22861053988E+02  0.47836780949E+02  0.53441453091E+02  0.00000000000E+00 0.  1.
</event>
<event>
 4    1  0.1822260E+004  0.2131340E+02  0.7546771E-02  0.1514837E+00
         21   -1    0    0  503  502  0.00000000000E+00  0.00000000000E+00  0.85766680998E+02  0.85766680998E+02  0.00000000000E+00 0.  1.
         21   -1    0    0  501  503 -0.00000000000E+00 -0.00000000000E+00 -0.53739613997E+01  0.53739613997E+01  0.00000000000E+00 0. -1.
          2    1    1    2  501    0 -0.16060683191E+02 -0.14011261182E+02  0.45668418382E+02  0.50397077514E+02  0.00000000000E+00 0.  1.
         -2    1    1    2    0  502  0.16060683191E+02  0.14011261182E+02  0.34724301217E+02  0.40743564884E+02  0.00000000000E+00 0. -1.
</event>
<event>
 4    1  0.1822260E+004  0.2015871E+02  0.7546771E-02  0.1531623E+00
         21   -1    0    0  501  502  0.00000000000E+00  0.00000000000E+00  0.54249203145E+02  0.54249203145E+02  0.00000000000E+00 0. -1.
         21   -1    0    0  502  503 -0.00000000000E+00 -0.00000000000E+00 -0.95989663660E+01  0.95989663660E+01  0.00000000000E+00 0.  1.
          2    1    1    2  501    0 -0.19475484907E+02  0.52037649117E+01  0.37285805450E+02  0.42386377171E+02  0.00000000000E+00 0. -1.
         -2    1    1    2    0  503  0.19475484907E+02 -0.52037649117E+01  0.73644313284E+01  0.21461792339E+02  0.00000000000E+00 0.  1.
</event>
<event>
 4    1  0.1822260E+004  0.2118152E+02  0.7546771E-02  0.1516689E+00
         21   -1    0    0  503  502  0.00000000000E+00  0.00000000000E+00  0.63615261614E+02  0.63615261614E+02  0.00000000000E+00 0.  1.
         21   -1    0    0  501  503 -0.00000000000E+00 -0.00000000000E+00 -0.81510703165E+01  0.81510703165E+01  0.00000000000E+00 0. -1.
          2    1    1    2  501    0  0.28234195260E+01 -0.20992502027E+02  0.40904518022E+02  0.46063395813E+02  0.00000000000E+00 0.  1.
         -2    1    1    2    0  502 -0.28234195260E+01  0.20992502027E+02  0.14559673276E+02  0.25702936118E+02  0.00000000000E+00 0. -1.
</event>
<event>
 4    1  0.1822260E+004  0.2887080E+02  0.7546771E-02  0.1429670E+00
         21   -1    0    0  503  502  0.00000000000E+00  0.00000000000E+00  0.41603059630E+03  0.41603059630E+03  0.00000000000E+00 0. -1.
         21   -1    0    0  501  503 -0.00000000000E+00 -0.00000000000E+00 -0.40760229854E+01  0.40760229854E+01  0.00000000000E+00 0.  1.
          2    1    1    2  501    0 -0.11311687135E+02  0.26562544811E+02  0.56195348633E+02  0.63177846281E+02  0.00000000000E+00 0.  1.
         -2    1    1    2    0  502  0.11311687135E+02 -0.26562544811E+02  0.35575922468E+03  0.35692877300E+03  0.00000000000E+00 0. -1.
</event>
<event>
 4    1  0.1822260E+004  0.2437274E+02  0.7546771E-02  0.1475944E+00
         21   -1    0    0  503  502  0.00000000000E+00  0.00000000000E+00  0.16811837244E+03  0.16811837244E+03  0.00000000000E+00 0. -1.
         21   -1    0    0  501  503 -0.00000000000E+00 -0.00000000000E+00 -0.51713289691E+01  0.51713289691E+01  0.00000000000E+00 0.  1.
          2    1    1    2  501    0 -0.19993479177E+00 -0.24371919622E+02  0.32710744574E+02  0.40792441096E+02  0.00000000000E+00 0.  1.
         -2    1    1    2    0  502  0.19993479177E+00  0.24371919622E+02  0.13023629889E+03  0.13249726031E+03  0.00000000000E+00 0. -1.
</event>
<event>
 4    1  0.1822260E+004  0.2450706E+02  0.7546771E-02  0.1474394E+00
         21   -1    0    0  501  502  0.00000000000E+00  0.00000000000E+00  0.24441312395E+01  0.24441312395E+01  0.00000000000E+00 0. -1.
         21   -1    0    0  502  503 -0.00000000000E+00 -0.00000000000E+00 -0.13799015819E+04  0.13799015819E+04  0.00000000000E+00 0.  1.
          2    1    1    2  501    0  0.42306174153E+01 -0.24139140055E+02 -0.62111958316E+02  0.66771937011E+02  0.00000000000E+00 0. -1.
         -2    1    1    2    0  503 -0.42306174153E+01  0.24139140055E+02 -0.13153454924E+04  0.13155737762E+04  0.00000000000E+00 0.  1.
</event>
<event>
 4    1  0.1822260E+004  0.3575871E+02  0.7546771E-02  0.1375306E+00
         21   -1    0    0  501  502  0.00000000000E+00  0.00000000000E+00  0.28013808261E+02  0.28013808261E+02  0.00000000000E+00 0.  1.
         21   -1    0    0  502  503 -0.00000000000E+00 -0.00000000000E+00 -0.93312060845E+02  0.93312060845E+02  0.00000000000E+00 0. -1.
          2    1    1    2  501    0  0.23614276409E+02  0.26852402971E+02  0.10708397719E+02  0.37327675757E+02  0.00000000000E+00 0.  1.
         -2    1    1    2    0  503 -0.23614276409E+02 -0.26852402971E+02 -0.76006650304E+02  0.83998193350E+02  0.00000000000E+00 0. -1.
</event>
<event>
 4    1  0.1822260E+004  0.2152420E+02  0.7546771E-02  0.1511911E+00
         21   -1    0    0  501  502  0.00000000000E+00  0.00000000000E+00  0.14532323390E+03  0.14532323390E+03  0.00000000000E+00 0. -1.
         21   -1    0    0  502  503 -0.00000000000E+00 -0.00000000000E+00 -0.35013223817E+01  0.35013223817E+01  0.00000000000E+00 0.  1.
          2    1    1    2  501    0  0.15731678257E+02 -0.14690325733E+02  0.93170689342E+02  0.95624624043E+02  0.00000000000E+00 0. -1.
         -2    1    1    2    0  503 -0.15731678257E+02  0.14690325733E+02  0.48651222175E+02  0.53199932237E+02  0.00000000000E+00 0.  1.
</event>
<event>
 4    1  0.1822260E+004  0.2828020E+02  0.7546771E-02  0.1435155E+00
         21   -1    0    0  503  502  0.00000000000E+00  0.00000000000E+00  0.72346008514E+02  0.72346008514E+02  0.00000000000E+00 0. -1.
         21   -1    0    0  501  503 -0.00000000000E+00 -0.00000000000E+00 -0.34378976747E+02  0.34378976747E+02  0.00000000000E+00 0.  1.
          2    1    1    2  501    0  0.34652786935E+01 -0.28067090301E+02 -0.24969928873E+02  0.37726211874E+02  0.00000000000E+00 0.  1.
         -2    1    1    2    0  502 -0.34652786935E+01  0.28067090301E+02  0.62936960639E+02  0.68998773387E+02  0.00000000000E+00 0. -1.
</event>
<event>
 4    1  0.1822260E+004  0.2257353E+02  0.7546771E-02  0.1497924E+00
         21   -1    0    0  501  502  0.00000000000E+00  0.00000000000E+00  0.72286356937E+01  0.72286356937E+01  0.00000000000E+00 0. -1.
         21   -1    0    0  502  503 -0.00000000000E+00 -0.00000000000E+00 -0.23032691061E+03  0.23032691061E+03  0.00000000000E+00 0.  1.
          2    1    1    2  501    0 -0.19812089037E+02  0.10818750978E+02 -0.12603181972E+02  0.25853518920E+02  0.00000000000E+00 0. -1.
         -2    1    1    2    0  503  0.19812089037E+02 -0.10818750978E+02 -0.21049509295E+03  0.21170202739E+03  0.00000000000E+00 0.  1.
</event>
<event>
 4    1  0.1822260E+004  0.4262726E+02  0.7546771E-02  0.1333742E+00
         21   -1    0    0  501  502  0.00000000000E+00  0.00000000000E+00  0.11030001858E+02  0.11030001858E+02  0.00000000000E+00 0.  1.
         21   -1    0    0  502  503 -0.00000000000E+00 -0.00000000000E+00 -0.17624748899E+03  0.17624748899E+03  0.00000000000E+00 0. -1.
          2    1    1    2  501    0  0.26604841699E+02 -0.33305646768E+02 -0.58682068917E+02  0.72530468914E+02  0.00000000000E+00 0. -1.
         -2    1    1    2    0  503 -0.26604841699E+02  0.33305646768E+02 -0.10653541822E+03  0.11474702194E+03  0.00000000000E+00 0.  1.
</event>
<event>
 4    1  0.1822260E+004  0.2200913E+02  0.7546771E-02  0.1505330E+00
         21   -1    0    0  503  502  0.00000000000E+00  0.00000000000E+00  0.27744149231E+02  0.27744149231E+02  0.00000000000E+00 0.  1.
         21   -1    0    0  501  503 -0.00000000000E+00 -0.00000000000E+00 -0.17627323270E+02  0.17627323270E+02  0.00000000000E+00 0. -1.
          2    1    1    2  501    0  0.21440963211E+02 -0.49685748812E+01  0.28455149595E+01  0.22192309369E+02  0.00000000000E+00 0.  1.
         -2    1    1    2    0  502 -0.21440963211E+02  0.49685748812E+01  0.72713110019E+01  0.23179163131E+02  0.00000000000E+00 0. -1.
</event>
<event>
 4    1  0.1822260E+004  0.2267138E+02  0.7546771E-02  0.1496666E+00
         21   -1    0    0  503  502  0.00000000000E+00  0.00000000000E+00  0.59302303457E+00  0.59302303457E+00  0.00000000000E+00 0.  1.
         21   -1    0    0  501  503 -0.00000000000E+00 -0.00000000000E+00 -0.93806700582E+03  0.93806700582E+03  0.00000000000E+00 0. -1.
          2    1    1    2  501    0 -0.18026642664E+02 -0.13748878004E+02 -0.59816121414E+03  0.59859070290E+03  0.00000000000E+00 0.  1.
         -2    1    1    2    0  502  0.18026642664E+02  0.13748878004E+02 -0.33931276865E+03  0.34006932596E+03  0.00000000000E+00 0. -1.
</event>
<event>
 4    1  0.1822260E+004  0.2502569E+02  0.7546771E-02  0.1468516E+00
         21   -1    0    0  503  502  0.00000000000E+00  0.00000000000E+00  0.38952653792E+03  0.38952653792E+03  0.00000000000E+00 0.  1.
         21   -1    0    0  501  503 -0.00000000000E+00 -0.00000000000E+00 -0.36298622737E+01  0.36298622737E+01  0.00000000000E+00 0. -1.
          2    1    1    2  501    0  0.35736670370E+01 -0.24769212754E+02  0.33966734452E+03  0.34058800614E+03  0.00000000000E+00 0.  1.
         -2    1    1    2    0  502 -0.35736670370E+01  0.24769212754E+02  0.46229331131E+02  0.52568394053E+02  0.00000000000E+00 0. -1.
</event>
<event>
 4    1  0.1822260E+004  0.2660953E+02  0.7546771E-02  0.1451570E+00
         21   -1    0    0  501  502  0.00000000000E+00  0.00000000000E+00  0.48042160238E+02  0.48042160238E+02  0.00000000000E+00 0.  1.
         21   -1    0    0  502  503 -0.00000000000E+00 -0.00000000000E+00 -0.37373369846E+02  0.37373369846E+02  0.00000000000E+00 0. -1.
          2    1    1    2  501    0 -0.12392471784E+02 -0.23547689039E+02  0.38570887871E+02  0.46859154999E+02  0.00000000000E+00 0.  1.
         -2    1    1    2    0  503  0.12392471784E+02  0.23547689039E+02 -0.27902097479E+02  0.38556375086E+02  0.00000000000E+00 0. -1.
</event>
<event>
 4    1  0.1822260E+004  0.3347854E+02  0.7546771E-02  0.1391587E+00
         21   -1    0    0  503  502  0.00000000000E+00  0.00000000000E+00  0.24214652591E+02  0.24214652591E+02  0.00000000000E+00 0.  1.
         21   -1    0    0  501  503 -0.00000000000E+00 -0.00000000000E+00 -0.55194779014E+03  0.55194779014E+03  0.00000000000E+00 0. -1.
          2    1    1    2  501    0 -0.33451501773E+02  0.13453380608E+01 -0.53960403452E+03  0.54064158828E+03  0.00000000000E+00 0. -1.
         -2    1    1    2    0  502  0.33451501773E+02 -0.13453380608E+01  0.11870896979E+02  0.35520854444E+02  0.00000000000E+00 0.  1.
</event>
<event>
 4    1  0.1822260E+004  0.2280633E+02  0.7546771E-02  0.1494945E+00
         21   -1    0    0  503  502  0.00000000000E+00  0.00000000000E+00  0.34888722286E+01  0.34888722286E+01  0.00000000000E+00 0.  1.
         21   -1    0    0  501  503 -0.00000000000E+00 -0.00000000000E+00 -0.16048644416E+03  0.16048644416E+03  0.00000000000E+00 0. -1.
          2    1    1    2  501    0 -0.13561713064E+02 -0.18335989762E+02 -0.10035442260E+03  0.10291325822E+03  0.00000000000E+00 0. -1.
         -2    1    1    2    0  502  0.13561713064E+02  0.18335989762E+02 -0.56643149331E+02  0.61062058169E+02  0.00000000000E+00 0.  1.
</event>
<event>
 4    1  0.1822260E+004  0.2504237E+02  0.7546771E-02  0.1468330E+00
         21   -1    0    0  501  502  0.00000000000E+00  0.00000000000E+00  0.40212404412E+02  0.40212404412E+02  0.00000000000E+00 0.  1.
         21   -1    0    0  502  503 -0.00000000000E+00 -0.00000000000E+00 -0.16024505226E+02  0.16024505226E+02  0.00000000000E+00 0. -1.
          2    1    1    2  501    0 -0.24756614507E+02 -0.37722833093E+01  0.74915181079E+01  0.26138915945E+02  0.00000000000E+00 0. -1.
         -2    1    1    2    0  503  0.24756614507E+02  0.37722833093E+01  0.16696381079E+02  0.30097993693E+02  0.00000000000E+00 0.  1.
</event>
<event>
 4    1  0.1822260E+004  0.3176318E+02  0.7546771E-02  0.1404869E+00
         21   -1    0    0  503  502  0.00000000000E+00  0.00000000000E+00  0.31552076432E+01  0.31552076432E+01  0.00000000000E+00 0. -1.
         21   -1    0    0  501  503 -0.00000000000E+00 -0.00000000000E+00 -0.75548217508E+03  0.75548217508E+03  0.00000000000E+00 0.  1.
          2    1    1    2  501    0 -0.21659436474E+02 -0.23232916381E+02 -0.66423378113E+03  0.66499279363E+03  0.00000000000E+00 0.  1.
         -2    1    1    2    0  502  0.21659436474E+02  0.23232916381E+02 -0.88093186314E+02  0.93644589095E+02  0.00000000000E+00 0. -1.
</event>
<event>
 4    1  0.1822260E+004  0.2122127E+02  0.7546771E-02  0.1516129E+00
         21   -1    0    0  503  502  0.00000000000E+00  0.00000000000E+00  0.15844273143E+03  0.15844273143E+03  0.00000000000E+00 0.  1.
         21   -1    0    0  501  503 -0.00000000000E+00 -0.00000000000E+00 -0.28657800502E+01  0.28657800502E+01  0.00000000000E+00 0. -1.
          2    1    1    2  501    0  0.20981125846E+02 -0.31834913973E+01  0.70488403818E+02  0.73613567581E+02  0.00000000000E+00 0. -1.
         -2    1    1    2    0  502 -0.20981125846E+02  0.31834913973E+01  0.85088547563E+02  0.87694943900E+02  0.00000000000E+00 0.  1.
</event>
<event>
 4    1  0.1822260E+004  0.2409168E+02  0.7546771E-02  0.1479227E+00
         21   -1    0    0  501  502  0.00000000000E+00  0.00000000000E+00  0.19504178034E+02  0.19504178034E+02  0.00000000000E+00 0. -1.
         21   -1    0    0  502  503 -0.00000000000E+00 -0.00000000000E+00 -0.55733329634E+02  0.55733329634E+02  0.00000000000E+00 0.  1.
          2    1    1    2  501    0  0.11555248253E+02 -0.21139664225E+02  0.75672443254E+01  0.25252175202E+02  0.00000000000E+00 0. -1.
         -2    1    1    2    0  503 -0.11555248253E+02  0.21139664225E+02 -0.43796395925E+02  0.49985332466E+02  0.00000000000E+00 0.  1.
</event>
<event>
 4    1  0.1822260E+004  0.3384846E+02  0.7546771E-02  0.1388845E+00
         21   -1    0    0  501  502  0.00000000000E+00  0.00000000000E+00  0.57749431587E+02  0.57749431587E+02  0.00000000000E+00 0.  1.
         21   -1    0    0  502  503 -0.00000000000E+00 -0.00000000000E+00 -0.66185586611E+02  0.66185586611E+02  0.00000000000E+00 0. -1.
          2    1    1    2  501    0  0.33848458495E+02  0.20441843679E-01  0.47636722889E+02  0.58437795372E+02  0.00000000000E+00 0.  1.
         -2    1    1    2    0  503 -0.33848458495E+02 -0.20441843679E-01 -0.56072877913E+02  0.65497222825E+02  0.00000000000E+00 0. -1.
</event>
<event>
 4    1  0.1822260E+004  0.2066604E+02  0.7546771E-02  0.1524087E+00
         21   -1    0    0  503  502  0.00000000000E+00  0.00000000000E+00  0.22508644256E+03  0.22508644256E+03  0.00000000000E+00 0.  1.
         21   -1    0    0  501  503 -0.00000000000E+00 -0.00000000000E+00 -0.38001050937E+01  0.38001050937E+01  0.00000000000E+00 0. -1.
          2    1    1    2  501    0  0.12842361335E+02 -0.16191322476E+02  0.29663668834E+02  0.36152709675E+02  0.00000000000E+00 0. -1.
         -2    1    1    2    0  502 -0.12842361335E+02  0.16191322476E+02  0.19162266864E+03  0.19273383798E+03  0.00000000000E+00 0.  1.
</event>
<event>
 4    1  0.1822260E+004  0.2270412E+02  0.7546771E-02  0.1496247E+00
         21   -1    0    0  501  502  0.00000000000E+00  0.00000000000E+00  0.24777071417E+03  0.24777071417E+03  0.00000000000E+00 0.  1.
         21   -1    0    0  502  503 -0.00000000000E+00 -0.00000000000E+00 -0.64255907342E+01  0.64255907342E+01  0.00000000000E+00 0. -1.
          2    1    1    2  501    0  0.18025523833E+02 -0.13804258837E+02  0.22518888628E+03  0.22633053611E+03  0.00000000000E+00 0.  1.
         -2    1    1    2    0  503 -0.18025523833E+02  0.13804258837E+02  0.16156237156E+02  0.27865768795E+02  0.00000000000E+00 0. -1.
</event>
<event>
 4    1  0.1822260E+004  0.2105250E+02  0.7546771E-02  0.1518516E+00
         21   -1    0    0  501  502  0.00000000000E+00  0.00000000000E+00  0.33735064945E+02  0.33735064945E+02  0.00000000000E+00 0.  1.
         21   -1    0    0  502  503 -0.00000000000E+00 -0.00000000000E+00 -0.73571173232E+02  0.73571173232E+02  0.00000000000E+00 0. -1.
          2    1    1    2  501    0  0.11078037372E+02  0.17902091623E+02  0.28709139270E+02  0.35600877435E+02  0.00000000000E+00 0.  1.
         -2    1    1    2    0  503 -0.11078037372E+02 -0.17902091623E+02 -0.68545247558E+02  0.71705360743E+02  0.00000000000E+00 0. -1.
</event>
<event>
 4    1  0.1822260E+004  0.2188988E+02  0.7546771E-02  0.1506929E+00
         21   -1    0    0  501  502  0.00000000000E+00  0.00000000000E+00  0.42022644253E+01  0.42022644253E+01  0.00000000000E+00 0.  1.
         21   -1    0    0  502  503 -0.00000000000E+00 -0.00000000000E+00 -0.15776699202E+03  0.15776699202E+03  0.00000000000E+00 0. -1.
          2    1    1    2  501    0 -0.14523735223E+02 -0.16377667032E+02 -0.34140176483E+02  0.40555129300E+02  0.00000000000E+00 0.  1.
         -2    1    1    2    0  503  0.14523735223E+02  0.16377667032E+02 -0.11942455111E+03  0.12141412714E+03  0.00000000000E+00 0. -1.
</event>
<event>
 4    1  0.1822260E+004  0.2070050E+02  0.7546771E-02  0.1523584E+00
         21   -1    0    0  501  502  0.00000000000E+00  0.00000000000E+00  0.31189866789E+02  0.31189866789E+02  0.00000000000E+00 0.  1.
         21   -1    0    0  502  503 -0.00000000000E+00 -0.00000000000E+00 -0.36889449373E+02  0.36889449373E+02  0.00000000000E+00 0. -1.
          2    1    1    2  501    0 -0.11712681713E+02  0.17068207584E+02  0.24116170047E+02  0.31782074835E+02  0.00000000000E+00 0.  1.
         -2    1    1    2    0  503  0.11712681713E+02 -0.17068207584E+02 -0.29815752631E+02  0.36297241328E+02  0.00000000000E+00 0. -1.
</event>
<event>
 4    1  0.1822260E+004  0.2156528E+02  0.7546771E-02  0.1511345E+00
         21   -1    0    0  503  502  0.00000000000E+00  0.00000000000E+00  0.18877281012E+02  0.18877281012E+02  0.00000000000E+00 0. -1.
         21   -1    0    0  501  503 -0.00000000000E+00 -0.00000000000E+00 -0.29508145877E+02  0.29508145877E+02  0.00000000000E+00 0.  1.
          2    1    1    2  501    0  0.12571660215E+02  0.17521836003E+02 -0.15145854184E+02  0.26352576278E+02  0.00000000000E+00 0.  1.
         -2    1    1    2    0  502 -0.12571660215E+02 -0.17521836003E+02  0.45149893190E+01  0.22032850611E+02  0.00000000000E+00 0. -1.
</event>
<event>
 4    1  0.1822260E+004  0.3274598E+02  0.7546771E-02  0.1397142E+00
         21   -1    0    0  503  502  0.00000000000E+00  0.00000000000E+00  0.56688078784E+02  0.56688078784E+02  0.00000000000E+00 0.  1.
         21   -1    0    0  501  503 -0.00000000000E+00 -0.00000000000E+00 -0.30381935882E+03  0.30381935882E+03  0.00000000000E+00 0. -1.
          2    1    1    2  501    0  0.23362082448E+02 -0.22945858067E+02 -0.29811789485E+03  0.29991095100E+03  0.00000000000E+00 0. -1.
         -2    1    1    2    0  502 -0.23362082448E+02  0.22945858067E+02  0.50986614814E+02  0.60596486606E+02  0.00000000000E+00 0.  1.
</event>
<event>
 4    1  0.1822260E+004  0.2062284E+02  0.7546771E-02  0.1524718E+00
         21   -1    0    0  503  502  0.00000000000E+00  0.00000000000E+00  0.48438142080E+01  0.48438142080E+01  0.00000000000E+00 0. -1.
         21   -1    0    0  501  503 -0.00000000000E+00 -0.00000000000E+00 -0.88746879931E+02  0.88746879931E+02  0.00000000000E+00 0.  1.
          2    1    1    2  501    0 -0.18369915194E+00 -0.20622021159E+02 -0.46777457685E+02  0.51121737544E+02  0.00000000000E+00 0. -1.
         -2    1    1    2    0  502  0.18369915194E+00  0.20622021159E+02 -0.37125608038E+02  0.42468956595E+02  0.00000000000E+00 0.  1.
</event>
<event>
 4    1  0.1822260E+004  0.2678402E+02  0.7546771E-02  0.1449790E+00
         21   -1    0    0  501  502  0.00000000000E+00  0.00000000000E+00  0.45407984973E+03  0.45407984973E+03  0.00000000000E+00 0. -1.
         21   -1    0    0  502  503 -0.00000000000E+00 -0.00000000000E+00 -0.28284024884E+01  0.28284024884E+01  0.00000000000E+00 0.  1.
          2    1    1    2  501    0 -0.37192574181E+01  0.26524529500E+02  0.37741101907E+03  0.37836022631E+03  0.00000000000E+00 0. -1.
         -2    1    1    2    0  503  0.37192574181E+01 -0.26524529500E+02  0.73840428176E+02  0.78548025908E+02  0.00000000000E+00 0.  1.
</event>
<event>
 4    1  0.1822260E+004  0.3830675E+02  0.7546771E-02  0.1358704E+00
         21   -1    0    0  501  502  0.00000000000E+00  0.00000000000E+00  0.32790984672E+03  0.32790984672E+03  0.00000000000E+00 0.  1.
         21   -1    0    0  502  503 -0.00000000000E+00 -0.00000000000E+00 -0.88415966657E+01  0.88415966657E+01  0.00000000000E+00 0. -1.
          2    1    1    2  501    0  0.24994637104E+02 -0.29028864089E+02  0.27786119275E+03  0.28048930331E+03  0.00000000000E+00 0.  1.
         -2    1    1    2    0  503 -0.24994637104E+02  0.29028864089E+02  0.41207057301E+02  0.56262140074E+02  0.00000000000E+00 0. -1.
</event>
<event>
 4    1  0.1822260E+004  0.2324699E+02  0.7546771E-02  0.1489420E+00
         21   -1    0    0  503  502  0.00000000000E+00  0.00000000000E+00  0.19681056456E+01  0.19681056456E+01  0.00000000000E+00 0. -1.
         21   -1    0    0  501  503 -0.00000000000E+00 -0.00000000000E+00 -0.39661430816E+03  0.39661430816E+03  0.00000000000E+00 0.  1.
          2    1    1    2  501    0  0.19111099403E+02  0.13235876228E+02 -0.86781244760E+02  0.89841009467E+02  0.00000000000E+00 0. -1.
         -2    1    1    2    0  502 -0.19111099403E+02 -0.13235876228E+02 -0.30786495775E+03  0.30874140434E+03  0.00000000000E+00 0.  1.
</event>
<event>
 4    1  0.1822260E+004  0.2291143E+02  0.7546771E-02  0.1493613E+00
         21   -1    0    0  501  502  0.00000000000E+00  0.00000000000E+00  0.23435500800E+03  0.23435500800E+03  0.00000000000E+00 0.  1.
         21   -1    0    0  502  503 -0.00000000000E+00 -0.00000000000E+00 -0.40211210876E+01  0.40211210876E+01  0.00000000000E+00 0. -1.
          2    1    1    2  501    0 -0.75276896719E+00 -0.22899056583E+02  0.19449325050E+03  0.19583809115E+03  0.00000000000E+00 0.  1.
         -2    1    1    2    0  503  0.75276896719E+00  0.22899056583E+02  0.35840636411E+02  0.42538037941E+02  0.00000000000E+00 0. -1.
</event>
<event>
 4    1  0.1822260E+004  0.3455484E+02  0.7546771E-02  0.1383720E+00
         21   -1    0    0  501  502  0.00000000000E+00  0.00000000000E+00  0.17531211077E+03  0.17531211077E+03  0.00000000000E+00 0.  1.
         21   -1    0    0  502  503 -0.00000000000E+00 -0.00000000000E+00 -0.12165063956E+02  0.12165063956E+02  0.00000000000E+00 0. -1.
          2    1    1    2  501    0 -0.32118562244E+02 -0.12744991756E+02  0.14376146849E+03  0.14785599980E+03  0.00000000000E+00 0.  1.
         -2    1    1    2    0  503  0.32118562244E+02  0.12744991756E+02  0.19385578330E+02  0.39621174928E+02  0.00000000000E+00 0. -1.
</event>
<event>
 4    1  0.1822260E+004  0.2071578E+02  0.7546771E-02  0.1523362E+00
         21   -1    0    0  503  502  0.00000000000E+00  0.00000000000E+00  0.19341000389E+03  0.19341000389E+03  0.00000000000E+00 0. -1.
         21   -1    0    0  501  503 -0.00000000000E+00 -0.00000000000E+00 -0.19044764024E+02  0.19044764024E+02  0.00000000000E+00 0.  1.
          2    1    1    2  501    0 -0.15821081842E+02 -0.13372986265E+02 -0.12665137325E+02  0.24280632112E+02  0.00000000000E+00 0.  1.
         -2    1    1    2    0  502  0.15821081842E+02  0.13372986265E+02  0.18703037719E+03  0.18817413580E+03  0.00000000000E+00 0. -1.
</event>
<event>
 4    1  0.1822260E+004  0.2523037E+02  0.7546771E-02  0.1466243E+00
         21   -1    0    0  503  502  0.00000000000E+00  0.00000000000E+00  0.41462970521E+02  0.41462970521E+02  0.00000000000E+00 0.  1.
         21   -1    0    0  501  503 -0.00000000000E+00 -0.00000000000E+00 -0.28390249866E+02  0.28390249866E+02  0.00000000000E+00 0. -1.
          2    1    1    2  501    0  0.20769501951E+02 -0.14324779589E+02 -0.17132024742E+02  0.30497176809E+02  0.00000000000E+00 0. -1.
         -2    1    1    2    0  502 -0.20769501951E+02  0.14324779589E+02  0.30204745398E+02  0.39356043578E+02  0.00000000000E+00 0.  1.
</event>
<event>
 4    1  0.1822260E+004  0.2896565E+02  0.7546771E-02  0.1428803E+00
         21   -1    0    0  503  502  0.00000000000E+00  0.00000000000E+00  0.96186189199E+02  0.96186189199E+02  0.00000000000E+00 0. -1.
         21   -1    0    0  501  503 -0.00000000000E+00 -0.00000000000E+00 -0.10472742122E+02  0.10472742122E+02  0.00000000000E+00 0.  1.
          2    1    1    2  501    0 -0.13047548351E+02 -0.25860600284E+02  0.21056864932E+02  0.35810623086E+02  0.00000000000E+00 0. -1.
         -2    1    1    2    0  502  0.13047548351E+02  0.25860600284E+02  0.64656582145E+02  0.70848308235E+02  0.00000000000E+00 0.  1.
</event>
<event>
 4    1  0.1822260E+004  0.6377906E+02  0.7546771E-02  0.1247506E+00
         21   -1    0    0  503  502  0.00000000000E+00  0.00000000000E+00  0.23179214650E+03  0.23179214650E+03  0.00000000000E+00 0.  1.
         21   -1    0    0  501  503 -0.00000000000E+00 -0.00000000000E+00 -0.38237132099E+02  0.38237132099E+02  0.00000000000E+00 0. -1.
          2    1    1    2  501    0 -0.63748499405E+02  0.19741713257E+01 -0.25333349581E+01  0.63829353082E+02  0.00000000000E+00 0. -1.
         -2    1    1    2    0  502  0.63748499405E+02 -0.19741713257E+01  0.19608834936E+03  0.20619992552E+03  0.00000000000E+00 0.  1.
</event>
<event>
 4    1  0.1822260E+004  0.2523276E+02  0.7546771E-02  0.1466216E+00
         21   -1    0    0  503  502  0.00000000000E+00  0.00000000000E+00  0.11660635759E+01  0.11660635759E+01  0.00000000000E+00 0.  1.
         21   -1    0    0  501  503 -0.00000000000E+00 -0.00000000000E+00 -0.62774876816E+03  0.62774876816E+03  0.00000000000E+00 0. -1.
          2    1    1    2  501    0  0.16379780988E+02  0.19193617292E+02 -0.42675601584E+03  0.42750133243E+03  0.00000000000E+00 0.  1.
         -2    1    1    2    0  502 -0.16379780988E+02 -0.19193617292E+02 -0.19982668874E+03  0.20141349930E+03  0.00000000000E+00 0. -1.
</event>
<event>
 4    1  0.1822260E+004  0.2678251E+02  0.7546771E-02  0.1449805E+00
         21   -1    0    0  501  502  0.00000000000E+00  0.00000000000E+00  0.18749399596E+02  0.18749399596E+02  0.00000000000E+00 0.  1.
         21   -1    0    0  502  503 -0.00000000000E+00 -0.00000000000E+00 -0.42699340256E+02  0.42699340256E+02  0.00000000000E+00 0. -1.
          2    1    1    2  501    0 -0.24182051420E+02 -0.11512223900E+02 -0.20652881877E+01  0.26862023849E+02  0.00000000000E+00 0.  1.
         -2    1    1    2    0  503  0.24182051420E+02  0.11512223900E+02 -0.21884652473E+02  0.34586716003E+02  0.00000000000E+00 0. -1.
</event>
<event>
 4    1  0.1822260E+004  0.2144384E+02  0.7546771E-02  0.1513021E+00
         21   -1    0    0  501  502  0.00000000000E+00  0.00000000000E+00  0.66421742612E+01  0.66421742612E+01  0.00000000000E+00 0. -1.
         21   -1    0    0  502  503 -0.00000000000E+00 -0.00000000000E+00 -0.15520199248E+03  0.15520199248E+03  0.00000000000E+00 0.  1.
          2    1    1    2  501    0 -0.10055152976E+02  0.18940227252E+02 -0.14052153088E+02  0.25637888293E+02  0.00000000000E+00 0. -1.
         -2    1    1    2    0  503  0.10055152976E+02 -0.18940227252E+02 -0.13450766513E+03  0.13620627844E+03  0.00000000000E+00 0.  1.
</event>
<event>
 4    1  0.1822260E+004  0.3019144E+02  0.7546771E-02  0.1417940E+00
         21   -1    0    0  501  502  0.00000000000E+00  0.00000000000E+00  0.74046458195E+00  0.74046458195E+00  0.00000000000E+00 0.  1.
         21   -1    0    0  502  503 -0.00000000000E+00 -0.00000000000E+00 -0.12663757695E+04  0.12663757695E+04  0.00000000000E+00 0. -1.
          2    1    1    2  501    0 -0.12802104180E+02 -0.27342812338E+02 -0.73868546467E+03  0.73930219733E+03  0.00000000000E+00 0.  1.
         -2    1    1    2    0  503  0.12802104180E+02  0.27342812338E+02 -0.52694984026E+03  0.52781403676E+03  0.00000000000E+00 0. -1.
</event>
<event>
 4    1  0.1822260E+004  0.2526704E+02  0.7546771E-02  0.1465838E+00
         21   -1    0    0  503  502  0.00000000000E+00  0.00000000000E+00  0.51047033051E+03  0.51047033051E+03  0.00000000000E+00 0. -1.
         21   -1    0    0  501  503 -0.00000000000E+00 -0.00000000000E+00 -0.16062906154E+01  0.16062906154E+01  0.00000000000E+00 0.  1.
          2    1    1    2  501    0  0.49470921388E+01 -0.24778007884E+02  0.13395778672E+03  0.13631988856E+03  0.00000000000E+00 0.  1.
         -2    1    1    2    0  502 -0.49470921388E+01  0.24778007884E+02  0.37490625318E+03  0.37575673256E+03  0.00000000000E+00 0. -1.
</event>
<event>
 4    1  0.1822260E+004  0.2411779E+02  0.7546771E-02  0.1478920E+00
         21   -1    0    0  503  502  0.00000000000E+00  0.00000000000E+00  0.60689759527E+02  0.60689759527E+02  0.00000000000E+00 0. -1.
         21   -1    0    0  501  503 -0.00000000000E+00 -0.00000000000E+00 -0.13709351806E+02  0.13709351806E+02  0.00000000000E+00 0.  1.
          2    1    1    2  501    0  0.16217038989E+02  0.17851484669E+02  0.30848154413E+01  0.24314274506E+02  0.00000000000E+00 0.  1.
         -2    1    1    2    0  502 -0.16217038989E+02 -0.17851484669E+02  0.43895592279E+02  0.50084836827E+02  0.00000000000E+00 0. -1.
</event>
<event>
 4    1  0.1822260E+004  0.4865751E+02  0.7546771E-02  0.1304100E+00
         21   -1    0    0  501  502  0.00000000000E+00  0.00000000000E+00  0.18692027388E+02  0.18692027388E+02  0.00000000000E+00 0. -1.
         21   -1    0    0  502  503 -0.00000000000E+00 -0.00000000000E+00 -0.87576600535E+03  0.87576600535E+03  0.00000000000E+00 0.  1.
          2    1    1    2  501    0  0.29522890571E+02 -0.38677542990E+02 -0.14911549318E+02  0.50891135795E+02  0.00000000000E+00 0. -1.
         -2    1    1    2    0  503 -0.29522890571E+02  0.38677542990E+02 -0.84216242864E+03  0.84356689694E+03  0.00000000000E+00 0.  1.
</event>
<event>
 4    1  0.1822260E+004  0.2743071E+02  0.7546771E-02  0.1443329E+00
         21   -1    0    0  503  502  0.00000000000E+00  0.00000000000E+00  0.75891927104E+02  0.75891927104E+02  0.00000000000E+00 0. -1.
         21   -1    0    0  501  503 -0.00000000000E+00 -0.00000000000E+00 -0.26454920489E+02  0.26454920489E+02  0.00000000000E+00 0.  1.
          2    1    1    2  501    0  0.17901995922E+02 -0.20783701587E+02 -0.15744883839E+02  0.31628232273E+02  0.00000000000E+00 0.  1.
         -2    1    1    2    0  502 -0.17901995922E+02  0.20783701587E+02  0.65181890454E+02  0.70718615320E+02  0.00000000000E+00 0. -1.
</event>
<event>
 4    1  0.1822260E+004  0.2567160E+02  0.7546771E-02  0.1461429E+00
         21   -1    0    0  501  502  0.00000000000E+00  0.00000000000E+00  0.94836441347E+01  0.94836441347E+01  0.00000000000E+00 0.  1.
         21   -1    0    0  502  503 -0.00000000000E+00 -0.00000000000E+00 -0.90191684782E+02  0.90191684782E+02  0.00000000000E+00 0. -1.
          2    1    1    2  501    0 -0.20071801586E+02  0.16004798582E+02 -0.64230131931E+02  0.69170374037E+02  0.00000000000E+00 0. -1.
         -2    1    1    2    0  503  0.20071801586E+02 -0.16004798582E+02 -0.16477908717E+02  0.30504954880E+02  0.00000000000E+00 0.  1.
</event>
<event>
 4    1  0.1822260E+004  0.2295074E+02  0.7546771E-02  0.1493118E+00
         21   -1    0    0  503  502  0.00000000000E+00  0.00000000000E+00  0.70559558466E+01  0.70559558466E+01  0.00000000000E+00 0.  1.
         21   -1    0    0  501  503 -0.00000000000E+00 -0.00000000000E+00 -0.99736207851E+02  0.99736207851E+02  0.00000000000E+00 0. -1.
          2    1    1    2  501    0 -0.18177834317E+02 -0.14010805400E+02 -0.73118805406E+02  0.76636127462E+02  0.00000000000E+00 0. -1.
         -2    1    1    2    0  502  0.18177834317E+02  0.14010805400E+02 -0.19561446599E+02  0.30156036236E+02  0.00000000000E+00 0.  1.
</event>
<event>
 4    1  0.1822260E+004  0.2374930E+02  0.7546771E-02  0.1483298E+00
         21   -1    0    0  501  502  0.00000000000E+00  0.00000000000E+00  0.52432875289E+01  0.52432875289E+01  0.00000000000E+00 0. -1.
         21   -1    0    0  502  503 -0.00000000000E+00 -0.00000000000E+00 -0.15116430576E+03  0.15116430576E+03  0.00000000000E+00 0.  1.
          2    1    1    2  501    0  0.19732065224E+02 -0.13216467036E+02 -0.30964349066E+02  0.39023330355E+02  0.00000000000E+00 0. -1.
         -2    1    1    2    0  503 -0.19732065224E+02  0.13216467036E+02 -0.11495666917E+03  0.11738426294E+03  0.00000000000E+00 0.  1.
</event>
<event>
 4    1  0.1822260E+004  0.2723469E+02  0.7546771E-02  0.1445265E+00
         21   -1    0    0  501  502  0.00000000000E+00  0.00000000000E+00  0.12539370945E+03  0.12539370945E+03  0.00000000000E+00 0. -1.
         21   -1    0    0  502  503 -0.00000000000E+00 -0.00000000000E+00 -0.64792315091E+01  0.64792315091E+01  0.00000000000E+00 0.  1.
          2    1    1    2  501    0 -0.83581019408E+01 -0.25920464230E+02  0.78911613677E+02  0.83479165707E+02  0.00000000000E+00 0.  1.
         -2    1    1    2    0  503  0.83581019408E+01  0.25920464230E+02  0.40002864268E+02  0.48393775257E+02  0.00000000000E+00 0. -1.
</event>
<event>
 4    1  0.1822260E+004  0.3684911E+02  0.7546771E-02  0.1368010E+00
         21   -1    0    0  503  502  0.00000000000E+00  0.00000000000E+00  0.58488584045E+03  0.58488584045E+03  0.00000000000E+00 0.  1.
         21   -1    0    0  501  503 -0.00000000000E+00 -0.00000000000E+00 -0.25665623992E+01  0.25665623992E+01  0.00000000000E+00 0. -1.
          2    1    1    2  501    0 -0.35647792184E+02 -0.93323041018E+01  0.20041151096E+03  0.20377102520E+03  0.00000000000E+00 0. -1.
         -2    1    1    2    0  502  0.35647792184E+02  0.93323041018E+01  0.38190776709E+03  0.38368137765E+03  0.00000000000E+00 0.  1.
</event>
<event>
 4    1  0.1822260E+004  0.3954872E+02  0.7546771E-02  0.1351151E+00
         21   -1    0    0  503  502  0.00000000000E+00  0.00000000000E+00  0.28630419673E+02  0.28630419673E+02  0.00000000000E+00 0.  1.
         21   -1    0    0  501  503 -0.00000000000E+00 -0.00000000000E+00 -0.54876016233E+02  0.54876016233E+02  0.00000000000E+00 0. -1.
          2    1    1    2  501    0  0.28412149216E+02  0.27510924246E+02 -0.15914193738E+02  0.42630537626E+02  0.00000000000E+00 0. -1.
         -2    1    1    2    0  502 -0.28412149216E+02 -0.27510924246E+02 -0.10331402822E+02  0.40875898280E+02  0.00000000000E+00 0.  1.
</event>
<event>
 4    1  0.1822260E+004  0.2570775E+02  0.7546771E-02  0.1461039E+00
         21   -1    0    0  501  502  0.00000000000E+00  0.00000000000E+00  0.26963718952E+02  0.26963718952E+02  0.00000000000E+00 0.  1.
         21   -1    0    0  502  503 -0.00000000000E+00 -0.00000000000E+00 -0.40544758607E+03  0.40544758607E+03  0.00000000000E+00 0. -1.
          2    1    1    2  501    0 -0.21442569467E+02  0.14181140167E+02  0.20326772977E+02  0.32772949538E+02  0.00000000000E+00 0.  1.
         -2    1    1    2    0  503  0.21442569467E+02 -0.14181140167E+02 -0.39881064009E+03  0.39963835548E+03  0.00000000000E+00 0. -1.
</event>
<event>
 4    1  0.1822260E+004  0.3717865E+02  0.7546771E-02  0.1365862E+00
         21   -1    0    0  503  502  0.00000000000E+00  0.00000000000E+00  0.93421508348E+01  0.93421508348E+01  0.00000000000E+00 0.  1.
         21   -1    0    0  501  503 -0.00000000000E+00 -0.00000000000E+00 -0.38078485231E+03  0.38078485231E+03  0.00000000000E+00 0. -1.
          2    1    1    2  501    0 -0.22095912064E+02  0.29900206633E+02 -0.33192448342E+02  0.49839646002E+02  0.00000000000E+00 0.  1.
         -2    1    1    2    0  502  0.22095912064E+02 -0.29900206633E+02 -0.33825025314E+03  0.34028735715E+03  0.00000000000E+00 0. -1.
</event>
<event>
 4    1  0.1822260E+004  0.3849754E+02  0.7546771E-02  0.1357522E+00
         21   -1    0    0  501  502  0.00000000000E+00  0.00000000000E+00  0.58151813229E+01  0.58151813229E+01  0.00000000000E+00 0.  1.
         21   -1    0    0  502  503 -0.00000000000E+00 -0.00000000000E+00 -0.25497550246E+03  0.25497550246E+03  0.00000000000E+00 0. -1.
          2    1    1    2  501    0  0.12904477599E+02  0.36270302612E+02 -0.12734866302E+03  0.13304037871E+03  0.00000000000E+00 0.  1.
         -2    1    1    2    0  503 -0.12904477599E+02 -0.36270302612E+02 -0.12181165812E+03  0.12775030508E+03  0.00000000000E+00 0. -1.
</event>
<event>
 4    1  0.1822260E+004  0.2501538E+02  0.7546771E-02  0.1468631E+00
         21   -1    0    0  503  502  0.00000000000E+00  0.00000000000E+00  0.75161774510E+01  0.75161774510E+01  0.00000000000E+00 0.  1.
         21   -1    0    0  501  503 -0.00000000000E+00 -0.00000000000E+00 -0.62463702430E+03  0.62463702430E+03  0.00000000000E+00 0. -1.
          2    1    1    2  501    0 -0.33098854867E+01 -0.24795437894E+02 -0.60281950933E+03  0.60333832127E+03  0.00000000000E+00 0. -1.
         -2    1    1    2    0  502  0.33098854867E+01  0.24795437894E+02 -0.14301337516E+02  0.28814880479E+02  0.00000000000E+00 0.  1.
</event>
<event>
 4    1  0.1822260E+004  0.2032086E+02  0.7546771E-02  0.1529186E+00
         21   -1    0    0  501  502  0.00000000000E+00  0.00000000000E+00  0.52150820781E+00  0.52150820781E+00  0.00000000000E+00 0. -1.
         21   -1    0    0  502  503 -0.00000000000E+00 -0.00000000000E+00 -0.12182642245E+04  0.12182642245E+04  0.00000000000E+00 0.  1.
          2    1    1    2  501    0  0.20159088828E+02 -0.25590189863E+01 -0.24832521652E+03  0.24915527408E+03  0.00000000000E+00 0. -1.
         -2    1    1    2    0  503 -0.20159088828E+02  0.25590189863E+01 -0.96941749974E+03  0.96963045860E+03  0.00000000000E+00 0.  1.
</event>
<event>
 4    1  0.1822260E+004  0.2907672E+02  0.7546771E-02  0.1427793E+00
         21   -1    0    0  501  502  0.00000000000E+00  0.00000000000E+00  0.11576590837E+03  0.11576590837E+03  0.00000000000E+00 0.  1.
         21   -1    0    0  502  503 -0.00000000000E+00 -0.00000000000E+00 -0.12478385151E+02  0.12478385151E+02  0.00000000000E+00 0. -1.
          2    1    1    2  501    0  0.25821096250E+02  0.13368859049E+02  0.92938435993E+02  0.97380738797E+02  0.00000000000E+00 0.  1.
         -2    1    1    2    0  503 -0.25821096250E+02 -0.13368859049E+02  0.10349087228E+02  0.30863554725E+02  0.00000000000E+00 0. -1.
</event>
<event>
 4    1  0.1822260E+004  0.2219696E+02  0.7546771E-02  0.1502836E+00
         21   -1    0    0  503  502  0.00000000000E+00  0.00000000000E+00  0.22490772001E+04  0.22490772001E+04  0.00000000000E+00 0.  1.
         21   -1    0    0  501  503 -0.00000000000E+00 -0.00000000000E+00 -0.22911105632E+00  0.22911105632E+00  0.00000000000E+00 0. -1.
          2    1    1    2  501    0 -0.29340580212E+01  0.22002185349E+02  0.13598693053E+04  0.13600504521E+04  0.00000000000E+00 0.  1.
         -2    1    1    2    0  502  0.29340580212E+01 -0.22002185349E+02  0.88897878374E+03  0.88925585902E+03  0.00000000000E+00 0. -1.
</event>
<event>
 4    1  0.1822260E+004  0.3857656E+02  0.7546771E-02  0.1357035E+00
         21   -1    0    0  501  502  0.00000000000E+00  0.00000000000E+00  0.27651524141E+02  0.27651524141E+02  0.00000000000E+00 0. -1.
         21   -1    0    0  502  503 -0.00000000000E+00 -0.00000000000E+00 -0.10764914800E+03  0.10764914800E+03  0.00000000000E+00 0.  1.
          2    1    1    2  501    0 -0.38145951307E+02 -0.57478279323E+01  0.78400981418E+01  0.39365191044E+02  0.00000000000E+00 0. -1.
         -2    1    1    2    0  503  0.38145951307E+02  0.57478279323E+01 -0.87837722003E+02  0.95935481099E+02  0.00000000000E+00 0.  1.
</event>
<event>
 4    1  0.1822260E+004  0.2307301E+02  0.7546771E-02  0.1491583E+00
         21   -1    0    0  501  502  0.00000000000E+00  0.00000000000E+00  0.15187670112E+02  0.15187670112E+02  0.00000000000E+00 0.  1.
         21   -1    0    0  502  503 -0.00000000000E+00 -0.00000000000E+00 -0.35074532750E+02  0.35074532750E+02  0.00000000000E+00 0. -1.
          2    1    1    2  501    0 -0.22295330161E+02 -0.59398855951E+01 -0.93118533762E+01  0.24881209801E+02  0.00000000000E+00 0. -1.
         -2    1    1    2    0  503  0.22295330161E+02  0.59398855951E+01 -0.10575009262E+02  0.25380993061E+02  0.00000000000E+00 0.  1.
</event>
<event>
 4    1  0.1822260E+004  0.2356361E+02  0.7546771E-02  0.1485540E+00
         21   -1    0    0  501  502  0.00000000000E+00  0.00000000000E+00  0.24797311263E+01  0.24797311263E+01  0.00000000000E+00 0. -1.
         21   -1    0    0  502  503 -0.00000000000E+00 -0.00000000000E+00 -0.26910108682E+03  0.26910108682E+03  0.00000000000E+00 0.  1.
          2    1    1    2  501    0 -0.61173925151E+01  0.22755681924E+02 -0.18895543956E+03  0.19041901609E+03  0.00000000000E+00 0.  1.
         -2    1    1    2    0  503  0.61173925151E+01 -0.22755681924E+02 -0.77665916138E+02  0.81161801856E+02  0.00000000000E+00 0. -1.
</event>
<event>
 4    1  0.1822260E+004  0.2563643E+02  0.7546771E-02  0.1461808E+00
         21   -1    0    0  501  502  0.00000000000E+00  0.00000000000E+00  0.35420687437E+02  0.35420687437E+02  0.00000000000E+00 0.  1.
         21   -1    0    0  502  503 -0.00000000000E+00 -0.00000000000E+00 -0.26614035563E+02  0.26614035563E+02  0.00000000000E+00 0. -1.
          2    1    1    2  501    0  0.25369490455E+02 -0.36898898325E+01  0.21471790766E+02  0.33440456511E+02  0.00000000000E+00 0.  1.
         -2    1    1    2    0  503 -0.25369490455E+02  0.36898898325E+01 -0.12665138893E+02  0.28594266490E+02  0.00000000000E+00 0. -1.
</event>
<event>
 4    1  0.1822260E+004  0.2248806E+02  0.7546771E-02  0.1499029E+00
         21   -1    0    0  503  502  0.00000000000E+00  0.00000000000E+00  0.13298945539E+02  0.13298945539E+02  0.00000000000E+00 0. -1.
         21   -1    0    0  501  503 -0.00000000000E+00 -0.00000000000E+00 -0.87627928496E+02  0.87627928496E+02  0.00000000000E+00 0.  1.
          2    1    1    2  501    0  0.17796162215E+02  0.13748078376E+02 -0.75131153559E+02  0.78424506908E+02  0.00000000000E+00 0.  1.
         -2    1    1    2    0  502 -0.17796162215E+02 -0.13748078376E+02  0.80217060199E+00  0.22502367127E+02  0.00000000000E+00 0. -1.
</event>
<event>
 4    1  0.1822260E+004  0.2177435E+02  0.7546771E-02  0.1508490E+00
         21   -1    0    0  503  502  0.00000000000E+00  0.00000000000E+00  0.84534918641E+02  0.84534918641E+02  0.00000000000E+00 0.  1.
         21   -1    0    0  501  503 -0.00000000000E+00 -0.00000000000E+00 -0.10364402071E+02  0.10364402071E+02  0.00000000000E+00 0. -1.
          2    1    1    2  501    0 -0.87358452821E+01 -0.19945104621E+02  0.49432462999E+01  0.22328409597E+02  0.00000000000E+00 0.  1.
         -2    1    1    2    0  502  0.87358452821E+01  0.19945104621E+02  0.69227270270E+02  0.72570911116E+02  0.00000000000E+00 0. -1.
</event>
<event>
 4    1  0.1822260E+004  0.2727987E+02  0.7546771E-02  0.1444817E+00
         21   -1    0    0  501  502  0.00000000000E+00  0.00000000000E+00  0.11095800299E+03  0.11095800299E+03  0.00000000000E+00 0. -1.
         21   -1    0    0  502  503 -0.00000000000E+00 -0.00000000000E+00 -0.24278263267E+02  0.24278263267E+02  0.00000000000E+00 0.  1.
          2    1    1    2  501    0 -0.22300139191E+02  0.15712898561E+02  0.10086482641E+03  0.10448877737E+03  0.00000000000E+00 0. -1.
         -2    1    1    2    0  503  0.22300139191E+02 -0.15712898561E+02 -0.14185086682E+02  0.30747488894E+02  0.00000000000E+00 0.  1.
</event>
<event>
 4    1  0.1822260E+004  0.2113227E+02  0.7546771E-02  0.1517385E+00
         21   -1    0    0  503  502  0.00000000000E+00  0.00000000000E+00  0.42806194991E+02  0.42806194991E+02  0.00000000000E+00 0.  1.
         21   -1    0    0  501  503 -0.00000000000E+00 -0.00000000000E+00 -0.11044550895E+02  0.11044550895E+02  0.00000000000E+00 0. -1.
          2    1    1    2  501    0  0.58276819320E+01  0.20312822988E+02  0.95420356126E+01  0.23186700888E+02  0.00000000000E+00 0. -1.
         -2    1    1    2    0  502 -0.58276819320E+01 -0.20312822988E+02  0.22219608484E+02  0.30664044998E+02  0.00000000000E+00 0.  1.
</event>
<event>
 4    1  0.1822260E+004  0.2076673E+02  0.7546771E-02  0.1522622E+00
         21   -1    0    0  503  502  0.00000000000E+00  0.00000000000E+00  0.20548942230E+01  0.20548942230E+01  0.00000000000E+00 0.  1.
         21   -1    0    0  501  503 -0.00000000000E+00 -0.00000000000E+00 -0.33867776171E+03  0.33867776171E+03  0.00000000000E+00 0. -1.
          2    1    1    2  501    0 -0.13244901068E+02 -0.15994679293E+02 -0.27337794086E+03  0.27416556260E+03  0.00000000000E+00 0. -1.
         -2    1    1    2    0  502  0.13244901068E+02  0.15994679293E+02 -0.63244926625E+02  0.66567093326E+02  0.00000000000E+00 0.  1.
</event>
<event>
 4    1  0.1822260E+004  0.2128277E+02  0.7546771E-02  0.1515266E+00
         21   -1    0    0  503  502  0.00000000000E+00  0.00000000000E+00  0.27707252795E+03  0.27707252795E+03  0.00000000000E+00 0.  1.
         21   -1    0    0  501  503 -0.00000000000E+00 -0.00000000000E+00 -0.16590168330E+01  0.16590168330E+01  0.00000000000E+00 0. -1.
          2    1    1    2  501    0 -0.12671189982E+02  0.17099622162E+02  0.15454726607E+03  0.15600581266E+03  0.00000000000E+00 0.  1.
         -2    1    1    2    0  502  0.12671189982E+02 -0.17099622162E+02  0.12086624505E+03  0.12272573213E+03  0.00000000000E+00 0. -1.
</event>
<event>
 4    1  0.1822260E+004  0.2088860E+02  0.7546771E-02  0.1520861E+00
         21   -1    0    0  503  502  0.00000000000E+00  0.00000000000E+00  0.96325302077E+02  0.96325302077E+02  0.00000000000E+00 0.  1.
         21   -1    0    0  501  503 -0.00000000000E+00 -0.00000000000E+00 -0.10163094128E+02  0.10163094128E+02  0.00000000000E+00 0. -1.
          2    1    1    2  501    0  0.19464986535E+02 -0.75794360611E+01  0.34404463091E+01  0.21170031238E+02  0.00000000000E+00 0. -1.
         -2    1    1    2    0  502 -0.19464986535E+02  0.75794360611E+01  0.82721761640E+02  0.85318364967E+02  0.00000000000E+00 0.  1.
</event>
<event>
 4    1  0.1822260E+004  0.2670399E+02  0.7546771E-02  0.1450604E+00
         21   -1    0    0  501  502  0.00000000000E+00  0.00000000000E+00  0.16995482668E+02  0.16995482668E+02  0.00000000000E+00 0. -1.
         21   -1    0    0  502  503 -0.00000000000E+00 -0.00000000000E+00 -0.47477214255E+02  0.47477214255E+02  0.00000000000E+00 0.  1.
          2    1    1    2  501    0 -0.13159093978E+02 -0.23236637345E+02 -0.42501353343E+01  0.27040094670E+02  0.00000000000E+00 0. -1.
         -2    1    1    2    0  503  0.13159093978E+02  0.23236637345E+02 -0.26231596253E+02  0.37432602253E+02  0.00000000000E+00 0.  1.
</event>
<event>
 4    1  0.1822260E+004  0.2369133E+02  0.7546771E-02  0.1483995E+00
         21   -1    0    0  501  502  0.00000000000E+00  0.00000000000E+00  0.26544676080E+03  0.26544676080E+03  0.00000000000E+00 0. -1.
         21   -1    0    0  502  503 -0.00000000000E+00 -0.00000000000E+00 -0.94392341241E+01  0.94392341241E+01  0.00000000000E+00 0.  1.
          2    1    1    2  501    0 -0.10353817999E+01 -0.23668695876E+02  0.24907781178E+03  0.25020198940E+03  0.00000000000E+00 0. -1.
         -2    1    1    2    0  503  0.10353817999E+01  0.23668695876E+02  0.69297148924E+01  0.24684005518E+02  0.00000000000E+00 0.  1.
</event>
<event>
 4    1  0.1822260E+004  0.3687868E+02  0.7546771E-02  0.1367816E+00
         21   -1    0    0  501  502  0.00000000000E+00  0.00000000000E+00  0.71572120166E+02  0.71572120166E+02  0.00000000000E+00 0. -1.
         21   -1    0    0  502  503 -0.00000000000E+00 -0.00000000000E+00 -0.25139069166E+02  0.25139069166E+02  0.00000000000E+00 0.  1.
          2    1    1    2  501    0 -0.36197212409E+02 -0.70568311568E+01  0.47107890397E+02  0.59826335253E+02  0.00000000000E+00 0. -1.
         -2    1    1    2    0  503  0.36197212409E+02  0.70568311568E+01 -0.67483939708E+00  0.36884854078E+02  0.00000000000E+00 0.  1.
</event>
<event>
 4    1  0.1822260E+004  0.2937424E+02  0.7546771E-02  0.1425113E+00
         21   -1    0    0  501  502  0.00000000000E+00  0.00000000000E+00  0.27961205201E+03  0.27961205201E+03  0.00000000000E+00 0.  1.
         21   -1    0    0  502  503 -0.00000000000E+00 -0.00000000000E+00 -0.39259766453E+01  0.39259766453E+01  0.00000000000E+00 0. -1.
          2    1    1    2  501    0  0.10799444545E+02 -0.27316995291E+02  0.20342355933E+03  0.20553342971E+03  0.00000000000E+00 0. -1.
         -2    1    1    2    0  503 -0.10799444545E+02  0.27316995291E+02  0.72262516026E+02  0.78004598945E+02  0.00000000000E+00 0.  1.
</event>
<event>
 4    1  0.1822260E+004  0.2366323E+02  0.7546771E-02  0.1484334E+00
         21   -1    0    0  501  502  0.00000000000E+00  0.00000000000E+00  0.42259575473E+02  0.42259575473E+02  0.00000000000E+00 0. -1.
         21   -1    0    0  502  503 -0.00000000000E+00 -0.00000000000E+00 -0.13831606368E+02  0.13831606368E+02  0.00000000000E+00 0.  1.
          2    1    1    2  501    0  0.23531993327E+02  0.24887456558E+01  0.19963902600E+02  0.30959747607E+02  0.00000000000E+00 0. -1.
         -2    1    1    2    0  503 -0.23531993327E+02 -0.24887456558E+01  0.84640665056E+01  0.25131434234E+02  0.00000000000E+00 0.  1.
</event>
<event>
 4    1  0.1822260E+004  0.2478065E+02  0.7546771E-02  0.1471272E+00
         21   -1    0    0  501  502  0.00000000000E+00  0.00000000000E+00  0.11044472733E+01  0.11044472733E+01  0.00000000000E+00 0.  1.
         21   -1    0    0  502  503 -0.00000000000E+00 -0.00000000000E+00 -0.56532962510E+03  0.56532962510E+03  0.00000000000E+00 0. -1.
          2    1    1    2  501    0 -0.23775522789E+02  0.69860698918E+01 -0.24574349165E+03  0.24698976566E+03  0.00000000000E+00 0. -1.
         -2    1    1    2    0  503  0.23775522789E+02 -0.69860698918E+01 -0.31848168619E+03  0.31944430671E+03  0.00000000000E+00 0.  1.
</event>
<event>
 4    1  0.1822260E+004  0.2841577E+02  0.7546771E-02  0.1433882E+00
         21   -1    0    0  501  502  0.00000000000E+00  0.00000000000E+00  0.24287591071E+03  0.24287591071E+03  0.00000000000E+00 0.  1.
         21   -1    0    0  502  503 -0.00000000000E+00 -0.00000000000E+00 -0.46120272779E+01  0.46120272779E+01  0.00000000000E+00 0. -1.
          2    1    1    2  501    0 -0.27629008851E+02 -0.66403311649E+01  0.18451207444E+03  0.18668733686E+03  0.00000000000E+00 0.  1.
         -2    1    1    2    0  503  0.27629008851E+02  0.66403311649E+01  0.53751808985E+02  0.60800601125E+02  0.00000000000E+00 0. -1.
</event>
<event>
 4    1  0.1822260E+004  0.3538124E+02  0.7546771E-02  0.1377903E+00
         21   -1    0    0  503  502  0.00000000000E+00  0.00000000000E+00  0.81734719246E+01  0.81734719246E+01  0.00000000000E+00 0. -1.
         21   -1    0    0  501  503 -0.00000000000E+00 -0.00000000000E+00 -0.20128298335E+03  0.20128298335E+03  0.00000000000E+00 0.  1.
          2    1    1    2  501    0  0.35293487633E+02  0.24903759579E+01 -0.14776368843E+03  0.15194058003E+03  0.00000000000E+00 0.  1.
         -2    1    1    2    0  502 -0.35293487633E+02 -0.24903759579E+01 -0.45345822987E+02  0.57515875235E+02  0.00000000000E+00 0. -1.
</event>
<event>
 4    1  0.1822260E+004  0.2838931E+02  0.7546771E-02  0.1434130E+00
         21   -1    0    0  501  502  0.00000000000E+00  0.00000000000E+00  0.36451934072E+03  0.36451934072E+03  0.00000000000E+00 0.  1.
         21   -1    0    0  502  503 -0.00000000000E+00 -0.00000000000E+00 -0.42132605853E+01  0.42132605853E+01  0.00000000000E+00 0. -1.
          2    1    1    2  501    0 -0.20576738471E+02  0.19558908523E+02  0.53056876773E+02  0.60174622904E+02  0.00000000000E+00 0. -1.
         -2    1    1    2    0  503  0.20576738471E+02 -0.19558908523E+02  0.30724920336E+03  0.30855797840E+03  0.00000000000E+00 0.  1.
</event>
<event>
 4    1  0.1822260E+004  0.2714510E+02  0.7546771E-02  0.1446156E+00
         21   -1    0    0  501  502  0.00000000000E+00  0.00000000000E+00  0.53406391638E+02  0.53406391638E+02  0.00000000000E+00 0. -1.
         21   -1    0    0  502  503 -0.00000000000E+00 -0.00000000000E+00 -0.19579404037E+02  0.19579404037E+02  0.00000000000E+00 0.  1.
          2    1    1    2  501    0  0.23124975882E+02  0.14215912331E+02  0.36745046819E+02  0.45684298601E+02  0.00000000000E+00 0. -1.
         -2    1    1    2    0  503 -0.23124975882E+02 -0.14215912331E+02 -0.29180592176E+01  0.27301497075E+02  0.00000000000E+00 0.  1.
</event>
<event>
 4    1  0.1822260E+004  0.2744040E+02  0.7546771E-02  0.1443234E+00
         21   -1    0    0  503  502  0.00000000000E+00  0.00000000000E+00  0.15096323818E+03  0.15096323818E+03  0.00000000000E+00 0. -1.
         21   -1    0    0  501  503 -0.00000000000E+00 -0.00000000000E+00 -0.79907667364E+02  0.79907667364E+02  0.00000000000E+00 0.  1.
          2    1    1    2  501    0  0.18411434062E+02 -0.20346853771E+02 -0.76246902614E+02  0.81034347784E+02  0.00000000000E+00 0.  1.
         -2    1    1    2    0  502 -0.18411434062E+02  0.20346853771E+02  0.14730247343E+03  0.14983655776E+03  0.00000000000E+00 0. -1.
</event>
<event>
 4    1  0.1822260E+004  0.3002420E+02  0.7546771E-02  0.1419386E+00
         21   -1    0    0  503  502  0.00000000000E+00  0.00000000000E+00  0.64420370593E+02  0.64420370593E+02  0.00000000000E+00 0. -1.
         21   -1    0    0  501  503 -0.00000000000E+00 -0.00000000000E+00 -0.30640081042E+02  0.30640081042E+02  0.00000000000E+00 0.  1.
          2    1    1    2  501    0  0.26207666983E+02  0.14649602820E+02 -0.18143896616E+02  0.35080673539E+02  0.00000000000E+00 0.  1.
         -2    1    1    2    0  502 -0.26207666983E+02 -0.14649602820E+02  0.51924186167E+02  0.59979778097E+02  0.00000000000E+00 0. -1.
</event>
<event>
 4    1  0.1822260E+004  0.2008451E+02  0.7546771E-02  0.1532748E+00
         21   -1    0    0  503  502  0.00000000000E+00  0.00000000000E+00  0.66133634320E+02  0.66133634320E+02  0.00000000000E+00 0.  1.
         21   -1    0    0  501  503 -0.00000000000E+00 -0.00000000000E+00 -0.78326584101E+01  0.78326584101E+01  0.00000000000E+00 0. -1.
          2    1    1    2  501    0 -0.13563317364E+02 -0.14812960552E+02  0.11754127518E+02  0.23271160090E+02  0.00000000000E+00 0. -1.
         -2    1    1    2    0  502  0.13563317364E+02  0.14812960552E+02  0.46546848392E+02  0.50695132640E+02  0.00000000000E+00 0.  1.
</event>
<event>
 4    1  0.1822260E+004  0.2408856E+02  0.7546771E-02  0.1479263E+00
         21   -1    0    0  501  502  0.00000000000E+00  0.00000000000E+00  0.45305766937E+03  0.45305766937E+03  0.00000000000E+00 0. -1.
         21   -1    0    0  502  503 -0.00000000000E+00 -0.00000000000E+00 -0.27456161515E+01  0.27456161515E+01  0.00000000000E+00 0.  1.
          2    1    1    2  501    0  0.14951736290E+02  0.18886614732E+02  0.39162176952E+03  0.39236191074E+03  0.00000000000E+00 0. -1.
         -2    1    1    2    0  503 -0.14951736290E+02 -0.18886614732E+02  0.58690283698E+02  0.63441374786E+02  0.00000000000E+00 0.  1.
</event>
<event>
 4    1  0.1822260E+004  0.3023993E+02  0.7546771E-02  0.1417523E+00
         21   -1    0    0  501  502  0.00000000000E+00  0.00000000000E+00  0.18233225206E+02  0.18233225206E+02  0.00000000000E+00 0. -1.
         21   -1    0    0  502  503 -0.00000000000E+00 -0.00000000000E+00 -0.51184027261E+02  0.51184027261E+02  0.00000000000E+00 0.  1.
          2    1    1    2  501    0  0.22677789393E+02  0.20004273310E+02 -0.11549558019E+02  0.32370439800E+02  0.00000000000E+00 0.  1.
         -2    1    1    2    0  503 -0.22677789393E+02 -0.20004273310E+02 -0.21401244037E+02  0.37046812667E+02  0.00000000000E+00 0. -1.
</event>
<event>
 4    1  0.1822260E+004  0.2063413E+02  0.7546771E-02  0.1524553E+00
         21   -1    0    0  503  502  0.00000000000E+00  0.00000000000E+00  0.42977880948E+02  0.42977880948E+02  0.00000000000E+00 0.  1.
         21   -1    0    0  501  503 -0.00000000000E+00 -0.00000000000E+00 -0.38284459364E+02  0.38284459364E+02  0.00000000000E+00 0. -1.
          2    1    1    2  501    0  0.18627145363E+01  0.20549881988E+02 -0.32634707177E+02  0.38610768805E+02  0.00000000000E+00 0. -1.
         -2    1    1    2    0  502 -0.18627145363E+01 -0.20549881988E+02  0.37328128761E+02  0.42651571507E+02  0.00000000000E+00 0.  1.
</event>
<event>
 4    1  0.1822260E+004  0.2151033E+02  0.7546771E-02  0.1512102E+00
         21   -1    0    0  503  502  0.00000000000E+00  0.00000000000E+00  0.10457412955E+03  0.10457412955E+03  0.00000000000E+00 0.  1.
         21   -1    0    0  501  503 -0.00000000000E+00 -0.00000000000E+00 -0.80483666989E+01  0.80483666989E+01  0.00000000000E+00 0. -1.
          2    1    1    2  501    0 -0.21460962992E+02 -0.14565540750E+01  0.10477500596E+02  0.23926397578E+02  0.00000000000E+00 0.  1.
         -2    1    1    2    0  502  0.21460962992E+02  0.14565540750E+01  0.86048262257E+02  0.88696098673E+02  0.00000000000E+00 0. -1.
</event>
<event>
 4    1  0.1822260E+004  0.2192766E+02  0.7546771E-02  0.1506421E+00
         21   -1    0    0  501  502  0.00000000000E+00  0.00000000000E+00  0.16503237404E+02  0.16503237404E+02  0.00000000000E+00 0. -1.
         21   -1    0    0  502  503 -0.00000000000E+00 -0.00000000000E+00 -0.14582146211E+03  0.14582146211E+03  0.00000000000E+00 0.  1.
          2    1    1    2  501    0 -0.19451431767E+02  0.10122445815E+02  0.79438082978E+01  0.23322225394E+02  0.00000000000E+00 0. -1.
         -2    1    1    2    0  503  0.19451431767E+02 -0.10122445815E+02 -0.13726203301E+03  0.13900247412E+03  0.00000000000E+00 0.  1.
</event>
<event>
 4    1  0.1822260E+004  0.3785693E+02  0.7546771E-02  0.1361523E+00
         21   -1    0    0  503  502  0.00000000000E+00  0.00000000000E+00  0.74908818169E+02  0.74908818169E+02  0.00000000000E+00 0. -1.
         21   -1    0    0  501  503 -0.00000000000E+00 -0.00000000000E+00 -0.29723618776E+02  0.29723618776E+02  0.00000000000E+00 0.  1.
          2    1    1    2  501    0  0.29979453500E+02 -0.23116649850E+02 -0.86371832978E+01  0.38829731750E+02  0.00000000000E+00 0.  1.
         -2    1    1    2    0  502 -0.29979453500E+02  0.23116649850E+02  0.53822382691E+02  0.65802705195E+02  0.00000000000E+00 0. -1.
</event>
<event>
 4    1  0.1822260E+004  0.3568253E+02  0.7546771E-02  0.1375827E+00
         21   -1    0    0  503  502  0.00000000000E+00  0.00000000000E+00  0.57025759594E+02  0.57025759594E+02  0.00000000000E+00 0. -1.
         21   -1    0    0  501  503 -0.00000000000E+00 -0.00000000000E+00 -0.73406310254E+02  0.73406310254E+02  0.00000000000E+00 0.  1.
          2    1    1    2  501    0 -0.58761077455E+00  0.35677690601E+02 -0.62591422925E+02  0.72048102798E+02  0.00000000000E+00 0.  1.
         -2    1    1    2    0  502  0.58761077455E+00 -0.35677690601E+02  0.46210872264E+02  0.58383967050E+02  0.00000000000E+00 0. -1.
</event>
<event>
 4    1  0.1822260E+004  0.2118556E+02  0.7546771E-02  0.1516632E+00
         21   -1    0    0  503  502  0.00000000000E+00  0.00000000000E+00  0.82426373075E+01  0.82426373075E+01  0.00000000000E+00 0.  1.
         21   -1    0    0  501  503 -0.00000000000E+00 -0.00000000000E+00 -0.10403077070E+03  0.10403077070E+03  0.00000000000E+00 0. -1.
          2    1    1    2  501    0 -0.14253667304E+02 -0.15673576566E+02 -0.86647832213E+02  0.89200195411E+02  0.00000000000E+00 0. -1.
         -2    1    1    2    0  502  0.14253667304E+02  0.15673576566E+02 -0.91403011823E+01  0.23073212600E+02  0.00000000000E+00 0.  1.
</event>
<event>
 4    1  0.1822260E+004  0.2789459E+02  0.7546771E-02  0.1438823E+00
         21   -1    0    0  501  502  0.00000000000E+00  0.00000000000E+00  0.29300779952E+03  0.29300779952E+03  0.00000000000E+00 0.  1.
         21   -1    0    0  502  503 -0.00000000000E+00 -0.00000000000E+00 -0.41083221792E+01  0.41083221792E+01  0.00000000000E+00 0. -1.
          2    1    1    2  501    0 -0.21883223619E+02  0.17298349096E+02  0.23278963146E+03  0.23445494423E+03  0.00000000000E+00 0.  1.
         -2    1    1    2    0  503  0.21883223619E+02 -0.17298349096E+02  0.56109845884E+02  0.62661177475E+02  0.00000000000E+00 0. -1.
</event>
<event>
 4    1  0.1822260E+004  0.3312922E+02  0.7546771E-02  0.1394215E+00
         21   -1    0    0  503  502  0.00000000000E+00  0.00000000000E+00  0.27284881576E+02  0.27284881576E+02  0.00000000000E+00 0. -1.
         21   -1    0    0  501  503 -0.00000000000E+00 -0.00000000000E+00 -0.88345845065E+02  0.88345845065E+02  0.00000000000E+00 0.  1.
          2    1    1    2  501    0 -0.20011390697E+02 -0.26402450401E+02 -0.73199734154E+02  0.80347658491E+02  0.00000000000E+00 0.  1.
         -2    1    1    2    0  502  0.20011390697E+02  0.26402450401E+02  0.12138770665E+02  0.35283068150E+02  0.00000000000E+00 0. -1.
</event>
<event>
 4    1  0.1822260E+004  0.3083111E+02  0.7546771E-02  0.1412509E+00
         21   -1    0    0  503  502  0.00000000000E+00  0.00000000000E+00  0.63346581755E+02  0.63346581755E+02  0.00000000000E+00 0. -1.
         21   -1    0    0  501  503 -0.00000000000E+00 -0.00000000000E+00 -0.19460931152E+02  0.19460931152E+02  0.00000000000E+00 0.  1.
          2    1    1    2  501    0 -0.22914759760E+01 -0.30745834519E+02  0.21323425840E+01  0.30904758328E+02  0.00000000000E+00 0.  1.
         -2    1    1    2    0  502  0.22914759760E+01  0.30745834519E+02  0.41753308019E+02  0.51902754579E+02  0.00000000000E+00 0. -1.
</event>
<event>
 4    1  0.1822260E+004  0.2254162E+02  0.7546771E-02  0.1498336E+00
         21   -1    0    0  501  502  0.00000000000E+00  0.00000000000E+00  0.10196647470E+02  0.10196647470E+02  0.00000000000E+00 0.  1.
         21   -1    0    0  502  503 -0.00000000000E+00 -0.00000000000E+00 -0.55059331773E+02  0.55059331773E+02  0.00000000000E+00 0. -1.
          2    1    1    2  501    0  0.87285936928E+01 -0.20783082212E+02 -0.12378418106E+02  0.25716727803E+02  0.00000000000E+00 0.  1.
         -2    1    1    2    0  503 -0.87285936928E+01  0.20783082212E+02 -0.32484266197E+02  0.39539251440E+02  0.00000000000E+00 0. -1.
</event>
<event>
 4    1  0.1822260E+004  0.2543954E+02  0.7546771E-02  0.1463946E+00
         21   -1    0    0  501  502  0.00000000000E+00  0.00000000000E+00  0.48552477662E+01  0.48552477662E+01  0.00000000000E+00 0.  1.
         21   -1    0    0  502  503 -0.00000000000E+00 -0.00000000000E+00 -0.43380438015E+03  0.43380438015E+03  0.00000000000E+00 0. -1.
          2    1    1    2  501    0 -0.24842230577E+02 -0.54802871112E+01 -0.31924812733E+02  0.40821117511E+02  0.00000000000E+00 0.  1.
         -2    1    1    2    0  503  0.24842230577E+02  0.54802871112E+01 -0.39702431965E+03  0.39783851041E+03  0.00000000000E+00 0. -1.
</event>
<event>
 4    1  0.1822260E+004  0.4626317E+02  0.7546771E-02  0.1315241E+00
         21   -1    0    0  503  502  0.00000000000E+00  0.00000000000E+00  0.63856918101E+03  0.63856918101E+03  0.00000000000E+00 0.  1.
         21   -1    0    0  501  503 -0.00000000000E+00 -0.00000000000E+00 -0.67113072410E+01  0.67113072410E+01  0.00000000000E+00 0. -1.
          2    1    1    2  501    0 -0.45655981053E+02 -0.74707797078E+01  0.87652880178E+02  0.99112605449E+02  0.00000000000E+00 0. -1.
         -2    1    1    2    0  502  0.45655981053E+02  0.74707797078E+01  0.54420499359E+03  0.54616788280E+03  0.00000000000E+00 0.  1.
</event>
<event>
 4    1  0.1822260E+004  0.5303769E+02  0.7546771E-02  0.1285513E+00
         21   -1    0    0  501  502  0.00000000000E+00  0.00000000000E+00  0.25445338188E+03  0.25445338188E+03  0.00000000000E+00 0.  1.
         21   -1    0    0  502  503 -0.00000000000E+00 -0.00000000000E+00 -0.13549189358E+02  0.13549189358E+02  0.00000000000E+00 0. -1.
          2    1    1    2  501    0 -0.47963913351E+02  0.22637576636E+02  0.17794470062E+03  0.18568067572E+03  0.00000000000E+00 0. -1.
         -2    1    1    2    0  503  0.47963913351E+02 -0.22637576636E+02  0.62959491903E+02  0.82321895511E+02  0.00000000000E+00 0.  1.
</event>
<event>
 4    1  0.1822260E+004  0.2220146E+02  0.7546771E-02  0.1502776E+00
         21   -1    0    0  503  502  0.00000000000E+00  0.00000000000E+00  0.34796190944E+01  0.34796190944E+01  0.00000000000E+00 0. -1.
         21   -1    0    0  501  503 -0.00000000000E+00 -0.00000000000E+00 -0.50056742057E+03  0.50056742057E+03  0.00000000000E+00 0.  1.
          2    1    1    2  501    0  0.22200483304E+02 -0.20867078427E+00 -0.46194866124E+03  0.46248185978E+03  0.00000000000E+00 0.  1.
         -2    1    1    2    0  502 -0.22200483304E+02  0.20867078427E+00 -0.35139140231E+02  0.41565179882E+02  0.00000000000E+00 0. -1.
</event>
<event>
 4    1  0.1822260E+004  0.2318860E+02  0.7546771E-02  0.1490143E+00
         21   -1    0    0  501  502  0.00000000000E+00  0.00000000000E+00  0.33218319745E+03  0.33218319745E+03  0.00000000000E+00 0.  1.
         21   -1    0    0  502  503 -0.00000000000E+00 -0.00000000000E+00 -0.20589289264E+01  0.20589289264E+01  0.00000000000E+00 0. -1.
          2    1    1    2  501    0  0.17427575200E+02  0.15296756171E+02  0.24233741932E+03  0.24344431792E+03  0.00000000000E+00 0. -1.
         -2    1    1    2    0  503 -0.17427575200E+02 -0.15296756171E+02  0.87786849204E+02  0.90797808453E+02  0.00000000000E+00 0.  1.
</event>
<event>
 4    1  0.1822260E+004  0.3625876E+02  0.7546771E-02  0.1371923E+00
         21   -1    0    0  501  502  0.00000000000E+00  0.00000000000E+00  0.25508315732E+03  0.25508315732E+03  0.00000000000E+00 0.  1.
         21   -1    0    0  502  503 -0.00000000000E+00 -0.00000000000E+00 -0.90665728658E+01  0.90665728658E+01  0.00000000000E+00 0. -1.
          2    1    1    2  501    0 -0.36167370609E+02 -0.25727420112E+01  0.20977038352E+03  0.21288097966E+03  0.00000000000E+00 0.  1.
         -2    1    1    2    0  503  0.36167370609E+02  0.25727420112E+01  0.36246200926E+02  0.51268750519E+02  0.00000000000E+00 0. -1.
</event>
<event>
 4    1  0.1822260E+004  0.2920496E+02  0.7546771E-02  0.1426633E+00
         21   -1    0    0  501  502  0.00000000000E+00  0.00000000000E+00  0.58951034183E+02  0.58951034183E+02  0.00000000000E+00 0.  1.
         21   -1    0    0  502  503 -0.00000000000E+00 -0.00000000000E+00 -0.19093139081E+02  0.19093139081E+02  0.00000000000E+00 0. -1.
          2    1    1    2  501    0 -0.24686916902E+02  0.15604041493E+02  0.39133897571E+02  0.48830235675E+02  0.00000000000E+00 0.  1.
         -2    1    1    2    0  503  0.24686916902E+02 -0.15604041493E+02  0.72399753096E+00  0.29213937589E+02  0.00000000000E+00 0. -1.
</event>
<event>
 4    1  0.1822260E+004  0.3276439E+02  0.7546771E-02  0.1397000E+00
         21   -1    0    0  501  502  0.00000000000E+00  0.00000000000E+00  0.77489840765E+01  0.77489840765E+01  0.00000000000E+00 0. -1.
         21   -1    0    0  502  503 -0.00000000000E+00 -0.00000000000E+00 -0.13993115139E+03  0.13993115139E+03  0.00000000000E+00 0.  1.
          2    1    1    2  501    0 -0.15680366223E+02  0.28768585952E+02 -0.58715389941E+02  0.67238400029E+02  0.00000000000E+00 0.  1.
         -2    1    1    2    0  503  0.15680366223E+02 -0.28768585952E+02 -0.73466777369E+02  0.80441735433E+02  0.00000000000E+00 0. -1.
</event>
<event>
 4    1  0.1822260E+004  0.2068608E+02  0.7546771E-02  0.1523794E+00
         21   -1    0    0  501  502  0.00000000000E+00  0.00000000000E+00  0.44345578913E+02  0.44345578913E+02  0.00000000000E+00 0.  1.
         21   -1    0    0  502  503 -0.00000000000E+00 -0.00000000000E+00 -0.10498274944E+02  0.10498274944E+02  0.00000000000E+00 0. -1.
          2    1    1    2  501    0  0.20675092718E+02 -0.67424241047E+00  0.24720646125E+02  0.32233901510E+02  0.00000000000E+00 0. -1.
         -2    1    1    2    0  503 -0.20675092718E+02  0.67424241047E+00  0.91266578436E+01  0.22609952347E+02  0.00000000000E+00 0.  1.
</event>
<event>
 4    1  0.1822260E+004  0.2114648E+02  0.7546771E-02  0.1517184E+00
         21   -1    0    0  503  502  0.00000000000E+00  0.00000000000E+00  0.73404699311E+02  0.73404699311E+02  0.00000000000E+00 0.  1.
         21   -1    0    0  501  503 -0.00000000000E+00 -0.00000000000E+00 -0.61343413032E+01  0.61343413032E+01  0.00000000000E+00 0. -1.
          2    1    1    2  501    0  0.16782540567E+02 -0.12865451582E+02  0.30326909772E+02  0.36971542686E+02  0.00000000000E+00 0. -1.
         -2    1    1    2    0  502 -0.16782540567E+02  0.12865451582E+02  0.36943448236E+02  0.42567497928E+02  0.00000000000E+00 0.  1.
</event>
<event>
 4    1  0.1822260E+004  0.4456955E+02  0.7546771E-02  0.1323606E+00
         21   -1    0    0  501  502  0.00000000000E+00  0.00000000000E+00  0.98220365902E+01  0.98220365902E+01  0.00000000000E+00 0. -1.
         21   -1    0    0  502  503 -0.00000000000E+00 -0.00000000000E+00 -0.23402025356E+03  0.23402025356E+03  0.00000000000E+00 0.  1.
          2    1    1    2  501    0 -0.41043293117E+02  0.17375070870E+02 -0.67172283993E+02  0.80613651043E+02  0.00000000000E+00 0. -1.
         -2    1    1    2    0  503  0.41043293117E+02 -0.17375070870E+02 -0.15702593298E+03  0.16322863911E+03  0.00000000000E+00 0.  1.
</event>
<event>
 4    1  0.1822260E+004  0.3220706E+02  0.7546771E-02  0.1401339E+00
         21   -1    0    0  503  502  0.00000000000E+00  0.00000000000E+00  0.41286269064E+02  0.41286269064E+02  0.00000000000E+00 0.  1.
         21   -1    0    0  501  503 -0.00000000000E+00 -0.00000000000E+00 -0.12016962636E+03  0.12016962636E+03  0.00000000000E+00 0. -1.
          2    1    1    2  501    0  0.10310203166E+01  0.32190556044E+02 -0.11123624745E+03  0.11580499837E+03  0.00000000000E+00 0. -1.
         -2    1    1    2    0  502 -0.10310203166E+01 -0.32190556044E+02  0.32352890147E+02  0.45650897058E+02  0.00000000000E+00 0.  1.
</event>
<event>
 4    1  0.1822260E+004  0.2111358E+02  0.7546771E-02  0.1517649E+00
         21   -1    0    0  501  502  0.00000000000E+00  0.00000000000E+00  0.11256444621E+04  0.11256444621E+04  0.00000000000E+00 0.  1.
         21   -1    0    0  502  503 -0.00000000000E+00 -0.00000000000E+00 -0.10606261324E+01  0.10606261324E+01  0.00000000000E+00 0. -1.
          2    1    1    2  501    0  0.14203678278E+02 -0.15621745603E+02  0.10082351921E+04  0.10084562390E+04  0.00000000000E+00 0.  1.
         -2    1    1    2    0  503 -0.14203678278E+02  0.15621745603E+02  0.11634864388E+03  0.11824884923E+03  0.00000000000E+00 0. -1.
</event>
<event>
 4    1  0.1822260E+004  0.2663389E+02  0.7546771E-02  0.1451321E+00
         21   -1    0    0  501  502  0.00000000000E+00  0.00000000000E+00  0.29590692683E+02  0.29590692683E+02  0.00000000000E+00 0. -1.
         21   -1    0    0  502  503 -0.00000000000E+00 -0.00000000000E+00 -0.29601502504E+02  0.29601502504E+02  0.00000000000E+00 0.  1.
          2    1    1    2  501    0  0.97520894480E+01  0.24784285030E+02  0.12900598966E+02  0.29593740668E+02  0.00000000000E+00 0. -1.
         -2    1    1    2    0  503 -0.97520894480E+01 -0.24784285030E+02 -0.12911408787E+02  0.29598454519E+02  0.00000000000E+00 0.  1.
</event>
<event>
 4    1  0.1822260E+004  0.2404993E+02  0.7546771E-02  0.1479719E+00
         21   -1    0    0  501  502  0.00000000000E+00  0.00000000000E+00  0.29170293062E+02  0.29170293062E+02  0.00000000000E+00 0. -1.
         21   -1    0    0  502  503 -0.00000000000E+00 -0.00000000000E+00 -0.60455146300E+02  0.60455146300E+02  0.00000000000E+00 0.  1.
          2    1    1    2  501    0  0.24006462112E+02 -0.14453304654E+01  0.21093489487E+02  0.31989599904E+02  0.00000000000E+00 0. -1.
         -2    1    1    2    0  503 -0.24006462112E+02  0.14453304654E+01 -0.52378342725E+02  0.57635839457E+02  0.00000000000E+00 0.  1.
</event>
<event>
 4    1  0.1822260E+004  0.4717266E+02  0.7546771E-02  0.1310919E+00
         21   -1    0    0  503  502  0.00000000000E+00  0.00000000000E+00  0.23769260609E+02  0.23769260609E+02  0.00000000000E+00 0.  1.
         21   -1    0    0  501  503 -0.00000000000E+00 -0.00000000000E+00 -0.97761310933E+02  0.97761310933E+02  0.00000000000E+00 0. -1.
          2    1    1    2  501    0  0.45691790308E+02  0.11726907742E+02 -0.24488225815E+02  0.53150101320E+02  0.00000000000E+00 0.  1.
         -2    1    1    2    0  502 -0.45691790308E+02 -0.11726907742E+02 -0.49503824510E+02  0.68380470222E+02  0.00000000000E+00 0. -1.
</event>
<event>
 4    1  0.1822260E+004  0.2091523E+02  0.7546771E-02  0.1520479E+00
         21   -1    0    0  503  502  0.00000000000E+00  0.00000000000E+00  0.19114082626E+03  0.19114082626E+03  0.00000000000E+00 0. -1.
         21   -1    0    0  501  503 -0.00000000000E+00 -0.00000000000E+00 -0.60781228386E+01  0.60781228386E+01  0.00000000000E+00 0.  1.
          2    1    1    2  501    0 -0.19500916212E+02 -0.75604846272E+01  0.14669335906E+02  0.25546742978E+02  0.00000000000E+00 0.  1.
         -2    1    1    2    0  502  0.19500916212E+02  0.75604846272E+01  0.17039336751E+03  0.17167220612E+03  0.00000000000E+00 0. -1.
</event>
<event>
 4    1  0.1822260E+004  0.2013384E+02  0.7546771E-02  0.1532000E+00
         21   -1    0    0  503  502  0.00000000000E+00  0.00000000000E+00  0.54770372380E+01  0.54770372380E+01  0.00000000000E+00 0.  1.
         21   -1    0    0  501  503 -0.00000000000E+00 -0.00000000000E+00 -0.97856035633E+02  0.97856035633E+02  0.00000000000E+00 0. -1.
          2    1    1    2  501    0 -0.42980154047E+01 -0.19669737475E+02 -0.71692839118E+02  0.74466332591E+02  0.00000000000E+00 0. -1.
         -2    1    1    2    0  502  0.42980154047E+01  0.19669737475E+02 -0.20686159277E+02  0.28866740280E+02  0.00000000000E+00 0.  1.
</event>
<event>
 4    1  0.1822260E+004  0.2046067E+02  0.7546771E-02  0.1527106E+00
         21   -1    0    0  503  502  0.00000000000E+00  0.00000000000E+00  0.86125273453E+00  0.86125273453E+00  0.00000000000E+00 0. -1.
         21   -1    0    0  501  503 -0.00000000000E+00 -0.00000000000E+00 -0.61663002445E+03  0.61663002445E+03  0.00000000000E+00 0.  1.
          2    1    1    2  501    0  0.20292702035E+02 -0.26163708049E+01 -0.44994517686E+03  0.45041014790E+03  0.00000000000E+00 0. -1.
         -2    1    1    2    0  502 -0.20292702035E+02  0.26163708049E+01 -0.16582359486E+03  0.16708112929E+03  0.00000000000E+00 0.  1.
</event>
<event>
 4    1  0.1822260E+004  0.2016463E+02  0.7546771E-02  0.1531534E+00
         21   -1    0    0  503  502  0.00000000000E+00  0.00000000000E+00  0.46920526968E+01  0.46920526968E+01  0.00000000000E+00 0.  1.
         21   -1    0    0  501  503 -0.00000000000E+00 -0.00000000000E+00 -0.32517735479E+03  0.32517735479E+03  0.00000000000E+00 0. -1.
          2    1    1    2  501    0 -0.10885886076E+02 -0.16973798663E+02 -0.30150033144E+03  0.30217389400E+03  0.00000000000E+00 0. -1.
         -2    1    1    2    0  502  0.10885886076E+02  0.16973798663E+02 -0.18984970661E+02  0.27695513494E+02  0.00000000000E+00 0.  1.
</event>
<event>
 4    1  0.1822260E+004  0.2393439E+02  0.7546771E-02  0.1481087E+00
         21   -1    0    0  503  502  0.00000000000E+00  0.00000000000E+00  0.13440406241E+02  0.13440406241E+02  0.00000000000E+00 0.  1.
         21   -1    0    0  501  503 -0.00000000000E+00 -0.00000000000E+00 -0.58187286547E+02  0.58187286547E+02  0.00000000000E+00 0. -1.
          2    1    1    2  501    0 -0.15293174721E+02 -0.18411238117E+02 -0.40896710574E+02  0.47385607708E+02  0.00000000000E+00 0.  1.
         -2    1    1    2    0  502  0.15293174721E+02  0.18411238117E+02 -0.38501697324E+01  0.24242085080E+02  0.00000000000E+00 0. -1.
</event>
<event>
 4    1  0.1822260E+004  0.2128363E+02  0.7546771E-02  0.1515254E+00
         21   -1    0    0  503  502  0.00000000000E+00  0.00000000000E+00  0.18885352123E+01  0.18885352123E+01  0.00000000000E+00 0.  1.
         21   -1    0    0  501  503 -0.00000000000E+00 -0.00000000000E+00 -0.58523200967E+03  0.58523200967E+03  0.00000000000E+00 0. -1.
          2    1    1    2  501    0  0.89541807880E+01  0.19308435364E+02 -0.51718590290E+03  0.51762365787E+03  0.00000000000E+00 0. -1.
         -2    1    1    2    0  502 -0.89541807880E+01 -0.19308435364E+02 -0.66157571556E+02  0.69496887009E+02  0.00000000000E+00 0.  1.
</event>
<event>
 4    1  0.1822260E+004  0.2009083E+02  0.7546771E-02  0.1532652E+00
         21   -1    0    0  503  502  0.00000000000E+00  0.00000000000E+00  0.51991881245E+01  0.51991881245E+01  0.00000000000E+00 0.  1.
         21   -1    0    0  501  503 -0.00000000000E+00 -0.00000000000E+00 -0.78898149173E+02  0.78898149173E+02  0.00000000000E+00 0. -1.
          2    1    1    2  501    0 -0.52106058785E+01  0.19403373666E+02 -0.42168950238E+02  0.46710402348E+02  0.00000000000E+00 0. -1.
         -2    1    1    2    0  502  0.52106058785E+01 -0.19403373666E+02 -0.31530010810E+02  0.37386934950E+02  0.00000000000E+00 0.  1.
</event>
<event>
 4    1  0.1822260E+004  0.3565013E+02  0.7546771E-02  0.1376049E+00
         21   -1    0    0  501  502  0.00000000000E+00  0.00000000000E+00  0.31853429064E+02  0.31853429064E+02  0.00000000000E+00 0. -1.
         21   -1    0    0  502  503 -0.00000000000E+00 -0.00000000000E+00 -0.46839139464E+02  0.46839139464E+02  0.00000000000E+00 0.  1.
          2    1    1    2  501    0 -0.31915090529E+02  0.15885811487E+02  0.76522236860E+01  0.36462152123E+02  0.00000000000E+00 0. -1.
         -2    1    1    2    0  503  0.31915090529E+02 -0.15885811487E+02 -0.22637934086E+02  0.42230416405E+02  0.00000000000E+00 0.  1.
</event>
<event>
 4    1  0.1822260E+004  0.2608719E+02  0.7546771E-02  0.1456999E+00
         21   -1    0    0  501  502  0.00000000000E+00  0.00000000000E+00  0.45524201807E+03  0.45524201807E+03  0.00000000000E+00 0. -1.
         21   -1    0    0  502  503 -0.00000000000E+00 -0.00000000000E+00 -0.15153558176E+01  0.15153558176E+01  0.00000000000E+00 0.  1.
          2    1    1    2  501    0 -0.97500423475E+01 -0.24196653389E+02  0.25339747579E+03  0.25473677021E+03  0.00000000000E+00 0.  1.
         -2    1    1    2    0  503  0.97500423475E+01  0.24196653389E+02  0.20032918646E+03  0.20202060367E+03  0.00000000000E+00 0. -1.
</event>
<event>
 4    1  0.1822260E+004  0.3293279E+02  0.7546771E-02  0.1395709E+00
         21   -1    0    0  501  502  0.00000000000E+00  0.00000000000E+00  0.29160963997E+02  0.29160963997E+02  0.00000000000E+00 0.  1.
         21   -1    0    0  502  503 -0.00000000000E+00 -0.00000000000E+00 -0.17758114940E+03  0.17758114940E+03  0.00000000000E+00 0. -1.
          2    1    1    2  501    0  0.42853818156E+01  0.32652783607E+02  0.17700706518E+02  0.37388284072E+02  0.00000000000E+00 0.  1.
         -2    1    1    2    0  503 -0.42853818156E+01 -0.32652783607E+02 -0.16612089192E+03  0.16935382933E+03  0.00000000000E+00 0. -1.
</event>
<event>
 4    1  0.1822260E+004  0.2283685E+02  0.7546771E-02  0.1494557E+00
         21   -1    0    0  503  502  0.00000000000E+00  0.00000000000E+00  0.56617544521E+02  0.56617544521E+02  0.00000000000E+00 0.  1.
         21   -1    0    0  501  503 -0.00000000000E+00 -0.00000000000E+00 -0.98953913930E+01  0.98953913930E+01  0.00000000000E+00 0. -1.
          2    1    1    2  501    0  0.15931656678E+02 -0.16361667433E+02  0.14617018975E+02  0.27114186128E+02  0.00000000000E+00 0. -1.
         -2    1    1    2    0  502 -0.15931656678E+02  0.16361667433E+02  0.32105134153E+02  0.39398749786E+02  0.00000000000E+00 0.  1.
</event>
<event>
 4    1  0.1822260E+004  0.2683808E+02  0.7546771E-02  0.1449241E+00
         21   -1    0    0  501  502  0.00000000000E+00  0.00000000000E+00  0.77815372918E+02  0.77815372918E+02  0.00000000000E+00 0.  1.
         21   -1    0    0  502  503 -0.00000000000E+00 -0.00000000000E+00 -0.11099732844E+02  0.11099732844E+02  0.00000000000E+00 0. -1.
          2    1    1    2  501    0 -0.52658947401E+01 -0.26316398077E+02  0.51475514134E+02  0.58051795928E+02  0.00000000000E+00 0.  1.
         -2    1    1    2    0  503  0.52658947401E+01  0.26316398077E+02  0.15240125941E+02  0.30863309833E+02  0.00000000000E+00 0. -1.
</event>
<event>
 4    1  0.1822260E+004  0.2349846E+02  0.7546771E-02  0.1486332E+00
         21   -1    0    0  501  502  0.00000000000E+00  0.00000000000E+00  0.40743176420E+03  0.40743176420E+03  0.00000000000E+00 0. -1.
         21   -1    0    0  502  503 -0.00000000000E+00 -0.00000000000E+00 -0.18996107589E+01  0.18996107589E+01  0.00000000000E+00 0.  1.
          2    1    1    2  501    0 -0.10250658461E+02  0.21144777555E+02  0.31232570120E+03  0.31320843100E+03  0.00000000000E+00 0. -1.
         -2    1    1    2    0  503  0.10250658461E+02 -0.21144777555E+02  0.93206452233E+02  0.96122943955E+02  0.00000000000E+00 0.  1.
</event>
<event>
 4    1  0.1822260E+004  0.3174219E+02  0.7546771E-02  0.1405038E+00
         21   -1    0    0  503  502  0.00000000000E+00  0.00000000000E+00  0.10187185811E+03  0.10187185811E+03  0.00000000000E+00 0. -1.
         21   -1    0    0  501  503 -0.00000000000E+00 -0.00000000000E+00 -0.12290709776E+02  0.12290709776E+02  0.00000000000E+00 0.  1.
          2    1    1    2  501    0  0.30142323757E+02 -0.99502300908E+01  0.19565813396E+02  0.37287904395E+02  0.00000000000E+00 0.  1.
         -2    1    1    2    0  502 -0.30142323757E+02  0.99502300908E+01  0.70015334943E+02  0.76874663495E+02  0.00000000000E+00 0. -1.
</event>
<event>
 4    1  0.1822260E+004  0.3240534E+02  0.7546771E-02  0.1399784E+00
         21   -1    0    0  503  502  0.00000000000E+00  0.00000000000E+00  0.18247129992E+03  0.18247129992E+03  0.00000000000E+00 0.  1.
         21   -1    0    0  501  503 -0.00000000000E+00 -0.00000000000E+00 -0.20199835842E+02  0.20199835842E+02  0.00000000000E+00 0. -1.
          2    1    1    2  501    0 -0.71317167174E+01  0.31610827046E+02 -0.45573287572E+01  0.32724226733E+02  0.00000000000E+00 0. -1.
         -2    1    1    2    0  502  0.71317167174E+01 -0.31610827046E+02  0.16682879283E+03  0.16994690903E+03  0.00000000000E+00 0.  1.
</event>
<event>
 4    1  0.1822260E+004  0.3136320E+02  0.7546771E-02  0.1408109E+00
         21   -1    0    0  503  502  0.00000000000E+00  0.00000000000E+00  0.51306052529E+02  0.51306052529E+02  0.00000000000E+00 0. -1.
         21   -1    0    0  501  503 -0.00000000000E+00 -0.00000000000E+00 -0.20010937761E+02  0.20010937761E+02  0.00000000000E+00 0.  1.
          2    1    1    2  501    0  0.30994885166E+02  0.47924166356E+01  0.83472514679E+01  0.32454996083E+02  0.00000000000E+00 0. -1.
         -2    1    1    2    0  502 -0.30994885166E+02 -0.47924166356E+01  0.22947863301E+02  0.38861994207E+02  0.00000000000E+00 0.  1.
</event>
<event>
 4    1  0.1822260E+004  0.2485798E+02  0.7546771E-02  0.1470399E+00
         21   -1    0    0  501  502  0.00000000000E+00  0.00000000000E+00  0.50560615309E+02  0.50560615309E+02  0.00000000000E+00 0. -1.
         21   -1    0    0  502  503 -0.00000000000E+00 -0.00000000000E+00 -0.19010546295E+02  0.19010546295E+02  0.00000000000E+00 0.  1.
          2    1    1    2  501    0 -0.24100563654E+02  0.60894864713E+01  0.36562958449E+02  0.44212769021E+02  0.00000000000E+00 0. -1.
         -2    1    1    2    0  503  0.24100563654E+02 -0.60894864713E+01 -0.50128894349E+01  0.25358392584E+02  0.00000000000E+00 0.  1.
</event>
<event>
 4    1  0.1822260E+004  0.2415104E+02  0.7546771E-02  0.1478529E+00
         21   -1    0    0  503  502  0.00000000000E+00  0.00000000000E+00  0.30898061850E+01  0.30898061850E+01  0.00000000000E+00 0. -1.
         21   -1    0    0  501  503 -0.00000000000E+00 -0.00000000000E+00 -0.24590133120E+03  0.24590133120E+03  0.00000000000E+00 0.  1.
          2    1    1    2  501    0 -0.22608741277E+02 -0.84921917851E+01 -0.18141230198E+03  0.18301282964E+03  0.00000000000E+00 0.  1.
         -2    1    1    2    0  502  0.22608741277E+02  0.84921917851E+01 -0.61399223029E+02  0.65978307739E+02  0.00000000000E+00 0. -1.
</event>
<event>
 4    1  0.1822260E+004  0.2541638E+02  0.7546771E-02  0.1464199E+00
         21   -1    0    0  501  502  0.00000000000E+00  0.00000000000E+00  0.15474211184E+02  0.15474211184E+02  0.00000000000E+00 0.  1.
         21   -1    0    0  502  503 -0.00000000000E+00 -0.00000000000E+00 -0.65764325361E+02  0.65764325361E+02  0.00000000000E+00 0. -1.
          2    1    1    2  501    0  0.22356484652E+02  0.12090484754E+02 -0.59769211914E+00  0.25423403853E+02  0.00000000000E+00 0.  1.
         -2    1    1    2    0  503 -0.22356484652E+02 -0.12090484754E+02 -0.49692422057E+02  0.55815132693E+02  0.00000000000E+00 0. -1.
</event>
<event>
 4    1  0.1822260E+004  0.2145379E+02  0.7546771E-02  0.1512884E+00
         21   -1    0    0  503  502  0.00000000000E+00  0.00000000000E+00  0.97321236473E+01  0.97321236473E+01  0.00000000000E+00 0. -1.
         21   -1    0    0  501  503 -0.00000000000E+00 -0.00000000000E+00 -0.60284158847E+02  0.60284158847E+02  0.00000000000E+00 0.  1.
          2    1    1    2  501    0  0.21179819357E+02  0.34176460198E+01 -0.41527201028E+02  0.46741560495E+02  0.00000000000E+00 0.  1.
         -2    1    1    2    0  502 -0.21179819357E+02 -0.34176460198E+01 -0.90248341715E+01  0.23274721999E+02  0.00000000000E+00 0. -1.
</event>
<event>
 4    1  0.1822260E+004  0.2194780E+02  0.7546771E-02  0.1506151E+00
         21   -1    0    0  503  502  0.00000000000E+00  0.00000000000E+00  0.86584041492E+01  0.86584041492E+01  0.00000000000E+00 0.  1.
         21   -1    0    0  501  503 -0.00000000000E+00 -0.00000000000E+00 -0.57917164815E+02  0.57917164815E+02  0.00000000000E+00 0. -1.
          2    1    1    2  501    0  0.81117281952E+01 -0.20393764751E+02 -0.31237906751E+02  0.38177383268E+02  0.00000000000E+00 0.  1.
         -2    1    1    2    0  502 -0.81117281952E+01  0.20393764751E+02 -0.18020853915E+02  0.28398185696E+02  0.00000000000E+00 0. -1.
</event>
<event>
 4    1  0.1822260E+004  0.2777534E+02  0.7546771E-02  0.1439971E+00
         21   -1    0    0  503  502  0.00000000000E+00  0.00000000000E+00  0.36550914045E+02  0.36550914045E+02  0.00000000000E+00 0. -1.
         21   -1    0    0  501  503 -0.00000000000E+00 -0.00000000000E+00 -0.12950198062E+03  0.12950198062E+03  0.00000000000E+00 0.  1.
          2    1    1    2  501    0 -0.27812140480E+01 -0.27635739662E+02 -0.12243526678E+03  0.12554626163E+03  0.00000000000E+00 0.  1.
         -2    1    1    2    0  502  0.27812140480E+01  0.27635739662E+02  0.29484200203E+02  0.40506633035E+02  0.00000000000E+00 0. -1.
</event>
<event>
 4    1  0.1822260E+004  0.2008561E+02  0.7546771E-02  0.1532731E+00
         21   -1    0    0  501  502  0.00000000000E+00  0.00000000000E+00  0.49738015576E+01  0.49738015576E+01  0.00000000000E+00 0. -1.
         21   -1    0    0  502  503 -0.00000000000E+00 -0.00000000000E+00 -0.97743224327E+02  0.97743224327E+02  0.00000000000E+00 0.  1.
          2    1    1    2  501    0 -0.15402927119E+02 -0.12891139475E+02 -0.25199148009E+02  0.32224659830E+02  0.00000000000E+00 0. -1.
         -2    1    1    2    0  503  0.15402927119E+02  0.12891139475E+02 -0.67570274760E+02  0.70492366054E+02  0.00000000000E+00 0.  1.
</event>
<event>
 4    1  0.1822260E+004  0.2078613E+02  0.7546771E-02  0.1522340E+00
         21   -1    0    0  501  502  0.00000000000E+00  0.00000000000E+00  0.11263489209E+03  0.11263489209E+03  0.00000000000E+00 0.  1.
         21   -1    0    0  502  503 -0.00000000000E+00 -0.00000000000E+00 -0.43045323515E+01  0.43045323515E+01  0.00000000000E+00 0. -1.
          2    1    1    2  501    0 -0.47591535924E+01  0.20233973389E+02  0.73456197602E+02  0.76340527822E+02  0.00000000000E+00 0. -1.
         -2    1    1    2    0  503  0.47591535924E+01 -0.20233973389E+02  0.34874162137E+02  0.40598896620E+02  0.00000000000E+00 0.  1.
</event>
<event>
 4    1  0.1822260E+004  0.3292497E+02  0.7546771E-02  0.1395769E+00
         21   -1    0    0  503  502  0.00000000000E+00  0.00000000000E+00  0.15313531910E+01  0.15313531910E+01  0.00000000000E+00 0. -1.
         21   -1    0    0  501  503 -0.00000000000E+00 -0.00000000000E+00 -0.70790578134E+03  0.70790578134E+03  0.00000000000E+00 0.  1.
          2    1    1    2  501    0 -0.24359553063E+02 -0.22150980732E+02 -0.35316477725E+03  0.35469622731E+03  0.00000000000E+00 0.  1.
         -2    1    1    2    0  502  0.24359553063E+02  0.22150980732E+02 -0.35320965089E+03  0.35474090722E+03  0.00000000000E+00 0. -1.
</event>
<event>
 4    1  0.1822260E+004  0.2088490E+02  0.7546771E-02  0.1520915E+00
         21   -1    0    0  501  502  0.00000000000E+00  0.00000000000E+00  0.34617684605E+02  0.34617684605E+02  0.00000000000E+00 0.  1.
         21   -1    0    0  502  503 -0.00000000000E+00 -0.00000000000E+00 -0.24507688352E+02  0.24507688352E+02  0.00000000000E+00 0. -1.
          2    1    1    2  501    0  0.18160076029E+02  0.10314576322E+02  0.25661702916E+02  0.33086278767E+02  0.00000000000E+00 0.  1.
         -2    1    1    2    0  503 -0.18160076029E+02 -0.10314576322E+02 -0.15551706663E+02  0.26039094190E+02  0.00000000000E+00 0. -1.
</event>
<event>
 4    1  0.1822260E+004  0.2448920E+02  0.7546771E-02  0.1474599E+00
         21   -1    0    0  503  502  0.00000000000E+00  0.00000000000E+00  0.38589620221E+01  0.38589620221E+01  0.00000000000E+00 0. -1.
         21   -1    0    0  501  503 -0.00000000000E+00 -0.00000000000E+00 -0.23608362473E+03  0.23608362473E+03  0.00000000000E+00 0.  1.
          2    1    1    2  501    0 -0.21136088983E+02  0.12368783378E+02 -0.18624338327E+03  0.18784653010E+03  0.00000000000E+00 0.  1.
         -2    1    1    2    0  502  0.21136088983E+02 -0.12368783378E+02 -0.45981279444E+02  0.52096056656E+02  0.00000000000E+00 0. -1.
</event>
<event>
 4    1  0.1822260E+004  0.2192372E+02  0.7546771E-02  0.1506474E+00
         21   -1    0    0  501  502  0.00000000000E+00  0.00000000000E+00  0.41225137208E+01  0.41225137208E+01  0.00000000000E+00 0.  1.
         21   -1    0    0  502  503 -0.00000000000E+00 -0.00000000000E+00 -0.19339228675E+03  0.19339228675E+03  0.00000000000E+00 0. -1.
          2    1    1    2  501    0 -0.19722537935E+02  0.95744931852E+01 -0.32400079793E+02  0.39120513710E+02  0.00000000000E+00 0. -1.
         -2    1    1    2    0  503  0.19722537935E+02 -0.95744931852E+01 -0.15686969323E+03  0.15839428676E+03  0.00000000000E+00 0.  1.
</event>
<event>
 4    1  0.1822260E+004  0.3235325E+02  0.7546771E-02  0.1400191E+00
         21   -1    0    0  501  502  0.00000000000E+00  0.00000000000E+00  0.23415184083E+03  0.23415184083E+03  0.00000000000E+00 0.  1.
         21   -1    0    0  502  503 -0.00000000000E+00 -0.00000000000E+00 -0.47821193455E+02  0.47821193455E+02  0.00000000000E+00 0. -1.
          2    1    1    2  501    0 -0.74680116419E+01 -0.31479540532E+02  0.22740049585E+03  0.22969048344E+03  0.00000000000E+00 0.  1.
         -2    1    1    2    0  503  0.74680116419E+01  0.31479540532E+02 -0.41069848470E+02  0.52282550850E+02  0.00000000000E+00 0. -1.
</event>
<event>
 4    1  0.1822260E+004  0.2456899E+02  0.7546771E-02  0.1473683E+00
         21   -1    0    0  501  502  0.00000000000E+00  0.00000000000E+00  0.44149689533E+01  0.44149689533E+01  0.00000000000E+00 0. -1.
         21   -1    0    0  502  503 -0.00000000000E+00 -0.00000000000E+00 -0.22481370770E+03  0.22481370770E+03  0.00000000000E+00 0.  1.
          2    1    1    2  501    0  0.20446856388E+02 -0.13622082328E+02 -0.38454879532E+02  0.45633461658E+02  0.00000000000E+00 0. -1.
         -2    1    1    2    0  503 -0.20446856388E+02  0.13622082328E+02 -0.18194385921E+03  0.18359521499E+03  0.00000000000E+00 0.  1.
</event>
<event>
 4    1  0.1822260E+004  0.2103959E+02  0.7546771E-02  0.1518700E+00
         21   -1    0    0  503  502  0.00000000000E+00  0.00000000000E+00  0.86117420173E+03  0.86117420173E+03  0.00000000000E+00 0.  1.
         21   -1    0    0  501  503 -0.00000000000E+00 -0.00000000000E+00 -0.66268876592E+00  0.66268876592E+00  0.00000000000E+00 0. -1.
          2    1    1    2  501    0 -0.66304051833E+01 -0.19967521138E+02  0.22615511750E+03  0.22713168283E+03  0.00000000000E+00 0. -1.
         -2    1    1    2    0  502  0.66304051833E+01  0.19967521138E+02  0.63435639546E+03  0.63470520766E+03  0.00000000000E+00 0.  1.
</event>
<event>
 4    1  0.1822260E+004  0.2060903E+02  0.7546771E-02  0.1524921E+00
         21   -1    0    0  503  502  0.00000000000E+00  0.00000000000E+00  0.14714672840E+01  0.14714672840E+01  0.00000000000E+00 0.  1.
         21   -1    0    0  501  503 -0.00000000000E+00 -0.00000000000E+00 -0.55704700384E+03  0.55704700384E+03  0.00000000000E+00 0. -1.
          2    1    1    2  501    0 -0.10088527565E+02 -0.17970908942E+02 -0.83942883528E+02  0.86435754475E+02  0.00000000000E+00 0.  1.
         -2    1    1    2    0  502  0.10088527565E+02  0.17970908942E+02 -0.47163265302E+03  0.47208271664E+03  0.00000000000E+00 0. -1.
</event>
<event>
 4    1  0.1822260E+004  0.2975765E+02  0.7546771E-02  0.1421714E+00
         21   -1    0    0  503  502  0.00000000000E+00  0.00000000000E+00  0.47767933921E+01  0.47767933921E+01  0.00000000000E+00 0.  1.
         21   -1    0    0  501  503 -0.00000000000E+00 -0.00000000000E+00 -0.46161820434E+03  0.46161820434E+03  0.00000000000E+00 0. -1.
          2    1    1    2  501    0  0.29408089950E+02  0.45477197340E+01 -0.40881592638E+03  0.40989752277E+03  0.00000000000E+00 0. -1.
         -2    1    1    2    0  502 -0.29408089950E+02 -0.45477197340E+01 -0.48025484563E+02  0.56497474959E+02  0.00000000000E+00 0.  1.
</event>
<event>
 4    1  0.1822260E+004  0.2326250E+02  0.7546771E-02  0.1489228E+00
         21   -1    0    0  501  502  0.00000000000E+00  0.00000000000E+00  0.43865150171E+02  0.43865150171E+02  0.00000000000E+00 0. -1.
         21   -1    0    0  502  503 -0.00000000000E+00 -0.00000000000E+00 -0.19947372309E+02  0.19947372309E+02  0.00000000000E+00 0.  1.
          2    1    1    2  501    0 -0.21667289718E+02 -0.84659666972E+01  0.31667192360E+02  0.39293194167E+02  0.00000000000E+00 0. -1.
         -2    1    1    2    0  503  0.21667289718E+02  0.84659666972E+01 -0.77494144975E+01  0.24519328313E+02  0.00000000000E+00 0.  1.
</event>
<event>
 4    1  0.1822260E+004  0.2922641E+02  0.7546771E-02  0.1426440E+00
         21   -1    0    0  501  502  0.00000000000E+00  0.00000000000E+00  0.14800622063E+02  0.14800622063E+02  0.00000000000E+00 0. -1.
         21   -1    0    0  502  503 -0.00000000000E+00 -0.00000000000E+00 -0.71187543690E+02  0.71187543690E+02  0.00000000000E+00 0.  1.
          2    1    1    2  501    0 -0.24251591363E+01 -0.29125621257E+02 -0.94879633891E+01  0.30727913364E+02  0.00000000000E+00 0. -1.
         -2    1    1    2    0  503  0.24251591363E+01  0.29125621257E+02 -0.46898958238E+02  0.55260252390E+02  0.00000000000E+00 0.  1.
</event>
<event>
 4    1  0.1822260E+004  0.4230413E+02  0.7546771E-02  0.1335488E+00
         21   -1    0    0  501  502  0.00000000000E+00  0.00000000000E+00  0.81745987020E+02  0.81745987020E+02  0.00000000000E+00 0. -1.
         21   -1    0    0  502  503 -0.00000000000E+00 -0.00000000000E+00 -0.66062007777E+02  0.66062007777E+02  0.00000000000E+00 0.  1.
          2    1    1    2  501    0  0.37326109174E+02 -0.19909822105E+02  0.68271962251E+02  0.80316251605E+02  0.00000000000E+00 0. -1.
         -2    1    1    2    0  503 -0.37326109174E+02  0.19909822105E+02 -0.52587983008E+02  0.67491743192E+02  0.00000000000E+00 0.  1.
</event>
<event>
 4    1  0.1822260E+004  0.2676907E+02  0.7546771E-02  0.1449942E+00
         21   -1    0    0  503  502  0.00000000000E+00  0.00000000000E+00  0.50356211599E+02  0.50356211599E+02  0.00000000000E+00 0. -1.
         21   -1    0    0  501  503 -0.00000000000E+00 -0.00000000000E+00 -0.14231556998E+02  0.14231556998E+02  0.00000000000E+00 0.  1.
          2    1    1    2  501    0  0.15855102592E+01  0.26722072690E+02  0.18368184677E+02  0.32464953718E+02  0.00000000000E+00 0. -1.
         -2    1    1    2    0  502 -0.15855102592E+01 -0.26722072690E+02  0.17756469925E+02  0.32122814880E+02  0.00000000000E+00 0.  1.
</event>
<event>
 4    1  0.1822260E+004  0.3050795E+02  0.7546771E-02  0.1415233E+00
         21   -1    0    0  501  502  0.00000000000E+00  0.00000000000E+00  0.20205630752E+01  0.20205630752E+01  0.00000000000E+00 0. -1.
         21   -1    0    0  502  503 -0.00000000000E+00 -0.00000000000E+00 -0.71200834115E+03  0.71200834115E+03  0.00000000000E+00 0.  1.
          2    1    1    2  501    0 -0.19712283928E+02  0.23284350764E+02 -0.14286206136E+03  0.14608320815E+03  0.00000000000E+00 0. -1.
         -2    1    1    2    0  503  0.19712283928E+02 -0.23284350764E+02 -0.56712571671E+03  0.56794569607E+03  0.00000000000E+00 0.  1.
</event>
<event>
 4    1  0.1822260E+004  0.2111112E+02  0.7546771E-02  0.1517684E+00
         21   -1    0    0  503  502  0.00000000000E+00  0.00000000000E+00  0.35725277208E+02  0.35725277208E+02  0.00000000000E+00 0.  1.
         21   -1    0    0  501  503 -0.00000000000E+00 -0.00000000000E+00 -0.14226972316E+02  0.14226972316E+02  0.00000000000E+00 0. -1.
          2    1    1    2  501    0 -0.11723220654E+01 -0.21078544012E+02  0.19513302363E+02  0.28748014293E+02  0.00000000000E+00 0.  1.
         -2    1    1    2    0  502  0.11723220654E+01  0.21078544012E+02  0.19850025292E+01  0.21204235231E+02  0.00000000000E+00 0. -1.
</event>
<event>
 4    1  0.1822260E+004  0.2056197E+02  0.7546771E-02  0.1525612E+00
         21   -1    0    0  503  502  0.00000000000E+00  0.00000000000E+00  0.26776725188E+03  0.26776725188E+03  0.00000000000E+00 0.  1.
         21   -1    0    0  501  503 -0.00000000000E+00 -0.00000000000E+00 -0.16259463309E+01  0.16259463309E+01  0.00000000000E+00 0. -1.
          2    1    1    2  501    0  0.17811316414E+01 -0.20484682265E+02  0.11017386835E+03  0.11207620579E+03  0.00000000000E+00 0.  1.
         -2    1    1    2    0  502 -0.17811316414E+01  0.20484682265E+02  0.15596743720E+03  0.15731699242E+03  0.00000000000E+00 0. -1.
</event>
<event>
 4    1  0.1822260E+004  0.2189997E+02  0.7546771E-02  0.1506793E+00
         21   -1    0    0  503  502  0.00000000000E+00  0.00000000000E+00  0.57907040845E+02  0.57907040845E+02  0.00000000000E+00 0. -1.
         21   -1    0    0  501  503 -0.00000000000E+00 -0.00000000000E+00 -0.11684660845E+02  0.11684660845E+02  0.00000000000E+00 0.  1.
          2    1    1    2  501    0  0.85438996692E+01 -0.20164589463E+02  0.41887214062E+02  0.47266770481E+02  0.00000000000E+00 0. -1.
         -2    1    1    2    0  502 -0.85438996692E+01  0.20164589463E+02  0.43351659380E+01  0.22324931209E+02  0.00000000000E+00 0.  1.
</event>
<event>
 4    1  0.1822260E+004  0.6650110E+02  0.7546771E-02  0.1239212E+00
         21   -1    0    0  503  502  0.00000000000E+00  0.00000000000E+00  0.28556421599E+03  0.28556421599E+03  0.00000000000E+00 0.  1.
         21   -1    0    0  501  503 -0.00000000000E+00 -0.00000000000E+00 -0.65238913981E+02  0.65238913981E+02  0.00000000000E+00 0. -1.
          2    1    1    2  501    0  0.54840907561E+02  0.37614765562E+02 -0.43012069743E+02  0.79198698689E+02  0.00000000000E+00 0. -1.
         -2    1    1    2    0  502 -0.54840907561E+02 -0.37614765562E+02  0.26333737175E+03  0.27160443128E+03  0.00000000000E+00 0.  1.
</event>
<event>
 4    1  0.1822260E+004  0.2623262E+02  0.7546771E-02  0.1455473E+00
         21   -1    0    0  503  502  0.00000000000E+00  0.00000000000E+00  0.81390277357E+02  0.81390277357E+02  0.00000000000E+00 0.  1.
         21   -1    0    0  501  503 -0.00000000000E+00 -0.00000000000E+00 -0.11518742805E+02  0.11518742805E+02  0.00000000000E+00 0. -1.
          2    1    1    2  501    0 -0.26209329863E+02  0.11052737005E+01  0.10977514246E+02  0.28436884866E+02  0.00000000000E+00 0. -1.
         -2    1    1    2    0  502  0.26209329863E+02 -0.11052737005E+01  0.58894020306E+02  0.64472135296E+02  0.00000000000E+00 0.  1.
</event>
<event>
 4    1  0.1822260E+004  0.2138050E+02  0.7546771E-02  0.1513901E+00
         21   -1    0    0  501  502  0.00000000000E+00  0.00000000000E+00  0.53419116296E+02  0.53419116296E+02  0.00000000000E+00 0. -1.
         21   -1    0    0  502  503 -0.00000000000E+00 -0.00000000000E+00 -0.31305181060E+02  0.31305181060E+02  0.00000000000E+00 0.  1.
          2    1    1    2  501    0 -0.21360697654E+02  0.91989628405E+00  0.47168003744E+02  0.51787509987E+02  0.00000000000E+00 0. -1.
         -2    1    1    2    0  503  0.21360697654E+02 -0.91989628405E+00 -0.25054068507E+02  0.32936787369E+02  0.00000000000E+00 0.  1.
</event>
<event>
 4    1  0.1822260E+004  0.2764488E+02  0.7546771E-02  0.1441236E+00
         21   -1    0    0  503  502  0.00000000000E+00  0.00000000000E+00  0.49692269463E+01  0.49692269463E+01  0.00000000000E+00 0. -1.
         21   -1    0    0  501  503 -0.00000000000E+00 -0.00000000000E+00 -0.28432821212E+03  0.28432821212E+03  0.00000000000E+00 0.  1.
          2    1    1    2  501    0  0.26689962282E+02  0.72031561352E+01 -0.23768851047E+03  0.23929075944E+03  0.00000000000E+00 0.  1.
         -2    1    1    2    0  502 -0.26689962282E+02 -0.72031561352E+01 -0.41670474700E+02  0.50006679620E+02  0.00000000000E+00 0. -1.
</event>
<event>
 4    1  0.1822260E+004  0.2257603E+02  0.7546771E-02  0.1497892E+00
         21   -1    0    0  503  502  0.00000000000E+00  0.00000000000E+00  0.97573109374E+01  0.97573109374E+01  0.00000000000E+00 0. -1.
         21   -1    0    0  501  503 -0.00000000000E+00 -0.00000000000E+00 -0.54364774158E+02  0.54364774158E+02  0.00000000000E+00 0.  1.
          2    1    1    2  501    0 -0.20296075814E+02 -0.98866870814E+01 -0.28648888697E+02  0.36475143570E+02  0.00000000000E+00 0.  1.
         -2    1    1    2    0  502  0.20296075814E+02  0.98866870814E+01 -0.15958574524E+02  0.27646941525E+02  0.00000000000E+00 0. -1.
</event>
<event>
 4    1  0.1822260E+004  0.2159456E+02  0.7546771E-02  0.1510943E+00
         21   -1    0    0  501  502  0.00000000000E+00  0.00000000000E+00  0.97596605746E+03  0.97596605746E+03  0.00000000000E+00 0. -1.
         21   -1    0    0  502  503 -0.00000000000E+00 -0.00000000000E+00 -0.66994318421E+00  0.66994318421E+00  0.00000000000E+00 0.  1.
          2    1    1    2  501    0 -0.21578667520E+02 -0.82839391709E+00  0.74915687794E+03  0.74946804661E+03  0.00000000000E+00 0. -1.
         -2    1    1    2    0  503  0.21578667520E+02  0.82839391709E+00  0.22613923634E+03  0.22716795403E+03  0.00000000000E+00 0.  1.
</event>
<event>
 4    1  0.1822260E+004  0.2236394E+02  0.7546771E-02  0.1500643E+00
         21   -1    0    0  501  502  0.00000000000E+00  0.00000000000E+00  0.13931663518E+03  0.13931663518E+03  0.00000000000E+00 0. -1.
         21   -1    0    0  502  503 -0.00000000000E+00 -0.00000000000E+00 -0.39337365424E+01  0.39337365424E+01  0.00000000000E+00 0.  1.
          2    1    1    2  501    0  0.62932877213E+01 -0.21460206633E+02  0.88864309099E+02  0.91635208139E+02  0.00000000000E+00 0. -1.
         -2    1    1    2    0  503 -0.62932877213E+01  0.21460206633E+02  0.46518589539E+02  0.51615163584E+02  0.00000000000E+00 0.  1.
</event>
<event>
 4    1  0.1822260E+004  0.5854821E+02  0.7546771E-02  0.1264847E+00
         21   -1    0    0  501  502  0.00000000000E+00  0.00000000000E+00  0.25461214153E+03  0.25461214153E+03  0.00000000000E+00 0.  1.
         21   -1    0    0  502  503 -0.00000000000E+00 -0.00000000000E+00 -0.68681827378E+02  0.68681827378E+02  0.00000000000E+00 0. -1.
          2    1    1    2  501    0 -0.10522759445E+02 -0.57594824914E+02  0.23790557809E+03  0.24500399264E+03  0.00000000000E+00 0.  1.
         -2    1    1    2    0  503  0.10522759445E+02  0.57594824914E+02 -0.51975263936E+02  0.78289976270E+02  0.00000000000E+00 0. -1.
</event>
<event>
 4    1  0.1822260E+004  0.2914266E+02  0.7546771E-02  0.1427196E+00
         21   -1    0    0  501  502  0.00000000000E+00  0.00000000000E+00  0.38620179358E+02  0.38620179358E+02  0.00000000000E+00 0.  1.
         21   -1    0    0  502  503 -0.00000000000E+00 -0.00000000000E+00 -0.22011848214E+02  0.22011848214E+02  0.00000000000E+00 0. -1.
          2    1    1    2  501    0  0.72827436874E+01 -0.28218013417E+02  0.92381586298E+01  0.30571853259E+02  0.00000000000E+00 0.  1.
         -2    1    1    2    0  503 -0.72827436874E+01  0.28218013417E+02  0.73701725145E+01  0.30060174313E+02  0.00000000000E+00 0. -1.
</event>
<event>
 4    1  0.1822260E+004  0.3845663E+02  0.7546771E-02  0.1357775E+00
         21   -1    0    0  503  502  0.00000000000E+00  0.00000000000E+00  0.10610077266E+02  0.10610077266E+02  0.00000000000E+00 0.  1.
         21   -1    0    0  501  503 -0.00000000000E+00 -0.00000000000E+00 -0.14129288489E+03  0.14129288489E+03  0.00000000000E+00 0. -1.
          2    1    1    2  501    0  0.11747018633E+02  0.36618573582E+02 -0.74161330111E+02  0.83539303695E+02  0.00000000000E+00 0.  1.
         -2    1    1    2    0  502 -0.11747018633E+02 -0.36618573582E+02 -0.56521477518E+02  0.68363658466E+02  0.00000000000E+00 0. -1.
</event>
<event>
 4    1  0.1822260E+004  0.2494271E+02  0.7546771E-02  0.1469445E+00
         21   -1    0    0  501  502  0.00000000000E+00  0.00000000000E+00  0.22486993322E+03  0.22486993322E+03  0.00000000000E+00 0. -1.
         21   -1    0    0  502  503 -0.00000000000E+00 -0.00000000000E+00 -0.38282249056E+02  0.38282249056E+02  0.00000000000E+00 0.  1.
          2    1    1    2  501    0 -0.24190903159E+02  0.60777487695E+01  0.22002627271E+03  0.22143554256E+03  0.00000000000E+00 0. -1.
         -2    1    1    2    0  503  0.24190903159E+02 -0.60777487695E+01 -0.33438588543E+02  0.41716639720E+02  0.00000000000E+00 0.  1.
</event>
<event>
 4    1  0.1822260E+004  0.2944720E+02  0.7546771E-02  0.1424462E+00
         21   -1    0    0  503  502  0.00000000000E+00  0.00000000000E+00  0.31198096375E+03  0.31198096375E+03  0.00000000000E+00 0.  1.
         21   -1    0    0  501  503 -0.00000000000E+00 -0.00000000000E+00 -0.45522396153E+01  0.45522396153E+01  0.00000000000E+00 0. -1.
          2    1    1    2  501    0  0.19719375941E+02 -0.21869694045E+02  0.54949012078E+02  0.62342050283E+02  0.00000000000E+00 0. -1.
         -2    1    1    2    0  502 -0.19719375941E+02  0.21869694045E+02  0.25247971206E+03  0.25419115309E+03  0.00000000000E+00 0.  1.
</event>
<event>
 4    1  0.1822260E+004  0.2265301E+02  0.7546771E-02  0.1496902E+00
         21   -1    0    0  501  502  0.00000000000E+00  0.00000000000E+00  0.11772349763E+03  0.11772349763E+03  0.00000000000E+00 0.  1.
         21   -1    0    0  502  503 -0.00000000000E+00 -0.00000000000E+00 -0.48379119477E+01  0.48379119477E+01  0.00000000000E+00 0. -1.
          2    1    1    2  501    0  0.55458748942E+01  0.21963657548E+02  0.37162486863E+02  0.43522516139E+02  0.00000000000E+00 0.  1.
         -2    1    1    2    0  503 -0.55458748942E+01 -0.21963657548E+02  0.75723098819E+02  0.79038893439E+02  0.00000000000E+00 0. -1.
</event>
<event>
 4    1  0.1822260E+004  0.3634747E+02  0.7546771E-02  0.1371330E+00
         21   -1    0    0  503  502  0.00000000000E+00  0.00000000000E+00  0.49233412344E+01  0.49233412344E+01  0.00000000000E+00 0.  1.
         21   -1    0    0  501  503 -0.00000000000E+00 -0.00000000000E+00 -0.10916720780E+04  0.10916720780E+04  0.00000000000E+00 0. -1.
          2    1    1    2  501    0 -0.10704284692E+02  0.34735526474E+02 -0.10195392479E+04  0.10201869517E+04  0.00000000000E+00 0. -1.
         -2    1    1    2    0  502  0.10704284692E+02 -0.34735526474E+02 -0.67209488882E+02  0.76408467502E+02  0.00000000000E+00 0.  1.
</event>
<event>
 4    1  0.1822260E+004  0.4523766E+02  0.7546771E-02  0.1320255E+00
         21   -1    0    0  501  502  0.00000000000E+00  0.00000000000E+00  0.42265238731E+02  0.42265238731E+02  0.00000000000E+00 0. -1.
         21   -1    0    0  502  503 -0.00000000000E+00 -0.00000000000E+00 -0.85945778725E+02  0.85945778725E+02  0.00000000000E+00 0.  1.
          2    1    1    2  501    0  0.40325299957E+02 -0.20501611916E+02  0.20519441278E+02  0.49673870175E+02  0.00000000000E+00 0. -1.
         -2    1    1    2    0  503 -0.40325299957E+02  0.20501611916E+02 -0.64199981272E+02  0.78537147281E+02  0.00000000000E+00 0.  1.
</event>
<event>
 4    1  0.1822260E+004  0.3482084E+02  0.7546771E-02  0.1381827E+00
         21   -1    0    0  501  502  0.00000000000E+00  0.00000000000E+00  0.71689340916E+02  0.71689340916E+02  0.00000000000E+00 0. -1.
         21   -1    0    0  502  503 -0.00000000000E+00 -0.00000000000E+00 -0.25429113942E+02  0.25429113942E+02  0.00000000000E+00 0.  1.
          2    1    1    2  501    0  0.28148485595E+02  0.20497650647E+02  0.51231234782E+02  0.61944574748E+02  0.00000000000E+00 0. -1.
         -2    1    1    2    0  503 -0.28148485595E+02 -0.20497650647E+02 -0.49710078076E+01  0.35173880110E+02  0.00000000000E+00 0.  1.
</event>
<event>
 4    1  0.1822260E+004  0.2580322E+02  0.7546771E-02  0.1460015E+00
         21   -1    0    0  501  502  0.00000000000E+00  0.00000000000E+00  0.20627621604E+02  0.20627621604E+02  0.00000000000E+00 0.  1.
         21   -1    0    0  502  503 -0.00000000000E+00 -0.00000000000E+00 -0.39907324952E+02  0.39907324952E+02  0.00000000000E+00 0. -1.
          2    1    1    2  501    0 -0.50390787085E+01  0.25306402150E+02 -0.22874413400E+02  0.34482533149E+02  0.00000000000E+00 0. -1.
         -2    1    1    2    0  503  0.50390787085E+01 -0.25306402150E+02  0.35947100513E+01  0.26052413407E+02  0.00000000000E+00 0.  1.
</event>
<event>
 4    1  0.1822260E+004  0.2113703E+02  0.7546771E-02  0.1517317E+00
         21   -1    0    0  501  502  0.00000000000E+00  0.00000000000E+00  0.52363675904E+03  0.52363675904E+03  0.00000000000E+00 0.  1.
         21   -1    0    0  502  503 -0.00000000000E+00 -0.00000000000E+00 -0.94422034286E+00  0.94422034286E+00  0.00000000000E+00 0. -1.
          2    1    1    2  501    0 -0.12106638626E+02 -0.17326378726E+02  0.34277585469E+03  0.34342693642E+03  0.00000000000E+00 0.  1.
         -2    1    1    2    0  503  0.12106638626E+02  0.17326378726E+02  0.17991668401E+03  0.18115404296E+03  0.00000000000E+00 0. -1.
</event>
<event>
 4    1  0.1822260E+004  0.2190012E+02  0.7546771E-02  0.1506791E+00
         21   -1    0    0  501  502  0.00000000000E+00  0.00000000000E+00  0.15757857964E+03  0.15757857964E+03  0.00000000000E+00 0.  1.
         21   -1    0    0  502  503 -0.00000000000E+00 -0.00000000000E+00 -0.15499495500E+02  0.15499495500E+02  0.00000000000E+00 0. -1.
          2    1    1    2  501    0  0.21269088422E+02 -0.52192831082E+01  0.14861775590E+03  0.15022267607E+03  0.00000000000E+00 0.  1.
         -2    1    1    2    0  503 -0.21269088422E+02  0.52192831082E+01 -0.65386717527E+01  0.22855399073E+02  0.00000000000E+00 0. -1.
</event>
<event>
 4    1  0.1822260E+004  0.2498010E+02  0.7546771E-02  0.1469026E+00
         21   -1    0    0  503  502  0.00000000000E+00  0.00000000000E+00  0.96290268205E+02  0.96290268205E+02  0.00000000000E+00 0.  1.
         21   -1    0    0  501  503 -0.00000000000E+00 -0.00000000000E+00 -0.11255429648E+02  0.11255429648E+02  0.00000000000E+00 0. -1.
          2    1    1    2  501    0  0.80179972245E+01 -0.23658346275E+02  0.74933076905E+01  0.26079786964E+02  0.00000000000E+00 0. -1.
         -2    1    1    2    0  502 -0.80179972245E+01  0.23658346275E+02  0.77541530866E+02  0.81465910889E+02  0.00000000000E+00 0.  1.
</event>
<event>
 4    1  0.1822260E+004  0.2978333E+02  0.7546771E-02  0.1421489E+00
         21   -1    0    0  503  502  0.00000000000E+00  0.00000000000E+00  0.10477068660E+02  0.10477068660E+02  0.00000000000E+00 0. -1.
         21   -1    0    0  501  503 -0.00000000000E+00 -0.00000000000E+00 -0.96067641832E+02  0.96067641832E+02  0.00000000000E+00 0.  1.
          2    1    1    2  501    0  0.27005822627E+02 -0.12559148661E+02 -0.61148233117E+02  0.68015829659E+02  0.00000000000E+00 0.  1.
         -2    1    1    2    0  502 -0.27005822627E+02  0.12559148661E+02 -0.24442340055E+02  0.38528880833E+02  0.00000000000E+00 0. -1.
</event>
<event>
 4    1  0.1822260E+004  0.2263433E+02  0.7546771E-02  0.1497142E+00
         21   -1    0    0  503  502  0.00000000000E+00  0.00000000000E+00  0.29646301922E+02  0.29646301922E+02  0.00000000000E+00 0.  1.
         21   -1    0    0  501  503 -0.00000000000E+00 -0.00000000000E+00 -0.17405917560E+02  0.17405917560E+02  0.00000000000E+00 0. -1.
          2    1    1    2  501    0  0.93525956629E+01 -0.20611695502E+02  0.81144862194E+01  0.24044914716E+02  0.00000000000E+00 0.  1.
         -2    1    1    2    0  502 -0.93525956629E+01  0.20611695502E+02  0.41258981425E+01  0.23007304766E+02  0.00000000000E+00 0. -1.
</event>
<event>
 4    1  0.1822260E+004  0.2012861E+02  0.7546771E-02  0.1532079E+00
         21   -1    0    0  501  502  0.00000000000E+00  0.00000000000E+00  0.20239421767E+01  0.20239421767E+01  0.00000000000E+00 0. -1.
         21   -1    0    0  502  503 -0.00000000000E+00 -0.00000000000E+00 -0.78921141957E+03  0.78921141957E+03  0.00000000000E+00 0.  1.
          2    1    1    2  501    0 -0.12306605539E+02 -0.15928225403E+02 -0.51813651074E+02  0.55586107455E+02  0.00000000000E+00 0. -1.
         -2    1    1    2    0  503  0.12306605539E+02  0.15928225403E+02 -0.73537382632E+03  0.73564925429E+03  0.00000000000E+00 0.  1.
</event>
<event>
 4    1  0.1822260E+004  0.2243855E+02  0.7546771E-02  0.1499671E+00
         21   -1    0    0  503  502  0.00000000000E+00  0.00000000000E+00  0.41123375788E+01  0.41123375788E+01  0.00000000000E+00 0.  1.
         21   -1    0    0  501  503 -0.00000000000E+00 -0.00000000000E+00 -0.12251646649E+03  0.12251646649E+03  0.00000000000E+00 0. -1.
          2    1    1    2  501    0 -0.19648433349E+02  0.10836399879E+02 -0.57555925552E+02  0.61775181598E+02  0.00000000000E+00 0.  1.
         -2    1    1    2    0  502  0.19648433349E+02 -0.10836399879E+02 -0.60848203356E+02  0.64853622467E+02  0.00000000000E+00 0. -1.
</event>
<event>
 4    1  0.1822260E+004  0.5445324E+02  0.7546771E-02  0.1279939E+00
         21   -1    0    0  503  502  0.00000000000E+00  0.00000000000E+00  0.85169295821E+02  0.85169295821E+02  0.00000000000E+00 0. -1.
         21   -1    0    0  501  503 -0.00000000000E+00 -0.00000000000E+00 -0.42060103346E+02  0.42060103346E+02  0.00000000000E+00 0.  1.
          2    1    1    2  501    0 -0.53794326025E+02  0.84454717791E+01 -0.48481660559E+01  0.54668640190E+02  0.00000000000E+00 0. -1.
         -2    1    1    2    0  502  0.53794326025E+02 -0.84454717791E+01  0.47957358531E+02  0.72560758977E+02  0.00000000000E+00 0.  1.
</event>
<event>
 4    1  0.1822260E+004  0.2165172E+02  0.7546771E-02  0.1510160E+00
         21   -1    0    0  501  502  0.00000000000E+00  0.00000000000E+00  0.99034757157E+00  0.99034757157E+00  0.00000000000E+00 0. -1.
         21   -1    0    0  502  503 -0.00000000000E+00 -0.00000000000E+00 -0.12584407740E+04  0.12584407740E+04  0.00000000000E+00 0.  1.
          2    1    1    2  501    0 -0.18599571983E+02 -0.11083906555E+02 -0.13135074033E+03  0.13312330392E+03  0.00000000000E+00 0. -1.
         -2    1    1    2    0  503  0.18599571983E+02  0.11083906555E+02 -0.11260996861E+04  0.11263078177E+04  0.00000000000E+00 0.  1.
</event>
<event>
 4    1  0.1822260E+004  0.2838487E+02  0.7546771E-02  0.1434172E+00
         21   -1    0    0  503  502  0.00000000000E+00  0.00000000000E+00  0.24643905304E+03  0.24643905304E+03  0.00000000000E+00 0. -1.
         21   -1    0    0  501  503 -0.00000000000E+00 -0.00000000000E+00 -0.15867400779E+02  0.15867400779E+02  0.00000000000E+00 0.  1.
          2    1    1    2  501    0 -0.18474832373E+02 -0.21549506176E+02 -0.15772740782E+01  0.28428655283E+02  0.00000000000E+00 0.  1.
         -2    1    1    2    0  502  0.18474832373E+02  0.21549506176E+02  0.23214892634E+03  0.23387779854E+03  0.00000000000E+00 0. -1.
</event>
<event>
 4    1  0.1822260E+004  0.3816338E+02  0.7546771E-02  0.1359598E+00
         21   -1    0    0  501  502  0.00000000000E+00  0.00000000000E+00  0.17453094690E+03  0.17453094690E+03  0.00000000000E+00 0.  1.
         21   -1    0    0  502  503 -0.00000000000E+00 -0.00000000000E+00 -0.83595801649E+01  0.83595801649E+01  0.00000000000E+00 0. -1.
          2    1    1    2  501    0  0.38109500393E+02 -0.20271334398E+01  0.79253597957E+02  0.87963492878E+02  0.00000000000E+00 0.  1.
         -2    1    1    2    0  503 -0.38109500393E+02  0.20271334398E+01  0.86917768777E+02  0.94927034186E+02  0.00000000000E+00 0. -1.
</event>
<event>
 4    1  0.1822260E+004  0.4262052E+02  0.7546771E-02  0.1333778E+00
         21   -1    0    0  501  502  0.00000000000E+00  0.00000000000E+00  0.70535852426E+02  0.70535852426E+02  0.00000000000E+00 0.  1.
         21   -1    0    0  502  503 -0.00000000000E+00 -0.00000000000E+00 -0.42765276940E+02  0.42765276940E+02  0.00000000000E+00 0. -1.
          2    1    1    2  501    0  0.22386586804E+02 -0.36267740927E+02  0.49615870001E+02  0.65408278196E+02  0.00000000000E+00 0.  1.
         -2    1    1    2    0  503 -0.22386586804E+02  0.36267740927E+02 -0.21845294515E+02  0.47892851169E+02  0.00000000000E+00 0. -1.
</event>
<event>
 4    1  0.1822260E+004  0.2023771E+02  0.7546771E-02  0.1530432E+00
         21   -1    0    0  501  502  0.00000000000E+00  0.00000000000E+00  0.42217542843E+02  0.42217542843E+02  0.00000000000E+00 0. -1.
         21   -1    0    0  502  503 -0.00000000000E+00 -0.00000000000E+00 -0.20996607296E+02  0.20996607296E+02  0.00000000000E+00 0.  1.
          2    1    1    2  501    0  0.22904010147E+01  0.20107688179E+02  0.33792887512E+02  0.39389393332E+02  0.00000000000E+00 0. -1.
         -2    1    1    2    0  503 -0.22904010147E+01 -0.20107688179E+02 -0.12571951964E+02  0.23824756807E+02  0.00000000000E+00 0.  1.
</event>
<event>
 4    1  0.1822260E+004  0.3960308E+02  0.7546771E-02  0.1350828E+00
         21   -1    0    0  503  502  0.00000000000E+00  0.00000000000E+00  0.22588310043E+03  0.22588310043E+03  0.00000000000E+00 0.  1.
         21   -1    0    0  501  503 -0.00000000000E+00 -0.00000000000E+00 -0.13664130144E+02  0.13664130144E+02  0.00000000000E+00 0. -1.
          2    1    1    2  501    0  0.38379021043E+02 -0.97700716070E+01  0.22109847087E+02  0.45356905689E+02  0.00000000000E+00 0. -1.
         -2    1    1    2    0  502 -0.38379021043E+02  0.97700716070E+01  0.19010912320E+03  0.19419032489E+03  0.00000000000E+00 0.  1.
</event>
<event>
 4    1  0.1822260E+004  0.2188995E+02  0.7546771E-02  0.1506928E+00
         21   -1    0    0  501  502  0.00000000000E+00  0.00000000000E+00  0.10864725479E+03  0.10864725479E+03  0.00000000000E+00 0. -1.
         21   -1    0    0  502  503 -0.00000000000E+00 -0.00000000000E+00 -0.44903422125E+01  0.44903422125E+01  0.00000000000E+00 0.  1.
          2    1    1    2  501    0 -0.84416743197E+01 -0.20196738083E+02  0.44527200383E+02  0.49616949407E+02  0.00000000000E+00 0. -1.
         -2    1    1    2    0  503  0.84416743197E+01  0.20196738083E+02  0.59629712194E+02  0.63520647595E+02  0.00000000000E+00 0.  1.
</event>
<event>
 4    1  0.1822260E+004  0.2406613E+02  0.7546771E-02  0.1479528E+00
         21   -1    0    0  503  502  0.00000000000E+00  0.00000000000E+00  0.19868616960E+03  0.19868616960E+03  0.00000000000E+00 0.  1.
         21   -1    0    0  501  503 -0.00000000000E+00 -0.00000000000E+00 -0.64357511973E+02  0.64357511973E+02  0.00000000000E+00 0. -1.
          2    1    1    2  501    0 -0.32182749051E+01 -0.23849976959E+02 -0.61344387555E+02  0.65896225831E+02  0.00000000000E+00 0. -1.
         -2    1    1    2    0  502  0.32182749051E+01  0.23849976959E+02  0.19567304518E+03  0.19714745574E+03  0.00000000000E+00 0.  1.
</event>
<event>
 4    1  0.1822260E+004  0.2037455E+02  0.7546771E-02  0.1528385E+00
         21   -1    0    0  501  502  0.00000000000E+00  0.00000000000E+00  0.85859078272E+01  0.85859078272E+01  0.00000000000E+00 0. -1.
         21   -1    0    0  502  503 -0.00000000000E+00 -0.00000000000E+00 -0.48351733932E+02  0.48351733932E+02  0.00000000000E+00 0.  1.
          2    1    1    2  501    0  0.11495944695E+02  0.16821580103E+02 -0.19679331934E+02  0.28326637763E+02  0.00000000000E+00 0. -1.
         -2    1    1    2    0  503 -0.11495944695E+02 -0.16821580103E+02 -0.20086494171E+02  0.28611003996E+02  0.00000000000E+00 0.  1.
</event>
<event>
 4    1  0.1822260E+004  0.2204791E+02  0.7546771E-02  0.1504813E+00
         21   -1    0    0  501  502  0.00000000000E+00  0.00000000000E+00  0.45536275830E+01  0.45536275830E+01  0.00000000000E+00 0.  1.
         21   -1    0    0  502  503 -0.00000000000E+00 -0.00000000000E+00 -0.11249463825E+03  0.11249463825E+03  0.00000000000E+00 0. -1.
          2    1    1    2  501    0  0.21555409079E+02 -0.46340683935E+01 -0.40748017052E+02  0.46330455902E+02  0.00000000000E+00 0.  1.
         -2    1    1    2    0  503 -0.21555409079E+02  0.46340683935E+01 -0.67192993610E+02  0.70717809926E+02  0.00000000000E+00 0. -1.
</event>
<event>
 4    1  0.1822260E+004  0.2684680E+02  0.7546771E-02  0.1449153E+00
         21   -1    0    0  503  502  0.00000000000E+00  0.00000000000E+00  0.38976425354E+02  0.38976425354E+02  0.00000000000E+00 0.  1.
         21   -1    0    0  501  503 -0.00000000000E+00 -0.00000000000E+00 -0.18511670977E+02  0.18511670977E+02  0.00000000000E+00 0. -1.
          2    1    1    2  501    0 -0.18965229081E+02 -0.19001865594E+02  0.11170135923E+02  0.29077873834E+02  0.00000000000E+00 0.  1.
         -2    1    1    2    0  502  0.18965229081E+02  0.19001865594E+02  0.92946184539E+01  0.28410222498E+02  0.00000000000E+00 0. -1.
</event>
<event>
 4    1  0.1822260E+004  0.2294708E+02  0.7546771E-02  0.1493164E+00
         21   -1    0    0  501  502  0.00000000000E+00  0.00000000000E+00  0.36536002744E+01  0.36536002744E+01  0.00000000000E+00 0.  1.
         21   -1    0    0  502  503 -0.00000000000E+00 -0.00000000000E+00 -0.33061769590E+03  0.33061769590E+03  0.00000000000E+00 0. -1.
          2    1    1    2  501    0  0.17027595644E+01 -0.22883816173E+02 -0.37954486054E+02  0.44352130100E+02  0.00000000000E+00 0.  1.
         -2    1    1    2    0  503 -0.17027595644E+01  0.22883816173E+02 -0.28900960958E+03  0.28991916608E+03  0.00000000000E+00 0. -1.
</event>
<event>
 4    1  0.1822260E+004  0.2398709E+02  0.7546771E-02  0.1480462E+00
         21   -1    0    0  501  502  0.00000000000E+00  0.00000000000E+00  0.27722350999E+03  0.27722350999E+03  0.00000000000E+00 0.  1.
         21   -1    0    0  502  503 -0.00000000000E+00 -0.00000000000E+00 -0.23438735202E+01  0.23438735202E+01  0.00000000000E+00 0. -1.
          2    1    1    2  501    0 -0.23182237195E+02 -0.61615068306E+01  0.90140943577E+02  0.93277918055E+02  0.00000000000E+00 0. -1.
         -2    1    1    2    0  503  0.23182237195E+02  0.61615068306E+01  0.18473869290E+03  0.18628946546E+03  0.00000000000E+00 0.  1.
</event>
<event>
 4    1  0.1822260E+004  0.2776200E+02  0.7546771E-02  0.1440100E+00
         21   -1    0    0  501  502  0.00000000000E+00  0.00000000000E+00  0.99464294002E+02  0.99464294002E+02  0.00000000000E+00 0.  1.
         21   -1    0    0  502  503 -0.00000000000E+00 -0.00000000000E+00 -0.28546925841E+02  0.28546925841E+02  0.00000000000E+00 0. -1.
          2    1    1    2  501    0  0.16606506527E+02  0.22247531118E+02  0.90091110696E+02  0.94271612516E+02  0.00000000000E+00 0.  1.
         -2    1    1    2    0  503 -0.16606506527E+02 -0.22247531118E+02 -0.19173742535E+02  0.33739607328E+02  0.00000000000E+00 0. -1.
</event>
<event>
 4    1  0.1822260E+004  0.2468889E+02  0.7546771E-02  0.1472314E+00
         21   -1    0    0  501  502  0.00000000000E+00  0.00000000000E+00  0.41033790296E+01  0.41033790296E+01  0.00000000000E+00 0.  1.
         21   -1    0    0  502  503 -0.00000000000E+00 -0.00000000000E+00 -0.20252129752E+03  0.20252129752E+03  0.00000000000E+00 0. -1.
          2    1    1    2  501    0 -0.11311388300E+02 -0.21945248267E+02 -0.45873812438E+02  0.52095566936E+02  0.00000000000E+00 0. -1.
         -2    1    1    2    0  503  0.11311388300E+02  0.21945248267E+02 -0.15254410605E+03  0.15452910961E+03  0.00000000000E+00 0.  1.
</event>
<event>
 4    1  0.1822260E+004  0.2047148E+02  0.7546771E-02  0.1526946E+00
         21   -1    0    0  501  502  0.00000000000E+00  0.00000000000E+00  0.22363069329E+01  0.22363069329E+01  0.00000000000E+00 0. -1.
         21   -1    0    0  502  503 -0.00000000000E+00 -0.00000000000E+00 -0.18848032085E+03  0.18848032085E+03  0.00000000000E+00 0.  1.
          2    1    1    2  501    0  0.16036489234E+02  0.12724488778E+02 -0.85899131164E+02  0.88304826235E+02  0.00000000000E+00 0.  1.
         -2    1    1    2    0  503 -0.16036489234E+02 -0.12724488778E+02 -0.10034488275E+03  0.10241180154E+03  0.00000000000E+00 0. -1.
</event>
<event>
 4    1  0.1822260E+004  0.2610275E+02  0.7546771E-02  0.1456835E+00
         21   -1    0    0  501  502  0.00000000000E+00  0.00000000000E+00  0.76708028244E+01  0.76708028244E+01  0.00000000000E+00 0.  1.
         21   -1    0    0  502  503 -0.00000000000E+00 -0.00000000000E+00 -0.88923313185E+02  0.88923313185E+02  0.00000000000E+00 0. -1.
          2    1    1    2  501    0 -0.18146868708E+02  0.18762853671E+02 -0.39014467493E+02  0.46941263250E+02  0.00000000000E+00 0.  1.
         -2    1    1    2    0  503  0.18146868708E+02 -0.18762853671E+02 -0.42238042868E+02  0.49652852759E+02  0.00000000000E+00 0. -1.
</event>
<event>
 4    1  0.1822260E+004  0.5056179E+02  0.7546771E-02  0.1295755E+00
         21   -1    0    0  503  502  0.00000000000E+00  0.00000000000E+00  0.62601363398E+02  0.62601363398E+02  0.00000000000E+00 0.  1.
         21   -1    0    0  501  503 -0.00000000000E+00 -0.00000000000E+00 -0.40842859220E+02  0.40842859220E+02  0.00000000000E+00 0. -1.
          2    1    1    2  501    0  0.45246731840E+02 -0.22566084948E+02  0.11461254197E+02  0.51844529894E+02  0.00000000000E+00 0.  1.
         -2    1    1    2    0  502 -0.45246731840E+02  0.22566084948E+02  0.10297249981E+02  0.51599692725E+02  0.00000000000E+00 0. -1.
</event>
<event>
 4    1  0.1822260E+004  0.2173676E+02  0.7546771E-02  0.1509001E+00
         21   -1    0    0  503  502  0.00000000000E+00  0.00000000000E+00  0.17084819952E+03  0.17084819952E+03  0.00000000000E+00 0.  1.
         21   -1    0    0  501  503 -0.00000000000E+00 -0.00000000000E+00 -0.71506554257E+02  0.71506554257E+02  0.00000000000E+00 0. -1.
          2    1    1    2  501    0 -0.11017806034E+02  0.18737520635E+02 -0.69140164555E+02  0.72476541612E+02  0.00000000000E+00 0. -1.
         -2    1    1    2    0  502  0.11017806034E+02 -0.18737520635E+02  0.16848180982E+03  0.16987821217E+03  0.00000000000E+00 0.  1.
</event>
<event>
 4    1  0.1822260E+004  0.2647128E+02  0.7546771E-02  0.1452993E+00
         21   -1    0    0  503  502  0.00000000000E+00  0.00000000000E+00  0.17014447872E+02  0.17014447872E+02  0.00000000000E+00 0.  1.
         21   -1    0    0  501  503 -0.00000000000E+00 -0.00000000000E+00 -0.12321356806E+03  0.12321356806E+03  0.00000000000E+00 0. -1.
          2    1    1    2  501    0 -0.24598314940E+02  0.97801515717E+01 -0.11030797203E+03  0.11343975122E+03  0.00000000000E+00 0. -1.
         -2    1    1    2    0  502  0.24598314940E+02 -0.97801515717E+01  0.41088518478E+01  0.26788264710E+02  0.00000000000E+00 0.  1.
</event>
<event>
 4    1  0.1822260E+004  0.2950152E+02  0.7546771E-02  0.1423978E+00
         21   -1    0    0  503  502  0.00000000000E+00  0.00000000000E+00  0.19076919108E+02  0.19076919108E+02  0.00000000000E+00 0. -1.
         21   -1    0    0  501  503 -0.00000000000E+00 -0.00000000000E+00 -0.20021723521E+03  0.20021723521E+03  0.00000000000E+00 0.  1.
          2    1    1    2  501    0  0.13960652846E+01 -0.29468472217E+02 -0.18691832358E+03  0.18923213137E+03  0.00000000000E+00 0.  1.
         -2    1    1    2    0  502 -0.13960652846E+01  0.29468472217E+02  0.57780074808E+01  0.30062022944E+02  0.00000000000E+00 0. -1.
</event>
<event>
 4    1  0.1822260E+004  0.2039889E+02  0.7546771E-02  0.1528023E+00
         21   -1    0    0  503  502  0.00000000000E+00  0.00000000000E+00  0.45258034636E+01  0.45258034636E+01  0.00000000000E+00 0. -1.
         21   -1    0    0  501  503 -0.00000000000E+00 -0.00000000000E+00 -0.21993448846E+03  0.21993448846E+03  0.00000000000E+00 0.  1.
          2    1    1    2  501    0  0.72846954762E+01  0.19053818187E+02 -0.19332012754E+03  0.19439338077E+03  0.00000000000E+00 0.  1.
         -2    1    1    2    0  502 -0.72846954762E+01 -0.19053818187E+02 -0.22088557453E+02  0.30066911149E+02  0.00000000000E+00 0. -1.
</event>
<event>
 4    1  0.1822260E+004  0.2708330E+02  0.7546771E-02  0.1446773E+00
         21   -1    0    0  501  502  0.00000000000E+00  0.00000000000E+00  0.25115044762E+02  0.25115044762E+02  0.00000000000E+00 0. -1.
         21   -1    0    0  502  503 -0.00000000000E+00 -0.00000000000E+00 -0.29313252261E+02  0.29313252261E+02  0.00000000000E+00 0.  1.
          2    1    1    2  501    0  0.31137039071E+01  0.26903716662E+02 -0.37467296905E+01  0.27341234530E+02  0.00000000000E+00 0.  1.
         -2    1    1    2    0  503 -0.31137039071E+01 -0.26903716662E+02 -0.45147780848E+00  0.27087062492E+02  0.00000000000E+00 0. -1.
</event>
<event>
 4    1  0.1822260E+004  0.2166345E+02  0.7546771E-02  0.1510000E+00
         21   -1    0    0  501  502  0.00000000000E+00  0.00000000000E+00  0.12548926383E+02  0.12548926383E+02  0.00000000000E+00 0. -1.
         21   -1    0    0  502  503 -0.00000000000E+00 -0.00000000000E+00 -0.40581953319E+02  0.40581953319E+02  0.00000000000E+00 0.  1.
          2    1    1    2  501    0  0.51672234944E+01  0.21038179847E+02 -0.65755122155E+01  0.22639403058E+02  0.00000000000E+00 0. -1.
         -2    1    1    2    0  503 -0.51672234944E+01 -0.21038179847E+02 -0.21457514721E+02  0.30491476644E+02  0.00000000000E+00 0.  1.
</event>
<event>
 4    1  0.1822260E+004  0.2407520E+02  0.7546771E-02  0.1479421E+00
         21   -1    0    0  501  502  0.00000000000E+00  0.00000000000E+00  0.12662198981E+03  0.12662198981E+03  0.00000000000E+00 0.  1.
         21   -1    0    0  502  503 -0.00000000000E+00 -0.00000000000E+00 -0.93385350776E+01  0.93385350776E+01  0.00000000000E+00 0. -1.
          2    1    1    2  501    0 -0.19579424392E+02 -0.14009333152E+02  0.10718097357E+03  0.10985161069E+03  0.00000000000E+00 0.  1.
         -2    1    1    2    0  503  0.19579424392E+02  0.14009333152E+02  0.10102481154E+02  0.26108914194E+02  0.00000000000E+00 0. -1.
</event>
<event>
 4    1  0.1822260E+004  0.5156790E+02  0.7546771E-02  0.1291514E+00
         21   -1    0    0  503  502  0.00000000000E+00  0.00000000000E+00  0.41063717805E+03  0.41063717805E+03  0.00000000000E+00 0. -1.
         21   -1    0    0  501  503 -0.00000000000E+00 -0.00000000000E+00 -0.91578618006E+01  0.91578618006E+01  0.00000000000E+00 0.  1.
          2    1    1    2  501    0 -0.23994483722E+02 -0.45645509874E+02  0.87150714241E+02  0.10126447953E+03  0.00000000000E+00 0.  1.
         -2    1    1    2    0  502  0.23994483722E+02  0.45645509874E+02  0.31432860201E+03  0.31853056033E+03  0.00000000000E+00 0. -1.
</event>
<event>
 4    1  0.1822260E+004  0.2203767E+02  0.7546771E-02  0.1504949E+00
         21   -1    0    0  501  502  0.00000000000E+00  0.00000000000E+00  0.54225899725E+01  0.54225899725E+01  0.00000000000E+00 0. -1.
         21   -1    0    0  502  503 -0.00000000000E+00 -0.00000000000E+00 -0.90887702865E+02  0.90887702865E+02  0.00000000000E+00 0.  1.
          2    1    1    2  501    0 -0.12984501902E+02 -0.17806228118E+02 -0.48547983782E+02  0.53315717934E+02  0.00000000000E+00 0. -1.
         -2    1    1    2    0  503  0.12984501902E+02  0.17806228118E+02 -0.36917129110E+02  0.42994574904E+02  0.00000000000E+00 0.  1.
</event>
<event>
 4    1  0.1822260E+004  0.3767355E+02  0.7546771E-02  0.1362686E+00
         21   -1    0    0  503  502  0.00000000000E+00  0.00000000000E+00  0.13734283915E+02  0.13734283915E+02  0.00000000000E+00 0.  1.
         21   -1    0    0  501  503 -0.00000000000E+00 -0.00000000000E+00 -0.10595772991E+03  0.10595772991E+03  0.00000000000E+00 0. -1.
          2    1    1    2  501    0 -0.30055295940E+02  0.22715101865E+02 -0.55518846357E+02  0.67094254356E+02  0.00000000000E+00 0. -1.
         -2    1    1    2    0  502  0.30055295940E+02 -0.22715101865E+02 -0.36704599641E+02  0.52597759473E+02  0.00000000000E+00 0.  1.
</event>
<event>
 4    1  0.1822260E+004  0.3430110E+02  0.7546771E-02  0.1385544E+00
         21   -1    0    0  503  502  0.00000000000E+00  0.00000000000E+00  0.57938390196E+01  0.57938390196E+01  0.00000000000E+00 0.  1.
         21   -1    0    0  501  503 -0.00000000000E+00 -0.00000000000E+00 -0.20963114556E+03  0.20963114556E+03  0.00000000000E+00 0. -1.
          2    1    1    2  501    0  0.33727217794E+02 -0.62481952606E+01 -0.12097191394E+03  0.12574088088E+03  0.00000000000E+00 0. -1.
         -2    1    1    2    0  502 -0.33727217794E+02  0.62481952606E+01 -0.82865392602E+02  0.89684103693E+02  0.00000000000E+00 0.  1.
</event>
<event>
 4    1  0.1822260E+004  0.2334862E+02  0.7546771E-02  0.1488166E+00
         21   -1    0    0  501  502  0.00000000000E+00  0.00000000000E+00  0.42902965518E+03  0.42902965518E+03  0.00000000000E+00 0.  1.
         21   -1    0    0  502  503 -0.00000000000E+00 -0.00000000000E+00 -0.40894587758E+01  0.40894587758E+01  0.00000000000E+00 0. -1.
          2    1    1    2  501    0  0.23195728181E+02  0.26676253571E+01  0.39226409203E+03  0.39295836411E+03  0.00000000000E+00 0.  1.
         -2    1    1    2    0  503 -0.23195728181E+02 -0.26676253571E+01  0.32676104381E+02  0.40160749849E+02  0.00000000000E+00 0. -1.
</event>
<event>
 4    1  0.1822260E+004  0.5117354E+02  0.7546771E-02  0.1293163E+00
         21   -1    0    0  501  502  0.00000000000E+00  0.00000000000E+00  0.85964268719E+01  0.85964268719E+01  0.00000000000E+00 0.  1.
         21   -1    0    0  502  503 -0.00000000000E+00 -0.00000000000E+00 -0.63476368662E+03  0.63476368662E+03  0.00000000000E+00 0. -1.
          2    1    1    2  501    0 -0.22439680091E+02  0.45991216135E+02 -0.81097034295E+02  0.95892962076E+02  0.00000000000E+00 0.  1.
         -2    1    1    2    0  503  0.22439680091E+02 -0.45991216135E+02 -0.54507022546E+03  0.54746715142E+03  0.00000000000E+00 0. -1.
</event>
<event>
 4    1  0.1822260E+004  0.2075215E+02  0.7546771E-02  0.1522833E+00
         21   -1    0    0  503  502  0.00000000000E+00  0.00000000000E+00  0.11062462507E+02  0.11062462507E+02  0.00000000000E+00 0.  1.
         21   -1    0    0  501  503 -0.00000000000E+00 -0.00000000000E+00 -0.68381999764E+02  0.68381999764E+02  0.00000000000E+00 0. -1.
          2    1    1    2  501    0  0.16983592034E+02 -0.11925147701E+02 -0.54728918808E+02  0.58531240376E+02  0.00000000000E+00 0. -1.
         -2    1    1    2    0  502 -0.16983592034E+02  0.11925147701E+02 -0.25906184490E+01  0.20913221895E+02  0.00000000000E+00 0.  1.
</event>
<event>
 4    1  0.1822260E+004  0.2228095E+02  0.7546771E-02  0.1501730E+00
         21   -1    0    0  503  502  0.00000000000E+00  0.00000000000E+00  0.74844523175E+02  0.74844523175E+02  0.00000000000E+00 0. -1.
         21   -1    0    0  501  503 -0.00000000000E+00 -0.00000000000E+00 -0.83240710229E+01  0.83240710229E+01  0.00000000000E+00 0.  1.
          2    1    1    2  501    0 -0.16623871598E+02 -0.14835348130E+02  0.14516857202E+02  0.26592852500E+02  0.00000000000E+00 0.  1.
         -2    1    1    2    0  502  0.16623871598E+02  0.14835348130E+02  0.52003594950E+02  0.56575741699E+02  0.00000000000E+00 0. -1.
</event>
<event>
 4    1  0.1822260E+004  0.2162691E+02  0.7546771E-02  0.1510499E+00
         21   -1    0    0  501  502  0.00000000000E+00  0.00000000000E+00  0.28767777216E+01  0.28767777216E+01  0.00000000000E+00 0. -1.
         21   -1    0    0  502  503 -0.00000000000E+00 -0.00000000000E+00 -0.21369794373E+03  0.21369794373E+03  0.00000000000E+00 0.  1.
          2    1    1    2  501    0 -0.21573149300E+02 -0.15239004621E+01 -0.52451569395E+02  0.56735263948E+02  0.00000000000E+00 0. -1.
         -2    1    1    2    0  503  0.21573149300E+02  0.15239004621E+01 -0.15836959661E+03  0.15983945750E+03  0.00000000000E+00 0.  1.
</event>
<event>
 4    1  0.1822260E+004  0.2460272E+02  0.7546771E-02  0.1473297E+00
         21   -1    0    0  501  502  0.00000000000E+00  0.00000000000E+00  0.11857144044E+03  0.11857144044E+03  0.00000000000E+00 0. -1.
         21   -1    0    0  502  503 -0.00000000000E+00 -0.00000000000E+00 -0.14647036583E+02  0.14647036583E+02  0.00000000000E+00 0.  1.
          2    1    1    2  501    0  0.29095480812E+00 -0.24601001482E+02  0.10572510010E+03  0.10854994574E+03  0.00000000000E+00 0. -1.
         -2    1    1    2    0  503 -0.29095480812E+00  0.24601001482E+02 -0.18006962456E+01  0.24668531282E+02  0.00000000000E+00 0.  1.
</event>
<event>
 4    1  0.1822260E+004  0.2179795E+02  0.7546771E-02  0.1508170E+00
         21   -1    0    0  501  502  0.00000000000E+00  0.00000000000E+00  0.61127611101E+00  0.61127611101E+00  0.00000000000E+00 0.  1.
         21   -1    0    0  502  503 -0.00000000000E+00 -0.00000000000E+00 -0.10028014759E+04  0.10028014759E+04  0.00000000000E+00 0. -1.
          2    1    1    2  501    0 -0.84292890614E+01 -0.20102181203E+02 -0.26318773803E+03  0.26408887908E+03  0.00000000000E+00 0. -1.
         -2    1    1    2    0  503  0.84292890614E+01  0.20102181203E+02 -0.73900246172E+03  0.73932387290E+03  0.00000000000E+00 0.  1.
</event>
<event>
 4    1  0.1822260E+004  0.3327901E+02  0.7546771E-02  0.1393083E+00
         21   -1    0    0  501  502  0.00000000000E+00  0.00000000000E+00  0.12777083812E+02  0.12777083812E+02  0.00000000000E+00 0. -1.
         21   -1    0    0  502  503 -0.00000000000E+00 -0.00000000000E+00 -0.25490339887E+03  0.25490339887E+03  0.00000000000E+00 0.  1.
          2    1    1    2  501    0  0.32983302801E+02  0.44265261074E+01 -0.12334344170E+02  0.35491244598E+02  0.00000000000E+00 0. -1.
         -2    1    1    2    0  503 -0.32983302801E+02 -0.44265261074E+01 -0.22979197089E+03  0.23218923809E+03  0.00000000000E+00 0.  1.
</event>
<event>
 4    1  0.1822260E+004  0.2042886E+02  0.7546771E-02  0.1527578E+00
         21   -1    0    0  501  502  0.00000000000E+00  0.00000000000E+00  0.69194487832E+02  0.69194487832E+02  0.00000000000E+00 0. -1.
         21   -1    0    0  502  503 -0.00000000000E+00 -0.00000000000E+00 -0.65481707351E+01  0.65481707351E+01  0.00000000000E+00 0.  1.
          2    1    1    2  501    0  0.94393505905E+01  0.18117311387E+02  0.41962323400E+02  0.46670921317E+02  0.00000000000E+00 0. -1.
         -2    1    1    2    0  503 -0.94393505905E+01 -0.18117311387E+02  0.20683993697E+02  0.29071737250E+02  0.00000000000E+00 0.  1.
</event>
<event>
 4    1  0.1822260E+004  0.2025686E+02  0.7546771E-02  0.1530145E+00
         21   -1    0    0  503  502  0.00000000000E+00  0.00000000000E+00  0.45964443589E+02  0.45964443589E+02  0.00000000000E+00 0.  1.
         21   -1    0    0  501  503 -0.00000000000E+00 -0.00000000000E+00 -0.20374626206E+02  0.20374626206E+02  0.00000000000E+00 0. -1.
          2    1    1    2  501    0 -0.11070483382E+02 -0.16964217497E+02 -0.12067648896E+02  0.23578982749E+02  0.00000000000E+00 0. -1.
         -2    1    1    2    0  502  0.11070483382E+02  0.16964217497E+02  0.37657466279E+02  0.42760087046E+02  0.00000000000E+00 0.  1.
</event>
<event>
 4    1  0.1822260E+004  0.2099559E+02  0.7546771E-02  0.1519328E+00
         21   -1    0    0  501  502  0.00000000000E+00  0.00000000000E+00  0.13709093508E+01  0.13709093508E+01  0.00000000000E+00 0.  1.
         21   -1    0    0  502  503 -0.00000000000E+00 -0.00000000000E+00 -0.32184440107E+03  0.32184440107E+03  0.00000000000E+00 0. -1.
          2    1    1    2  501    0 -0.13870127734E+02  0.15761803088E+02 -0.15534281643E+03  0.15675524073E+03  0.00000000000E+00 0. -1.
         -2    1    1    2    0  503  0.13870127734E+02 -0.15761803088E+02 -0.16513067529E+03  0.16646006969E+03  0.00000000000E+00 0.  1.
</event>
<event>
 4    1  0.1822260E+004  0.2889012E+02  0.7546771E-02  0.1429493E+00
         21   -1    0    0  503  502  0.00000000000E+00  0.00000000000E+00  0.11503386840E+02  0.11503386840E+02  0.00000000000E+00 0. -1.
         21   -1    0    0  501  503 -0.00000000000E+00 -0.00000000000E+00 -0.13294873961E+03  0.13294873961E+03  0.00000000000E+00 0.  1.
          2    1    1    2  501    0  0.25981893642E+02 -0.12632503970E+02 -0.10940198949E+03  0.11315226139E+03  0.00000000000E+00 0.  1.
         -2    1    1    2    0  502 -0.25981893642E+02  0.12632503970E+02 -0.12043363287E+02  0.31299865064E+02  0.00000000000E+00 0. -1.
</event>
<event>
 4    1  0.1822260E+004  0.2110556E+02  0.7546771E-02  0.1517763E+00
         21   -1    0    0  503  502  0.00000000000E+00  0.00000000000E+00  0.73320883929E+03  0.73320883929E+03  0.00000000000E+00 0. -1.
         21   -1    0    0  501  503 -0.00000000000E+00 -0.00000000000E+00 -0.71573763672E+00  0.71573763672E+00  0.00000000000E+00 0.  1.
          2    1    1    2  501    0 -0.71259838618E+01 -0.19866180523E+02  0.22356171495E+03  0.22455575069E+03  0.00000000000E+00 0.  1.
         -2    1    1    2    0  502  0.71259838618E+01  0.19866180523E+02  0.50893138670E+03  0.50936882623E+03  0.00000000000E+00 0. -1.
</event>
<event>
 4    1  0.1822260E+004  0.3518434E+02  0.7546771E-02  0.1379272E+00
         21   -1    0    0  503  502  0.00000000000E+00  0.00000000000E+00  0.15285541159E+01  0.15285541159E+01  0.00000000000E+00 0. -1.
         21   -1    0    0  501  503 -0.00000000000E+00 -0.00000000000E+00 -0.89442205176E+03  0.89442205176E+03  0.00000000000E+00 0.  1.
          2    1    1    2  501    0  0.30752630485E+02 -0.17094256564E+02 -0.58417779535E+03  0.58523639196E+03  0.00000000000E+00 0. -1.
         -2    1    1    2    0  502 -0.30752630485E+02  0.17094256564E+02 -0.30871570229E+03  0.31071421392E+03  0.00000000000E+00 0.  1.
</event>
<event>
 4    1  0.1822260E+004  0.2839346E+02  0.7546771E-02  0.1434091E+00
         21   -1    0    0  503  502  0.00000000000E+00  0.00000000000E+00  0.16978301925E+03  0.16978301925E+03  0.00000000000E+00 0.  1.
         21   -1    0    0  501  503 -0.00000000000E+00 -0.00000000000E+00 -0.11611843473E+02  0.11611843473E+02  0.00000000000E+00 0. -1.
          2    1    1    2  501    0  0.25692697404E+02 -0.12086103904E+02  0.93559959101E+01  0.29895204748E+02  0.00000000000E+00 0. -1.
         -2    1    1    2    0  502 -0.25692697404E+02  0.12086103904E+02  0.14881517987E+03  0.15149965798E+03  0.00000000000E+00 0.  1.
</event>
<event>
 4    1  0.1822260E+004  0.3009989E+02  0.7546771E-02  0.1418730E+00
         21   -1    0    0  501  502  0.00000000000E+00  0.00000000000E+00  0.28509209760E+03  0.28509209760E+03  0.00000000000E+00 0. -1.
         21   -1    0    0  502  503 -0.00000000000E+00 -0.00000000000E+00 -0.31945264188E+01  0.31945264188E+01  0.00000000000E+00 0.  1.
          2    1    1    2  501    0 -0.21914480015E+02 -0.20633933092E+02  0.15133738896E+03  0.15430168154E+03  0.00000000000E+00 0.  1.
         -2    1    1    2    0  503  0.21914480015E+02  0.20633933092E+02  0.13056018222E+03  0.13398494248E+03  0.00000000000E+00 0. -1.
</event>
<event>
 4    1  0.1822260E+004  0.2189599E+02  0.7546771E-02  0.1506847E+00
         21   -1    0    0  503  502  0.00000000000E+00  0.00000000000E+00  0.22223614553E+02  0.22223614553E+02  0.00000000000E+00 0.  1.
         21   -1    0    0  501  503 -0.00000000000E+00 -0.00000000000E+00 -0.27263101914E+02  0.27263101914E+02  0.00000000000E+00 0. -1.
          2    1    1    2  501    0  0.21200748207E+02  0.54738077837E+01 -0.13823524226E+02  0.25894480459E+02  0.00000000000E+00 0. -1.
         -2    1    1    2    0  502 -0.21200748207E+02 -0.54738077837E+01  0.87840368648E+01  0.23592236008E+02  0.00000000000E+00 0.  1.
</event>
<event>
 4    1  0.1822260E+004  0.5240968E+02  0.7546771E-02  0.1288050E+00
         21   -1    0    0  503  502  0.00000000000E+00  0.00000000000E+00  0.53438871165E+03  0.53438871165E+03  0.00000000000E+00 0. -1.
         21   -1    0    0  501  503 -0.00000000000E+00 -0.00000000000E+00 -0.51531070199E+01  0.51531070199E+01  0.00000000000E+00 0.  1.
          2    1    1    2  501    0  0.40387752496E+02 -0.33400653607E+02  0.25102814191E+03  0.25644083576E+03  0.00000000000E+00 0.  1.
         -2    1    1    2    0  502 -0.40387752496E+02  0.33400653607E+02  0.27820746271E+03  0.28310098291E+03  0.00000000000E+00 0. -1.
</event>
<event>
 4    1  0.1822260E+004  0.2174588E+02  0.7546771E-02  0.1508877E+00
         21   -1    0    0  501  502  0.00000000000E+00  0.00000000000E+00  0.58245365663E+01  0.58245365663E+01  0.00000000000E+00 0.  1.
         21   -1    0    0  502  503 -0.00000000000E+00 -0.00000000000E+00 -0.39687294391E+03  0.39687294391E+03  0.00000000000E+00 0. -1.
          2    1    1    2  501    0  0.13639685117E+02 -0.16936421059E+02 -0.15947498255E+02  0.26966758592E+02  0.00000000000E+00 0.  1.
         -2    1    1    2    0  503 -0.13639685117E+02  0.16936421059E+02 -0.37510090909E+03  0.37573072189E+03  0.00000000000E+00 0. -1.
</event>
<event>
 4    1  0.1822260E+004  0.2292111E+02  0.7546771E-02  0.1493491E+00
         21   -1    0    0  501  502  0.00000000000E+00  0.00000000000E+00  0.51951234635E+02  0.51951234635E+02  0.00000000000E+00 0. -1.
         21   -1    0    0  502  503 -0.00000000000E+00 -0.00000000000E+00 -0.10364976874E+02  0.10364976874E+02  0.00000000000E+00 0.  1.
          2    1    1    2  501    0  0.21816747189E+01  0.22817045730E+02  0.25652268237E+02  0.34400816068E+02  0.00000000000E+00 0.  1.
         -2    1    1    2    0  503 -0.21816747189E+01 -0.22817045730E+02  0.15933989524E+02  0.27915395440E+02  0.00000000000E+00 0. -1.
</event>
<event>
 4    1  0.1822260E+004  0.6366020E+02  0.7546771E-02  0.1247879E+00
         21   -1    0    0  501  502  0.00000000000E+00  0.00000000000E+00  0.27565624000E+03  0.27565624000E+03  0.00000000000E+00 0. -1.
         21   -1    0    0  502  503 -0.00000000000E+00 -0.00000000000E+00 -0.11371485703E+03  0.11371485703E+03  0.00000000000E+00 0.  1.
          2    1    1    2  501    0  0.46980351048E+02  0.42958906209E+02  0.26263579861E+03  0.27024097343E+03  0.00000000000E+00 0. -1.
         -2    1    1    2    0  503 -0.46980351048E+02 -0.42958906209E+02 -0.10069441564E+03  0.11913012360E+03  0.00000000000E+00 0.  1.
</event>
<event>
 4    1  0.1822260E+004  0.2618961E+02  0.7546771E-02  0.1455923E+00
         21   -1    0    0  501  502  0.00000000000E+00  0.00000000000E+00  0.96256740746E+02  0.96256740746E+02  0.00000000000E+00 0. -1.
         21   -1    0    0  502  503 -0.00000000000E+00 -0.00000000000E+00 -0.84192773530E+01  0.84192773530E+01  0.00000000000E+00 0.  1.
          2    1    1    2  501    0  0.12505902653E+02 -0.23010822244E+02  0.23403428596E+02  0.35122870207E+02  0.00000000000E+00 0.  1.
         -2    1    1    2    0  503 -0.12505902653E+02  0.23010822244E+02  0.64434034797E+02  0.69553147892E+02  0.00000000000E+00 0. -1.
</event>
<event>
 4    1  0.1822260E+004  0.2080331E+02  0.7546771E-02  0.1522092E+00
         21   -1    0    0  503  502  0.00000000000E+00  0.00000000000E+00  0.16441036963E+03  0.16441036963E+03  0.00000000000E+00 0.  1.
         21   -1    0    0  501  503 -0.00000000000E+00 -0.00000000000E+00 -0.33263790976E+01  0.33263790976E+01  0.00000000000E+00 0. -1.
          2    1    1    2  501    0  0.88758702457E+01 -0.18814802769E+02  0.11885233130E+03  0.12065924968E+03  0.00000000000E+00 0.  1.
         -2    1    1    2    0  502 -0.88758702457E+01  0.18814802769E+02  0.42231659231E+02  0.47077499054E+02  0.00000000000E+00 0. -1.
</event>
<event>
 4    1  0.1822260E+004  0.2521172E+02  0.7546771E-02  0.1466449E+00
         21   -1    0    0  503  502  0.00000000000E+00  0.00000000000E+00  0.16711065922E+02  0.16711065922E+02  0.00000000000E+00 0. -1.
         21   -1    0    0  501  503 -0.00000000000E+00 -0.00000000000E+00 -0.25169491003E+03  0.25169491003E+03  0.00000000000E+00 0.  1.
          2    1    1    2  501    0  0.20884102692E+02  0.14123915710E+02 -0.24113931043E+03  0.24245370233E+03  0.00000000000E+00 0.  1.
         -2    1    1    2    0  502 -0.20884102692E+02 -0.14123915710E+02  0.61554663241E+01  0.25952273617E+02  0.00000000000E+00 0. -1.
</event>
<event>
 4    1  0.1822260E+004  0.2157617E+02  0.7546771E-02  0.1511195E+00
         21   -1    0    0  501  502  0.00000000000E+00  0.00000000000E+00  0.10856675717E+03  0.10856675717E+03  0.00000000000E+00 0. -1.
         21   -1    0    0  502  503 -0.00000000000E+00 -0.00000000000E+00 -0.13206337927E+02  0.13206337927E+02  0.00000000000E+00 0.  1.
          2    1    1    2  501    0  0.10803703744E+02  0.18676486835E+02  0.97715082280E+02  0.10006881872E+03  0.00000000000E+00 0. -1.
         -2    1    1    2    0  503 -0.10803703744E+02 -0.18676486835E+02 -0.23546630365E+01  0.21704276378E+02  0.00000000000E+00 0.  1.
</event>
<event>
 4    1  0.1822260E+004  0.2107338E+02  0.7546771E-02  0.1518220E+00
         21   -1    0    0  503  502  0.00000000000E+00  0.00000000000E+00  0.93171860244E+00  0.93171860244E+00  0.00000000000E+00 0.  1.
         21   -1    0    0  501  503 -0.00000000000E+00 -0.00000000000E+00 -0.48061130408E+03  0.48061130408E+03  0.00000000000E+00 0. -1.
          2    1    1    2  501    0 -0.14030934870E+02 -0.15723243379E+02 -0.26174642725E+03  0.26259337329E+03  0.00000000000E+00 0.  1.
         -2    1    1    2    0  502  0.14030934870E+02  0.15723243379E+02 -0.21793315823E+03  0.21894964939E+03  0.00000000000E+00 0. -1.
</event>
<event>
 4    1  0.1822260E+004  0.4735113E+02  0.7546771E-02  0.1310084E+00
         21   -1    0    0  503  502  0.00000000000E+00  0.00000000000E+00  0.11344202419E+03  0.11344202419E+03  0.00000000000E+00 0. -1.
         21   -1    0    0  501  503 -0.00000000000E+00 -0.00000000000E+00 -0.24086213164E+02  0.24086213164E+02  0.00000000000E+00 0.  1.
          2    1    1    2  501    0  0.32650285707E+02  0.34294140425E+02  0.15550374934E+02  0.49839175203E+02  0.00000000000E+00 0. -1.
         -2    1    1    2    0  502 -0.32650285707E+02 -0.34294140425E+02  0.73805436087E+02  0.87689062148E+02  0.00000000000E+00 0.  1.
</event>
<event>
 4    1  0.1822260E+004  0.3198208E+02  0.7546771E-02  0.1403120E+00
         21   -1    0    0  503  502  0.00000000000E+00  0.00000000000E+00  0.73271072791E+03  0.73271072791E+03  0.00000000000E+00 0.  1.
         21   -1    0    0  501  503 -0.00000000000E+00 -0.00000000000E+00 -0.19809529621E+01  0.19809529621E+01  0.00000000000E+00 0. -1.
          2    1    1    2  501    0  0.28087032063E+02 -0.15296145321E+02  0.16574492913E+03  0.16880235473E+03  0.00000000000E+00 0. -1.
         -2    1    1    2    0  502 -0.28087032063E+02  0.15296145321E+02  0.56498484582E+03  0.56588932614E+03  0.00000000000E+00 0.  1.
</event>
<event>
 4    1  0.1822260E+004  0.3143331E+02  0.7546771E-02  0.1407537E+00
         21   -1    0    0  503  502  0.00000000000E+00  0.00000000000E+00  0.69331791140E+03  0.69331791140E+03  0.00000000000E+00 0. -1.
         21   -1    0    0  501  503 -0.00000000000E+00 -0.00000000000E+00 -0.14368181526E+01  0.14368181526E+01  0.00000000000E+00 0.  1.
          2    1    1    2  501    0  0.25575320940E+02 -0.18274454255E+02  0.31457977257E+03  0.31614630479E+03  0.00000000000E+00 0.  1.
         -2    1    1    2    0  502 -0.25575320940E+02  0.18274454255E+02  0.37730132067E+03  0.37860842476E+03  0.00000000000E+00 0. -1.
</event>
<event>
 4    1  0.1822260E+004  0.2477959E+02  0.7546771E-02  0.1471284E+00
         21   -1    0    0  501  502  0.00000000000E+00  0.00000000000E+00  0.71235628791E+02  0.71235628791E+02  0.00000000000E+00 0. -1.
         21   -1    0    0  502  503 -0.00000000000E+00 -0.00000000000E+00 -0.10464164266E+02  0.10464164266E+02  0.00000000000E+00 0.  1.
          2    1    1    2  501    0 -0.21075426883E+02 -0.13032815957E+02  0.47536234772E+02  0.53607103320E+02  0.00000000000E+00 0. -1.
         -2    1    1    2    0  503  0.21075426883E+02  0.13032815957E+02  0.13235229753E+02  0.28092689737E+02  0.00000000000E+00 0.  1.
</event>
<event>
 4    1  0.1822260E+004  0.2560975E+02  0.7546771E-02  0.1462096E+00
         21   -1    0    0  501  502  0.00000000000E+00  0.00000000000E+00  0.23827938020E+02  0.23827938020E+02  0.00000000000E+00 0. -1.
         21   -1    0    0  502  503 -0.00000000000E+00 -0.00000000000E+00 -0.38655087388E+02  0.38655087388E+02  0.00000000000E+00 0.  1.
          2    1    1    2  501    0  0.11288760144E+02 -0.22987455810E+02  0.93505897487E+01  0.27263395952E+02  0.00000000000E+00 0. -1.
         -2    1    1    2    0  503 -0.11288760144E+02  0.22987455810E+02 -0.24177739117E+02  0.35219629456E+02  0.00000000000E+00 0.  1.
</event>
<event>
 4    1  0.1822260E+004  0.2541212E+02  0.7546771E-02  0.1464245E+00
         21   -1    0    0  503  502  0.00000000000E+00  0.00000000000E+00  0.28848144264E+02  0.28848144264E+02  0.00000000000E+00 0. -1.
         21   -1    0    0  501  503 -0.00000000000E+00 -0.00000000000E+00 -0.24352532433E+02  0.24352532433E+02  0.00000000000E+00 0.  1.
          2    1    1    2  501    0 -0.23783155777E+02 -0.89519409588E+01 -0.53124700099E+01  0.25961473056E+02  0.00000000000E+00 0.  1.
         -2    1    1    2    0  502  0.23783155777E+02  0.89519409588E+01  0.98080818403E+01  0.27239203641E+02  0.00000000000E+00 0. -1.
</event>
<event>
 4    1  0.1822260E+004  0.2321920E+02  0.7546771E-02  0.1489764E+00
         21   -1    0    0  501  502  0.00000000000E+00  0.00000000000E+00  0.32628198918E+02  0.32628198918E+02  0.00000000000E+00 0.  1.
         21   -1    0    0  502  503 -0.00000000000E+00 -0.00000000000E+00 -0.42289895035E+02  0.42289895035E+02  0.00000000000E+00 0. -1.
          2    1    1    2  501    0  0.20515429176E+02  0.10874209848E+02  0.24408349514E+02  0.33688259083E+02  0.00000000000E+00 0.  1.
         -2    1    1    2    0  503 -0.20515429176E+02 -0.10874209848E+02 -0.34070045631E+02  0.41229834869E+02  0.00000000000E+00 0. -1.
</event>
<event>
 4    1  0.1822260E+004  0.2014681E+02  0.7546771E-02  0.1531803E+00
         21   -1    0    0  501  502  0.00000000000E+00  0.00000000000E+00  0.13642410222E+02  0.13642410222E+02  0.00000000000E+00 0.  1.
         21   -1    0    0  502  503 -0.00000000000E+00 -0.00000000000E+00 -0.29798083941E+02  0.29798083941E+02  0.00000000000E+00 0. -1.
          2    1    1    2  501    0  0.23946101399E+01 -0.20003990081E+02 -0.72269235015E+01  0.21403789388E+02  0.00000000000E+00 0.  1.
         -2    1    1    2    0  503 -0.23946101399E+01  0.20003990081E+02 -0.89287502180E+01  0.22036704775E+02  0.00000000000E+00 0. -1.
</event>
<event>
 4    1  0.1822260E+004  0.2095692E+02  0.7546771E-02  0.1519881E+00
         21   -1    0    0  501  502  0.00000000000E+00  0.00000000000E+00  0.40547043426E+02  0.40547043426E+02  0.00000000000E+00 0. -1.
         21   -1    0    0  502  503 -0.00000000000E+00 -0.00000000000E+00 -0.23046748815E+02  0.23046748815E+02  0.00000000000E+00 0.  1.
          2    1    1    2  501    0 -0.20943088149E+02 -0.76120445707E+00  0.31898919006E+02  0.38167177092E+02  0.00000000000E+00 0. -1.
         -2    1    1    2    0  503  0.20943088149E+02  0.76120445707E+00 -0.14398624395E+02  0.25426615148E+02  0.00000000000E+00 0.  1.
</event>
<event>
 4    1  0.1822260E+004  0.2214288E+02  0.7546771E-02  0.1503551E+00
         21   -1    0    0  503  502  0.00000000000E+00  0.00000000000E+00  0.14495782828E+04  0.14495782828E+04  0.00000000000E+00 0.  1.
         21   -1    0    0  501  503 -0.00000000000E+00 -0.00000000000E+00 -0.60809509566E+01  0.60809509566E+01  0.00000000000E+00 0. -1.
          2    1    1    2  501    0  0.18295944190E+02  0.12472599008E+02  0.14450711909E+02  0.26441073626E+02  0.00000000000E+00 0. -1.
         -2    1    1    2    0  502 -0.18295944190E+02 -0.12472599008E+02  0.14290466199E+04  0.14292181601E+04  0.00000000000E+00 0.  1.
</event>
<event>
 4    1  0.1822260E+004  0.2643284E+02  0.7546771E-02  0.1453390E+00
         21   -1    0    0  501  502  0.00000000000E+00  0.00000000000E+00  0.22216662623E+01  0.22216662623E+01  0.00000000000E+00 0. -1.
         21   -1    0    0  502  503 -0.00000000000E+00 -0.00000000000E+00 -0.32629427568E+03  0.32629427568E+03  0.00000000000E+00 0.  1.
          2    1    1    2  501    0  0.19210482994E+02 -0.18156328706E+02 -0.13079597002E+03  0.13344017649E+03  0.00000000000E+00 0. -1.
         -2    1    1    2    0  503 -0.19210482994E+02  0.18156328706E+02 -0.19327663939E+03  0.19507576545E+03  0.00000000000E+00 0.  1.
</event>
<event>
 4    1  0.1822260E+004  0.2611357E+02  0.7546771E-02  0.1456722E+00
         21   -1    0    0  501  502  0.00000000000E+00  0.00000000000E+00  0.93991169491E+01  0.93991169491E+01  0.00000000000E+00 0. -1.
         21   -1    0    0  502  503 -0.00000000000E+00 -0.00000000000E+00 -0.74071951013E+02  0.74071951013E+02  0.00000000000E+00 0.  1.
          2    1    1    2  501    0 -0.11754388883E+02 -0.23318507847E+02 -0.38316250774E+02  0.46368669806E+02  0.00000000000E+00 0.  1.
         -2    1    1    2    0  503  0.11754388883E+02  0.23318507847E+02 -0.26356583290E+02  0.37102398156E+02  0.00000000000E+00 0. -1.
</event>
<event>
 4    1  0.1822260E+004  0.4898033E+02  0.7546771E-02  0.1302655E+00
         21   -1    0    0  501  502  0.00000000000E+00  0.00000000000E+00  0.13551463673E+04  0.13551463673E+04  0.00000000000E+00 0.  1.
         21   -1    0    0  502  503 -0.00000000000E+00 -0.00000000000E+00 -0.22637187674E+01  0.22637187674E+01  0.00000000000E+00 0. -1.
          2    1    1    2  501    0 -0.41547175563E+02 -0.25940411764E+02  0.99329526545E+03  0.99450216547E+03  0.00000000000E+00 0.  1.
         -2    1    1    2    0  503  0.41547175563E+02  0.25940411764E+02  0.35958738305E+03  0.36290792056E+03  0.00000000000E+00 0. -1.
</event>
<event>
 4    1  0.1822260E+004  0.2010729E+02  0.7546771E-02  0.1532402E+00
         21   -1    0    0  501  502  0.00000000000E+00  0.00000000000E+00  0.18936477601E+02  0.18936477601E+02  0.00000000000E+00 0. -1.
         21   -1    0    0  502  503 -0.00000000000E+00 -0.00000000000E+00 -0.22263034015E+02  0.22263034015E+02  0.00000000000E+00 0.  1.
          2    1    1    2  501    0  0.17804268295E+02  0.93440329595E+01 -0.58338801915E+01  0.20936501130E+02  0.00000000000E+00 0.  1.
         -2    1    1    2    0  503 -0.17804268295E+02 -0.93440329595E+01  0.25073237770E+01  0.20263010487E+02  0.00000000000E+00 0. -1.
</event>
<event>
 4    1  0.1822260E+004  0.2738605E+02  0.7546771E-02  0.1443768E+00
         21   -1    0    0  501  502  0.00000000000E+00  0.00000000000E+00  0.21913597998E+03  0.21913597998E+03  0.00000000000E+00 0. -1.
         21   -1    0    0  502  503 -0.00000000000E+00 -0.00000000000E+00 -0.41478320594E+01  0.41478320594E+01  0.00000000000E+00 0.  1.
          2    1    1    2  501    0  0.12918014424E+02  0.24147896507E+02  0.15417944848E+03  0.15659277868E+03  0.00000000000E+00 0. -1.
         -2    1    1    2    0  503 -0.12918014424E+02 -0.24147896507E+02  0.60808699445E+02  0.66691033360E+02  0.00000000000E+00 0.  1.
</event>
<event>
 4    1  0.1822260E+004  0.2232612E+02  0.7546771E-02  0.1501138E+00
         21   -1    0    0  501  502  0.00000000000E+00  0.00000000000E+00  0.99543164183E+02  0.99543164183E+02  0.00000000000E+00 0. -1.
         21   -1    0    0  502  503 -0.00000000000E+00 -0.00000000000E+00 -0.11704689228E+02  0.11704689228E+02  0.00000000000E+00 0.  1.
          2    1    1    2  501    0 -0.14882845727E+02  0.16642013404E+02  0.85994822565E+02  0.88845738306E+02  0.00000000000E+00 0. -1.
         -2    1    1    2    0  503  0.14882845727E+02 -0.16642013404E+02  0.18436523897E+01  0.22402115106E+02  0.00000000000E+00 0.  1.
</event>
<event>
 4    1  0.1822260E+004  0.2426366E+02  0.7546771E-02  0.1477212E+00
         21   -1    0    0  501  502  0.00000000000E+00  0.00000000000E+00  0.65483380002E+00  0.65483380002E+00  0.00000000000E+00 0. -1.
         21   -1    0    0  502  503 -0.00000000000E+00 -0.00000000000E+00 -0.13252593117E+04  0.13252593117E+04  0.00000000000E+00 0.  1.
          2    1    1    2  501    0  0.16362266297E+02  0.17916510297E+02 -0.28633590754E+03  0.28736210092E+03  0.00000000000E+00 0. -1.
         -2    1    1    2    0  503 -0.16362266297E+02 -0.17916510297E+02 -0.10382685703E+04  0.10385520446E+04  0.00000000000E+00 0.  1.
</event>
<event>
 4    1  0.1822260E+004  0.2749747E+02  0.7546771E-02  0.1442674E+00
         21   -1    0    0  501  502  0.00000000000E+00  0.00000000000E+00  0.11588583577E+02  0.11588583577E+02  0.00000000000E+00 0. -1.
         21   -1    0    0  502  503 -0.00000000000E+00 -0.00000000000E+00 -0.70613526107E+02  0.70613526107E+02  0.00000000000E+00 0.  1.
          2    1    1    2  501    0 -0.18873155342E+02  0.19997865823E+02 -0.18180917920E+02  0.32964471882E+02  0.00000000000E+00 0. -1.
         -2    1    1    2    0  503  0.18873155342E+02 -0.19997865823E+02 -0.40844024610E+02  0.49237637803E+02  0.00000000000E+00 0.  1.
</event>
<event>
 4    1  0.1822260E+004  0.2138076E+02  0.7546771E-02  0.1513897E+00
         21   -1    0    0  503  502  0.00000000000E+00  0.00000000000E+00  0.89494124874E+02  0.89494124874E+02  0.00000000000E+00 0. -1.
         21   -1    0    0  501  503 -0.00000000000E+00 -0.00000000000E+00 -0.58177119945E+01  0.58177119945E+01  0.00000000000E+00 0.  1.
          2    1    1    2  501    0 -0.20620670098E+02  0.56502074133E+01  0.25193399308E+02  0.33043066561E+02  0.00000000000E+00 0.  1.
         -2    1    1    2    0  502  0.20620670098E+02 -0.56502074133E+01  0.58483013572E+02  0.62268770307E+02  0.00000000000E+00 0. -1.
</event>
<event>
 4    1  0.1822260E+004  0.2429061E+02  0.7546771E-02  0.1476898E+00
         21   -1    0    0  503  502  0.00000000000E+00  0.00000000000E+00  0.25076228768E+02  0.25076228768E+02  0.00000000000E+00 0.  1.
         21   -1    0    0  501  503 -0.00000000000E+00 -0.00000000000E+00 -0.33359859934E+02  0.33359859934E+02  0.00000000000E+00 0. -1.
          2    1    1    2  501    0  0.16814710993E+02 -0.17529954437E+02 -0.20002480157E+02  0.31466379212E+02  0.00000000000E+00 0.  1.
         -2    1    1    2    0  502 -0.16814710993E+02  0.17529954437E+02  0.11718848991E+02  0.26969709490E+02  0.00000000000E+00 0. -1.
</event>
