<event>
 4    1  0.5573045E+003  0.2891666E+02  0.7546771E-02  0.1429250E+00
          2   -1    0    0  501    0  0.00000000000E+00  0.00000000000E+00  0.86487532662E+03  0.86487532662E+03  0.00000000000E+00 0. -1.
         -2   -1    0    0    0  501 -0.00000000000E+00 -0.00000000000E+00 -0.63261545719E+01  0.63261545719E+01  0.00000000000E+00 0. -1.
          2    1    1    2  502    0  0.25308823276E+02 -0.13987013578E+02  0.83020999301E+03  0.83071343168E+03  0.00000000000E+00 0. -1.
         -2    1    1    2    0  502 -0.25308823276E+02  0.13987013578E+02  0.28339179035E+02  0.40488049506E+02  0.00000000000E+00 0. -1.
</event>
<event>
 4    1  0.5573045E+003  0.2223675E+02  0.7546771E-02  0.1502311E+00
          2   -1    0    0  501    0  0.00000000000E+00  0.00000000000E+00  0.14117696072E+03  0.14117696072E+03  0.00000000000E+00 0.  1.
         -2   -1    0    0    0  501 -0.00000000000E+00 -0.00000000000E+00 -0.15992287917E+02  0.15992287917E+02  0.00000000000E+00 0. -1.
          2    1    1    2  502    0 -0.93609526225E-02  0.22236748567E+02  0.13204033245E+03  0.13389967314E+03  0.00000000000E+00 0.  1.
         -2    1    1    2    0  502  0.93609526225E-02 -0.22236748567E+02 -0.68556596466E+01  0.23269575494E+02  0.00000000000E+00 0. -1.
</event>
<event>
 4    1  0.5573045E+003  0.2277245E+02  0.7546771E-02  0.1495375E+00
          2   -1    0    0  501    0  0.00000000000E+00  0.00000000000E+00  0.14624967016E+04  0.14624967016E+04  0.00000000000E+00 0. -1.
         -2   -1    0    0    0  501 -0.00000000000E+00 -0.00000000000E+00 -0.60195900668E+01  0.60195900668E+01  0.00000000000E+00 0.  1.
          2    1    1    2  502    0 -0.22762983072E+02  0.65663450086E+00  0.14405424694E+04  0.14407224545E+04  0.00000000000E+00 0. -1.
         -2    1    1    2    0  502  0.22762983072E+02 -0.65663450086E+00  0.15934642093E+02  0.27793837192E+02  0.00000000000E+00 0.  1.
</event>
<event>
 4    1  0.5573045E+003  0.3885604E+02  0.7546771E-02  0.1355323E+00
          2   -1    0    0  501    0  0.00000000000E+00  0.00000000000E+00  0.14917168224E+04  0.14917168224E+04  0.00000000000E+00 0. -1.
         -2   -1    0    0    0  501 -0.00000000000E+00 -0.00000000000E+00 -0.27951617083E+02  0.27951617083E+02  0.00000000000E+00 0. -1.
          2    1    1    2  502    0 -0.31018551117E+02  0.23401740732E+02  0.14778333362E+04  0.14783440606E+04  0.00000000000E+00 0. -1.
         -2    1    1    2    0  502  0.31018551117E+02 -0.23401740732E+02 -0.14068130876E+02  0.41324378871E+02  0.00000000000E+00 0. -1.
</event>
<event>
 4    1  0.5573045E+003  0.4493962E+02  0.7546771E-02  0.1321742E+00
          2   -1    0    0  501    0  0.00000000000E+00  0.00000000000E+00  0.10834734324E+04  0.10834734324E+04  0.00000000000E+00 0.  1.
         -2   -1    0    0    0  501 -0.00000000000E+00 -0.00000000000E+00 -0.18753848940E+01  0.18753848940E+01  0.00000000000E+00 0.  1.
          2    1    1    2  502    0 -0.23903548515E+01 -0.44875983826E+02  0.49847088699E+03  0.50049255029E+03  0.00000000000E+00 0.  1.
         -2    1    1    2    0  502  0.23903548515E+01  0.44875983826E+02  0.58312716052E+03  0.58485626701E+03  0.00000000000E+00 0.  1.
</event>
<event>
 4    1  0.5573045E+003  0.5170605E+02  0.7546771E-02  0.1290940E+00
          2   -1    0    0  501    0  0.00000000000E+00  0.00000000000E+00  0.15851523827E+04  0.15851523827E+04  0.00000000000E+00 0. -1.
         -2   -1    0    0    0  501 -0.00000000000E+00 -0.00000000000E+00 -0.58974208380E+01  0.58974208380E+01  0.00000000000E+00 0.  1.
          2    1    1    2  502    0  0.27331750514E+02  0.43891806161E+02  0.14618393719E+04  0.14627535215E+04  0.00000000000E+00 0. -1.
         -2    1    1    2    0  502 -0.27331750514E+02 -0.43891806161E+02  0.11741558991E+03  0.12829628205E+03  0.00000000000E+00 0.  1.
</event>
<event>
 4    1  0.5573045E+003  0.4509772E+02  0.7546771E-02  0.1320951E+00
          2   -1    0    0  501    0  0.00000000000E+00  0.00000000000E+00  0.16763861133E+04  0.16763861133E+04  0.00000000000E+00 0.  1.
         -2   -1    0    0    0  501 -0.00000000000E+00 -0.00000000000E+00 -0.21923925188E+01  0.21923925188E+01  0.00000000000E+00 0. -1.
          2    1    1    2  502    0 -0.45061750890E+02  0.18009236492E+01  0.13979960577E+04  0.13987232685E+04  0.00000000000E+00 0.  1.
         -2    1    1    2    0  502  0.45061750890E+02 -0.18009236492E+01  0.27619766311E+03  0.27985523727E+03  0.00000000000E+00 0. -1.
</event>
<event>
 4    1  0.5573045E+003  0.2226523E+02  0.7546771E-02  0.1501937E+00
          2   -1    0    0  501    0  0.00000000000E+00  0.00000000000E+00  0.41476592262E+01  0.41476592262E+01  0.00000000000E+00 0.  1.
         -2   -1    0    0    0  501 -0.00000000000E+00 -0.00000000000E+00 -0.15098630874E+03  0.15098630874E+03  0.00000000000E+00 0. -1.
          2    1    1    2  502    0  0.22248083416E+02 -0.87361624855E+00 -0.38010563168E+02  0.44051598534E+02  0.00000000000E+00 0.  1.
         -2    1    1    2    0  502 -0.22248083416E+02  0.87361624855E+00 -0.10882808635E+03  0.11108236943E+03  0.00000000000E+00 0. -1.
</event>
<event>
 4    1  0.5573045E+003  0.2959536E+02  0.7546771E-02  0.1423146E+00
          2   -1    0    0  501    0  0.00000000000E+00  0.00000000000E+00  0.55953804771E+03  0.55953804771E+03  0.00000000000E+00 0.  1.
         -2   -1    0    0    0  501 -0.00000000000E+00 -0.00000000000E+00 -0.32732937698E+01  0.32732937698E+01  0.00000000000E+00 0.  1.
          2    1    1    2  502    0 -0.90615754634E+00 -0.29581486197E+02  0.48140284273E+03  0.48231170671E+03  0.00000000000E+00 0.  1.
         -2    1    1    2    0  502  0.90615754634E+00  0.29581486197E+02  0.74861911217E+02  0.80499634771E+02  0.00000000000E+00 0.  1.
</event>
<event>
 4    1  0.5573045E+003  0.2249890E+02  0.7546771E-02  0.1498888E+00
          2   -1    0    0  501    0  0.00000000000E+00  0.00000000000E+00  0.96576793212E+03  0.96576793212E+03  0.00000000000E+00 0. -1.
         -2   -1    0    0    0  501 -0.00000000000E+00 -0.00000000000E+00 -0.12940842628E+01  0.12940842628E+01  0.00000000000E+00 0.  1.
          2    1    1    2  502    0 -0.63155962936E+01  0.21594299410E+02  0.85520515701E+03  0.85550105850E+03  0.00000000000E+00 0. -1.
         -2    1    1    2    0  502  0.63155962936E+01 -0.21594299410E+02  0.10926869084E+03  0.11156095788E+03  0.00000000000E+00 0.  1.
</event>
<event>
 4    1  0.5573045E+003  0.3064600E+02  0.7546771E-02  0.1414064E+00
          2   -1    0    0  501    0  0.00000000000E+00  0.00000000000E+00  0.57672144349E+03  0.57672144349E+03  0.00000000000E+00 0. -1.
         -2   -1    0    0    0  501 -0.00000000000E+00 -0.00000000000E+00 -0.37871980347E+01  0.37871980347E+01  0.00000000000E+00 0. -1.
          2    1    1    2  502    0  0.23735936501E+02 -0.19385114491E+02  0.50560527374E+03  0.50653318764E+03  0.00000000000E+00 0. -1.
         -2    1    1    2    0  502 -0.23735936501E+02  0.19385114491E+02  0.67328971714E+02  0.73975453885E+02  0.00000000000E+00 0. -1.
</event>
<event>
 4    1  0.5573045E+003  0.2188568E+02  0.7546771E-02  0.1506986E+00
          2   -1    0    0  501    0  0.00000000000E+00  0.00000000000E+00  0.11328761233E+02  0.11328761233E+02  0.00000000000E+00 0.  1.
         -2   -1    0    0    0  501 -0.00000000000E+00 -0.00000000000E+00 -0.99299337375E+02  0.99299337375E+02  0.00000000000E+00 0.  1.
          2    1    1    2  502    0 -0.21776525188E+02 -0.21831223626E+01 -0.20700115347E+01  0.21983357803E+02  0.00000000000E+00 0.  1.
         -2    1    1    2    0  502  0.21776525188E+02  0.21831223626E+01 -0.85900564607E+02  0.88644740805E+02  0.00000000000E+00 0.  1.
</event>
<event>
 4    1  0.5573045E+003  0.2471796E+02  0.7546771E-02  0.1471983E+00
          2   -1    0    0  501    0  0.00000000000E+00  0.00000000000E+00  0.23911206947E+03  0.23911206947E+03  0.00000000000E+00 0. -1.
         -2   -1    0    0    0  501 -0.00000000000E+00 -0.00000000000E+00 -0.37952417124E+01  0.37952417124E+01  0.00000000000E+00 0. -1.
          2    1    1    2  502    0  0.62988810982E+01 -0.23901912312E+02  0.18708253153E+03  0.18870837532E+03  0.00000000000E+00 0. -1.
         -2    1    1    2    0  502 -0.62988810982E+01  0.23901912312E+02  0.48234296233E+02  0.54198935860E+02  0.00000000000E+00 0. -1.
</event>
<event>
 4    1  0.5573045E+003  0.2493873E+02  0.7546771E-02  0.1469490E+00
          2   -1    0    0  501    0  0.00000000000E+00  0.00000000000E+00  0.31692889112E+03  0.31692889112E+03  0.00000000000E+00 0. -1.
         -2   -1    0    0    0  501 -0.00000000000E+00 -0.00000000000E+00 -0.11397618255E+03  0.11397618255E+03  0.00000000000E+00 0.  1.
          2    1    1    2  502    0 -0.13529408839E+01  0.24902005218E+02  0.31506604942E+03  0.31605150816E+03  0.00000000000E+00 0. -1.
         -2    1    1    2    0  502  0.13529408839E+01 -0.24902005218E+02 -0.11211334085E+03  0.11485356551E+03  0.00000000000E+00 0.  1.
</event>
<event>
 4    1  0.5573045E+003  0.3405633E+02  0.7546771E-02  0.1387322E+00
          2   -1    0    0  501    0  0.00000000000E+00  0.00000000000E+00  0.17188256622E+03  0.17188256622E+03  0.00000000000E+00 0.  1.
         -2   -1    0    0    0  501 -0.00000000000E+00 -0.00000000000E+00 -0.83415451010E+02  0.83415451010E+02  0.00000000000E+00 0.  1.
          2    1    1    2  502    0 -0.11228424750E+02 -0.32152081725E+02  0.16661066855E+03  0.17005572251E+03  0.00000000000E+00 0.  1.
         -2    1    1    2    0  502  0.11228424750E+02  0.32152081725E+02 -0.78143553340E+02  0.85242294726E+02  0.00000000000E+00 0.  1.
</event>
<event>
 4    1  0.5573045E+003  0.2275161E+02  0.7546771E-02  0.1495641E+00
          2   -1    0    0  501    0  0.00000000000E+00  0.00000000000E+00  0.14617118337E+04  0.14617118337E+04  0.00000000000E+00 0.  1.
         -2   -1    0    0    0  501 -0.00000000000E+00 -0.00000000000E+00 -0.78723351046E+00  0.78723351046E+00  0.00000000000E+00 0. -1.
          2    1    1    2  502    0 -0.14988942146E+02 -0.17116269398E+02  0.18807439993E+03  0.18944554620E+03  0.00000000000E+00 0. -1.
         -2    1    1    2    0  502  0.14988942146E+02  0.17116269398E+02  0.12728502003E+04  0.12730535210E+04  0.00000000000E+00 0.  1.
</event>
<event>
 4    1  0.5573045E+003  0.3356804E+02  0.7546771E-02  0.1390920E+00
          2   -1    0    0  501    0  0.00000000000E+00  0.00000000000E+00  0.54888121503E+03  0.54888121503E+03  0.00000000000E+00 0.  1.
         -2   -1    0    0    0  501 -0.00000000000E+00 -0.00000000000E+00 -0.21585955022E+01  0.21585955022E+01  0.00000000000E+00 0. -1.
          2    1    1    2  502    0  0.12570442147E+02 -0.31125512401E+02  0.33432038297E+03  0.33600138691E+03  0.00000000000E+00 0.  1.
         -2    1    1    2    0  502 -0.12570442147E+02  0.31125512401E+02  0.21240223656E+03  0.21503842362E+03  0.00000000000E+00 0. -1.
</event>
<event>
 4    1  0.5573045E+003  0.2649994E+02  0.7546771E-02  0.1452697E+00
          2   -1    0    0  501    0  0.00000000000E+00  0.00000000000E+00  0.38074075864E+02  0.38074075864E+02  0.00000000000E+00 0. -1.
         -2   -1    0    0    0  501 -0.00000000000E+00 -0.00000000000E+00 -0.24052080820E+03  0.24052080820E+03  0.00000000000E+00 0. -1.
          2    1    1    2  502    0 -0.25440494948E+02  0.74180882814E+01  0.32626579035E+02  0.42032612059E+02  0.00000000000E+00 0. -1.
         -2    1    1    2    0  502  0.25440494948E+02 -0.74180882814E+01 -0.23507331137E+03  0.23656227200E+03  0.00000000000E+00 0. -1.
</event>
<event>
 4    1  0.5573045E+003  0.2554160E+02  0.7546771E-02  0.1462835E+00
          2   -1    0    0  501    0  0.00000000000E+00  0.00000000000E+00  0.15268780727E+02  0.15268780727E+02  0.00000000000E+00 0. -1.
         -2   -1    0    0    0  501 -0.00000000000E+00 -0.00000000000E+00 -0.43173787347E+02  0.43173787347E+02  0.00000000000E+00 0. -1.
          2    1    1    2  502    0  0.44437470491E+01  0.25152061984E+02 -0.10976379274E+02  0.27800252011E+02  0.00000000000E+00 0. -1.
         -2    1    1    2    0  502 -0.44437470491E+01 -0.25152061984E+02 -0.16928627346E+02  0.30642316063E+02  0.00000000000E+00 0. -1.
</event>
<event>
 4    1  0.5573045E+003  0.4662966E+02  0.7546771E-02  0.1313486E+00
          2   -1    0    0  501    0  0.00000000000E+00  0.00000000000E+00  0.59184077465E+03  0.59184077465E+03  0.00000000000E+00 0. -1.
         -2   -1    0    0    0  501 -0.00000000000E+00 -0.00000000000E+00 -0.61043641141E+01  0.61043641141E+01  0.00000000000E+00 0. -1.
          2    1    1    2  502    0 -0.35279077140E+02  0.30491178933E+02  0.48152026608E+03  0.48377276890E+03  0.00000000000E+00 0. -1.
         -2    1    1    2    0  502  0.35279077140E+02 -0.30491178933E+02  0.10421614445E+03  0.11417236986E+03  0.00000000000E+00 0. -1.
</event>
<event>
 4    1  0.5573045E+003  0.3983021E+02  0.7546771E-02  0.1349484E+00
          2   -1    0    0  501    0  0.00000000000E+00  0.00000000000E+00  0.32299490159E+02  0.32299490159E+02  0.00000000000E+00 0.  1.
         -2   -1    0    0    0  501 -0.00000000000E+00 -0.00000000000E+00 -0.57176303493E+02  0.57176303493E+02  0.00000000000E+00 0.  1.
          2    1    1    2  502    0 -0.39827919778E+02  0.42752762116E+00  0.43582569771E+01  0.40067947010E+02  0.00000000000E+00 0.  1.
         -2    1    1    2    0  502  0.39827919778E+02 -0.42752762116E+00 -0.29235070311E+02  0.49407846642E+02  0.00000000000E+00 0.  1.
</event>
<event>
 4    1  0.5573045E+003  0.3481543E+02  0.7546771E-02  0.1381865E+00
          2   -1    0    0  501    0  0.00000000000E+00  0.00000000000E+00  0.18313723561E+04  0.18313723561E+04  0.00000000000E+00 0.  1.
         -2   -1    0    0    0  501 -0.00000000000E+00 -0.00000000000E+00 -0.67823267001E+00  0.67823267001E+00  0.00000000000E+00 0.  1.
          2    1    1    2  502    0 -0.28490418163E+02 -0.20010226640E+02  0.77302550015E+03  0.77380910887E+03  0.00000000000E+00 0.  1.
         -2    1    1    2    0  502  0.28490418163E+02  0.20010226640E+02  0.10576686233E+04  0.10582414799E+04  0.00000000000E+00 0.  1.
</event>
<event>
 4    1  0.5573045E+003  0.2036009E+02  0.7546771E-02  0.1528600E+00
          2   -1    0    0  501    0  0.00000000000E+00  0.00000000000E+00  0.57227122632E+03  0.57227122632E+03  0.00000000000E+00 0. -1.
         -2   -1    0    0    0  501 -0.00000000000E+00 -0.00000000000E+00 -0.16723070433E+01  0.16723070433E+01  0.00000000000E+00 0.  1.
          2    1    1    2  502    0 -0.17875286098E+02  0.97471813129E+01  0.50135827710E+03  0.50177151714E+03  0.00000000000E+00 0. -1.
         -2    1    1    2    0  502  0.17875286098E+02 -0.97471813129E+01  0.69240642175E+02  0.72172016221E+02  0.00000000000E+00 0.  1.
</event>
<event>
 4    1  0.5573045E+003  0.5967435E+02  0.7546771E-02  0.1260943E+00
          2   -1    0    0  501    0  0.00000000000E+00  0.00000000000E+00  0.64616630823E+03  0.64616630823E+03  0.00000000000E+00 0. -1.
         -2   -1    0    0    0  501 -0.00000000000E+00 -0.00000000000E+00 -0.79659672923E+01  0.79659672923E+01  0.00000000000E+00 0.  1.
          2    1    1    2  502    0  0.56344233571E+02  0.19655937866E+02  0.50066777065E+03  0.50421150831E+03  0.00000000000E+00 0. -1.
         -2    1    1    2    0  502 -0.56344233571E+02 -0.19655937866E+02  0.13753257029E+03  0.14992076721E+03  0.00000000000E+00 0.  1.
</event>
<event>
 4    1  0.5573045E+003  0.2170763E+02  0.7546771E-02  0.1509397E+00
          2   -1    0    0  501    0  0.00000000000E+00  0.00000000000E+00  0.71152540884E+03  0.71152540884E+03  0.00000000000E+00 0.  1.
         -2   -1    0    0    0  501 -0.00000000000E+00 -0.00000000000E+00 -0.49917222642E+01  0.49917222642E+01  0.00000000000E+00 0. -1.
          2    1    1    2  502    0  0.21000422765E+02  0.54957604721E+01  0.68691436982E+03  0.68725728269E+03  0.00000000000E+00 0.  1.
         -2    1    1    2    0  502 -0.21000422765E+02 -0.54957604721E+01  0.19619316754E+02  0.29259848416E+02  0.00000000000E+00 0. -1.
</event>
<event>
 4    1  0.5573045E+003  0.2647167E+02  0.7546771E-02  0.1452989E+00
          2   -1    0    0  501    0  0.00000000000E+00  0.00000000000E+00  0.27331097144E+04  0.27331097144E+04  0.00000000000E+00 0. -1.
         -2   -1    0    0    0  501 -0.00000000000E+00 -0.00000000000E+00 -0.30500006311E+00  0.30500006311E+00  0.00000000000E+00 0. -1.
          2    1    1    2  502    0  0.19472269868E+02 -0.17932651359E+02  0.19120053737E+04  0.19121886148E+04  0.00000000000E+00 0. -1.
         -2    1    1    2    0  502 -0.19472269868E+02  0.17932651359E+02  0.82079934057E+03  0.82122609965E+03  0.00000000000E+00 0. -1.
</event>
<event>
 4    1  0.5573045E+003  0.2308626E+02  0.7546771E-02  0.1491418E+00
          2   -1    0    0  501    0  0.00000000000E+00  0.00000000000E+00  0.41332472563E+02  0.41332472563E+02  0.00000000000E+00 0.  1.
         -2   -1    0    0    0  501 -0.00000000000E+00 -0.00000000000E+00 -0.58051655289E+02  0.58051655289E+02  0.00000000000E+00 0. -1.
          2    1    1    2  502    0  0.11431311591E+02 -0.20057430752E+02  0.35467374773E+02  0.42319145625E+02  0.00000000000E+00 0.  1.
         -2    1    1    2    0  502 -0.11431311591E+02  0.20057430752E+02 -0.52186557499E+02  0.57064982228E+02  0.00000000000E+00 0. -1.
</event>
<event>
 4    1  0.5573045E+003  0.2305039E+02  0.7546771E-02  0.1491866E+00
          2   -1    0    0  501    0  0.00000000000E+00  0.00000000000E+00  0.93189469833E+03  0.93189469833E+03  0.00000000000E+00 0. -1.
         -2   -1    0    0    0  501 -0.00000000000E+00 -0.00000000000E+00 -0.15761665681E+01  0.15761665681E+01  0.00000000000E+00 0.  1.
          2    1    1    2  502    0 -0.63034112699E+01 -0.22171768018E+02  0.83804190205E+03  0.83835884315E+03  0.00000000000E+00 0. -1.
         -2    1    1    2    0  502  0.63034112699E+01  0.22171768018E+02  0.92276629714E+02  0.95112021754E+02  0.00000000000E+00 0.  1.
</event>
<event>
 4    1  0.5573045E+003  0.2099757E+02  0.7546771E-02  0.1519299E+00
          2   -1    0    0  501    0  0.00000000000E+00  0.00000000000E+00  0.14428751232E+04  0.14428751232E+04  0.00000000000E+00 0.  1.
         -2   -1    0    0    0  501 -0.00000000000E+00 -0.00000000000E+00 -0.81778630627E+00  0.81778630627E+00  0.00000000000E+00 0.  1.
          2    1    1    2  502    0  0.16763721795E+02 -0.12644188225E+02  0.12923126511E+04  0.12924832247E+04  0.00000000000E+00 0.  1.
         -2    1    1    2    0  502 -0.16763721795E+02  0.12644188225E+02  0.14974468577E+03  0.15120968481E+03  0.00000000000E+00 0.  1.
</event>
<event>
 4    1  0.5573045E+003  0.5435515E+02  0.7546771E-02  0.1280319E+00
          2   -1    0    0  501    0  0.00000000000E+00  0.00000000000E+00  0.86153160234E+03  0.86153160234E+03  0.00000000000E+00 0.  1.
         -2   -1    0    0    0  501 -0.00000000000E+00 -0.00000000000E+00 -0.95252269722E+01  0.95252269722E+01  0.00000000000E+00 0. -1.
          2    1    1    2  502    0 -0.70660500657E+00  0.54350555581E+02  0.77441862443E+03  0.77632382937E+03  0.00000000000E+00 0.  1.
         -2    1    1    2    0  502  0.70660500657E+00 -0.54350555581E+02  0.77587750938E+02  0.94732999943E+02  0.00000000000E+00 0. -1.
</event>
<event>
 4    1  0.5573045E+003  0.2650324E+02  0.7546771E-02  0.1452663E+00
          2   -1    0    0  501    0  0.00000000000E+00  0.00000000000E+00  0.34207255971E+02  0.34207255971E+02  0.00000000000E+00 0.  1.
         -2   -1    0    0    0  501 -0.00000000000E+00 -0.00000000000E+00 -0.25519693283E+02  0.25519693283E+02  0.00000000000E+00 0.  1.
          2    1    1    2  502    0 -0.68753830061E+01 -0.25595916119E+02  0.17543134014E+02  0.31783381892E+02  0.00000000000E+00 0.  1.
         -2    1    1    2    0  502  0.68753830061E+01  0.25595916119E+02 -0.88555713269E+01  0.27943567363E+02  0.00000000000E+00 0.  1.
</event>
<event>
 4    1  0.5573045E+003  0.2038580E+02  0.7546771E-02  0.1528218E+00
          2   -1    0    0  501    0  0.00000000000E+00  0.00000000000E+00  0.19971605537E+03  0.19971605537E+03  0.00000000000E+00 0.  1.
         -2   -1    0    0    0  501 -0.00000000000E+00 -0.00000000000E+00 -0.11416477492E+02  0.11416477492E+02  0.00000000000E+00 0. -1.
          2    1    1    2  502    0  0.20985366877E+01  0.20277496559E+02  0.18961182086E+03  0.19070454460E+03  0.00000000000E+00 0.  1.
         -2    1    1    2    0  502 -0.20985366877E+01 -0.20277496559E+02 -0.13122429745E+01  0.20427988265E+02  0.00000000000E+00 0. -1.
</event>
<event>
 4    1  0.5573045E+003  0.2339186E+02  0.7546771E-02  0.1487635E+00
          2   -1    0    0  501    0  0.00000000000E+00  0.00000000000E+00  0.39778814860E+02  0.39778814860E+02  0.00000000000E+00 0. -1.
         -2   -1    0    0    0  501 -0.00000000000E+00 -0.00000000000E+00 -0.42614478930E+02  0.42614478930E+02  0.00000000000E+00 0. -1.
          2    1    1    2  502    0  0.20843653390E+02 -0.10617021495E+02  0.32484023297E+02  0.40029873864E+02  0.00000000000E+00 0. -1.
         -2    1    1    2    0  502 -0.20843653390E+02  0.10617021495E+02 -0.35319687368E+02  0.42363419926E+02  0.00000000000E+00 0. -1.
</event>
<event>
 4    1  0.5573045E+003  0.2397056E+02  0.7546771E-02  0.1480658E+00
          2   -1    0    0  501    0  0.00000000000E+00  0.00000000000E+00  0.34808369604E+03  0.34808369604E+03  0.00000000000E+00 0.  1.
         -2   -1    0    0    0  501 -0.00000000000E+00 -0.00000000000E+00 -0.16599219082E+01  0.16599219082E+01  0.00000000000E+00 0.  1.
          2    1    1    2  502    0 -0.23692278654E+02  0.36419581782E+01  0.18623361379E+03  0.18776993058E+03  0.00000000000E+00 0.  1.
         -2    1    1    2    0  502  0.23692278654E+02 -0.36419581782E+01  0.16019016035E+03  0.16197368737E+03  0.00000000000E+00 0.  1.
</event>
<event>
 4    1  0.5573045E+003  0.2106185E+02  0.7546771E-02  0.1518384E+00
          2   -1    0    0  501    0  0.00000000000E+00  0.00000000000E+00  0.52929679962E+01  0.52929679962E+01  0.00000000000E+00 0. -1.
         -2   -1    0    0    0  501 -0.00000000000E+00 -0.00000000000E+00 -0.10188718583E+03  0.10188718583E+03  0.00000000000E+00 0. -1.
          2    1    1    2  502    0  0.55454491194E+01  0.20318683922E+02 -0.70870468175E+02  0.73933917667E+02  0.00000000000E+00 0. -1.
         -2    1    1    2    0  502 -0.55454491194E+01 -0.20318683922E+02 -0.25723749662E+02  0.33246236162E+02  0.00000000000E+00 0. -1.
</event>
<event>
 4    1  0.5573045E+003  0.2431561E+02  0.7546771E-02  0.1476607E+00
          2   -1    0    0  501    0  0.00000000000E+00  0.00000000000E+00  0.10678122549E+04  0.10678122549E+04  0.00000000000E+00 0.  1.
         -2   -1    0    0    0  501 -0.00000000000E+00 -0.00000000000E+00 -0.92118663820E+00  0.92118663820E+00  0.00000000000E+00 0.  1.
          2    1    1    2  502    0 -0.21795008469E+02  0.10780829165E+02  0.87095487515E+03  0.87129423458E+03  0.00000000000E+00 0.  1.
         -2    1    1    2    0  502  0.21795008469E+02 -0.10780829165E+02  0.19593619314E+03  0.19743920698E+03  0.00000000000E+00 0.  1.
</event>
<event>
 4    1  0.5573045E+003  0.2127941E+02  0.7546771E-02  0.1515313E+00
          2   -1    0    0  501    0  0.00000000000E+00  0.00000000000E+00  0.27377910908E+03  0.27377910908E+03  0.00000000000E+00 0. -1.
         -2   -1    0    0    0  501 -0.00000000000E+00 -0.00000000000E+00 -0.14453063902E+03  0.14453063902E+03  0.00000000000E+00 0.  1.
          2    1    1    2  502    0 -0.72186007498E+01  0.20017623158E+02  0.27257893320E+03  0.27340828125E+03  0.00000000000E+00 0. -1.
         -2    1    1    2    0  502  0.72186007498E+01 -0.20017623158E+02 -0.14333046313E+03  0.14490146685E+03  0.00000000000E+00 0.  1.
</event>
<event>
 4    1  0.5573045E+003  0.5747906E+02  0.7546771E-02  0.1268647E+00
          2   -1    0    0  501    0  0.00000000000E+00  0.00000000000E+00  0.45243897868E+02  0.45243897868E+02  0.00000000000E+00 0. -1.
         -2   -1    0    0    0  501 -0.00000000000E+00 -0.00000000000E+00 -0.81069799023E+02  0.81069799023E+02  0.00000000000E+00 0. -1.
          2    1    1    2  502    0  0.15626641860E+01  0.57457818273E+02  0.19847954561E+01  0.57513322049E+02  0.00000000000E+00 0. -1.
         -2    1    1    2    0  502 -0.15626641860E+01 -0.57457818273E+02 -0.37810696612E+02  0.68800374842E+02  0.00000000000E+00 0. -1.
</event>
<event>
 4    1  0.5573045E+003  0.2087771E+02  0.7546771E-02  0.1521018E+00
          2   -1    0    0  501    0  0.00000000000E+00  0.00000000000E+00  0.24290730020E+03  0.24290730020E+03  0.00000000000E+00 0.  1.
         -2   -1    0    0    0  501 -0.00000000000E+00 -0.00000000000E+00 -0.40299835862E+01  0.40299835862E+01  0.00000000000E+00 0.  1.
          2    1    1    2  502    0  0.29733973602E+01  0.20664885089E+02  0.21139849812E+03  0.21242693703E+03  0.00000000000E+00 0.  1.
         -2    1    1    2    0  502 -0.29733973602E+01 -0.20664885089E+02  0.27478818495E+02  0.34510346759E+02  0.00000000000E+00 0.  1.
</event>
<event>
 4    1  0.5573045E+003  0.3388200E+02  0.7546771E-02  0.1388598E+00
          2   -1    0    0  501    0  0.00000000000E+00  0.00000000000E+00  0.12241566077E+04  0.12241566077E+04  0.00000000000E+00 0.  1.
         -2   -1    0    0    0  501 -0.00000000000E+00 -0.00000000000E+00 -0.37538421853E+02  0.37538421853E+02  0.00000000000E+00 0.  1.
          2    1    1    2  502    0 -0.21099980094E+02  0.26510017767E+02  0.12162268899E+04  0.12166987458E+04  0.00000000000E+00 0.  1.
         -2    1    1    2    0  502  0.21099980094E+02 -0.26510017767E+02 -0.29608704040E+02  0.44996283812E+02  0.00000000000E+00 0.  1.
</event>
<event>
 4    1  0.5573045E+003  0.2444418E+02  0.7546771E-02  0.1475118E+00
          2   -1    0    0  501    0  0.00000000000E+00  0.00000000000E+00  0.12543559385E+04  0.12543559385E+04  0.00000000000E+00 0. -1.
         -2   -1    0    0    0  501 -0.00000000000E+00 -0.00000000000E+00 -0.27986340542E+02  0.27986340542E+02  0.00000000000E+00 0.  1.
          2    1    1    2  502    0 -0.24394475901E+02  0.15580641477E+01  0.12488758445E+04  0.12491150439E+04  0.00000000000E+00 0. -1.
         -2    1    1    2    0  502  0.24394475901E+02 -0.15580641477E+01 -0.22506246549E+02  0.33227235096E+02  0.00000000000E+00 0.  1.
</event>
<event>
 4    1  0.5573045E+003  0.4394091E+02  0.7546771E-02  0.1326821E+00
          2   -1    0    0  501    0  0.00000000000E+00  0.00000000000E+00  0.11515014075E+04  0.11515014075E+04  0.00000000000E+00 0. -1.
         -2   -1    0    0    0  501 -0.00000000000E+00 -0.00000000000E+00 -0.54533752598E+01  0.54533752598E+01  0.00000000000E+00 0. -1.
          2    1    1    2  502    0 -0.29441978013E+02 -0.32618608098E+02  0.10544222169E+04  0.10553373940E+04  0.00000000000E+00 0. -1.
         -2    1    1    2    0  502  0.29441978013E+02  0.32618608098E+02  0.91625815348E+02  0.10161738878E+03  0.00000000000E+00 0. -1.
</event>
<event>
 4    1  0.5573045E+003  0.2787449E+02  0.7546771E-02  0.1439016E+00
          2   -1    0    0  501    0  0.00000000000E+00  0.00000000000E+00  0.16457496558E+03  0.16457496558E+03  0.00000000000E+00 0.  1.
         -2   -1    0    0    0  501 -0.00000000000E+00 -0.00000000000E+00 -0.45989523325E+02  0.45989523325E+02  0.00000000000E+00 0. -1.
          2    1    1    2  502    0 -0.24392957608E+02 -0.13489662203E+02  0.15902465022E+03  0.16144914600E+03  0.00000000000E+00 0.  1.
         -2    1    1    2    0  502  0.24392957608E+02  0.13489662203E+02 -0.40439207967E+02  0.49115342901E+02  0.00000000000E+00 0. -1.
</event>
<event>
 4    1  0.5573045E+003  0.2258849E+02  0.7546771E-02  0.1497731E+00
          2   -1    0    0  501    0  0.00000000000E+00  0.00000000000E+00  0.32757581200E+02  0.32757581200E+02  0.00000000000E+00 0.  1.
         -2   -1    0    0    0  501 -0.00000000000E+00 -0.00000000000E+00 -0.53994139647E+02  0.53994139647E+02  0.00000000000E+00 0.  1.
          2    1    1    2  502    0  0.21839352914E+02 -0.57691024117E+01  0.25969968488E+02  0.34419168229E+02  0.00000000000E+00 0.  1.
         -2    1    1    2    0  502 -0.21839352914E+02  0.57691024117E+01 -0.47206526934E+02  0.52332552618E+02  0.00000000000E+00 0.  1.
</event>
<event>
 4    1  0.5573045E+003  0.2832183E+02  0.7546771E-02  0.1434764E+00
          2   -1    0    0  501    0  0.00000000000E+00  0.00000000000E+00  0.57853108947E+03  0.57853108947E+03  0.00000000000E+00 0. -1.
         -2   -1    0    0    0  501 -0.00000000000E+00 -0.00000000000E+00 -0.48385676987E+02  0.48385676987E+02  0.00000000000E+00 0.  1.
          2    1    1    2  502    0  0.10936582630E+02  0.26125026699E+02  0.57400738705E+03  0.57470566924E+03  0.00000000000E+00 0. -1.
         -2    1    1    2    0  502 -0.10936582630E+02 -0.26125026699E+02 -0.43861974572E+02  0.52211097221E+02  0.00000000000E+00 0.  1.
</event>
<event>
 4    1  0.5573045E+003  0.2301918E+02  0.7546771E-02  0.1492257E+00
          2   -1    0    0  501    0  0.00000000000E+00  0.00000000000E+00  0.46486344667E+03  0.46486344667E+03  0.00000000000E+00 0. -1.
         -2   -1    0    0    0  501 -0.00000000000E+00 -0.00000000000E+00 -0.56651535720E+03  0.56651535720E+03  0.00000000000E+00 0. -1.
          2    1    1    2  502    0  0.77381289422E+00  0.23006172483E+02  0.46434438431E+03  0.46491460506E+03  0.00000000000E+00 0. -1.
         -2    1    1    2    0  502 -0.77381289422E+00 -0.23006172483E+02 -0.56599629484E+03  0.56646419880E+03  0.00000000000E+00 0. -1.
</event>
<event>
 4    1  0.5573045E+003  0.3530481E+02  0.7546771E-02  0.1378433E+00
          2   -1    0    0  501    0  0.00000000000E+00  0.00000000000E+00  0.63816162729E+02  0.63816162729E+02  0.00000000000E+00 0.  1.
         -2   -1    0    0    0  501 -0.00000000000E+00 -0.00000000000E+00 -0.19749613630E+02  0.19749613630E+02  0.00000000000E+00 0.  1.
          2    1    1    2  502    0 -0.98282354048E+01  0.33909221455E+02  0.26423594188E+02  0.44098025360E+02  0.00000000000E+00 0.  1.
         -2    1    1    2    0  502  0.98282354048E+01 -0.33909221455E+02  0.17642954911E+02  0.39467750998E+02  0.00000000000E+00 0.  1.
</event>
<event>
 4    1  0.5573045E+003  0.3362216E+02  0.7546771E-02  0.1390517E+00
          2   -1    0    0  501    0  0.00000000000E+00  0.00000000000E+00  0.14586492396E+04  0.14586492396E+04  0.00000000000E+00 0.  1.
         -2   -1    0    0    0  501 -0.00000000000E+00 -0.00000000000E+00 -0.19042640297E+01  0.19042640297E+01  0.00000000000E+00 0. -1.
          2    1    1    2  502    0  0.26357994568E+02 -0.20873569384E+02  0.12907424125E+04  0.12911802450E+04  0.00000000000E+00 0.  1.
         -2    1    1    2    0  502 -0.26357994568E+02  0.20873569384E+02  0.16600256306E+03  0.16937325857E+03  0.00000000000E+00 0. -1.
</event>
<event>
 4    1  0.5573045E+003  0.2693385E+02  0.7546771E-02  0.1448274E+00
          2   -1    0    0  501    0  0.00000000000E+00  0.00000000000E+00  0.26906985286E+03  0.26906985286E+03  0.00000000000E+00 0. -1.
         -2   -1    0    0    0  501 -0.00000000000E+00 -0.00000000000E+00 -0.35394634193E+01  0.35394634193E+01  0.00000000000E+00 0.  1.
          2    1    1    2  502    0  0.25822287010E+02 -0.76577809388E+01  0.19930111558E+03  0.20111282104E+03  0.00000000000E+00 0. -1.
         -2    1    1    2    0  502 -0.25822287010E+02  0.76577809388E+01  0.66229273863E+02  0.71496495241E+02  0.00000000000E+00 0.  1.
</event>
<event>
 4    1  0.5573045E+003  0.2024801E+02  0.7546771E-02  0.1530278E+00
          2   -1    0    0  501    0  0.00000000000E+00  0.00000000000E+00  0.32270367206E+03  0.32270367206E+03  0.00000000000E+00 0. -1.
         -2   -1    0    0    0  501 -0.00000000000E+00 -0.00000000000E+00 -0.80205103346E+01  0.80205103346E+01  0.00000000000E+00 0. -1.
          2    1    1    2  502    0 -0.19829610053E+02  0.40949451802E+01  0.30904258998E+03  0.30970518955E+03  0.00000000000E+00 0. -1.
         -2    1    1    2    0  502  0.19829610053E+02 -0.40949451802E+01  0.56405717507E+01  0.21018992853E+02  0.00000000000E+00 0. -1.
</event>
<event>
 4    1  0.5573045E+003  0.2208033E+02  0.7546771E-02  0.1504381E+00
          2   -1    0    0  501    0  0.00000000000E+00  0.00000000000E+00  0.50570386117E+03  0.50570386117E+03  0.00000000000E+00 0.  1.
         -2   -1    0    0    0  501 -0.00000000000E+00 -0.00000000000E+00 -0.60230356801E+01  0.60230356801E+01  0.00000000000E+00 0. -1.
          2    1    1    2  502    0 -0.60143410411E+01  0.21245435935E+02  0.48433391320E+03  0.48483696261E+03  0.00000000000E+00 0.  1.
         -2    1    1    2    0  502  0.60143410411E+01 -0.21245435935E+02  0.15346912295E+02  0.26889934236E+02  0.00000000000E+00 0. -1.
</event>
<event>
 4    1  0.5573045E+003  0.2085361E+02  0.7546771E-02  0.1521365E+00
          2   -1    0    0  501    0  0.00000000000E+00  0.00000000000E+00  0.15530120463E+04  0.15530120463E+04  0.00000000000E+00 0.  1.
         -2   -1    0    0    0  501 -0.00000000000E+00 -0.00000000000E+00 -0.35625312461E+00  0.35625312461E+00  0.00000000000E+00 0.  1.
          2    1    1    2  502    0  0.59126112680E+01  0.19997847665E+02  0.11356134911E+04  0.11358049454E+04  0.00000000000E+00 0.  1.
         -2    1    1    2    0  502 -0.59126112680E+01 -0.19997847665E+02  0.41704230211E+03  0.41756335403E+03  0.00000000000E+00 0.  1.
</event>
<event>
 4    1  0.5573045E+003  0.2053683E+02  0.7546771E-02  0.1525982E+00
          2   -1    0    0  501    0  0.00000000000E+00  0.00000000000E+00  0.65402594807E+03  0.65402594807E+03  0.00000000000E+00 0.  1.
         -2   -1    0    0    0  501 -0.00000000000E+00 -0.00000000000E+00 -0.42997479997E+02  0.42997479997E+02  0.00000000000E+00 0. -1.
          2    1    1    2  502    0 -0.27196893045E+01  0.20355951295E+02  0.65140261216E+03  0.65172626508E+03  0.00000000000E+00 0.  1.
         -2    1    1    2    0  502  0.27196893045E+01 -0.20355951295E+02 -0.40374144094E+02  0.45297162983E+02  0.00000000000E+00 0. -1.
</event>
<event>
 4    1  0.5573045E+003  0.2014567E+02  0.7546771E-02  0.1531820E+00
          2   -1    0    0  501    0  0.00000000000E+00  0.00000000000E+00  0.11587701577E+04  0.11587701577E+04  0.00000000000E+00 0.  1.
         -2   -1    0    0    0  501 -0.00000000000E+00 -0.00000000000E+00 -0.80394747467E+00  0.80394747467E+00  0.00000000000E+00 0. -1.
          2    1    1    2  502    0  0.40288723223E+01 -0.19738698666E+02  0.10145375863E+04  0.10147375829E+04  0.00000000000E+00 0.  1.
         -2    1    1    2    0  502 -0.40288723223E+01  0.19738698666E+02  0.14342862387E+03  0.14483652227E+03  0.00000000000E+00 0. -1.
</event>
<event>
 4    1  0.5573045E+003  0.2005210E+02  0.7546771E-02  0.1533241E+00
          2   -1    0    0  501    0  0.00000000000E+00  0.00000000000E+00  0.14858167350E+04  0.14858167350E+04  0.00000000000E+00 0. -1.
         -2   -1    0    0    0  501 -0.00000000000E+00 -0.00000000000E+00 -0.46330779764E+02  0.46330779764E+02  0.00000000000E+00 0. -1.
          2    1    1    2  502    0 -0.20028147503E+02 -0.97970571370E+00  0.14835761531E+04  0.14837116595E+04  0.00000000000E+00 0. -1.
         -2    1    1    2    0  502  0.20028147503E+02  0.97970571370E+00 -0.44090197923E+02  0.48435855196E+02  0.00000000000E+00 0. -1.
</event>
<event>
 4    1  0.5573045E+003  0.2322261E+02  0.7546771E-02  0.1489722E+00
          2   -1    0    0  501    0  0.00000000000E+00  0.00000000000E+00  0.16361943656E+03  0.16361943656E+03  0.00000000000E+00 0.  1.
         -2   -1    0    0    0  501 -0.00000000000E+00 -0.00000000000E+00 -0.20665153503E+02  0.20665153503E+02  0.00000000000E+00 0. -1.
          2    1    1    2  502    0  0.23195939555E+02 -0.11126635220E+01  0.15595230414E+03  0.15767184530E+03  0.00000000000E+00 0.  1.
         -2    1    1    2    0  502 -0.23195939555E+02  0.11126635220E+01 -0.12998021084E+02  0.26612744767E+02  0.00000000000E+00 0. -1.
</event>
<event>
 4    1  0.5573045E+003  0.3465542E+02  0.7546771E-02  0.1383002E+00
          2   -1    0    0  501    0  0.00000000000E+00  0.00000000000E+00  0.88936960974E+03  0.88936960974E+03  0.00000000000E+00 0. -1.
         -2   -1    0    0    0  501 -0.00000000000E+00 -0.00000000000E+00 -0.68983496973E+01  0.68983496973E+01  0.00000000000E+00 0.  1.
          2    1    1    2  502    0 -0.32969946827E+02  0.10676171591E+02  0.84312065520E+03  0.84383258841E+03  0.00000000000E+00 0. -1.
         -2    1    1    2    0  502  0.32969946827E+02 -0.10676171591E+02  0.39350604845E+02  0.52435371032E+02  0.00000000000E+00 0.  1.
</event>
<event>
 4    1  0.5573045E+003  0.2364366E+02  0.7546771E-02  0.1484570E+00
          2   -1    0    0  501    0  0.00000000000E+00  0.00000000000E+00  0.17785279355E+03  0.17785279355E+03  0.00000000000E+00 0.  1.
         -2   -1    0    0    0  501 -0.00000000000E+00 -0.00000000000E+00 -0.68276998639E+01  0.68276998639E+01  0.00000000000E+00 0. -1.
          2    1    1    2  502    0 -0.14608691208E+02  0.18590560412E+02  0.15334608222E+03  0.15515812492E+03  0.00000000000E+00 0.  1.
         -2    1    1    2    0  502  0.14608691208E+02 -0.18590560412E+02  0.17679011462E+02  0.29522368494E+02  0.00000000000E+00 0. -1.
</event>
<event>
 4    1  0.5573045E+003  0.7263200E+02  0.7546771E-02  0.1222070E+00
          2   -1    0    0  501    0  0.00000000000E+00  0.00000000000E+00  0.16330646440E+04  0.16330646440E+04  0.00000000000E+00 0. -1.
         -2   -1    0    0    0  501 -0.00000000000E+00 -0.00000000000E+00 -0.47220068857E+02  0.47220068857E+02  0.00000000000E+00 0.  1.
          2    1    1    2  502    0 -0.72325893912E+02 -0.66612326954E+01  0.16038180953E+04  0.16054618930E+04  0.00000000000E+00 0. -1.
         -2    1    1    2    0  502  0.72325893912E+02  0.66612326954E+01 -0.17973520150E+02  0.74822819900E+02  0.00000000000E+00 0.  1.
</event>
<event>
 4    1  0.5573045E+003  0.2579282E+02  0.7546771E-02  0.1460126E+00
          2   -1    0    0  501    0  0.00000000000E+00  0.00000000000E+00  0.75175238247E+03  0.75175238247E+03  0.00000000000E+00 0.  1.
         -2   -1    0    0    0  501 -0.00000000000E+00 -0.00000000000E+00 -0.50499310200E+01  0.50499310200E+01  0.00000000000E+00 0.  1.
          2    1    1    2  502    0  0.20385858562E+02  0.15801459144E+02  0.71700081152E+03  0.71746458663E+03  0.00000000000E+00 0.  1.
         -2    1    1    2    0  502 -0.20385858562E+02 -0.15801459144E+02  0.29701639930E+02  0.39337726865E+02  0.00000000000E+00 0.  1.
</event>
<event>
 4    1  0.5573045E+003  0.2439525E+02  0.7546771E-02  0.1475684E+00
          2   -1    0    0  501    0  0.00000000000E+00  0.00000000000E+00  0.66421052930E+03  0.66421052930E+03  0.00000000000E+00 0.  1.
         -2   -1    0    0    0  501 -0.00000000000E+00 -0.00000000000E+00 -0.14600267049E+01  0.14600267049E+01  0.00000000000E+00 0. -1.
          2    1    1    2  502    0 -0.13435162868E+02 -0.20362330176E+02  0.53824711109E+03  0.53879966656E+03  0.00000000000E+00 0.  1.
         -2    1    1    2    0  502  0.13435162868E+02  0.20362330176E+02  0.12450339150E+03  0.12687088944E+03  0.00000000000E+00 0. -1.
</event>
<event>
 4    1  0.5573045E+003  0.2533867E+02  0.7546771E-02  0.1465050E+00
          2   -1    0    0  501    0  0.00000000000E+00  0.00000000000E+00  0.10769753175E+04  0.10769753175E+04  0.00000000000E+00 0.  1.
         -2   -1    0    0    0  501 -0.00000000000E+00 -0.00000000000E+00 -0.68632149242E+00  0.68632149242E+00  0.00000000000E+00 0.  1.
          2    1    1    2  502    0  0.24216865755E+02  0.74559703994E+01  0.73344465017E+03  0.73388221327E+03  0.00000000000E+00 0.  1.
         -2    1    1    2    0  502 -0.24216865755E+02 -0.74559703994E+01  0.34284434579E+03  0.34377942568E+03  0.00000000000E+00 0.  1.
</event>
<event>
 4    1  0.5573045E+003  0.3194614E+02  0.7546771E-02  0.1403406E+00
          2   -1    0    0  501    0  0.00000000000E+00  0.00000000000E+00  0.48298527422E+03  0.48298527422E+03  0.00000000000E+00 0. -1.
         -2   -1    0    0    0  501 -0.00000000000E+00 -0.00000000000E+00 -0.45886950405E+01  0.45886950405E+01  0.00000000000E+00 0. -1.
          2    1    1    2  502    0  0.88932989965E+01 -0.30683304311E+02  0.41826424731E+03  0.41948246269E+03  0.00000000000E+00 0. -1.
         -2    1    1    2    0  502 -0.88932989965E+01  0.30683304311E+02  0.60132331877E+02  0.68091506574E+02  0.00000000000E+00 0. -1.
</event>
<event>
 4    1  0.5573045E+003  0.2242274E+02  0.7546771E-02  0.1499877E+00
          2   -1    0    0  501    0  0.00000000000E+00  0.00000000000E+00  0.49046248579E+01  0.49046248579E+01  0.00000000000E+00 0.  1.
         -2   -1    0    0    0  501 -0.00000000000E+00 -0.00000000000E+00 -0.17102390614E+03  0.17102390614E+03  0.00000000000E+00 0.  1.
          2    1    1    2  502    0  0.18026225964E+02 -0.13335466045E+02 -0.27384270956E+02  0.35393188228E+02  0.00000000000E+00 0.  1.
         -2    1    1    2    0  502 -0.18026225964E+02  0.13335466045E+02 -0.13873501033E+03  0.14053534277E+03  0.00000000000E+00 0.  1.
</event>
<event>
 4    1  0.5573045E+003  0.2171976E+02  0.7546771E-02  0.1509232E+00
          2   -1    0    0  501    0  0.00000000000E+00  0.00000000000E+00  0.17719581459E+03  0.17719581459E+03  0.00000000000E+00 0.  1.
         -2   -1    0    0    0  501 -0.00000000000E+00 -0.00000000000E+00 -0.38794004336E+03  0.38794004336E+03  0.00000000000E+00 0. -1.
          2    1    1    2  502    0  0.38529091455E+01  0.21375292678E+02  0.17622456256E+03  0.17755800318E+03  0.00000000000E+00 0.  1.
         -2    1    1    2    0  502 -0.38529091455E+01 -0.21375292678E+02 -0.38696879132E+03  0.38757785476E+03  0.00000000000E+00 0. -1.
</event>
<event>
 4    1  0.5573045E+003  0.2254820E+02  0.7546771E-02  0.1498251E+00
          2   -1    0    0  501    0  0.00000000000E+00  0.00000000000E+00  0.11992278419E+03  0.11992278419E+03  0.00000000000E+00 0. -1.
         -2   -1    0    0    0  501 -0.00000000000E+00 -0.00000000000E+00 -0.28948756394E+02  0.28948756394E+02  0.00000000000E+00 0.  1.
          2    1    1    2  502    0 -0.91958926395E+01 -0.20587780077E+02  0.11425652664E+03  0.11646018637E+03  0.00000000000E+00 0. -1.
         -2    1    1    2    0  502  0.91958926395E+01  0.20587780077E+02 -0.23282498839E+02  0.32411354216E+02  0.00000000000E+00 0.  1.
</event>
<event>
 4    1  0.5573045E+003  0.2056946E+02  0.7546771E-02  0.1525502E+00
          2   -1    0    0  501    0  0.00000000000E+00  0.00000000000E+00  0.32403602110E+03  0.32403602110E+03  0.00000000000E+00 0. -1.
         -2   -1    0    0    0  501 -0.00000000000E+00 -0.00000000000E+00 -0.56664666896E+01  0.56664666896E+01  0.00000000000E+00 0. -1.
          2    1    1    2  502    0  0.68354314385E+01  0.19400500610E+02  0.30380071064E+03  0.30449626325E+03  0.00000000000E+00 0. -1.
         -2    1    1    2    0  502 -0.68354314385E+01 -0.19400500610E+02  0.14568843772E+02  0.25206224543E+02  0.00000000000E+00 0. -1.
</event>
<event>
 4    1  0.5573045E+003  0.3312702E+02  0.7546771E-02  0.1394231E+00
          2   -1    0    0  501    0  0.00000000000E+00  0.00000000000E+00  0.11425290747E+04  0.11425290747E+04  0.00000000000E+00 0.  1.
         -2   -1    0    0    0  501 -0.00000000000E+00 -0.00000000000E+00 -0.33657642319E+01  0.33657642319E+01  0.00000000000E+00 0.  1.
          2    1    1    2  502    0  0.26815866651E+02  0.19450158601E+02  0.10539260780E+04  0.10544465739E+04  0.00000000000E+00 0.  1.
         -2    1    1    2    0  502 -0.26815866651E+02 -0.19450158601E+02  0.85237232461E+02  0.91448264999E+02  0.00000000000E+00 0.  1.
</event>
<event>
 4    1  0.5573045E+003  0.2702287E+02  0.7546771E-02  0.1447379E+00
          2   -1    0    0  501    0  0.00000000000E+00  0.00000000000E+00  0.13247842888E+04  0.13247842888E+04  0.00000000000E+00 0. -1.
         -2   -1    0    0    0  501 -0.00000000000E+00 -0.00000000000E+00 -0.23087347139E+01  0.23087347139E+01  0.00000000000E+00 0.  1.
          2    1    1    2  502    0 -0.27009712159E+02 -0.84303097933E+00  0.12401796875E+04  0.12404740596E+04  0.00000000000E+00 0. -1.
         -2    1    1    2    0  502  0.27009712159E+02  0.84303097933E+00  0.82295866553E+02  0.86618963881E+02  0.00000000000E+00 0.  1.
</event>
<event>
 4    1  0.5573045E+003  0.2744047E+02  0.7546771E-02  0.1443233E+00
          2   -1    0    0  501    0  0.00000000000E+00  0.00000000000E+00  0.99653661757E+03  0.99653661757E+03  0.00000000000E+00 0. -1.
         -2   -1    0    0    0  501 -0.00000000000E+00 -0.00000000000E+00 -0.19374925406E+01  0.19374925406E+01  0.00000000000E+00 0.  1.
          2    1    1    2  502    0 -0.75655655185E+01 -0.26376910819E+02  0.88722045061E+03  0.88764469648E+03  0.00000000000E+00 0. -1.
         -2    1    1    2    0  502  0.75655655185E+01  0.26376910819E+02  0.10737867442E+03  0.11082941363E+03  0.00000000000E+00 0.  1.
</event>
<event>
 4    1  0.5573045E+003  0.2114232E+02  0.7546771E-02  0.1517242E+00
          2   -1    0    0  501    0  0.00000000000E+00  0.00000000000E+00  0.96806314916E+03  0.96806314916E+03  0.00000000000E+00 0.  1.
         -2   -1    0    0    0  501 -0.00000000000E+00 -0.00000000000E+00 -0.40365133511E+01  0.40365133511E+01  0.00000000000E+00 0.  1.
          2    1    1    2  502    0  0.11984451047E+02 -0.17417539271E+02  0.93941903490E+03  0.93965691658E+03  0.00000000000E+00 0.  1.
         -2    1    1    2    0  502 -0.11984451047E+02  0.17417539271E+02  0.24607600909E+02  0.32442745933E+02  0.00000000000E+00 0.  1.
</event>
<event>
 4    1  0.5573045E+003  0.7121338E+02  0.7546771E-02  0.1225861E+00
          2   -1    0    0  501    0  0.00000000000E+00  0.00000000000E+00  0.32026838614E+03  0.32026838614E+03  0.00000000000E+00 0.  1.
         -2   -1    0    0    0  501 -0.00000000000E+00 -0.00000000000E+00 -0.36741029066E+02  0.36741029066E+02  0.00000000000E+00 0. -1.
          2    1    1    2  502    0 -0.41232505522E+02  0.58062261970E+02  0.27641578989E+03  0.28544182363E+03  0.00000000000E+00 0.  1.
         -2    1    1    2    0  502  0.41232505522E+02 -0.58062261970E+02  0.71115671877E+01  0.71567591580E+02  0.00000000000E+00 0. -1.
</event>
<event>
 4    1  0.5573045E+003  0.4215598E+02  0.7546771E-02  0.1336295E+00
          2   -1    0    0  501    0  0.00000000000E+00  0.00000000000E+00  0.87547784708E+03  0.87547784708E+03  0.00000000000E+00 0.  1.
         -2   -1    0    0    0  501 -0.00000000000E+00 -0.00000000000E+00 -0.55882956505E+01  0.55882956505E+01  0.00000000000E+00 0. -1.
          2    1    1    2  502    0  0.92694674375E+01 -0.41124246017E+02  0.78647798133E+03  0.78760697163E+03  0.00000000000E+00 0.  1.
         -2    1    1    2    0  502 -0.92694674375E+01  0.41124246017E+02  0.83411570098E+02  0.93459171103E+02  0.00000000000E+00 0. -1.
</event>
<event>
 4    1  0.5573045E+003  0.3943987E+02  0.7546771E-02  0.1351800E+00
          2   -1    0    0  501    0  0.00000000000E+00  0.00000000000E+00  0.13186783011E+04  0.13186783011E+04  0.00000000000E+00 0.  1.
         -2   -1    0    0    0  501 -0.00000000000E+00 -0.00000000000E+00 -0.58166570137E+01  0.58166570137E+01  0.00000000000E+00 0. -1.
          2    1    1    2  502    0  0.11646803263E+02  0.37680969146E+02  0.12477270925E+04  0.12483502717E+04  0.00000000000E+00 0.  1.
         -2    1    1    2    0  502 -0.11646803263E+02 -0.37680969146E+02  0.65134551648E+02  0.76144686488E+02  0.00000000000E+00 0. -1.
</event>
<event>
 4    1  0.5573045E+003  0.2036270E+02  0.7546771E-02  0.1528562E+00
          2   -1    0    0  501    0  0.00000000000E+00  0.00000000000E+00  0.36033597656E+02  0.36033597656E+02  0.00000000000E+00 0. -1.
         -2   -1    0    0    0  501 -0.00000000000E+00 -0.00000000000E+00 -0.40265628893E+02  0.40265628893E+02  0.00000000000E+00 0.  1.
          2    1    1    2  502    0 -0.17974167173E+02  0.95691538398E+01  0.30124859461E+02  0.36361333148E+02  0.00000000000E+00 0. -1.
         -2    1    1    2    0  502  0.17974167173E+02 -0.95691538398E+01 -0.34356890698E+02  0.39937893400E+02  0.00000000000E+00 0.  1.
</event>
<event>
 4    1  0.5573045E+003  0.2732008E+02  0.7546771E-02  0.1444419E+00
          2   -1    0    0  501    0  0.00000000000E+00  0.00000000000E+00  0.13365492531E+03  0.13365492531E+03  0.00000000000E+00 0.  1.
         -2   -1    0    0    0  501 -0.00000000000E+00 -0.00000000000E+00 -0.12035654634E+02  0.12035654634E+02  0.00000000000E+00 0. -1.
          2    1    1    2  502    0  0.26795083936E+02  0.53301402393E+01  0.11414160380E+03  0.11736563652E+03  0.00000000000E+00 0.  1.
         -2    1    1    2    0  502 -0.26795083936E+02 -0.53301402393E+01  0.74776668803E+01  0.28324943426E+02  0.00000000000E+00 0. -1.
</event>
<event>
 4    1  0.5573045E+003  0.2215234E+02  0.7546771E-02  0.1503426E+00
          2   -1    0    0  501    0  0.00000000000E+00  0.00000000000E+00  0.40440158512E+02  0.40440158512E+02  0.00000000000E+00 0. -1.
         -2   -1    0    0    0  501 -0.00000000000E+00 -0.00000000000E+00 -0.53289606544E+02  0.53289606544E+02  0.00000000000E+00 0. -1.
          2    1    1    2  502    0  0.35262193199E+01  0.21869888854E+02  0.34760124046E+02  0.41218836530E+02  0.00000000000E+00 0. -1.
         -2    1    1    2    0  502 -0.35262193199E+01 -0.21869888854E+02 -0.47609572078E+02  0.52510928526E+02  0.00000000000E+00 0. -1.
</event>
<event>
 4    1  0.5573045E+003  0.3080843E+02  0.7546771E-02  0.1412699E+00
          2   -1    0    0  501    0  0.00000000000E+00  0.00000000000E+00  0.10916516390E+04  0.10916516390E+04  0.00000000000E+00 0.  1.
         -2   -1    0    0    0  501 -0.00000000000E+00 -0.00000000000E+00 -0.10620416037E+01  0.10620416037E+01  0.00000000000E+00 0.  1.
          2    1    1    2  502    0 -0.21926330028E+02  0.21642440913E+02  0.77794362658E+03  0.77855343127E+03  0.00000000000E+00 0.  1.
         -2    1    1    2    0  502  0.21926330028E+02 -0.21642440913E+02  0.31264597078E+03  0.31416024930E+03  0.00000000000E+00 0.  1.
</event>
<event>
 4    1  0.5573045E+003  0.2629859E+02  0.7546771E-02  0.1454784E+00
          2   -1    0    0  501    0  0.00000000000E+00  0.00000000000E+00  0.10856450751E+04  0.10856450751E+04  0.00000000000E+00 0. -1.
         -2   -1    0    0    0  501 -0.00000000000E+00 -0.00000000000E+00 -0.11874036139E+01  0.11874036139E+01  0.00000000000E+00 0.  1.
          2    1    1    2  502    0  0.10654419679E+01  0.26276997638E+02  0.91218674300E+03  0.91256576194E+03  0.00000000000E+00 0. -1.
         -2    1    1    2    0  502 -0.10654419679E+01 -0.26276997638E+02  0.17227092847E+03  0.17426671675E+03  0.00000000000E+00 0.  1.
</event>
<event>
 4    1  0.5573045E+003  0.2408400E+02  0.7546771E-02  0.1479317E+00
          2   -1    0    0  501    0  0.00000000000E+00  0.00000000000E+00  0.48055864579E+02  0.48055864579E+02  0.00000000000E+00 0. -1.
         -2   -1    0    0    0  501 -0.00000000000E+00 -0.00000000000E+00 -0.20571871575E+02  0.20571871575E+02  0.00000000000E+00 0.  1.
          2    1    1    2  502    0  0.16521020664E+01 -0.24027268672E+02  0.35801081616E+02  0.43148076735E+02  0.00000000000E+00 0. -1.
         -2    1    1    2    0  502 -0.16521020664E+01  0.24027268672E+02 -0.83170886122E+01  0.25479659418E+02  0.00000000000E+00 0.  1.
</event>
<event>
 4    1  0.5573045E+003  0.6934638E+02  0.7546771E-02  0.1231006E+00
          2   -1    0    0  501    0  0.00000000000E+00  0.00000000000E+00  0.34719456548E+03  0.34719456548E+03  0.00000000000E+00 0.  1.
         -2   -1    0    0    0  501 -0.00000000000E+00 -0.00000000000E+00 -0.26803951178E+02  0.26803951178E+02  0.00000000000E+00 0. -1.
          2    1    1    2  502    0  0.34448529403E+02  0.60184876682E+02  0.29019079709E+03  0.29836155798E+03  0.00000000000E+00 0.  1.
         -2    1    1    2    0  502 -0.34448529403E+02 -0.60184876682E+02  0.30199817206E+02  0.75636958681E+02  0.00000000000E+00 0. -1.
</event>
<event>
 4    1  0.5573045E+003  0.2059843E+02  0.7546771E-02  0.1525076E+00
          2   -1    0    0  501    0  0.00000000000E+00  0.00000000000E+00  0.42533331242E+02  0.42533331242E+02  0.00000000000E+00 0. -1.
         -2   -1    0    0    0  501 -0.00000000000E+00 -0.00000000000E+00 -0.10607693239E+03  0.10607693239E+03  0.00000000000E+00 0.  1.
          2    1    1    2  502    0 -0.14785732577E+02  0.14341451335E+02  0.38953215995E+02  0.44064136785E+02  0.00000000000E+00 0. -1.
         -2    1    1    2    0  502  0.14785732577E+02 -0.14341451335E+02 -0.10249681714E+03  0.10454612684E+03  0.00000000000E+00 0.  1.
</event>
<event>
 4    1  0.5573045E+003  0.2055549E+02  0.7546771E-02  0.1525707E+00
          2   -1    0    0  501    0  0.00000000000E+00  0.00000000000E+00  0.18001788830E+03  0.18001788830E+03  0.00000000000E+00 0.  1.
         -2   -1    0    0    0  501 -0.00000000000E+00 -0.00000000000E+00 -0.56597884809E+02  0.56597884809E+02  0.00000000000E+00 0. -1.
          2    1    1    2  502    0 -0.20504341160E+02  0.14491599140E+01  0.17753876749E+03  0.17872476614E+03  0.00000000000E+00 0.  1.
         -2    1    1    2    0  502  0.20504341160E+02 -0.14491599140E+01 -0.54118763998E+02  0.57891006966E+02  0.00000000000E+00 0. -1.
</event>
<event>
 4    1  0.5573045E+003  0.2956569E+02  0.7546771E-02  0.1423409E+00
          2   -1    0    0  501    0  0.00000000000E+00  0.00000000000E+00  0.13040618410E+04  0.13040618410E+04  0.00000000000E+00 0.  1.
         -2   -1    0    0    0  501 -0.00000000000E+00 -0.00000000000E+00 -0.90582080691E+00  0.90582080691E+00  0.00000000000E+00 0.  1.
          2    1    1    2  502    0  0.33932453671E+01  0.29370326116E+02  0.98427652490E+03  0.98472047183E+03  0.00000000000E+00 0.  1.
         -2    1    1    2    0  502 -0.33932453671E+01 -0.29370326116E+02  0.31887949530E+03  0.32024718999E+03  0.00000000000E+00 0.  1.
</event>
<event>
 4    1  0.5573045E+003  0.3168874E+02  0.7546771E-02  0.1405468E+00
          2   -1    0    0  501    0  0.00000000000E+00  0.00000000000E+00  0.85488489802E+03  0.85488489802E+03  0.00000000000E+00 0.  1.
         -2   -1    0    0    0  501 -0.00000000000E+00 -0.00000000000E+00 -0.55941935193E+01  0.55941935193E+01  0.00000000000E+00 0. -1.
          2    1    1    2  502    0  0.11288470143E+02  0.29609906659E+02  0.80705700660E+03  0.80767888918E+03  0.00000000000E+00 0.  1.
         -2    1    1    2    0  502 -0.11288470143E+02 -0.29609906659E+02  0.42233697904E+02  0.52800202359E+02  0.00000000000E+00 0. -1.
</event>
<event>
 4    1  0.5573045E+003  0.2362367E+02  0.7546771E-02  0.1484812E+00
          2   -1    0    0  501    0  0.00000000000E+00  0.00000000000E+00  0.62269492492E+03  0.62269492492E+03  0.00000000000E+00 0. -1.
         -2   -1    0    0    0  501 -0.00000000000E+00 -0.00000000000E+00 -0.25633736287E+01  0.25633736287E+01  0.00000000000E+00 0. -1.
          2    1    1    2  502    0  0.93642320025E+01  0.21688456548E+02  0.56218734225E+03  0.56268346855E+03  0.00000000000E+00 0. -1.
         -2    1    1    2    0  502 -0.93642320025E+01 -0.21688456548E+02  0.57944209036E+02  0.62574829998E+02  0.00000000000E+00 0. -1.
</event>
<event>
 4    1  0.5573045E+003  0.3069103E+02  0.7546771E-02  0.1413685E+00
          2   -1    0    0  501    0  0.00000000000E+00  0.00000000000E+00  0.65023721027E+03  0.65023721027E+03  0.00000000000E+00 0. -1.
         -2   -1    0    0    0  501 -0.00000000000E+00 -0.00000000000E+00 -0.14486861693E+01  0.14486861693E+01  0.00000000000E+00 0. -1.
          2    1    1    2  502    0 -0.18503937270E+02  0.24485558260E+02  0.32198741950E+03  0.32344680641E+03  0.00000000000E+00 0. -1.
         -2    1    1    2    0  502  0.18503937270E+02 -0.24485558260E+02  0.32680110460E+03  0.32823909003E+03  0.00000000000E+00 0. -1.
</event>
<event>
 4    1  0.5573045E+003  0.2632789E+02  0.7546771E-02  0.1454479E+00
          2   -1    0    0  501    0  0.00000000000E+00  0.00000000000E+00  0.12045663800E+04  0.12045663800E+04  0.00000000000E+00 0.  1.
         -2   -1    0    0    0  501 -0.00000000000E+00 -0.00000000000E+00 -0.22709517902E+02  0.22709517902E+02  0.00000000000E+00 0.  1.
          2    1    1    2  502    0  0.80274745343E+01  0.25074238280E+02  0.11967419385E+04  0.11970315055E+04  0.00000000000E+00 0.  1.
         -2    1    1    2    0  502 -0.80274745343E+01 -0.25074238280E+02 -0.14885076403E+02  0.30244392410E+02  0.00000000000E+00 0.  1.
</event>
<event>
 4    1  0.5573045E+003  0.2597172E+02  0.7546771E-02  0.1458220E+00
          2   -1    0    0  501    0  0.00000000000E+00  0.00000000000E+00  0.34953898189E+03  0.34953898189E+03  0.00000000000E+00 0. -1.
         -2   -1    0    0    0  501 -0.00000000000E+00 -0.00000000000E+00 -0.19964011561E+01  0.19964011561E+01  0.00000000000E+00 0.  1.
          2    1    1    2  502    0  0.21396318874E+02 -0.14721656682E+02  0.14166015055E+03  0.14402127583E+03  0.00000000000E+00 0.  1.
         -2    1    1    2    0  502 -0.21396318874E+02  0.14721656682E+02  0.20588243018E+03  0.20751410721E+03  0.00000000000E+00 0. -1.
</event>
<event>
 4    1  0.5573045E+003  0.2356681E+02  0.7546771E-02  0.1485501E+00
          2   -1    0    0  501    0  0.00000000000E+00  0.00000000000E+00  0.48067026129E+03  0.48067026129E+03  0.00000000000E+00 0.  1.
         -2   -1    0    0    0  501 -0.00000000000E+00 -0.00000000000E+00 -0.23227220084E+02  0.23227220084E+02  0.00000000000E+00 0. -1.
          2    1    1    2  502    0  0.23140823984E+02  0.44605927261E+01  0.47432361779E+03  0.47490871651E+03  0.00000000000E+00 0.  1.
         -2    1    1    2    0  502 -0.23140823984E+02 -0.44605927261E+01 -0.16880576590E+02  0.28988764861E+02  0.00000000000E+00 0. -1.
</event>
<event>
 4    1  0.5573045E+003  0.2141314E+02  0.7546771E-02  0.1513447E+00
          2   -1    0    0  501    0  0.00000000000E+00  0.00000000000E+00  0.17012550769E+03  0.17012550769E+03  0.00000000000E+00 0. -1.
         -2   -1    0    0    0  501 -0.00000000000E+00 -0.00000000000E+00 -0.33603274535E+02  0.33603274535E+02  0.00000000000E+00 0. -1.
          2    1    1    2  502    0  0.21334839769E+02 -0.18295528873E+01  0.16595504039E+03  0.16733080435E+03  0.00000000000E+00 0. -1.
         -2    1    1    2    0  502 -0.21334839769E+02  0.18295528873E+01 -0.29432807237E+02  0.36397977878E+02  0.00000000000E+00 0. -1.
</event>
<event>
 4    1  0.5573045E+003  0.2546455E+02  0.7546771E-02  0.1463673E+00
          2   -1    0    0  501    0  0.00000000000E+00  0.00000000000E+00  0.10251250154E+03  0.10251250154E+03  0.00000000000E+00 0. -1.
         -2   -1    0    0    0  501 -0.00000000000E+00 -0.00000000000E+00 -0.70950178360E+01  0.70950178360E+01  0.00000000000E+00 0. -1.
          2    1    1    2  502    0  0.18529367449E+02  0.17467284916E+02  0.65757241408E+02  0.70515659949E+02  0.00000000000E+00 0. -1.
         -2    1    1    2    0  502 -0.18529367449E+02 -0.17467284916E+02  0.29660242294E+02  0.39091859426E+02  0.00000000000E+00 0. -1.
</event>
<event>
 4    1  0.5573045E+003  0.2903961E+02  0.7546771E-02  0.1428130E+00
          2   -1    0    0  501    0  0.00000000000E+00  0.00000000000E+00  0.16857090598E+04  0.16857090598E+04  0.00000000000E+00 0.  1.
         -2   -1    0    0    0  501 -0.00000000000E+00 -0.00000000000E+00 -0.11746281749E+01  0.11746281749E+01  0.00000000000E+00 0.  1.
          2    1    1    2  502    0  0.19399688147E+02  0.21609045683E+02  0.14813429602E+04  0.14816275728E+04  0.00000000000E+00 0.  1.
         -2    1    1    2    0  502 -0.19399688147E+02 -0.21609045683E+02  0.20319147141E+03  0.20525611516E+03  0.00000000000E+00 0.  1.
</event>
<event>
 4    1  0.5573045E+003  0.2575885E+02  0.7546771E-02  0.1460490E+00
          2   -1    0    0  501    0  0.00000000000E+00  0.00000000000E+00  0.81875443035E+03  0.81875443035E+03  0.00000000000E+00 0.  1.
         -2   -1    0    0    0  501 -0.00000000000E+00 -0.00000000000E+00 -0.15754160128E+02  0.15754160128E+02  0.00000000000E+00 0. -1.
          2    1    1    2  502    0 -0.28427102898E+01  0.25601515467E+02  0.80788088944E+03  0.80829143885E+03  0.00000000000E+00 0.  1.
         -2    1    1    2    0  502  0.28427102898E+01 -0.25601515467E+02 -0.48806192100E+01  0.26217151635E+02  0.00000000000E+00 0. -1.
</event>
<event>
 4    1  0.5573045E+003  0.3078613E+02  0.7546771E-02  0.1412886E+00
          2   -1    0    0  501    0  0.00000000000E+00  0.00000000000E+00  0.13317757212E+04  0.13317757212E+04  0.00000000000E+00 0. -1.
         -2   -1    0    0    0  501 -0.00000000000E+00 -0.00000000000E+00 -0.11557205033E+02  0.11557205033E+02  0.00000000000E+00 0. -1.
          2    1    1    2  502    0 -0.30391043070E+02  0.49163089020E+01  0.13107671989E+04  0.13111286876E+04  0.00000000000E+00 0. -1.
         -2    1    1    2    0  502  0.30391043070E+02 -0.49163089020E+01  0.94513172828E+01  0.32204238704E+02  0.00000000000E+00 0. -1.
</event>
<event>
 4    1  0.5573045E+003  0.2283641E+02  0.7546771E-02  0.1494563E+00
          2   -1    0    0  501    0  0.00000000000E+00  0.00000000000E+00  0.27133125877E+03  0.27133125877E+03  0.00000000000E+00 0. -1.
         -2   -1    0    0    0  501 -0.00000000000E+00 -0.00000000000E+00 -0.18130539203E+03  0.18130539203E+03  0.00000000000E+00 0.  1.
          2    1    1    2  502    0  0.75847854260E+01 -0.21540029524E+02  0.27012846655E+03  0.27109203286E+03  0.00000000000E+00 0. -1.
         -2    1    1    2    0  502 -0.75847854260E+01  0.21540029524E+02 -0.18010259981E+03  0.18154461794E+03  0.00000000000E+00 0.  1.
</event>
<event>
 4    1  0.5703186E+003  0.3608897E+02  0.7546771E-02  0.1373065E+00
          2   -1    0    0  501    0  0.00000000000E+00  0.00000000000E+00  0.83456700589E+03  0.83456700589E+03  0.00000000000E+00 0. -1.
         -2   -1    0    0    0  501 -0.00000000000E+00 -0.00000000000E+00 -0.37256178784E+03  0.37256178784E+03  0.00000000000E+00 0.  1.
          2    1    1    2  502    0 -0.32961827291E+02 -0.14694610769E+02  0.83330157467E+03  0.83408268654E+03  0.00000000000E+00 0. -1.
         -2    1    1    2    0  502  0.32961827291E+02  0.14694610769E+02 -0.37129635662E+03  0.37304610718E+03  0.00000000000E+00 0.  1.
</event>
<event>
 4    1  0.5573045E+003  0.2074985E+02  0.7546771E-02  0.1522866E+00
          2   -1    0    0  501    0  0.00000000000E+00  0.00000000000E+00  0.68439909356E+03  0.68439909356E+03  0.00000000000E+00 0. -1.
         -2   -1    0    0    0  501 -0.00000000000E+00 -0.00000000000E+00 -0.64694445418E+00  0.64694445418E+00  0.00000000000E+00 0.  1.
          2    1    1    2  502    0  0.20598068582E+02 -0.25051759488E+01  0.39876038530E+03  0.39929988883E+03  0.00000000000E+00 0. -1.
         -2    1    1    2    0  502 -0.20598068582E+02  0.25051759488E+01  0.28499176380E+03  0.28574614918E+03  0.00000000000E+00 0.  1.
</event>
<event>
 4    1  0.5573045E+003  0.2690824E+02  0.7546771E-02  0.1448532E+00
          2   -1    0    0  501    0  0.00000000000E+00  0.00000000000E+00  0.33352863194E+03  0.33352863194E+03  0.00000000000E+00 0. -1.
         -2   -1    0    0    0  501 -0.00000000000E+00 -0.00000000000E+00 -0.25548655928E+01  0.25548655928E+01  0.00000000000E+00 0.  1.
          2    1    1    2  502    0  0.26904794959E+02  0.43073292662E+00  0.23063258019E+03  0.23219698656E+03  0.00000000000E+00 0. -1.
         -2    1    1    2    0  502 -0.26904794959E+02 -0.43073292662E+00  0.10034118616E+03  0.10388651098E+03  0.00000000000E+00 0.  1.
</event>
<event>
 4    1  0.5573045E+003  0.2630949E+02  0.7546771E-02  0.1454670E+00
          2   -1    0    0  501    0  0.00000000000E+00  0.00000000000E+00  0.12566889816E+04  0.12566889816E+04  0.00000000000E+00 0. -1.
         -2   -1    0    0    0  501 -0.00000000000E+00 -0.00000000000E+00 -0.18374651992E+01  0.18374651992E+01  0.00000000000E+00 0. -1.
          2    1    1    2  502    0 -0.13042497666E+02  0.22849122092E+02  0.11539943090E+04  0.11542941802E+04  0.00000000000E+00 0. -1.
         -2    1    1    2    0  502  0.13042497666E+02 -0.22849122092E+02  0.10085720737E+03  0.10423226662E+03  0.00000000000E+00 0. -1.
</event>
<event>
 4    1  0.5573045E+003  0.3276587E+02  0.7546771E-02  0.1396989E+00
          2   -1    0    0  501    0  0.00000000000E+00  0.00000000000E+00  0.37945174333E+01  0.37945174333E+01  0.00000000000E+00 0. -1.
         -2   -1    0    0    0  501 -0.00000000000E+00 -0.00000000000E+00 -0.28461666737E+03  0.28461666737E+03  0.00000000000E+00 0. -1.
          2    1    1    2  502    0 -0.26394541577E+02  0.19414668813E+02 -0.15149624601E+03  0.15499907659E+03  0.00000000000E+00 0. -1.
         -2    1    1    2    0  502  0.26394541577E+02 -0.19414668813E+02 -0.12932590393E+03  0.13341210821E+03  0.00000000000E+00 0. -1.
</event>
<event>
 4    1  0.5573045E+003  0.2073329E+02  0.7546771E-02  0.1523107E+00
          2   -1    0    0  501    0  0.00000000000E+00  0.00000000000E+00  0.96668592381E+03  0.96668592381E+03  0.00000000000E+00 0. -1.
         -2   -1    0    0    0  501 -0.00000000000E+00 -0.00000000000E+00 -0.28548720835E+02  0.28548720835E+02  0.00000000000E+00 0.  1.
          2    1    1    2  502    0 -0.16469331973E+02  0.12594850562E+02  0.96279519581E+03  0.96301841012E+03  0.00000000000E+00 0. -1.
         -2    1    1    2    0  502  0.16469331973E+02 -0.12594850562E+02 -0.24657992835E+02  0.32216234525E+02  0.00000000000E+00 0.  1.
</event>
<event>
 4    1  0.5573045E+003  0.4261733E+02  0.7546771E-02  0.1333795E+00
          2   -1    0    0  501    0  0.00000000000E+00  0.00000000000E+00  0.10114729154E+04  0.10114729154E+04  0.00000000000E+00 0. -1.
         -2   -1    0    0    0  501 -0.00000000000E+00 -0.00000000000E+00 -0.23465077764E+01  0.23465077764E+01  0.00000000000E+00 0.  1.
          2    1    1    2  502    0  0.83379180077E+01 -0.41793733093E+02  0.75017258053E+03  0.75138215150E+03  0.00000000000E+00 0. -1.
         -2    1    1    2    0  502 -0.83379180077E+01  0.41793733093E+02  0.25895382711E+03  0.26243727170E+03  0.00000000000E+00 0.  1.
</event>
<event>
 4    1  0.5573045E+003  0.3715444E+02  0.7546771E-02  0.1366019E+00
          2   -1    0    0  501    0  0.00000000000E+00  0.00000000000E+00  0.17414414137E+03  0.17414414137E+03  0.00000000000E+00 0. -1.
         -2   -1    0    0    0  501 -0.00000000000E+00 -0.00000000000E+00 -0.10828527744E+02  0.10828527744E+02  0.00000000000E+00 0.  1.
          2    1    1    2  502    0 -0.36974890866E+02 -0.36482571909E+01  0.12953196883E+03  0.13475527182E+03  0.00000000000E+00 0. -1.
         -2    1    1    2    0  502  0.36974890866E+02  0.36482571909E+01  0.33783644799E+02  0.50217397293E+02  0.00000000000E+00 0.  1.
</event>
<event>
 4    1  0.5573045E+003  0.3652568E+02  0.7546771E-02  0.1370143E+00
          2   -1    0    0  501    0  0.00000000000E+00  0.00000000000E+00  0.69319428750E+03  0.69319428750E+03  0.00000000000E+00 0. -1.
         -2   -1    0    0    0  501 -0.00000000000E+00 -0.00000000000E+00 -0.11592360044E+02  0.11592360044E+02  0.00000000000E+00 0. -1.
          2    1    1    2  502    0  0.33575627567E+02  0.14380637059E+02  0.66261468006E+03  0.66362062937E+03  0.00000000000E+00 0. -1.
         -2    1    1    2    0  502 -0.33575627567E+02 -0.14380637059E+02  0.18987247390E+02  0.41166018173E+02  0.00000000000E+00 0. -1.
</event>
<event>
 4    1  0.5573045E+003  0.2296763E+02  0.7546771E-02  0.1492905E+00
          2   -1    0    0  501    0  0.00000000000E+00  0.00000000000E+00  0.35443872112E+02  0.35443872112E+02  0.00000000000E+00 0.  1.
         -2   -1    0    0    0  501 -0.00000000000E+00 -0.00000000000E+00 -0.14926209879E+02  0.14926209879E+02  0.00000000000E+00 0.  1.
          2    1    1    2  502    0 -0.10673483746E+02  0.20336886420E+02  0.11613426702E+02  0.25736819623E+02  0.00000000000E+00 0.  1.
         -2    1    1    2    0  502  0.10673483746E+02 -0.20336886420E+02  0.89042355300E+01  0.24633262368E+02  0.00000000000E+00 0.  1.
</event>
<event>
 4    1  0.5573045E+003  0.2068716E+02  0.7546771E-02  0.1523779E+00
          2   -1    0    0  501    0  0.00000000000E+00  0.00000000000E+00  0.18244312428E+03  0.18244312428E+03  0.00000000000E+00 0.  1.
         -2   -1    0    0    0  501 -0.00000000000E+00 -0.00000000000E+00 -0.44495419398E+01  0.44495419398E+01  0.00000000000E+00 0.  1.
          2    1    1    2  502    0 -0.14490845867E+02 -0.14763944823E+02  0.15325226386E+03  0.15464221629E+03  0.00000000000E+00 0.  1.
         -2    1    1    2    0  502  0.14490845867E+02  0.14763944823E+02  0.24741318487E+02  0.32250449937E+02  0.00000000000E+00 0.  1.
</event>
<event>
 4    1  0.5573045E+003  0.2130608E+02  0.7546771E-02  0.1514939E+00
          2   -1    0    0  501    0  0.00000000000E+00  0.00000000000E+00  0.21454988941E+02  0.21454988941E+02  0.00000000000E+00 0. -1.
         -2   -1    0    0    0  501 -0.00000000000E+00 -0.00000000000E+00 -0.55787796056E+02  0.55787796056E+02  0.00000000000E+00 0.  1.
          2    1    1    2  502    0  0.95454269282E+01 -0.19048203116E+02  0.13262195646E+02  0.25096514709E+02  0.00000000000E+00 0. -1.
         -2    1    1    2    0  502 -0.95454269282E+01  0.19048203116E+02 -0.47595002761E+02  0.52146270289E+02  0.00000000000E+00 0.  1.
</event>
<event>
 4    1  0.5573045E+003  0.3291360E+02  0.7546771E-02  0.1395856E+00
          2   -1    0    0  501    0  0.00000000000E+00  0.00000000000E+00  0.66219695161E+03  0.66219695161E+03  0.00000000000E+00 0. -1.
         -2   -1    0    0    0  501 -0.00000000000E+00 -0.00000000000E+00 -0.52028975813E+02  0.52028975813E+02  0.00000000000E+00 0.  1.
          2    1    1    2  502    0 -0.28044309566E+02  0.17228518854E+02  0.65653783315E+03  0.65736232895E+03  0.00000000000E+00 0. -1.
         -2    1    1    2    0  502  0.28044309566E+02 -0.17228518854E+02 -0.46369857352E+02  0.56863598477E+02  0.00000000000E+00 0.  1.
</event>
<event>
 4    1  0.5573045E+003  0.2898073E+02  0.7546771E-02  0.1428665E+00
          2   -1    0    0  501    0  0.00000000000E+00  0.00000000000E+00  0.11128329882E+04  0.11128329882E+04  0.00000000000E+00 0.  1.
         -2   -1    0    0    0  501 -0.00000000000E+00 -0.00000000000E+00 -0.97026880487E+00  0.97026880487E+00  0.00000000000E+00 0.  1.
          2    1    1    2  502    0 -0.12025987358E+02  0.26367746645E+02  0.81841402424E+03  0.81892697935E+03  0.00000000000E+00 0.  1.
         -2    1    1    2    0  502  0.12025987358E+02 -0.26367746645E+02  0.29344869512E+03  0.29487627762E+03  0.00000000000E+00 0.  1.
</event>
<event>
 4    1  0.5573045E+003  0.2887019E+02  0.7546771E-02  0.1429675E+00
          2   -1    0    0  501    0  0.00000000000E+00  0.00000000000E+00  0.51463565828E+03  0.51463565828E+03  0.00000000000E+00 0. -1.
         -2   -1    0    0    0  501 -0.00000000000E+00 -0.00000000000E+00 -0.27022714463E+01  0.27022714463E+01  0.00000000000E+00 0. -1.
          2    1    1    2  502    0 -0.20583762921E+02 -0.20243431311E+02  0.41969902901E+03  0.42069081611E+03  0.00000000000E+00 0. -1.
         -2    1    1    2    0  502  0.20583762921E+02  0.20243431311E+02  0.92234357825E+02  0.96647113618E+02  0.00000000000E+00 0. -1.
</event>
<event>
 4    1  0.5573045E+003  0.3180465E+02  0.7546771E-02  0.1404536E+00
          2   -1    0    0  501    0  0.00000000000E+00  0.00000000000E+00  0.28014296630E+03  0.28014296630E+03  0.00000000000E+00 0. -1.
         -2   -1    0    0    0  501 -0.00000000000E+00 -0.00000000000E+00 -0.57916462749E+01  0.57916462749E+01  0.00000000000E+00 0.  1.
          2    1    1    2  502    0 -0.13581474111E+02  0.28758971051E+02  0.49445250918E+02  0.58790881038E+02  0.00000000000E+00 0. -1.
         -2    1    1    2    0  502  0.13581474111E+02 -0.28758971051E+02  0.22490606911E+03  0.22714373154E+03  0.00000000000E+00 0.  1.
</event>
<event>
 4    1  0.5573045E+003  0.4014805E+02  0.7546771E-02  0.1347620E+00
          2   -1    0    0  501    0  0.00000000000E+00  0.00000000000E+00  0.36485839348E+03  0.36485839348E+03  0.00000000000E+00 0. -1.
         -2   -1    0    0    0  501 -0.00000000000E+00 -0.00000000000E+00 -0.16139115731E+02  0.16139115731E+02  0.00000000000E+00 0.  1.
          2    1    1    2  502    0 -0.22483742855E+02  0.33261798625E+02  0.33670531748E+03  0.33909045513E+03  0.00000000000E+00 0. -1.
         -2    1    1    2    0  502  0.22483742855E+02 -0.33261798625E+02  0.12013960269E+02  0.41907054082E+02  0.00000000000E+00 0.  1.
</event>
<event>
 4    1  0.5573045E+003  0.2017668E+02  0.7546771E-02  0.1531352E+00
          2   -1    0    0  501    0  0.00000000000E+00  0.00000000000E+00  0.91763873917E+03  0.91763873917E+03  0.00000000000E+00 0. -1.
         -2   -1    0    0    0  501 -0.00000000000E+00 -0.00000000000E+00 -0.16846280494E+01  0.16846280494E+01  0.00000000000E+00 0. -1.
          2    1    1    2  502    0  0.20078390763E+02  0.19891719369E+01  0.85249848534E+03  0.85273721983E+03  0.00000000000E+00 0. -1.
         -2    1    1    2    0  502 -0.20078390763E+02 -0.19891719369E+01  0.63455625784E+02  0.66586147390E+02  0.00000000000E+00 0. -1.
</event>
<event>
 4    1  0.5573045E+003  0.2514047E+02  0.7546771E-02  0.1467238E+00
          2   -1    0    0  501    0  0.00000000000E+00  0.00000000000E+00  0.17809752510E+01  0.17809752510E+01  0.00000000000E+00 0.  1.
         -2   -1    0    0    0  501 -0.00000000000E+00 -0.00000000000E+00 -0.36982555566E+03  0.36982555566E+03  0.00000000000E+00 0. -1.
          2    1    1    2  502    0  0.13807479325E+02  0.21009426819E+02 -0.22136701747E+03  0.22279003327E+03  0.00000000000E+00 0.  1.
         -2    1    1    2    0  502 -0.13807479325E+02 -0.21009426819E+02 -0.14667756294E+03  0.14881649764E+03  0.00000000000E+00 0. -1.
</event>
<event>
 4    1  0.5573045E+003  0.2202730E+02  0.7546771E-02  0.1505087E+00
          2   -1    0    0  501    0  0.00000000000E+00  0.00000000000E+00  0.10101700791E+04  0.10101700791E+04  0.00000000000E+00 0.  1.
         -2   -1    0    0    0  501 -0.00000000000E+00 -0.00000000000E+00 -0.97261139821E+00  0.97261139821E+00  0.00000000000E+00 0.  1.
          2    1    1    2  502    0  0.75549088046E+01  0.20691191926E+02  0.86428605523E+03  0.86456670496E+03  0.00000000000E+00 0.  1.
         -2    1    1    2    0  502 -0.75549088046E+01 -0.20691191926E+02  0.14491141251E+03  0.14657598557E+03  0.00000000000E+00 0.  1.
</event>
<event>
 4    1  0.5573045E+003  0.2316989E+02  0.7546771E-02  0.1490376E+00
          2   -1    0    0  501    0  0.00000000000E+00  0.00000000000E+00  0.34200777666E+02  0.34200777666E+02  0.00000000000E+00 0.  1.
         -2   -1    0    0    0  501 -0.00000000000E+00 -0.00000000000E+00 -0.44569851448E+03  0.44569851448E+03  0.00000000000E+00 0.  1.
          2    1    1    2  502    0  0.13761565801E+02 -0.18640366306E+02  0.29937571598E+02  0.37856335566E+02  0.00000000000E+00 0.  1.
         -2    1    1    2    0  502 -0.13761565801E+02  0.18640366306E+02 -0.44143530841E+03  0.44204295658E+03  0.00000000000E+00 0.  1.
</event>
<event>
 4    1  0.5573045E+003  0.3128308E+02  0.7546771E-02  0.1408765E+00
          2   -1    0    0  501    0  0.00000000000E+00  0.00000000000E+00  0.56646509380E+03  0.56646509380E+03  0.00000000000E+00 0.  1.
         -2   -1    0    0    0  501 -0.00000000000E+00 -0.00000000000E+00 -0.18561641132E+01  0.18561641132E+01  0.00000000000E+00 0. -1.
          2    1    1    2  502    0  0.24615578679E+02 -0.19305551591E+02  0.35708660451E+03  0.35845428461E+03  0.00000000000E+00 0.  1.
         -2    1    1    2    0  502 -0.24615578679E+02  0.19305551591E+02  0.20752232517E+03  0.20986697330E+03  0.00000000000E+00 0. -1.
</event>
<event>
 4    1  0.5573045E+003  0.2900889E+02  0.7546771E-02  0.1428409E+00
          2   -1    0    0  501    0  0.00000000000E+00  0.00000000000E+00  0.22351016219E+03  0.22351016219E+03  0.00000000000E+00 0. -1.
         -2   -1    0    0    0  501 -0.00000000000E+00 -0.00000000000E+00 -0.87079043694E+02  0.87079043694E+02  0.00000000000E+00 0.  1.
          2    1    1    2  502    0  0.33237244774E+01 -0.28817852515E+02  0.22011586357E+03  0.22201916395E+03  0.00000000000E+00 0. -1.
         -2    1    1    2    0  502 -0.33237244774E+01  0.28817852515E+02 -0.83684745078E+02  0.88570041926E+02  0.00000000000E+00 0.  1.
</event>
<event>
 4    1  0.5573045E+003  0.4829598E+02  0.7546771E-02  0.1305734E+00
          2   -1    0    0  501    0  0.00000000000E+00  0.00000000000E+00  0.26497222688E+03  0.26497222688E+03  0.00000000000E+00 0.  1.
         -2   -1    0    0    0  501 -0.00000000000E+00 -0.00000000000E+00 -0.10768919211E+02  0.10768919211E+02  0.00000000000E+00 0.  1.
          2    1    1    2  502    0 -0.22475242156E+01  0.48243657553E+02  0.18601160131E+03  0.19217912915E+03  0.00000000000E+00 0.  1.
         -2    1    1    2    0  502  0.22475242156E+01 -0.48243657553E+02  0.68191706362E+02  0.83562016944E+02  0.00000000000E+00 0.  1.
</event>
<event>
 4    1  0.5573045E+003  0.2068712E+02  0.7546771E-02  0.1523779E+00
          2   -1    0    0  501    0  0.00000000000E+00  0.00000000000E+00  0.82625547313E+03  0.82625547313E+03  0.00000000000E+00 0.  1.
         -2   -1    0    0    0  501 -0.00000000000E+00 -0.00000000000E+00 -0.20764050649E+01  0.20764050649E+01  0.00000000000E+00 0.  1.
          2    1    1    2  502    0  0.59437168359E+01  0.19814867216E+02  0.77090063301E+03  0.77117815238E+03  0.00000000000E+00 0.  1.
         -2    1    1    2    0  502 -0.59437168359E+01 -0.19814867216E+02  0.53278435051E+02  0.57153725811E+02  0.00000000000E+00 0.  1.
</event>
<event>
 4    1  0.5573045E+003  0.2374559E+02  0.7546771E-02  0.1483342E+00
          2   -1    0    0  501    0  0.00000000000E+00  0.00000000000E+00  0.30986976013E+03  0.30986976013E+03  0.00000000000E+00 0. -1.
         -2   -1    0    0    0  501 -0.00000000000E+00 -0.00000000000E+00 -0.49636877104E+02  0.49636877104E+02  0.00000000000E+00 0. -1.
          2    1    1    2  502    0  0.19637681453E+01  0.23664245143E+02  0.30654419733E+03  0.30746251446E+03  0.00000000000E+00 0. -1.
         -2    1    1    2    0  502 -0.19637681453E+01 -0.23664245143E+02 -0.46311314298E+02  0.52044122776E+02  0.00000000000E+00 0. -1.
</event>
<event>
 4    1  0.5573045E+003  0.4543991E+02  0.7546771E-02  0.1319254E+00
          2   -1    0    0  501    0  0.00000000000E+00  0.00000000000E+00  0.53240920489E+02  0.53240920489E+02  0.00000000000E+00 0. -1.
         -2   -1    0    0    0  501 -0.00000000000E+00 -0.00000000000E+00 -0.64119021390E+02  0.64119021390E+02  0.00000000000E+00 0. -1.
          2    1    1    2  502    0 -0.33944174102E+02 -0.30208909699E+02  0.31448082597E+02  0.55260900098E+02  0.00000000000E+00 0. -1.
         -2    1    1    2    0  502  0.33944174102E+02  0.30208909699E+02 -0.42326183498E+02  0.62099041781E+02  0.00000000000E+00 0. -1.
</event>
<event>
 4    1  0.5573045E+003  0.2016381E+02  0.7546771E-02  0.1531546E+00
          2   -1    0    0  501    0  0.00000000000E+00  0.00000000000E+00  0.91084208850E+03  0.91084208850E+03  0.00000000000E+00 0.  1.
         -2   -1    0    0    0  501 -0.00000000000E+00 -0.00000000000E+00 -0.41690738918E+01  0.41690738918E+01  0.00000000000E+00 0. -1.
          2    1    1    2  502    0  0.79013179692E+01 -0.18551241720E+02  0.88565659020E+03  0.88588609604E+03  0.00000000000E+00 0.  1.
         -2    1    1    2    0  502 -0.79013179692E+01  0.18551241720E+02  0.21016424408E+02  0.29125066350E+02  0.00000000000E+00 0. -1.
</event>
<event>
 4    1  0.5573045E+003  0.2793712E+02  0.7546771E-02  0.1438415E+00
          2   -1    0    0  501    0  0.00000000000E+00  0.00000000000E+00  0.46495804458E+02  0.46495804458E+02  0.00000000000E+00 0.  1.
         -2   -1    0    0    0  501 -0.00000000000E+00 -0.00000000000E+00 -0.88429254311E+02  0.88429254311E+02  0.00000000000E+00 0.  1.
          2    1    1    2  502    0 -0.27543801957E+02  0.46713636226E+01  0.39756107997E+02  0.48590439259E+02  0.00000000000E+00 0.  1.
         -2    1    1    2    0  502  0.27543801957E+02 -0.46713636226E+01 -0.81689557850E+02  0.86334619511E+02  0.00000000000E+00 0.  1.
</event>
<event>
 4    1  0.5573045E+003  0.3520534E+02  0.7546771E-02  0.1379125E+00
          2   -1    0    0  501    0  0.00000000000E+00  0.00000000000E+00  0.26219844173E+04  0.26219844173E+04  0.00000000000E+00 0. -1.
         -2   -1    0    0    0  501 -0.00000000000E+00 -0.00000000000E+00 -0.31202647894E+01  0.31202647894E+01  0.00000000000E+00 0.  1.
          2    1    1    2  502    0 -0.16203825929E+02  0.31254632329E+02  0.25184815699E+04  0.25187276220E+04  0.00000000000E+00 0. -1.
         -2    1    1    2    0  502  0.16203825929E+02 -0.31254632329E+02  0.10038258261E+03  0.10637706007E+03  0.00000000000E+00 0.  1.
</event>
<event>
 4    1  0.5573045E+003  0.4960772E+02  0.7546771E-02  0.1299882E+00
          2   -1    0    0  501    0  0.00000000000E+00  0.00000000000E+00  0.17640529615E+03  0.17640529615E+03  0.00000000000E+00 0.  1.
         -2   -1    0    0    0  501 -0.00000000000E+00 -0.00000000000E+00 -0.21104789601E+02  0.21104789601E+02  0.00000000000E+00 0. -1.
          2    1    1    2  502    0  0.94566273636E+01 -0.48698031753E+02  0.13514852316E+03  0.14396544520E+03  0.00000000000E+00 0.  1.
         -2    1    1    2    0  502 -0.94566273636E+01  0.48698031753E+02  0.20151983386E+02  0.53544640554E+02  0.00000000000E+00 0. -1.
</event>
<event>
 4    1  0.5573045E+003  0.2057369E+02  0.7546771E-02  0.1525439E+00
          2   -1    0    0  501    0  0.00000000000E+00  0.00000000000E+00  0.10689925388E+02  0.10689925388E+02  0.00000000000E+00 0. -1.
         -2   -1    0    0    0  501 -0.00000000000E+00 -0.00000000000E+00 -0.39864859558E+02  0.39864859558E+02  0.00000000000E+00 0. -1.
          2    1    1    2  502    0  0.10126959801E+02  0.17908700222E+02 -0.12511082973E+02  0.24079120740E+02  0.00000000000E+00 0. -1.
         -2    1    1    2    0  502 -0.10126959801E+02 -0.17908700222E+02 -0.16663851197E+02  0.26475664206E+02  0.00000000000E+00 0. -1.
</event>
<event>
 4    1  0.5573045E+003  0.2857001E+02  0.7546771E-02  0.1432444E+00
          2   -1    0    0  501    0  0.00000000000E+00  0.00000000000E+00  0.37433530260E+03  0.37433530260E+03  0.00000000000E+00 0. -1.
         -2   -1    0    0    0  501 -0.00000000000E+00 -0.00000000000E+00 -0.49885705111E+03  0.49885705111E+03  0.00000000000E+00 0. -1.
          2    1    1    2  502    0 -0.68953019483E+01 -0.27725446776E+02  0.37338006978E+03  0.37447152375E+03  0.00000000000E+00 0. -1.
         -2    1    1    2    0  502  0.68953019483E+01  0.27725446776E+02 -0.49790181828E+03  0.49872082996E+03  0.00000000000E+00 0. -1.
</event>
<event>
 4    1  0.5573045E+003  0.2369914E+02  0.7546771E-02  0.1483901E+00
          2   -1    0    0  501    0  0.00000000000E+00  0.00000000000E+00  0.58089447701E+03  0.58089447701E+03  0.00000000000E+00 0.  1.
         -2   -1    0    0    0  501 -0.00000000000E+00 -0.00000000000E+00 -0.20186935088E+01  0.20186935088E+01  0.00000000000E+00 0.  1.
          2    1    1    2  502    0  0.15131421642E+02 -0.18239769073E+02  0.49982069558E+03  0.50038223073E+03  0.00000000000E+00 0.  1.
         -2    1    1    2    0  502 -0.15131421642E+02  0.18239769073E+02  0.79055087919E+02  0.82530939790E+02  0.00000000000E+00 0.  1.
</event>
<event>
 4    1  0.5573045E+003  0.2322293E+02  0.7546771E-02  0.1489718E+00
          2   -1    0    0  501    0  0.00000000000E+00  0.00000000000E+00  0.73542706068E+03  0.73542706068E+03  0.00000000000E+00 0. -1.
         -2   -1    0    0    0  501 -0.00000000000E+00 -0.00000000000E+00 -0.16698013935E+01  0.16698013935E+01  0.00000000000E+00 0. -1.
          2    1    1    2  502    0  0.17309346372E+02  0.15481950441E+02  0.64288013659E+03  0.64329944371E+03  0.00000000000E+00 0. -1.
         -2    1    1    2    0  502 -0.17309346372E+02 -0.15481950441E+02  0.90877122705E+02  0.93797418367E+02  0.00000000000E+00 0. -1.
</event>
<event>
 4    1  0.5573045E+003  0.2831445E+02  0.7546771E-02  0.1434833E+00
          2   -1    0    0  501    0  0.00000000000E+00  0.00000000000E+00  0.86728787590E+03  0.86728787590E+03  0.00000000000E+00 0. -1.
         -2   -1    0    0    0  501 -0.00000000000E+00 -0.00000000000E+00 -0.61916780611E+01  0.61916780611E+01  0.00000000000E+00 0.  1.
          2    1    1    2  502    0 -0.11126314782E+02 -0.26036762819E+02  0.83336928685E+03  0.83385015210E+03  0.00000000000E+00 0. -1.
         -2    1    1    2    0  502  0.11126314782E+02  0.26036762819E+02  0.27726910995E+02  0.39629401863E+02  0.00000000000E+00 0.  1.
</event>
<event>
 4    1  0.5573045E+003  0.2116845E+02  0.7546771E-02  0.1516873E+00
          2   -1    0    0  501    0  0.00000000000E+00  0.00000000000E+00  0.29766061620E+01  0.29766061620E+01  0.00000000000E+00 0.  1.
         -2   -1    0    0    0  501 -0.00000000000E+00 -0.00000000000E+00 -0.15109840430E+03  0.15109840430E+03  0.00000000000E+00 0. -1.
          2    1    1    2  502    0  0.13567320666E+02  0.16249014009E+02 -0.78738002721E+02  0.81533893068E+02  0.00000000000E+00 0.  1.
         -2    1    1    2    0  502 -0.13567320666E+02 -0.16249014009E+02 -0.69383795418E+02  0.72541117395E+02  0.00000000000E+00 0. -1.
</event>
<event>
 4    1  0.5573045E+003  0.5311336E+02  0.7546771E-02  0.1285210E+00
          2   -1    0    0  501    0  0.00000000000E+00  0.00000000000E+00  0.89199300791E+03  0.89199300791E+03  0.00000000000E+00 0.  1.
         -2   -1    0    0    0  501 -0.00000000000E+00 -0.00000000000E+00 -0.50416457506E+02  0.50416457506E+02  0.00000000000E+00 0.  1.
          2    1    1    2  502    0  0.23618482345E+02  0.47573065896E+02  0.87697437824E+03  0.87858129356E+03  0.00000000000E+00 0.  1.
         -2    1    1    2    0  502 -0.23618482345E+02 -0.47573065896E+02 -0.35397827835E+02  0.63828171856E+02  0.00000000000E+00 0.  1.
</event>
<event>
 4    1  0.5573045E+003  0.2606838E+02  0.7546771E-02  0.1457198E+00
          2   -1    0    0  501    0  0.00000000000E+00  0.00000000000E+00  0.14556162674E+04  0.14556162674E+04  0.00000000000E+00 0.  1.
         -2   -1    0    0    0  501 -0.00000000000E+00 -0.00000000000E+00 -0.24215804316E+01  0.24215804316E+01  0.00000000000E+00 0. -1.
          2    1    1    2  502    0 -0.15915514880E+02  0.20645982608E+02  0.13815838459E+04  0.13818297592E+04  0.00000000000E+00 0.  1.
         -2    1    1    2    0  502  0.15915514880E+02 -0.20645982608E+02  0.71610841103E+02  0.76208088647E+02  0.00000000000E+00 0. -1.
</event>
<event>
 4    1  0.5573045E+003  0.2614497E+02  0.7546771E-02  0.1456391E+00
          2   -1    0    0  501    0  0.00000000000E+00  0.00000000000E+00  0.13555636922E+04  0.13555636922E+04  0.00000000000E+00 0. -1.
         -2   -1    0    0    0  501 -0.00000000000E+00 -0.00000000000E+00 -0.11567068862E+01  0.11567068862E+01  0.00000000000E+00 0. -1.
          2    1    1    2  502    0 -0.23824467877E+02 -0.10768196111E+02  0.11866758205E+04  0.11869637999E+04  0.00000000000E+00 0. -1.
         -2    1    1    2    0  502  0.23824467877E+02  0.10768196111E+02  0.16773116483E+03  0.16975659920E+03  0.00000000000E+00 0. -1.
</event>
<event>
 4    1  0.5573045E+003  0.3230185E+02  0.7546771E-02  0.1400594E+00
          2   -1    0    0  501    0  0.00000000000E+00  0.00000000000E+00  0.16137268316E+04  0.16137268316E+04  0.00000000000E+00 0. -1.
         -2   -1    0    0    0  501 -0.00000000000E+00 -0.00000000000E+00 -0.30286620761E+01  0.30286620761E+01  0.00000000000E+00 0. -1.
          2    1    1    2  502    0  0.83421688951E+01  0.31206049081E+02  0.15222629399E+04  0.15226056178E+04  0.00000000000E+00 0. -1.
         -2    1    1    2    0  502 -0.83421688951E+01 -0.31206049081E+02  0.88435229585E+02  0.94149875798E+02  0.00000000000E+00 0. -1.
</event>
<event>
 4    1  0.7920746E+003  0.3126305E+02  0.7546771E-02  0.1408929E+00
          2   -1    0    0  501    0  0.00000000000E+00  0.00000000000E+00  0.10359552099E+04  0.10359552099E+04  0.00000000000E+00 0.  1.
         -2   -1    0    0    0  501 -0.00000000000E+00 -0.00000000000E+00 -0.35272714122E+03  0.35272714122E+03  0.00000000000E+00 0. -1.
          2    1    1    2  502    0  0.30487612642E+02 -0.69198247485E+01  0.10350259942E+04  0.10354980382E+04  0.00000000000E+00 0.  1.
         -2    1    1    2    0  502 -0.30487612642E+02  0.69198247485E+01 -0.35179792551E+03  0.35318431292E+03  0.00000000000E+00 0. -1.
</event>
<event>
 4    1  0.5573045E+003  0.2114774E+02  0.7546771E-02  0.1517166E+00
          2   -1    0    0  501    0  0.00000000000E+00  0.00000000000E+00  0.57773971518E+03  0.57773971518E+03  0.00000000000E+00 0. -1.
         -2   -1    0    0    0  501 -0.00000000000E+00 -0.00000000000E+00 -0.21268606129E+03  0.21268606129E+03  0.00000000000E+00 0. -1.
          2    1    1    2  502    0 -0.13046055344E+02 -0.16644138428E+02  0.57701984617E+03  0.57740724777E+03  0.00000000000E+00 0. -1.
         -2    1    1    2    0  502  0.13046055344E+02  0.16644138428E+02 -0.21196619228E+03  0.21301852871E+03  0.00000000000E+00 0. -1.
</event>
<event>
 4    1  0.5573045E+003  0.2231183E+02  0.7546771E-02  0.1501325E+00
          2   -1    0    0  501    0  0.00000000000E+00  0.00000000000E+00  0.91255534062E+03  0.91255534062E+03  0.00000000000E+00 0. -1.
         -2   -1    0    0    0  501 -0.00000000000E+00 -0.00000000000E+00 -0.81219232372E+00  0.81219232372E+00  0.00000000000E+00 0.  1.
          2    1    1    2  502    0  0.18144396071E+02  0.12984550069E+02  0.71755408383E+03  0.71790088513E+03  0.00000000000E+00 0. -1.
         -2    1    1    2    0  502 -0.18144396071E+02 -0.12984550069E+02  0.19418906447E+03  0.19546664781E+03  0.00000000000E+00 0.  1.
</event>
<event>
 4    1  0.5573045E+003  0.2733131E+02  0.7546771E-02  0.1444308E+00
          2   -1    0    0  501    0  0.00000000000E+00  0.00000000000E+00  0.80235775669E+02  0.80235775669E+02  0.00000000000E+00 0. -1.
         -2   -1    0    0    0  501 -0.00000000000E+00 -0.00000000000E+00 -0.21710651482E+02  0.21710651482E+02  0.00000000000E+00 0.  1.
          2    1    1    2  502    0  0.16236546492E+02  0.21985797950E+02  0.67786138364E+02  0.73088722165E+02  0.00000000000E+00 0. -1.
         -2    1    1    2    0  502 -0.16236546492E+02 -0.21985797950E+02 -0.92610141763E+01  0.28857704986E+02  0.00000000000E+00 0.  1.
</event>
<event>
 4    1  0.7564483E+003  0.2275323E+02  0.7546771E-02  0.1495620E+00
          2   -1    0    0  501    0  0.00000000000E+00  0.00000000000E+00  0.83655985281E+03  0.83655985281E+03  0.00000000000E+00 0. -1.
         -2   -1    0    0    0  501 -0.00000000000E+00 -0.00000000000E+00 -0.65075962424E+03  0.65075962424E+03  0.00000000000E+00 0. -1.
          2    1    1    2  502    0 -0.21033271388E+02  0.86782006093E+01  0.83620616816E+03  0.83651566951E+03  0.00000000000E+00 0. -1.
         -2    1    1    2    0  502  0.21033271388E+02 -0.86782006093E+01 -0.65040593958E+03  0.65080380754E+03  0.00000000000E+00 0. -1.
</event>
<event>
 4    1  0.5573045E+003  0.2843359E+02  0.7546771E-02  0.1433716E+00
          2   -1    0    0  501    0  0.00000000000E+00  0.00000000000E+00  0.62191109429E+03  0.62191109429E+03  0.00000000000E+00 0.  1.
         -2   -1    0    0    0  501 -0.00000000000E+00 -0.00000000000E+00 -0.13122542171E+01  0.13122542171E+01  0.00000000000E+00 0.  1.
          2    1    1    2  502    0 -0.86225298383E+01 -0.27094664803E+02  0.34044265632E+03  0.34162797181E+03  0.00000000000E+00 0.  1.
         -2    1    1    2    0  502  0.86225298383E+01  0.27094664803E+02  0.28015618376E+03  0.28159537670E+03  0.00000000000E+00 0.  1.
</event>
<event>
 4    1  0.5573045E+003  0.2451339E+02  0.7546771E-02  0.1474321E+00
          2   -1    0    0  501    0  0.00000000000E+00  0.00000000000E+00  0.52979693127E+03  0.52979693127E+03  0.00000000000E+00 0.  1.
         -2   -1    0    0    0  501 -0.00000000000E+00 -0.00000000000E+00 -0.78895387523E+01  0.78895387523E+01  0.00000000000E+00 0.  1.
          2    1    1    2  502    0 -0.24450452071E+02 -0.17554053359E+01  0.50972268590E+03  0.51031178957E+03  0.00000000000E+00 0.  1.
         -2    1    1    2    0  502  0.24450452071E+02  0.17554053359E+01  0.12184706615E+02  0.27374680448E+02  0.00000000000E+00 0.  1.
</event>
<event>
 4    1  0.5573045E+003  0.2022482E+02  0.7546771E-02  0.1530626E+00
          2   -1    0    0  501    0  0.00000000000E+00  0.00000000000E+00  0.91930581851E+02  0.91930581851E+02  0.00000000000E+00 0.  1.
         -2   -1    0    0    0  501 -0.00000000000E+00 -0.00000000000E+00 -0.62081042492E+02  0.62081042492E+02  0.00000000000E+00 0.  1.
          2    1    1    2  502    0 -0.26617056639E+01 -0.20048905187E+02  0.89119695091E+02  0.91385793915E+02  0.00000000000E+00 0.  1.
         -2    1    1    2    0  502  0.26617056639E+01  0.20048905187E+02 -0.59270155732E+02  0.62625830428E+02  0.00000000000E+00 0.  1.
</event>
<event>
 4    1  0.5573045E+003  0.3652204E+02  0.7546771E-02  0.1370167E+00
          2   -1    0    0  501    0  0.00000000000E+00  0.00000000000E+00  0.18378770460E+04  0.18378770460E+04  0.00000000000E+00 0. -1.
         -2   -1    0    0    0  501 -0.00000000000E+00 -0.00000000000E+00 -0.26204639227E+01  0.26204639227E+01  0.00000000000E+00 0.  1.
          2    1    1    2  502    0  0.15194965520E+02  0.33211025802E+02  0.17001325780E+04  0.17005248137E+04  0.00000000000E+00 0. -1.
         -2    1    1    2    0  502 -0.15194965520E+02 -0.33211025802E+02  0.13512400411E+03  0.13997269626E+03  0.00000000000E+00 0.  1.
</event>
<event>
 4    1  0.5573045E+003  0.2393152E+02  0.7546771E-02  0.1481121E+00
          2   -1    0    0  501    0  0.00000000000E+00  0.00000000000E+00  0.18970478935E+02  0.18970478935E+02  0.00000000000E+00 0.  1.
         -2   -1    0    0    0  501 -0.00000000000E+00 -0.00000000000E+00 -0.13108782968E+03  0.13108782968E+03  0.00000000000E+00 0. -1.
          2    1    1    2  502    0 -0.14309284388E+02  0.19182338166E+02  0.97661772172E+01  0.25847551812E+02  0.00000000000E+00 0.  1.
         -2    1    1    2    0  502  0.14309284388E+02 -0.19182338166E+02 -0.12188352796E+03  0.12421075680E+03  0.00000000000E+00 0. -1.
</event>
<event>
 4    1  0.5573045E+003  0.2564418E+02  0.7546771E-02  0.1461724E+00
          2   -1    0    0  501    0  0.00000000000E+00  0.00000000000E+00  0.17812537772E+04  0.17812537772E+04  0.00000000000E+00 0. -1.
         -2   -1    0    0    0  501 -0.00000000000E+00 -0.00000000000E+00 -0.44791147275E+01  0.44791147275E+01  0.00000000000E+00 0.  1.
          2    1    1    2  502    0  0.11628774876E+02  0.22855969306E+02  0.17436652591E+04  0.17438538240E+04  0.00000000000E+00 0. -1.
         -2    1    1    2    0  502 -0.11628774876E+02 -0.22855969306E+02  0.33109403398E+02  0.41879067939E+02  0.00000000000E+00 0.  1.
</event>
<event>
 4    1  0.5573045E+003  0.2124715E+02  0.7546771E-02  0.1515765E+00
          2   -1    0    0  501    0  0.00000000000E+00  0.00000000000E+00  0.14062546742E+04  0.14062546742E+04  0.00000000000E+00 0. -1.
         -2   -1    0    0    0  501 -0.00000000000E+00 -0.00000000000E+00 -0.80881852872E+00  0.80881852872E+00  0.00000000000E+00 0. -1.
          2    1    1    2  502    0 -0.18799462433E+02 -0.99005758762E+01  0.12490801825E+04  0.12492608789E+04  0.00000000000E+00 0. -1.
         -2    1    1    2    0  502  0.18799462433E+02  0.99005758762E+01  0.15636567313E+03  0.15780261380E+03  0.00000000000E+00 0. -1.
</event>
<event>
 4    1  0.5573045E+003  0.2115376E+02  0.7546771E-02  0.1517081E+00
          2   -1    0    0  501    0  0.00000000000E+00  0.00000000000E+00  0.14809244924E+04  0.14809244924E+04  0.00000000000E+00 0.  1.
         -2   -1    0    0    0  501 -0.00000000000E+00 -0.00000000000E+00 -0.41009776736E+02  0.41009776736E+02  0.00000000000E+00 0.  1.
          2    1    1    2  502    0  0.12600467113E+02 -0.16991464044E+02  0.14781158723E+04  0.14782672335E+04  0.00000000000E+00 0.  1.
         -2    1    1    2    0  502 -0.12600467113E+02  0.16991464044E+02 -0.38201156717E+02  0.43667035580E+02  0.00000000000E+00 0.  1.
</event>
<event>
 4    1  0.5573045E+003  0.3190254E+03  0.7546771E-02  0.9928966E-01
          2   -1    0    0  501    0  0.00000000000E+00  0.00000000000E+00  0.91962889598E+03  0.91962889598E+03  0.00000000000E+00 0.  1.
         -2   -1    0    0    0  501 -0.00000000000E+00 -0.00000000000E+00 -0.11743282741E+03  0.11743282741E+03  0.00000000000E+00 0. -1.
          2    1    1    2  502    0  0.15982890706E+03 -0.27610108316E+03  0.27668020414E+03  0.42229021184E+03  0.00000000000E+00 0. -1.
         -2    1    1    2    0  502 -0.15982890706E+03  0.27610108316E+03  0.52551586443E+03  0.61477151156E+03  0.00000000000E+00 0.  1.
</event>
<event>
 4    1  0.5573045E+003  0.2524352E+02  0.7546771E-02  0.1466097E+00
          2   -1    0    0  501    0  0.00000000000E+00  0.00000000000E+00  0.10416115448E+04  0.10416115448E+04  0.00000000000E+00 0. -1.
         -2   -1    0    0    0  501 -0.00000000000E+00 -0.00000000000E+00 -0.19810751918E+01  0.19810751918E+01  0.00000000000E+00 0.  1.
          2    1    1    2  502    0  0.12358403234E+02 -0.22011477036E+02  0.95362502447E+03  0.95395907803E+03  0.00000000000E+00 0. -1.
         -2    1    1    2    0  502 -0.12358403234E+02  0.22011477036E+02  0.86005445108E+02  0.89633541936E+02  0.00000000000E+00 0.  1.
</event>
<event>
 4    1  0.5573045E+003  0.4277522E+02  0.7546771E-02  0.1332948E+00
          2   -1    0    0  501    0  0.00000000000E+00  0.00000000000E+00  0.50105336225E+02  0.50105336225E+02  0.00000000000E+00 0. -1.
         -2   -1    0    0    0  501 -0.00000000000E+00 -0.00000000000E+00 -0.70055375606E+02  0.70055375606E+02  0.00000000000E+00 0. -1.
          2    1    1    2  502    0  0.28403349778E+02  0.31983886103E+02  0.31594963073E+02  0.53178575953E+02  0.00000000000E+00 0. -1.
         -2    1    1    2    0  502 -0.28403349778E+02 -0.31983886103E+02 -0.51545002454E+02  0.66982135878E+02  0.00000000000E+00 0. -1.
</event>
<event>
 4    1  0.5573045E+003  0.2517935E+02  0.7546771E-02  0.1466807E+00
          2   -1    0    0  501    0  0.00000000000E+00  0.00000000000E+00  0.87029863645E+01  0.87029863645E+01  0.00000000000E+00 0. -1.
         -2   -1    0    0    0  501 -0.00000000000E+00 -0.00000000000E+00 -0.15067139666E+03  0.15067139666E+03  0.00000000000E+00 0. -1.
          2    1    1    2  502    0 -0.24643587299E+02  0.51665377214E+01 -0.13714254590E+02  0.28671942486E+02  0.00000000000E+00 0. -1.
         -2    1    1    2    0  502  0.24643587299E+02 -0.51665377214E+01 -0.12825415571E+03  0.13070244054E+03  0.00000000000E+00 0. -1.
</event>
<event>
 4    1  0.5573045E+003  0.2704675E+02  0.7546771E-02  0.1447139E+00
          2   -1    0    0  501    0  0.00000000000E+00  0.00000000000E+00  0.16357031864E+04  0.16357031864E+04  0.00000000000E+00 0. -1.
         -2   -1    0    0    0  501 -0.00000000000E+00 -0.00000000000E+00 -0.14220972209E+01  0.14220972209E+01  0.00000000000E+00 0.  1.
          2    1    1    2  502    0 -0.26952619727E+02 -0.22545834095E+01  0.14948775386E+04  0.14951221964E+04  0.00000000000E+00 0. -1.
         -2    1    1    2    0  502  0.26952619727E+02  0.22545834095E+01  0.13940355053E+03  0.14200308714E+03  0.00000000000E+00 0.  1.
</event>
<event>
 4    1  0.5573045E+003  0.2317390E+02  0.7546771E-02  0.1490326E+00
          2   -1    0    0  501    0  0.00000000000E+00  0.00000000000E+00  0.15915582619E+02  0.15915582619E+02  0.00000000000E+00 0.  1.
         -2   -1    0    0    0  501 -0.00000000000E+00 -0.00000000000E+00 -0.56953199155E+02  0.56953199155E+02  0.00000000000E+00 0.  1.
          2    1    1    2  502    0  0.75178122082E+01  0.21920590339E+02  0.27405431427E+01  0.23335388531E+02  0.00000000000E+00 0.  1.
         -2    1    1    2    0  502 -0.75178122082E+01 -0.21920590339E+02 -0.43778159679E+02  0.49533393242E+02  0.00000000000E+00 0.  1.
</event>
<event>
 4    1  0.5573045E+003  0.4811700E+02  0.7546771E-02  0.1306550E+00
          2   -1    0    0  501    0  0.00000000000E+00  0.00000000000E+00  0.34359130101E+03  0.34359130101E+03  0.00000000000E+00 0.  1.
         -2   -1    0    0    0  501 -0.00000000000E+00 -0.00000000000E+00 -0.86296612419E+03  0.86296612419E+03  0.00000000000E+00 0. -1.
          2    1    1    2  502    0  0.29489031917E+02 -0.38021614393E+02  0.34123136868E+03  0.34460715770E+03  0.00000000000E+00 0.  1.
         -2    1    1    2    0  502 -0.29489031917E+02  0.38021614393E+02 -0.86060619187E+03  0.86195026750E+03  0.00000000000E+00 0. -1.
</event>
<event>
 4    1  0.5573045E+003  0.5830909E+02  0.7546771E-02  0.1265689E+00
          2   -1    0    0  501    0  0.00000000000E+00  0.00000000000E+00  0.99749806734E+02  0.99749806734E+02  0.00000000000E+00 0.  1.
         -2   -1    0    0    0  501 -0.00000000000E+00 -0.00000000000E+00 -0.10491531161E+03  0.10491531161E+03  0.00000000000E+00 0. -1.
          2    1    1    2  502    0 -0.81809238154E+01  0.57732333646E+02  0.81499562368E+02  0.10021042126E+03  0.00000000000E+00 0.  1.
         -2    1    1    2    0  502  0.81809238154E+01 -0.57732333646E+02 -0.86665067239E+02  0.10445469708E+03  0.00000000000E+00 0. -1.
</event>
<event>
 4    1  0.5573045E+003  0.3805337E+02  0.7546771E-02  0.1360287E+00
          2   -1    0    0  501    0  0.00000000000E+00  0.00000000000E+00  0.34361850645E+02  0.34361850645E+02  0.00000000000E+00 0.  1.
         -2   -1    0    0    0  501 -0.00000000000E+00 -0.00000000000E+00 -0.30303481938E+03  0.30303481938E+03  0.00000000000E+00 0. -1.
          2    1    1    2  502    0 -0.31916831386E+01 -0.37919286194E+02  0.22192954731E+02  0.44052086743E+02  0.00000000000E+00 0.  1.
         -2    1    1    2    0  502  0.31916831386E+01  0.37919286194E+02 -0.29086592346E+03  0.29334458328E+03  0.00000000000E+00 0. -1.
</event>
<event>
 4    1  0.5573045E+003  0.3035378E+02  0.7546771E-02  0.1416546E+00
          2   -1    0    0  501    0  0.00000000000E+00  0.00000000000E+00  0.52120372924E+03  0.52120372924E+03  0.00000000000E+00 0.  1.
         -2   -1    0    0    0  501 -0.00000000000E+00 -0.00000000000E+00 -0.50585495858E+02  0.50585495858E+02  0.00000000000E+00 0.  1.
          2    1    1    2  502    0 -0.26175082435E+02  0.15369361385E+02  0.51616393265E+03  0.51705566198E+03  0.00000000000E+00 0.  1.
         -2    1    1    2    0  502  0.26175082435E+02 -0.15369361385E+02 -0.45545699271E+02  0.54733563121E+02  0.00000000000E+00 0.  1.
</event>
<event>
 4    1  0.5573045E+003  0.2479244E+02  0.7546771E-02  0.1471139E+00
          2   -1    0    0  501    0  0.00000000000E+00  0.00000000000E+00  0.12967255286E+04  0.12967255286E+04  0.00000000000E+00 0. -1.
         -2   -1    0    0    0  501 -0.00000000000E+00 -0.00000000000E+00 -0.67088143785E+00  0.67088143785E+00  0.00000000000E+00 0.  1.
          2    1    1    2  502    0 -0.18263941360E+02 -0.16765843877E+02  0.99943204018E+03  0.99973950008E+03  0.00000000000E+00 0. -1.
         -2    1    1    2    0  502  0.18263941360E+02  0.16765843877E+02  0.29662260702E+03  0.29765691000E+03  0.00000000000E+00 0.  1.
</event>
<event>
 4    1  0.5573045E+003  0.3252344E+02  0.7546771E-02  0.1398863E+00
          2   -1    0    0  501    0  0.00000000000E+00  0.00000000000E+00  0.14241564809E+03  0.14241564809E+03  0.00000000000E+00 0.  1.
         -2   -1    0    0    0  501 -0.00000000000E+00 -0.00000000000E+00 -0.15132730660E+02  0.15132730660E+02  0.00000000000E+00 0.  1.
          2    1    1    2  502    0 -0.40955477970E+01 -0.32264539620E+02  0.11985251089E+03  0.12418694937E+03  0.00000000000E+00 0.  1.
         -2    1    1    2    0  502  0.40955477970E+01  0.32264539620E+02  0.74304065421E+01  0.33361429377E+02  0.00000000000E+00 0.  1.
</event>
<event>
 4    1  0.5573045E+003  0.2098214E+02  0.7546771E-02  0.1519520E+00
          2   -1    0    0  501    0  0.00000000000E+00  0.00000000000E+00  0.23498666984E+03  0.23498666984E+03  0.00000000000E+00 0.  1.
         -2   -1    0    0    0  501 -0.00000000000E+00 -0.00000000000E+00 -0.31663225560E+02  0.31663225560E+02  0.00000000000E+00 0.  1.
          2    1    1    2  502    0  0.19182229179E+02 -0.85024981067E+01  0.23098211251E+03  0.23193315134E+03  0.00000000000E+00 0.  1.
         -2    1    1    2    0  502 -0.19182229179E+02  0.85024981067E+01 -0.27658668227E+02  0.34716744065E+02  0.00000000000E+00 0.  1.
</event>
<event>
 4    1  0.5573045E+003  0.2392836E+02  0.7546771E-02  0.1481158E+00
          2   -1    0    0  501    0  0.00000000000E+00  0.00000000000E+00  0.10143717571E+02  0.10143717571E+02  0.00000000000E+00 0. -1.
         -2   -1    0    0    0  501 -0.00000000000E+00 -0.00000000000E+00 -0.12982236228E+03  0.12982236228E+03  0.00000000000E+00 0.  1.
          2    1    1    2  502    0  0.16910313736E+02 -0.16929490787E+02 -0.72257411607E+01  0.24995553691E+02  0.00000000000E+00 0. -1.
         -2    1    1    2    0  502 -0.16910313736E+02  0.16929490787E+02 -0.11245290355E+03  0.11497052616E+03  0.00000000000E+00 0.  1.
</event>
<event>
 4    1  0.5573045E+003  0.2035940E+02  0.7546771E-02  0.1528611E+00
          2   -1    0    0  501    0  0.00000000000E+00  0.00000000000E+00  0.20263891242E+03  0.20263891242E+03  0.00000000000E+00 0. -1.
         -2   -1    0    0    0  501 -0.00000000000E+00 -0.00000000000E+00 -0.41666040036E+03  0.41666040036E+03  0.00000000000E+00 0.  1.
          2    1    1    2  502    0  0.75463989437E+01 -0.18909182416E+02  0.20187788615E+03  0.20290191283E+03  0.00000000000E+00 0. -1.
         -2    1    1    2    0  502 -0.75463989437E+01  0.18909182416E+02 -0.41589937408E+03  0.41639739994E+03  0.00000000000E+00 0.  1.
</event>
<event>
 4    1  0.5573045E+003  0.2348783E+02  0.7546771E-02  0.1486462E+00
          2   -1    0    0  501    0  0.00000000000E+00  0.00000000000E+00  0.91784577717E+03  0.91784577717E+03  0.00000000000E+00 0.  1.
         -2   -1    0    0    0  501 -0.00000000000E+00 -0.00000000000E+00 -0.10517585080E+01  0.10517585080E+01  0.00000000000E+00 0. -1.
          2    1    1    2  502    0 -0.19808015933E+02  0.12622237602E+02  0.75915916380E+03  0.75952242519E+03  0.00000000000E+00 0.  1.
         -2    1    1    2    0  502  0.19808015933E+02 -0.12622237602E+02  0.15763485486E+03  0.15937511049E+03  0.00000000000E+00 0. -1.
</event>
<event>
 4    1  0.5573045E+003  0.2655580E+02  0.7546771E-02  0.1452122E+00
          2   -1    0    0  501    0  0.00000000000E+00  0.00000000000E+00  0.87069480597E+01  0.87069480597E+01  0.00000000000E+00 0.  1.
         -2   -1    0    0    0  501 -0.00000000000E+00 -0.00000000000E+00 -0.16586085227E+03  0.16586085227E+03  0.00000000000E+00 0.  1.
          2    1    1    2  502    0 -0.17099027116E+02  0.20318308504E+02 -0.16141495455E+02  0.31076651433E+02  0.00000000000E+00 0.  1.
         -2    1    1    2    0  502  0.17099027116E+02 -0.20318308504E+02 -0.14101240876E+03  0.14349114890E+03  0.00000000000E+00 0.  1.
</event>
<event>
 4    1  0.5573045E+003  0.2389687E+02  0.7546771E-02  0.1481533E+00
          2   -1    0    0  501    0  0.00000000000E+00  0.00000000000E+00  0.15989154880E+04  0.15989154880E+04  0.00000000000E+00 0.  1.
         -2   -1    0    0    0  501 -0.00000000000E+00 -0.00000000000E+00 -0.40680543954E+00  0.40680543954E+00  0.00000000000E+00 0. -1.
          2    1    1    2  502    0  0.77761751788E+00 -0.23884215378E+02  0.10786211403E+04  0.10788858257E+04  0.00000000000E+00 0. -1.
         -2    1    1    2    0  502 -0.77761751788E+00  0.23884215378E+02  0.51988754221E+03  0.52043646776E+03  0.00000000000E+00 0.  1.
</event>
<event>
 4    1  0.5573045E+003  0.3673092E+02  0.7546771E-02  0.1368786E+00
          2   -1    0    0  501    0  0.00000000000E+00  0.00000000000E+00  0.68732617723E+03  0.68732617723E+03  0.00000000000E+00 0. -1.
         -2   -1    0    0    0  501 -0.00000000000E+00 -0.00000000000E+00 -0.29524263945E+01  0.29524263945E+01  0.00000000000E+00 0.  1.
          2    1    1    2  502    0  0.12068820836E+02  0.34691557050E+02  0.54199631861E+03  0.54323951435E+03  0.00000000000E+00 0. -1.
         -2    1    1    2    0  502 -0.12068820836E+02 -0.34691557050E+02  0.14237743223E+03  0.14703908928E+03  0.00000000000E+00 0.  1.
</event>
<event>
 4    1  0.5573045E+003  0.2755902E+02  0.7546771E-02  0.1442072E+00
          2   -1    0    0  501    0  0.00000000000E+00  0.00000000000E+00  0.12046847982E+04  0.12046847982E+04  0.00000000000E+00 0.  1.
         -2   -1    0    0    0  501 -0.00000000000E+00 -0.00000000000E+00 -0.71271937731E+00  0.71271937731E+00  0.00000000000E+00 0.  1.
          2    1    1    2  502    0  0.27502934210E+02 -0.17570867098E+01  0.39722435319E+03  0.39817921280E+03  0.00000000000E+00 0.  1.
         -2    1    1    2    0  502 -0.27502934210E+02  0.17570867098E+01  0.80674772565E+03  0.80721830479E+03  0.00000000000E+00 0.  1.
</event>
<event>
 4    1  0.5573045E+003  0.2032790E+02  0.7546771E-02  0.1529081E+00
          2   -1    0    0  501    0  0.00000000000E+00  0.00000000000E+00  0.11284145367E+04  0.11284145367E+04  0.00000000000E+00 0. -1.
         -2   -1    0    0    0  501 -0.00000000000E+00 -0.00000000000E+00 -0.93245542736E+00  0.93245542736E+00  0.00000000000E+00 0. -1.
          2    1    1    2  502    0  0.60777782551E+01  0.19398048746E+02  0.10037789945E+04  0.10039848073E+04  0.00000000000E+00 0. -1.
         -2    1    1    2    0  502 -0.60777782551E+01 -0.19398048746E+02  0.12370308685E+03  0.12536218481E+03  0.00000000000E+00 0. -1.
</event>
<event>
 4    1  0.5573045E+003  0.2758990E+02  0.7546771E-02  0.1441771E+00
          2   -1    0    0  501    0  0.00000000000E+00  0.00000000000E+00  0.10299660391E+03  0.10299660391E+03  0.00000000000E+00 0.  1.
         -2   -1    0    0    0  501 -0.00000000000E+00 -0.00000000000E+00 -0.28678222322E+02  0.28678222322E+02  0.00000000000E+00 0. -1.
          2    1    1    2  502    0 -0.18769237093E+02 -0.20221722724E+02  0.93882381958E+02  0.97852460231E+02  0.00000000000E+00 0.  1.
         -2    1    1    2    0  502  0.18769237093E+02  0.20221722724E+02 -0.19564000375E+02  0.33822365998E+02  0.00000000000E+00 0. -1.
</event>
<event>
 4    1  0.5573045E+003  0.2242673E+02  0.7546771E-02  0.1499825E+00
          2   -1    0    0  501    0  0.00000000000E+00  0.00000000000E+00  0.70450565373E+03  0.70450565373E+03  0.00000000000E+00 0. -1.
         -2   -1    0    0    0  501 -0.00000000000E+00 -0.00000000000E+00 -0.21711408454E+01  0.21711408454E+01  0.00000000000E+00 0. -1.
          2    1    1    2  502    0 -0.18174894193E+02 -0.13138926355E+02  0.64064158466E+03  0.64103400703E+03  0.00000000000E+00 0. -1.
         -2    1    1    2    0  502  0.18174894193E+02  0.13138926355E+02  0.61692928226E+02  0.65642787554E+02  0.00000000000E+00 0. -1.
</event>
<event>
 4    1  0.5573045E+003  0.2234983E+02  0.7546771E-02  0.1500828E+00
          2   -1    0    0  501    0  0.00000000000E+00  0.00000000000E+00  0.22886265602E+02  0.22886265602E+02  0.00000000000E+00 0.  1.
         -2   -1    0    0    0  501 -0.00000000000E+00 -0.00000000000E+00 -0.25193783321E+03  0.25193783321E+03  0.00000000000E+00 0. -1.
          2    1    1    2  502    0  0.51208674446E+01  0.21755271350E+02  0.16799279683E+02  0.27959451224E+02  0.00000000000E+00 0.  1.
         -2    1    1    2    0  502 -0.51208674446E+01 -0.21755271350E+02 -0.24585084729E+03  0.24686464759E+03  0.00000000000E+00 0. -1.
</event>
<event>
 4    1  0.5573045E+003  0.3039129E+02  0.7546771E-02  0.1416226E+00
          2   -1    0    0  501    0  0.00000000000E+00  0.00000000000E+00  0.76775684814E+01  0.76775684814E+01  0.00000000000E+00 0.  1.
         -2   -1    0    0    0  501 -0.00000000000E+00 -0.00000000000E+00 -0.74849116911E+03  0.74849116911E+03  0.00000000000E+00 0. -1.
          2    1    1    2  502    0  0.56551869203E+01  0.29860498428E+02 -0.24036664831E+02  0.38747796862E+02  0.00000000000E+00 0.  1.
         -2    1    1    2    0  502 -0.56551869203E+01 -0.29860498428E+02 -0.71677693580E+03  0.71742094073E+03  0.00000000000E+00 0. -1.
</event>
<event>
 4    1  0.5573045E+003  0.2225496E+02  0.7546771E-02  0.1502072E+00
          2   -1    0    0  501    0  0.00000000000E+00  0.00000000000E+00  0.53190777217E+03  0.53190777217E+03  0.00000000000E+00 0.  1.
         -2   -1    0    0    0  501 -0.00000000000E+00 -0.00000000000E+00 -0.10756432576E+02  0.10756432576E+02  0.00000000000E+00 0.  1.
          2    1    1    2  502    0 -0.21755465767E+02 -0.46885923150E+01  0.51989786457E+03  0.52037397396E+03  0.00000000000E+00 0.  1.
         -2    1    1    2    0  502  0.21755465767E+02  0.46885923150E+01  0.12534750164E+01  0.22290230780E+02  0.00000000000E+00 0.  1.
</event>
<event>
 4    1  0.5573045E+003  0.3047139E+02  0.7546771E-02  0.1415543E+00
          2   -1    0    0  501    0  0.00000000000E+00  0.00000000000E+00  0.16858707963E+03  0.16858707963E+03  0.00000000000E+00 0. -1.
         -2   -1    0    0    0  501 -0.00000000000E+00 -0.00000000000E+00 -0.15817723650E+02  0.15817723650E+02  0.00000000000E+00 0. -1.
          2    1    1    2  502    0  0.15329425116E+02  0.26334658792E+02  0.15082406054E+03  0.15387138384E+03  0.00000000000E+00 0. -1.
         -2    1    1    2    0  502 -0.15329425116E+02 -0.26334658792E+02  0.19452954395E+01  0.30533419435E+02  0.00000000000E+00 0. -1.
</event>
<event>
 4    1  0.5573045E+003  0.2243701E+02  0.7546771E-02  0.1499691E+00
          2   -1    0    0  501    0  0.00000000000E+00  0.00000000000E+00  0.18824198657E+03  0.18824198657E+03  0.00000000000E+00 0.  1.
         -2   -1    0    0    0  501 -0.00000000000E+00 -0.00000000000E+00 -0.19000025677E+02  0.19000025677E+02  0.00000000000E+00 0. -1.
          2    1    1    2  502    0  0.22413041797E+02  0.10368999321E+01  0.18067303778E+03  0.18206088593E+03  0.00000000000E+00 0.  1.
         -2    1    1    2    0  502 -0.22413041797E+02 -0.10368999321E+01 -0.11431076885E+02  0.25181126321E+02  0.00000000000E+00 0. -1.
</event>
<event>
 4    1  0.5573045E+003  0.2767213E+02  0.7546771E-02  0.1440971E+00
          2   -1    0    0  501    0  0.00000000000E+00  0.00000000000E+00  0.14187609729E+02  0.14187609729E+02  0.00000000000E+00 0.  1.
         -2   -1    0    0    0  501 -0.00000000000E+00 -0.00000000000E+00 -0.94333933861E+02  0.94333933861E+02  0.00000000000E+00 0.  1.
          2    1    1    2  502    0  0.27268629352E+02 -0.47083698961E+01 -0.45809585177E+01  0.28048744620E+02  0.00000000000E+00 0.  1.
         -2    1    1    2    0  502 -0.27268629352E+02  0.47083698961E+01 -0.75565365614E+02  0.80472798971E+02  0.00000000000E+00 0.  1.
</event>
<event>
 4    1  0.5573045E+003  0.2312935E+02  0.7546771E-02  0.1490880E+00
          2   -1    0    0  501    0  0.00000000000E+00  0.00000000000E+00  0.51569284601E+02  0.51569284601E+02  0.00000000000E+00 0.  1.
         -2   -1    0    0    0  501 -0.00000000000E+00 -0.00000000000E+00 -0.12874752665E+02  0.12874752665E+02  0.00000000000E+00 0. -1.
          2    1    1    2  502    0 -0.20397390340E+02  0.10904739759E+02  0.33548966411E+02  0.40749233479E+02  0.00000000000E+00 0.  1.
         -2    1    1    2    0  502  0.20397390340E+02 -0.10904739759E+02  0.51455655252E+01  0.23694803786E+02  0.00000000000E+00 0. -1.
</event>
<event>
 4    1  0.5573045E+003  0.2067034E+02  0.7546771E-02  0.1524024E+00
          2   -1    0    0  501    0  0.00000000000E+00  0.00000000000E+00  0.54717559339E+03  0.54717559339E+03  0.00000000000E+00 0. -1.
         -2   -1    0    0    0  501 -0.00000000000E+00 -0.00000000000E+00 -0.42554328352E+02  0.42554328352E+02  0.00000000000E+00 0. -1.
          2    1    1    2  502    0  0.30019758696E+01  0.20451186713E+02  0.54445775255E+03  0.54484998597E+03  0.00000000000E+00 0. -1.
         -2    1    1    2    0  502 -0.30019758696E+01 -0.20451186713E+02 -0.39836487517E+02  0.44879935770E+02  0.00000000000E+00 0. -1.
</event>
<event>
 4    1  0.5573045E+003  0.2502001E+02  0.7546771E-02  0.1468580E+00
          2   -1    0    0  501    0  0.00000000000E+00  0.00000000000E+00  0.26282345941E+02  0.26282345941E+02  0.00000000000E+00 0. -1.
         -2   -1    0    0    0  501 -0.00000000000E+00 -0.00000000000E+00 -0.57650944073E+02  0.57650944073E+02  0.00000000000E+00 0. -1.
          2    1    1    2  502    0 -0.36216957016E+01  0.24756493832E+02  0.16464817407E+02  0.29951475403E+02  0.00000000000E+00 0. -1.
         -2    1    1    2    0  502  0.36216957016E+01 -0.24756493832E+02 -0.47833415539E+02  0.53981814611E+02  0.00000000000E+00 0. -1.
</event>
<event>
 4    1  0.5573045E+003  0.2477850E+02  0.7546771E-02  0.1471297E+00
          2   -1    0    0  501    0  0.00000000000E+00  0.00000000000E+00  0.13682950628E+03  0.13682950628E+03  0.00000000000E+00 0. -1.
         -2   -1    0    0    0  501 -0.00000000000E+00 -0.00000000000E+00 -0.51939812390E+02  0.51939812390E+02  0.00000000000E+00 0. -1.
          2    1    1    2  502    0  0.23554968429E+02 -0.76900987787E+01  0.13266042340E+03  0.13495466681E+03  0.00000000000E+00 0. -1.
         -2    1    1    2    0  502 -0.23554968429E+02  0.76900987787E+01 -0.47770729510E+02  0.53814651860E+02  0.00000000000E+00 0. -1.
</event>
<event>
 4    1  0.5573045E+003  0.2230524E+02  0.7546771E-02  0.1501412E+00
          2   -1    0    0  501    0  0.00000000000E+00  0.00000000000E+00  0.83953405723E+03  0.83953405723E+03  0.00000000000E+00 0.  1.
         -2   -1    0    0    0  501 -0.00000000000E+00 -0.00000000000E+00 -0.98853584843E+00  0.98853584843E+00  0.00000000000E+00 0.  1.
          2    1    1    2  502    0 -0.18751902620E+02  0.12078487853E+02  0.68523822677E+03  0.68560116040E+03  0.00000000000E+00 0.  1.
         -2    1    1    2    0  502  0.18751902620E+02 -0.12078487853E+02  0.15330729461E+03  0.15492143267E+03  0.00000000000E+00 0.  1.
</event>
<event>
 4    1  0.5573045E+003  0.2538808E+02  0.7546771E-02  0.1464508E+00
          2   -1    0    0  501    0  0.00000000000E+00  0.00000000000E+00  0.67031660086E+03  0.67031660086E+03  0.00000000000E+00 0.  1.
         -2   -1    0    0    0  501 -0.00000000000E+00 -0.00000000000E+00 -0.18551321311E+01  0.18551321311E+01  0.00000000000E+00 0. -1.
          2    1    1    2  502    0  0.16991690484E+02  0.18863639538E+02  0.56748300977E+03  0.56805063227E+03  0.00000000000E+00 0.  1.
         -2    1    1    2    0  502 -0.16991690484E+02 -0.18863639538E+02  0.10097845896E+03  0.10412110072E+03  0.00000000000E+00 0. -1.
</event>
<event>
 4    1  0.5573045E+003  0.2080483E+02  0.7546771E-02  0.1522070E+00
          2   -1    0    0  501    0  0.00000000000E+00  0.00000000000E+00  0.91651897965E+02  0.91651897965E+02  0.00000000000E+00 0.  1.
         -2   -1    0    0    0  501 -0.00000000000E+00 -0.00000000000E+00 -0.23598004252E+02  0.23598004252E+02  0.00000000000E+00 0. -1.
          2    1    1    2  502    0 -0.12960943166E+02 -0.16274362416E+02  0.85564091341E+02  0.88057110144E+02  0.00000000000E+00 0.  1.
         -2    1    1    2    0  502  0.12960943166E+02  0.16274362416E+02 -0.17510197628E+02  0.27192792074E+02  0.00000000000E+00 0. -1.
</event>
<event>
 4    1  0.5747682E+003  0.2224016E+02  0.7546771E-02  0.1502266E+00
          2   -1    0    0  501    0  0.00000000000E+00  0.00000000000E+00  0.12353794110E+04  0.12353794110E+04  0.00000000000E+00 0. -1.
         -2   -1    0    0    0  501 -0.00000000000E+00 -0.00000000000E+00 -0.83046405754E+02  0.83046405754E+02  0.00000000000E+00 0. -1.
          2    1    1    2  502    0  0.18295346108E+02  0.12645355984E+02  0.12337883943E+04  0.12339888276E+04  0.00000000000E+00 0. -1.
         -2    1    1    2    0  502 -0.18295346108E+02 -0.12645355984E+02 -0.81455389101E+02  0.84436989114E+02  0.00000000000E+00 0. -1.
</event>
<event>
 4    1  0.5573045E+003  0.2070717E+02  0.7546771E-02  0.1523487E+00
          2   -1    0    0  501    0  0.00000000000E+00  0.00000000000E+00  0.44922931983E+03  0.44922931983E+03  0.00000000000E+00 0. -1.
         -2   -1    0    0    0  501 -0.00000000000E+00 -0.00000000000E+00 -0.32104108002E+01  0.32104108002E+01  0.00000000000E+00 0. -1.
          2    1    1    2  502    0  0.14279113061E+02  0.14996460400E+02  0.41264158800E+03  0.41316082467E+03  0.00000000000E+00 0. -1.
         -2    1    1    2    0  502 -0.14279113061E+02 -0.14996460400E+02  0.33377321030E+02  0.39278905961E+02  0.00000000000E+00 0. -1.
</event>
<event>
 4    1  0.5573045E+003  0.2840617E+02  0.7546771E-02  0.1433972E+00
          2   -1    0    0  501    0  0.00000000000E+00  0.00000000000E+00  0.76007730804E+03  0.76007730804E+03  0.00000000000E+00 0.  1.
         -2   -1    0    0    0  501 -0.00000000000E+00 -0.00000000000E+00 -0.23873649046E+01  0.23873649046E+01  0.00000000000E+00 0. -1.
          2    1    1    2  502    0 -0.19959332487E+02  0.20212255423E+02  0.66293825653E+03  0.66354656370E+03  0.00000000000E+00 0.  1.
         -2    1    1    2    0  502  0.19959332487E+02 -0.20212255423E+02  0.94751686603E+02  0.98918109246E+02  0.00000000000E+00 0. -1.
</event>
<event>
 4    1  0.5573045E+003  0.4294015E+02  0.7546771E-02  0.1332068E+00
          2   -1    0    0  501    0  0.00000000000E+00  0.00000000000E+00  0.13140656861E+04  0.13140656861E+04  0.00000000000E+00 0. -1.
         -2   -1    0    0    0  501 -0.00000000000E+00 -0.00000000000E+00 -0.35016312073E+01  0.35016312073E+01  0.00000000000E+00 0. -1.
          2    1    1    2  502    0  0.14656479695E+02 -0.40361416250E+02  0.11652679464E+04  0.11660588507E+04  0.00000000000E+00 0. -1.
         -2    1    1    2    0  502 -0.14656479695E+02  0.40361416250E+02  0.14529610842E+03  0.15150846656E+03  0.00000000000E+00 0. -1.
</event>
<event>
 4    1  0.5573045E+003  0.2548948E+02  0.7546771E-02  0.1463401E+00
          2   -1    0    0  501    0  0.00000000000E+00  0.00000000000E+00  0.10203970749E+04  0.10203970749E+04  0.00000000000E+00 0. -1.
         -2   -1    0    0    0  501 -0.00000000000E+00 -0.00000000000E+00 -0.23776332481E+01  0.23776332481E+01  0.00000000000E+00 0. -1.
          2    1    1    2  502    0  0.20666804633E+02  0.14919683236E+02  0.94659763419E+03  0.94694075571E+03  0.00000000000E+00 0. -1.
         -2    1    1    2    0  502 -0.20666804633E+02 -0.14919683236E+02  0.71421807419E+02  0.75833952400E+02  0.00000000000E+00 0. -1.
</event>
<event>
 4    1  0.5573045E+003  0.2786739E+02  0.7546771E-02  0.1439084E+00
          2   -1    0    0  501    0  0.00000000000E+00  0.00000000000E+00  0.66735294338E+03  0.66735294338E+03  0.00000000000E+00 0. -1.
         -2   -1    0    0    0  501 -0.00000000000E+00 -0.00000000000E+00 -0.65847272214E+01  0.65847272214E+01  0.00000000000E+00 0. -1.
          2    1    1    2  502    0  0.12594843627E+02  0.24858826395E+02  0.63613101612E+03  0.63674112558E+03  0.00000000000E+00 0. -1.
         -2    1    1    2    0  502 -0.12594843627E+02 -0.24858826395E+02  0.24637200038E+02  0.37196545020E+02  0.00000000000E+00 0. -1.
</event>
<event>
 4    1  0.5573045E+003  0.2035700E+02  0.7546771E-02  0.1528646E+00
          2   -1    0    0  501    0  0.00000000000E+00  0.00000000000E+00  0.62597740714E+03  0.62597740714E+03  0.00000000000E+00 0.  1.
         -2   -1    0    0    0  501 -0.00000000000E+00 -0.00000000000E+00 -0.68352166541E+00  0.68352166541E+00  0.00000000000E+00 0. -1.
          2    1    1    2  502    0  0.11572125775E+02  0.16747938890E+02  0.36822392639E+03  0.36878620842E+03  0.00000000000E+00 0. -1.
         -2    1    1    2    0  502 -0.11572125775E+02 -0.16747938890E+02  0.25706995908E+03  0.25787472038E+03  0.00000000000E+00 0.  1.
</event>
<event>
 4    1  0.5573045E+003  0.2677930E+02  0.7546771E-02  0.1449838E+00
          2   -1    0    0  501    0  0.00000000000E+00  0.00000000000E+00  0.55877813593E+03  0.55877813593E+03  0.00000000000E+00 0. -1.
         -2   -1    0    0    0  501 -0.00000000000E+00 -0.00000000000E+00 -0.12943079695E+01  0.12943079695E+01  0.00000000000E+00 0. -1.
          2    1    1    2  502    0  0.26778790064E+02 -0.16547085338E+00  0.30446015157E+03  0.30563559163E+03  0.00000000000E+00 0. -1.
         -2    1    1    2    0  502 -0.26778790064E+02  0.16547085338E+00  0.25302367639E+03  0.25443685226E+03  0.00000000000E+00 0. -1.
</event>
<event>
 4    1  0.5573045E+003  0.2041072E+02  0.7546771E-02  0.1527847E+00
          2   -1    0    0  501    0  0.00000000000E+00  0.00000000000E+00  0.61915113899E+01  0.61915113899E+01  0.00000000000E+00 0. -1.
         -2   -1    0    0    0  501 -0.00000000000E+00 -0.00000000000E+00 -0.18926397866E+03  0.18926397866E+03  0.00000000000E+00 0. -1.
          2    1    1    2  502    0  0.19330010739E+02  0.65534984870E+01 -0.13080286430E+02  0.24242350354E+02  0.00000000000E+00 0. -1.
         -2    1    1    2    0  502 -0.19330010739E+02 -0.65534984870E+01 -0.16999218084E+03  0.17121313969E+03  0.00000000000E+00 0. -1.
</event>
<event>
 4    1  0.5573045E+003  0.2065975E+02  0.7546771E-02  0.1524179E+00
          2   -1    0    0  501    0  0.00000000000E+00  0.00000000000E+00  0.12658102212E+04  0.12658102212E+04  0.00000000000E+00 0. -1.
         -2   -1    0    0    0  501 -0.00000000000E+00 -0.00000000000E+00 -0.86959701808E+00  0.86959701808E+00  0.00000000000E+00 0.  1.
          2    1    1    2  502    0 -0.10373134675E+02 -0.17866826399E+02  0.11280317562E+04  0.11282209307E+04  0.00000000000E+00 0. -1.
         -2    1    1    2    0  502  0.10373134675E+02  0.17866826399E+02  0.13690886794E+03  0.13845888751E+03  0.00000000000E+00 0.  1.
</event>
<event>
 4    1  0.5573045E+003  0.2537805E+02  0.7546771E-02  0.1464618E+00
          2   -1    0    0  501    0  0.00000000000E+00  0.00000000000E+00  0.26282199873E+03  0.26282199873E+03  0.00000000000E+00 0.  1.
         -2   -1    0    0    0  501 -0.00000000000E+00 -0.00000000000E+00 -0.30091083575E+01  0.30091083575E+01  0.00000000000E+00 0. -1.
          2    1    1    2  502    0  0.25113505719E+02 -0.36547707234E+01  0.18717421805E+03  0.18888682702E+03  0.00000000000E+00 0.  1.
         -2    1    1    2    0  502 -0.25113505719E+02  0.36547707234E+01  0.72638672321E+02  0.76944280068E+02  0.00000000000E+00 0. -1.
</event>
<event>
 4    1  0.5573045E+003  0.3041038E+02  0.7546771E-02  0.1416063E+00
          2   -1    0    0  501    0  0.00000000000E+00  0.00000000000E+00  0.18313283501E+03  0.18313283501E+03  0.00000000000E+00 0.  1.
         -2   -1    0    0    0  501 -0.00000000000E+00 -0.00000000000E+00 -0.50521740053E+01  0.50521740053E+01  0.00000000000E+00 0.  1.
          2    1    1    2  502    0  0.20102745811E+02  0.22818187905E+02  0.87014558259E+02  0.92175503457E+02  0.00000000000E+00 0.  1.
         -2    1    1    2    0  502 -0.20102745811E+02 -0.22818187905E+02  0.91066102744E+02  0.96009505558E+02  0.00000000000E+00 0.  1.
</event>
<event>
 4    1  0.5573045E+003  0.2852317E+02  0.7546771E-02  0.1432880E+00
          2   -1    0    0  501    0  0.00000000000E+00  0.00000000000E+00  0.57333180468E+02  0.57333180468E+02  0.00000000000E+00 0.  1.
         -2   -1    0    0    0  501 -0.00000000000E+00 -0.00000000000E+00 -0.46771374942E+02  0.46771374942E+02  0.00000000000E+00 0. -1.
          2    1    1    2  502    0  0.28586255750E+01  0.28379561022E+02  0.48725204015E+02  0.56459868316E+02  0.00000000000E+00 0.  1.
         -2    1    1    2    0  502 -0.28586255750E+01 -0.28379561022E+02 -0.38163398489E+02  0.47644687094E+02  0.00000000000E+00 0. -1.
</event>
<event>
 4    1  0.5573045E+003  0.4587728E+02  0.7546771E-02  0.1317110E+00
          2   -1    0    0  501    0  0.00000000000E+00  0.00000000000E+00  0.14943952859E+03  0.14943952859E+03  0.00000000000E+00 0. -1.
         -2   -1    0    0    0  501 -0.00000000000E+00 -0.00000000000E+00 -0.38920146230E+02  0.38920146230E+02  0.00000000000E+00 0.  1.
          2    1    1    2  502    0  0.40546754941E+02 -0.21463585322E+02  0.13049327076E+03  0.13832287788E+03  0.00000000000E+00 0. -1.
         -2    1    1    2    0  502 -0.40546754941E+02  0.21463585322E+02 -0.19973888393E+02  0.50036796947E+02  0.00000000000E+00 0.  1.
</event>
<event>
 4    1  0.5573045E+003  0.4780148E+02  0.7546771E-02  0.1307997E+00
          2   -1    0    0  501    0  0.00000000000E+00  0.00000000000E+00  0.30734569916E+04  0.30734569916E+04  0.00000000000E+00 0.  1.
         -2   -1    0    0    0  501 -0.00000000000E+00 -0.00000000000E+00 -0.54607207815E+01  0.54607207815E+01  0.00000000000E+00 0.  1.
          2    1    1    2  502    0 -0.21613475891E+01 -0.47752591762E+02  0.29648286944E+04  0.29652140174E+04  0.00000000000E+00 0.  1.
         -2    1    1    2    0  502  0.21613475891E+01  0.47752591762E+02  0.10316757639E+03  0.11370369502E+03  0.00000000000E+00 0.  1.
</event>
<event>
 4    1  0.5573045E+003  0.2090791E+02  0.7546771E-02  0.1520584E+00
          2   -1    0    0  501    0  0.00000000000E+00  0.00000000000E+00  0.76118759361E+01  0.76118759361E+01  0.00000000000E+00 0. -1.
         -2   -1    0    0    0  501 -0.00000000000E+00 -0.00000000000E+00 -0.19692282125E+03  0.19692282125E+03  0.00000000000E+00 0. -1.
          2    1    1    2  502    0  0.20090635638E+02 -0.57885136041E+01 -0.85824915762E+01  0.22600878119E+02  0.00000000000E+00 0. -1.
         -2    1    1    2    0  502 -0.20090635638E+02  0.57885136041E+01 -0.18072845374E+03  0.18193381907E+03  0.00000000000E+00 0. -1.
</event>
<event>
 4    1  0.5573045E+003  0.6113275E+02  0.7546771E-02  0.1256032E+00
          2   -1    0    0  501    0  0.00000000000E+00  0.00000000000E+00  0.10160541041E+04  0.10160541041E+04  0.00000000000E+00 0. -1.
         -2   -1    0    0    0  501 -0.00000000000E+00 -0.00000000000E+00 -0.29079968269E+02  0.29079968269E+02  0.00000000000E+00 0. -1.
          2    1    1    2  502    0 -0.56462535424E+02 -0.23434910129E+02  0.98188895713E+03  0.98379018955E+03  0.00000000000E+00 0. -1.
         -2    1    1    2    0  502  0.56462535424E+02  0.23434910129E+02  0.50851787214E+01  0.61343882840E+02  0.00000000000E+00 0. -1.
</event>
<event>
 4    1  0.5573045E+003  0.2417822E+02  0.7546771E-02  0.1478210E+00
          2   -1    0    0  501    0  0.00000000000E+00  0.00000000000E+00  0.41653286126E+02  0.41653286126E+02  0.00000000000E+00 0. -1.
         -2   -1    0    0    0  501 -0.00000000000E+00 -0.00000000000E+00 -0.67875143557E+02  0.67875143557E+02  0.00000000000E+00 0.  1.
          2    1    1    2  502    0 -0.12046294187E+02 -0.20963609083E+02  0.35663962490E+02  0.43087171291E+02  0.00000000000E+00 0. -1.
         -2    1    1    2    0  502  0.12046294187E+02  0.20963609083E+02 -0.61885819920E+02  0.66441258391E+02  0.00000000000E+00 0.  1.
</event>
<event>
 4    1  0.5573045E+003  0.4631824E+02  0.7546771E-02  0.1314976E+00
          2   -1    0    0  501    0  0.00000000000E+00  0.00000000000E+00  0.17005703220E+04  0.17005703220E+04  0.00000000000E+00 0.  1.
         -2   -1    0    0    0  501 -0.00000000000E+00 -0.00000000000E+00 -0.12755768602E+01  0.12755768602E+01  0.00000000000E+00 0.  1.
          2    1    1    2  502    0  0.16572817920E+02  0.43251812803E+02  0.76045933030E+03  0.76186860458E+03  0.00000000000E+00 0.  1.
         -2    1    1    2    0  502 -0.16572817920E+02 -0.43251812803E+02  0.93883541483E+03  0.93997729427E+03  0.00000000000E+00 0.  1.
</event>
<event>
 4    1  0.5573045E+003  0.3525636E+02  0.7546771E-02  0.1378770E+00
          2   -1    0    0  501    0  0.00000000000E+00  0.00000000000E+00  0.72119342819E+03  0.72119342819E+03  0.00000000000E+00 0. -1.
         -2   -1    0    0    0  501 -0.00000000000E+00 -0.00000000000E+00 -0.71352565681E+01  0.71352565681E+01  0.00000000000E+00 0.  1.
          2    1    1    2  502    0 -0.11192220770E+02  0.33432694350E+02  0.67417553819E+03  0.67509678355E+03  0.00000000000E+00 0. -1.
         -2    1    1    2    0  502  0.11192220770E+02 -0.33432694350E+02  0.39882633426E+02  0.53231901208E+02  0.00000000000E+00 0.  1.
</event>
<event>
 4    1  0.5573045E+003  0.3423031E+02  0.7546771E-02  0.1386057E+00
          2   -1    0    0  501    0  0.00000000000E+00  0.00000000000E+00  0.25621025237E+03  0.25621025237E+03  0.00000000000E+00 0.  1.
         -2   -1    0    0    0  501 -0.00000000000E+00 -0.00000000000E+00 -0.45938794690E+01  0.45938794690E+01  0.00000000000E+00 0.  1.
          2    1    1    2  502    0  0.12960780358E+02  0.31681715942E+02  0.11706916723E+03  0.12197090993E+03  0.00000000000E+00 0.  1.
         -2    1    1    2    0  502 -0.12960780358E+02 -0.31681715942E+02  0.13454720567E+03  0.13883322191E+03  0.00000000000E+00 0.  1.
</event>
<event>
 4    1  0.5573045E+003  0.2469834E+02  0.7546771E-02  0.1472206E+00
          2   -1    0    0  501    0  0.00000000000E+00  0.00000000000E+00  0.96439086833E+02  0.96439086833E+02  0.00000000000E+00 0.  1.
         -2   -1    0    0    0  501 -0.00000000000E+00 -0.00000000000E+00 -0.15247418596E+02  0.15247418596E+02  0.00000000000E+00 0.  1.
          2    1    1    2  502    0  0.84994707060E+01 -0.23189805610E+02  0.83313356315E+02  0.86897200340E+02  0.00000000000E+00 0.  1.
         -2    1    1    2    0  502 -0.84994707060E+01  0.23189805610E+02 -0.21216880774E+01  0.24789305089E+02  0.00000000000E+00 0.  1.
</event>
<event>
 4    1  0.5573045E+003  0.3279920E+02  0.7546771E-02  0.1396733E+00
          2   -1    0    0  501    0  0.00000000000E+00  0.00000000000E+00  0.38557736006E+01  0.38557736006E+01  0.00000000000E+00 0. -1.
         -2   -1    0    0    0  501 -0.00000000000E+00 -0.00000000000E+00 -0.28260081019E+03  0.28260081019E+03  0.00000000000E+00 0.  1.
          2    1    1    2  502    0  0.22916213939E+02 -0.23465610011E+02 -0.12322070036E+03  0.12751128857E+03  0.00000000000E+00 0. -1.
         -2    1    1    2    0  502 -0.22916213939E+02  0.23465610011E+02 -0.15552433623E+03  0.15894529522E+03  0.00000000000E+00 0.  1.
</event>
<event>
 4    1  0.5573045E+003  0.3234182E+02  0.7546771E-02  0.1400280E+00
          2   -1    0    0  501    0  0.00000000000E+00  0.00000000000E+00  0.22705447127E+01  0.22705447127E+01  0.00000000000E+00 0. -1.
         -2   -1    0    0    0  501 -0.00000000000E+00 -0.00000000000E+00 -0.85429434873E+03  0.85429434873E+03  0.00000000000E+00 0. -1.
          2    1    1    2  502    0  0.25174384713E+02 -0.20303781537E+02 -0.13530034530E+03  0.13911210094E+03  0.00000000000E+00 0. -1.
         -2    1    1    2    0  502 -0.25174384713E+02  0.20303781537E+02 -0.71672345872E+03  0.71745279250E+03  0.00000000000E+00 0. -1.
</event>
<event>
 4    1  0.5573045E+003  0.3069514E+02  0.7546771E-02  0.1413650E+00
          2   -1    0    0  501    0  0.00000000000E+00  0.00000000000E+00  0.28494153254E+03  0.28494153254E+03  0.00000000000E+00 0. -1.
         -2   -1    0    0    0  501 -0.00000000000E+00 -0.00000000000E+00 -0.17485360452E+02  0.17485360452E+02  0.00000000000E+00 0. -1.
          2    1    1    2  502    0 -0.25021941969E+02 -0.17779040834E+02  0.26989513458E+03  0.27163500427E+03  0.00000000000E+00 0. -1.
         -2    1    1    2    0  502  0.25021941969E+02  0.17779040834E+02 -0.24389624976E+01  0.30791888720E+02  0.00000000000E+00 0. -1.
</event>
<event>
 4    1  0.5573045E+003  0.4690186E+02  0.7546771E-02  0.1312194E+00
          2   -1    0    0  501    0  0.00000000000E+00  0.00000000000E+00  0.23460890180E+04  0.23460890180E+04  0.00000000000E+00 0. -1.
         -2   -1    0    0    0  501 -0.00000000000E+00 -0.00000000000E+00 -0.41755255443E+02  0.41755255443E+02  0.00000000000E+00 0.  1.
          2    1    1    2  502    0 -0.36256415177E+02  0.29753267130E+02  0.23326077916E+04  0.23330792730E+04  0.00000000000E+00 0. -1.
         -2    1    1    2    0  502  0.36256415177E+02 -0.29753267130E+02 -0.28274029114E+02  0.54765000399E+02  0.00000000000E+00 0.  1.
</event>
<event>
 4    1  0.5573045E+003  0.2744956E+02  0.7546771E-02  0.1443144E+00
          2   -1    0    0  501    0  0.00000000000E+00  0.00000000000E+00  0.16204473636E+04  0.16204473636E+04  0.00000000000E+00 0. -1.
         -2   -1    0    0    0  501 -0.00000000000E+00 -0.00000000000E+00 -0.51428861996E+00  0.51428861996E+00  0.00000000000E+00 0. -1.
          2    1    1    2  502    0  0.24639618590E+02  0.12098240387E+02  0.10609202469E+04  0.10612752935E+04  0.00000000000E+00 0. -1.
         -2    1    1    2    0  502 -0.24639618590E+02 -0.12098240387E+02  0.55901282806E+03  0.55968635875E+03  0.00000000000E+00 0. -1.
</event>
<event>
 4    1  0.5573045E+003  0.2015837E+02  0.7546771E-02  0.1531628E+00
          2   -1    0    0  501    0  0.00000000000E+00  0.00000000000E+00  0.21532628228E+02  0.21532628228E+02  0.00000000000E+00 0.  1.
         -2   -1    0    0    0  501 -0.00000000000E+00 -0.00000000000E+00 -0.12387413714E+04  0.12387413714E+04  0.00000000000E+00 0. -1.
          2    1    1    2  502    0 -0.18180770200E+02  0.87074415595E+01  0.16714239807E+02  0.26186365840E+02  0.00000000000E+00 0.  1.
         -2    1    1    2    0  502  0.18180770200E+02 -0.87074415595E+01 -0.12339229830E+04  0.12340876338E+04  0.00000000000E+00 0. -1.
</event>
<event>
 4    1  0.5573045E+003  0.3879507E+02  0.7546771E-02  0.1355695E+00
          2   -1    0    0  501    0  0.00000000000E+00  0.00000000000E+00  0.22033236159E+04  0.22033236159E+04  0.00000000000E+00 0.  1.
         -2   -1    0    0    0  501 -0.00000000000E+00 -0.00000000000E+00 -0.72261693790E+00  0.72261693790E+00  0.00000000000E+00 0.  1.
          2    1    1    2  502    0  0.32724130492E+02  0.20837190370E+02  0.13590577678E+04  0.13596113685E+04  0.00000000000E+00 0.  1.
         -2    1    1    2    0  502 -0.32724130492E+02 -0.20837190370E+02  0.84354323115E+03  0.84443486430E+03  0.00000000000E+00 0.  1.
</event>
<event>
 4    1  0.5573045E+003  0.2068772E+02  0.7546771E-02  0.1523770E+00
          2   -1    0    0  501    0  0.00000000000E+00  0.00000000000E+00  0.10987157527E+03  0.10987157527E+03  0.00000000000E+00 0.  1.
         -2   -1    0    0    0  501 -0.00000000000E+00 -0.00000000000E+00 -0.87395890311E+01  0.87395890311E+01  0.00000000000E+00 0.  1.
          2    1    1    2  502    0  0.20047224807E+02 -0.51078789229E+01  0.94719534182E+02  0.96952420316E+02  0.00000000000E+00 0.  1.
         -2    1    1    2    0  502 -0.20047224807E+02  0.51078789229E+01  0.64124520554E+01  0.21658743983E+02  0.00000000000E+00 0.  1.
</event>
<event>
 4    1  0.5573045E+003  0.2002634E+02  0.7546771E-02  0.1533633E+00
          2   -1    0    0  501    0  0.00000000000E+00  0.00000000000E+00  0.24823263962E+03  0.24823263962E+03  0.00000000000E+00 0.  1.
         -2   -1    0    0    0  501 -0.00000000000E+00 -0.00000000000E+00 -0.32714160381E+01  0.32714160381E+01  0.00000000000E+00 0.  1.
          2    1    1    2  502    0 -0.19500210005E+02 -0.45602667550E+01  0.21194456691E+03  0.21288859450E+03  0.00000000000E+00 0.  1.
         -2    1    1    2    0  502  0.19500210005E+02  0.45602667550E+01  0.33016656673E+02  0.38615461165E+02  0.00000000000E+00 0.  1.
</event>
<event>
 4    1  0.5573045E+003  0.2187344E+02  0.7546771E-02  0.1507151E+00
          2   -1    0    0  501    0  0.00000000000E+00  0.00000000000E+00  0.34077663970E+02  0.34077663970E+02  0.00000000000E+00 0.  1.
         -2   -1    0    0    0  501 -0.00000000000E+00 -0.00000000000E+00 -0.12700910425E+03  0.12700910425E+03  0.00000000000E+00 0.  1.
          2    1    1    2  502    0  0.20098719128E+02  0.86306923045E+01  0.29495592444E+02  0.36721074792E+02  0.00000000000E+00 0.  1.
         -2    1    1    2    0  502 -0.20098719128E+02 -0.86306923045E+01 -0.12242703272E+03  0.12436569343E+03  0.00000000000E+00 0.  1.
</event>
<event>
 4    1  0.5573045E+003  0.2682945E+02  0.7546771E-02  0.1449329E+00
          2   -1    0    0  501    0  0.00000000000E+00  0.00000000000E+00  0.13273531645E+04  0.13273531645E+04  0.00000000000E+00 0. -1.
         -2   -1    0    0    0  501 -0.00000000000E+00 -0.00000000000E+00 -0.26024147994E+01  0.26024147994E+01  0.00000000000E+00 0. -1.
          2    1    1    2  502    0 -0.26616660962E+02  0.33723871417E+01  0.12540254275E+04  0.12543123982E+04  0.00000000000E+00 0. -1.
         -2    1    1    2    0  502  0.26616660962E+02 -0.33723871417E+01  0.70725322187E+02  0.75643181016E+02  0.00000000000E+00 0. -1.
</event>
<event>
 4    1  0.5573045E+003  0.2580670E+02  0.7546771E-02  0.1459978E+00
          2   -1    0    0  501    0  0.00000000000E+00  0.00000000000E+00  0.23272810873E+03  0.23272810873E+03  0.00000000000E+00 0.  1.
         -2   -1    0    0    0  501 -0.00000000000E+00 -0.00000000000E+00 -0.98922132142E+02  0.98922132142E+02  0.00000000000E+00 0. -1.
          2    1    1    2  502    0  0.22127049405E+01 -0.25711663145E+02  0.23031198935E+03  0.23175331308E+03  0.00000000000E+00 0.  1.
         -2    1    1    2    0  502 -0.22127049405E+01  0.25711663145E+02 -0.96506012758E+02  0.99896927797E+02  0.00000000000E+00 0. -1.
</event>
<event>
 4    1  0.5573045E+003  0.3085547E+02  0.7546771E-02  0.1412305E+00
          2   -1    0    0  501    0  0.00000000000E+00  0.00000000000E+00  0.16410742346E+04  0.16410742346E+04  0.00000000000E+00 0. -1.
         -2   -1    0    0    0  501 -0.00000000000E+00 -0.00000000000E+00 -0.22482364314E+02  0.22482364314E+02  0.00000000000E+00 0.  1.
          2    1    1    2  502    0  0.13578102100E+02  0.27707317162E+02  0.16302723131E+04  0.16305642812E+04  0.00000000000E+00 0. -1.
         -2    1    1    2    0  502 -0.13578102100E+02 -0.27707317162E+02 -0.11680442842E+02  0.32992317680E+02  0.00000000000E+00 0.  1.
</event>
<event>
 4    1  0.5573045E+003  0.2650830E+02  0.7546771E-02  0.1452611E+00
          2   -1    0    0  501    0  0.00000000000E+00  0.00000000000E+00  0.54280388687E+03  0.54280388687E+03  0.00000000000E+00 0. -1.
         -2   -1    0    0    0  501 -0.00000000000E+00 -0.00000000000E+00 -0.20608024415E+02  0.20608024415E+02  0.00000000000E+00 0.  1.
          2    1    1    2  502    0 -0.10202017386E+02 -0.24466483145E+02  0.53381227880E+03  0.53447005431E+03  0.00000000000E+00 0. -1.
         -2    1    1    2    0  502  0.10202017386E+02  0.24466483145E+02 -0.11616416348E+02  0.28941856972E+02  0.00000000000E+00 0.  1.
</event>
<event>
 4    1  0.5573045E+003  0.2352687E+02  0.7546771E-02  0.1485986E+00
          2   -1    0    0  501    0  0.00000000000E+00  0.00000000000E+00  0.65940560061E+03  0.65940560061E+03  0.00000000000E+00 0. -1.
         -2   -1    0    0    0  501 -0.00000000000E+00 -0.00000000000E+00 -0.85336428108E+00  0.85336428108E+00  0.00000000000E+00 0. -1.
          2    1    1    2  502    0  0.23351020083E+02  0.28711770229E+01  0.37148659695E+03  0.37223084975E+03  0.00000000000E+00 0. -1.
         -2    1    1    2    0  502 -0.23351020083E+02 -0.28711770229E+01  0.28706563938E+03  0.28802811514E+03  0.00000000000E+00 0. -1.
</event>
<event>
 4    1  0.5573045E+003  0.2748545E+02  0.7546771E-02  0.1442792E+00
          2   -1    0    0  501    0  0.00000000000E+00  0.00000000000E+00  0.64701417558E+03  0.64701417558E+03  0.00000000000E+00 0. -1.
         -2   -1    0    0    0  501 -0.00000000000E+00 -0.00000000000E+00 -0.45597314737E+02  0.45597314737E+02  0.00000000000E+00 0.  1.
          2    1    1    2  502    0  0.18798273521E+02 -0.20051808428E+02  0.64255155756E+03  0.64313914064E+03  0.00000000000E+00 0. -1.
         -2    1    1    2    0  502 -0.18798273521E+02  0.20051808428E+02 -0.41134696714E+02  0.49472349675E+02  0.00000000000E+00 0.  1.
</event>
<event>
 4    1  0.5573045E+003  0.3714693E+02  0.7546771E-02  0.1366068E+00
          2   -1    0    0  501    0  0.00000000000E+00  0.00000000000E+00  0.21589403859E+04  0.21589403859E+04  0.00000000000E+00 0. -1.
         -2   -1    0    0    0  501 -0.00000000000E+00 -0.00000000000E+00 -0.89031624141E+00  0.89031624141E+00  0.00000000000E+00 0.  1.
          2    1    1    2  502    0 -0.14615257471E+02  0.34150969036E+02  0.16526065155E+04  0.16530239531E+04  0.00000000000E+00 0. -1.
         -2    1    1    2    0  502  0.14615257471E+02 -0.34150969036E+02  0.50544355409E+03  0.50680674897E+03  0.00000000000E+00 0.  1.
</event>
<event>
 4    1  0.5573045E+003  0.2494409E+02  0.7546771E-02  0.1469430E+00
          2   -1    0    0  501    0  0.00000000000E+00  0.00000000000E+00  0.18360455334E+04  0.18360455334E+04  0.00000000000E+00 0. -1.
         -2   -1    0    0    0  501 -0.00000000000E+00 -0.00000000000E+00 -0.96248547237E+00  0.96248547237E+00  0.00000000000E+00 0. -1.
          2    1    1    2  502    0  0.21333072672E+02  0.12927016653E+02  0.16568697472E+04  0.16570575026E+04  0.00000000000E+00 0. -1.
         -2    1    1    2    0  502 -0.21333072672E+02 -0.12927016653E+02  0.17821330076E+03  0.17995051630E+03  0.00000000000E+00 0. -1.
</event>
<event>
 4    1  0.5573045E+003  0.2050096E+02  0.7546771E-02  0.1526510E+00
          2   -1    0    0  501    0  0.00000000000E+00  0.00000000000E+00  0.23530534765E+03  0.23530534765E+03  0.00000000000E+00 0. -1.
         -2   -1    0    0    0  501 -0.00000000000E+00 -0.00000000000E+00 -0.19666610763E+03  0.19666610763E+03  0.00000000000E+00 0. -1.
          2    1    1    2  502    0 -0.87345871090E+01  0.18547141732E+02  0.23432230647E+03  0.23521741600E+03  0.00000000000E+00 0. -1.
         -2    1    1    2    0  502  0.87345871090E+01 -0.18547141732E+02 -0.19568306645E+03  0.19675403928E+03  0.00000000000E+00 0. -1.
</event>
<event>
 4    1  0.5573045E+003  0.2318276E+02  0.7546771E-02  0.1490216E+00
          2   -1    0    0  501    0  0.00000000000E+00  0.00000000000E+00  0.27699070978E+01  0.27699070978E+01  0.00000000000E+00 0. -1.
         -2   -1    0    0    0  501 -0.00000000000E+00 -0.00000000000E+00 -0.66178842904E+03  0.66178842904E+03  0.00000000000E+00 0. -1.
          2    1    1    2  502    0 -0.22682916411E+02  0.47880711991E+01 -0.50155104758E+02  0.55253731603E+02  0.00000000000E+00 0. -1.
         -2    1    1    2    0  502  0.22682916411E+02 -0.47880711991E+01 -0.60886341719E+03  0.60930460454E+03  0.00000000000E+00 0. -1.
</event>
<event>
 4    1  0.5573045E+003  0.2212257E+02  0.7546771E-02  0.1503820E+00
          2   -1    0    0  501    0  0.00000000000E+00  0.00000000000E+00  0.38124751894E+03  0.38124751894E+03  0.00000000000E+00 0.  1.
         -2   -1    0    0    0  501 -0.00000000000E+00 -0.00000000000E+00 -0.40095067851E+02  0.40095067851E+02  0.00000000000E+00 0.  1.
          2    1    1    2  502    0 -0.19514029991E+02 -0.10421651221E+02  0.37784761030E+03  0.37849468264E+03  0.00000000000E+00 0.  1.
         -2    1    1    2    0  502  0.19514029991E+02  0.10421651221E+02 -0.36695159208E+02  0.42847904149E+02  0.00000000000E+00 0.  1.
</event>
<event>
 4    1  0.5573045E+003  0.2546830E+02  0.7546771E-02  0.1463632E+00
          2   -1    0    0  501    0  0.00000000000E+00  0.00000000000E+00  0.66696472162E+03  0.66696472162E+03  0.00000000000E+00 0. -1.
         -2   -1    0    0    0  501 -0.00000000000E+00 -0.00000000000E+00 -0.20842327112E+01  0.20842327112E+01  0.00000000000E+00 0.  1.
          2    1    1    2  502    0 -0.25460816587E+02  0.61719098692E+00  0.57675617878E+03  0.57731821716E+03  0.00000000000E+00 0. -1.
         -2    1    1    2    0  502  0.25460816587E+02 -0.61719098692E+00  0.88124310133E+02  0.91730737174E+02  0.00000000000E+00 0.  1.
</event>
<event>
 4    1  0.5573045E+003  0.2134499E+02  0.7546771E-02  0.1514396E+00
          2   -1    0    0  501    0  0.00000000000E+00  0.00000000000E+00  0.20242806266E+02  0.20242806266E+02  0.00000000000E+00 0. -1.
         -2   -1    0    0    0  501 -0.00000000000E+00 -0.00000000000E+00 -0.24404854030E+02  0.24404854030E+02  0.00000000000E+00 0. -1.
          2    1    1    2  502    0  0.14127605312E+01 -0.21298173662E+02 -0.83060849738E+01  0.22904129349E+02  0.00000000000E+00 0. -1.
         -2    1    1    2    0  502 -0.14127605312E+01  0.21298173662E+02  0.41440372099E+01  0.21743530947E+02  0.00000000000E+00 0. -1.
</event>
<event>
 4    1  0.5573045E+003  0.3118817E+02  0.7546771E-02  0.1409545E+00
          2   -1    0    0  501    0  0.00000000000E+00  0.00000000000E+00  0.56826095119E+03  0.56826095119E+03  0.00000000000E+00 0.  1.
         -2   -1    0    0    0  501 -0.00000000000E+00 -0.00000000000E+00 -0.15392875414E+02  0.15392875414E+02  0.00000000000E+00 0. -1.
          2    1    1    2  502    0  0.29270372350E+02  0.10767880343E+02  0.55155703874E+03  0.55243811321E+03  0.00000000000E+00 0.  1.
         -2    1    1    2    0  502 -0.29270372350E+02 -0.10767880343E+02  0.13110370367E+01  0.31215713394E+02  0.00000000000E+00 0. -1.
</event>
<event>
 4    1  0.5573045E+003  0.2606849E+02  0.7546771E-02  0.1457196E+00
          2   -1    0    0  501    0  0.00000000000E+00  0.00000000000E+00  0.36151736003E+01  0.36151736003E+01  0.00000000000E+00 0. -1.
         -2   -1    0    0    0  501 -0.00000000000E+00 -0.00000000000E+00 -0.19873427422E+03  0.19873427422E+03  0.00000000000E+00 0. -1.
          2    1    1    2  502    0  0.24202670863E+02 -0.96848563046E+01 -0.12109962340E+03  0.12387366349E+03  0.00000000000E+00 0. -1.
         -2    1    1    2    0  502 -0.24202670863E+02  0.96848563046E+01 -0.74019477215E+02  0.78475784327E+02  0.00000000000E+00 0. -1.
</event>
<event>
 4    1  0.5573045E+003  0.2626400E+02  0.7546771E-02  0.1455145E+00
          2   -1    0    0  501    0  0.00000000000E+00  0.00000000000E+00  0.68170673834E+01  0.68170673834E+01  0.00000000000E+00 0.  1.
         -2   -1    0    0    0  501 -0.00000000000E+00 -0.00000000000E+00 -0.32968108262E+03  0.32968108262E+03  0.00000000000E+00 0.  1.
          2    1    1    2  502    0 -0.25181269127E+02  0.74633511134E+01 -0.21362615484E+02  0.33854974007E+02  0.00000000000E+00 0.  1.
         -2    1    1    2    0  502  0.25181269127E+02 -0.74633511134E+01 -0.30150139976E+03  0.30264317600E+03  0.00000000000E+00 0.  1.
</event>
<event>
 4    1  0.5573045E+003  0.3328300E+02  0.7546771E-02  0.1393053E+00
          2   -1    0    0  501    0  0.00000000000E+00  0.00000000000E+00  0.29593058191E+03  0.29593058191E+03  0.00000000000E+00 0.  1.
         -2   -1    0    0    0  501 -0.00000000000E+00 -0.00000000000E+00 -0.73274478604E+01  0.73274478604E+01  0.00000000000E+00 0.  1.
          2    1    1    2  502    0 -0.29994373723E+02  0.14425514568E+02  0.25034864431E+03  0.25255138414E+03  0.00000000000E+00 0.  1.
         -2    1    1    2    0  502  0.29994373723E+02 -0.14425514568E+02  0.38254489747E+02  0.50706645633E+02  0.00000000000E+00 0.  1.
</event>
<event>
 4    1  0.5573045E+003  0.2778924E+02  0.7546771E-02  0.1439837E+00
          2   -1    0    0  501    0  0.00000000000E+00  0.00000000000E+00  0.75484077466E+02  0.75484077466E+02  0.00000000000E+00 0.  1.
         -2   -1    0    0    0  501 -0.00000000000E+00 -0.00000000000E+00 -0.11431049955E+02  0.11431049955E+02  0.00000000000E+00 0.  1.
          2    1    1    2  502    0  0.25871802165E+02 -0.10143563261E+02  0.46109904738E+02  0.53836468474E+02  0.00000000000E+00 0.  1.
         -2    1    1    2    0  502 -0.25871802165E+02  0.10143563261E+02  0.17943122773E+02  0.33078658947E+02  0.00000000000E+00 0.  1.
</event>
<event>
 4    1  0.5573045E+003  0.2195027E+02  0.7546771E-02  0.1506118E+00
          2   -1    0    0  501    0  0.00000000000E+00  0.00000000000E+00  0.90975846485E+02  0.90975846485E+02  0.00000000000E+00 0.  1.
         -2   -1    0    0    0  501 -0.00000000000E+00 -0.00000000000E+00 -0.93817782419E+01  0.93817782419E+01  0.00000000000E+00 0. -1.
          2    1    1    2  502    0 -0.13252202171E+02  0.17498386643E+02  0.73911023361E+02  0.77101580864E+02  0.00000000000E+00 0.  1.
         -2    1    1    2    0  502  0.13252202171E+02 -0.17498386643E+02  0.76830448823E+01  0.23256043863E+02  0.00000000000E+00 0. -1.
</event>
<event>
 4    1  0.5573045E+003  0.2250596E+02  0.7546771E-02  0.1498797E+00
          2   -1    0    0  501    0  0.00000000000E+00  0.00000000000E+00  0.82970624578E+03  0.82970624578E+03  0.00000000000E+00 0.  1.
         -2   -1    0    0    0  501 -0.00000000000E+00 -0.00000000000E+00 -0.28404788189E+01  0.28404788189E+01  0.00000000000E+00 0.  1.
          2    1    1    2  502    0  0.22365978295E+02 -0.25062316796E+01  0.78227054841E+03  0.78259423017E+03  0.00000000000E+00 0.  1.
         -2    1    1    2    0  502 -0.22365978295E+02  0.25062316796E+01  0.44595218556E+02  0.49952494436E+02  0.00000000000E+00 0.  1.
</event>
<event>
 4    1  0.5573045E+003  0.2737734E+02  0.7546771E-02  0.1443854E+00
          2   -1    0    0  501    0  0.00000000000E+00  0.00000000000E+00  0.87656698112E+03  0.87656698112E+03  0.00000000000E+00 0.  1.
         -2   -1    0    0    0  501 -0.00000000000E+00 -0.00000000000E+00 -0.29578271547E+01  0.29578271547E+01  0.00000000000E+00 0. -1.
          2    1    1    2  502    0 -0.24886806905E+02 -0.11409012347E+02  0.80759382720E+03  0.80805773831E+03  0.00000000000E+00 0.  1.
         -2    1    1    2    0  502  0.24886806905E+02  0.11409012347E+02  0.66015326773E+02  0.71467069967E+02  0.00000000000E+00 0. -1.
</event>
<event>
 4    1  0.5573045E+003  0.2767924E+02  0.7546771E-02  0.1440902E+00
          2   -1    0    0  501    0  0.00000000000E+00  0.00000000000E+00  0.17914317319E+03  0.17914317319E+03  0.00000000000E+00 0.  1.
         -2   -1    0    0    0  501 -0.00000000000E+00 -0.00000000000E+00 -0.14870973404E+03  0.14870973404E+03  0.00000000000E+00 0.  1.
          2    1    1    2  502    0  0.19251310801E+02  0.19887875211E+02  0.17676882454E+03  0.17892277071E+03  0.00000000000E+00 0.  1.
         -2    1    1    2    0  502 -0.19251310801E+02 -0.19887875211E+02 -0.14633538539E+03  0.14893013652E+03  0.00000000000E+00 0.  1.
</event>
<event>
 4    1  0.5573045E+003  0.2356538E+02  0.7546771E-02  0.1485518E+00
          2   -1    0    0  501    0  0.00000000000E+00  0.00000000000E+00  0.79582810789E+03  0.79582810789E+03  0.00000000000E+00 0. -1.
         -2   -1    0    0    0  501 -0.00000000000E+00 -0.00000000000E+00 -0.20485365680E+01  0.20485365680E+01  0.00000000000E+00 0. -1.
          2    1    1    2  502    0  0.14559466758E+01 -0.23520356318E+02  0.72083354017E+03  0.72121863507E+03  0.00000000000E+00 0. -1.
         -2    1    1    2    0  502 -0.14559466758E+01  0.23520356318E+02  0.72946031146E+02  0.76658009379E+02  0.00000000000E+00 0. -1.
</event>
<event>
 4    1  0.5573045E+003  0.2001457E+02  0.7546771E-02  0.1533813E+00
          2   -1    0    0  501    0  0.00000000000E+00  0.00000000000E+00  0.24171774233E+03  0.24171774233E+03  0.00000000000E+00 0. -1.
         -2   -1    0    0    0  501 -0.00000000000E+00 -0.00000000000E+00 -0.17956122654E+02  0.17956122654E+02  0.00000000000E+00 0.  1.
          2    1    1    2  502    0  0.12412633967E+02  0.15700620966E+02  0.23558116728E+03  0.23642984024E+03  0.00000000000E+00 0. -1.
         -2    1    1    2    0  502 -0.12412633967E+02 -0.15700620966E+02 -0.11819547601E+02  0.23244024742E+02  0.00000000000E+00 0.  1.
</event>
<event>
 4    1  0.5573045E+003  0.2429749E+02  0.7546771E-02  0.1476818E+00
          2   -1    0    0  501    0  0.00000000000E+00  0.00000000000E+00  0.10541472511E+03  0.10541472511E+03  0.00000000000E+00 0.  1.
         -2   -1    0    0    0  501 -0.00000000000E+00 -0.00000000000E+00 -0.18213257370E+02  0.18213257370E+02  0.00000000000E+00 0. -1.
          2    1    1    2  502    0 -0.24239118859E+02 -0.16831469005E+01  0.95040523891E+02  0.98097242815E+02  0.00000000000E+00 0.  1.
         -2    1    1    2    0  502  0.24239118859E+02  0.16831469005E+01 -0.78390561508E+01  0.25530739666E+02  0.00000000000E+00 0. -1.
</event>
<event>
 4    1  0.5573045E+003  0.3519280E+02  0.7546771E-02  0.1379213E+00
          2   -1    0    0  501    0  0.00000000000E+00  0.00000000000E+00  0.10074153143E+03  0.10074153143E+03  0.00000000000E+00 0. -1.
         -2   -1    0    0    0  501 -0.00000000000E+00 -0.00000000000E+00 -0.19199189170E+02  0.19199189170E+02  0.00000000000E+00 0. -1.
          2    1    1    2  502    0  0.31296819272E+02  0.16094797187E+02  0.76735974992E+02  0.84421225121E+02  0.00000000000E+00 0. -1.
         -2    1    1    2    0  502 -0.31296819272E+02 -0.16094797187E+02  0.48063672726E+01  0.35519495483E+02  0.00000000000E+00 0. -1.
</event>
<event>
 4    1  0.5573045E+003  0.4748773E+02  0.7546771E-02  0.1309448E+00
          2   -1    0    0  501    0  0.00000000000E+00  0.00000000000E+00  0.13879660450E+04  0.13879660450E+04  0.00000000000E+00 0.  1.
         -2   -1    0    0    0  501 -0.00000000000E+00 -0.00000000000E+00 -0.17456112772E+01  0.17456112772E+01  0.00000000000E+00 0.  1.
          2    1    1    2  502    0  0.22767948345E+02 -0.41673791212E+02  0.87595475039E+03  0.87724102108E+03  0.00000000000E+00 0.  1.
         -2    1    1    2    0  502 -0.22767948345E+02  0.41673791212E+02  0.51026568331E+03  0.51247063517E+03  0.00000000000E+00 0.  1.
</event>
<event>
 4    1  0.5573045E+003  0.2616722E+02  0.7546771E-02  0.1456158E+00
          2   -1    0    0  501    0  0.00000000000E+00  0.00000000000E+00  0.49197607709E+01  0.49197607709E+01  0.00000000000E+00 0. -1.
         -2   -1    0    0    0  501 -0.00000000000E+00 -0.00000000000E+00 -0.71294675813E+03  0.71294675813E+03  0.00000000000E+00 0.  1.
          2    1    1    2  502    0  0.13017124669E+02 -0.22699731876E+02 -0.32015232654E+02  0.41348500382E+02  0.00000000000E+00 0. -1.
         -2    1    1    2    0  502 -0.13017124669E+02  0.22699731876E+02 -0.67601176470E+03  0.67651801852E+03  0.00000000000E+00 0.  1.
</event>
<event>
 4    1  0.5573045E+003  0.2193743E+02  0.7546771E-02  0.1506290E+00
          2   -1    0    0  501    0  0.00000000000E+00  0.00000000000E+00  0.79500418424E+03  0.79500418424E+03  0.00000000000E+00 0.  1.
         -2   -1    0    0    0  501 -0.00000000000E+00 -0.00000000000E+00 -0.28131586478E+01  0.28131586478E+01  0.00000000000E+00 0. -1.
          2    1    1    2  502    0  0.21157830026E+02  0.57962981903E+01  0.74948830769E+03  0.74980929190E+03  0.00000000000E+00 0.  1.
         -2    1    1    2    0  502 -0.21157830026E+02 -0.57962981903E+01  0.42702717902E+02  0.48008050996E+02  0.00000000000E+00 0. -1.
</event>
<event>
 4    1  0.5573045E+003  0.2783625E+02  0.7546771E-02  0.1439384E+00
          2   -1    0    0  501    0  0.00000000000E+00  0.00000000000E+00  0.10333038868E+03  0.10333038868E+03  0.00000000000E+00 0.  1.
         -2   -1    0    0    0  501 -0.00000000000E+00 -0.00000000000E+00 -0.34840412631E+02  0.34840412631E+02  0.00000000000E+00 0. -1.
          2    1    1    2  502    0  0.27771718617E+02 -0.18943816362E+01  0.95445697813E+02  0.99422021040E+02  0.00000000000E+00 0.  1.
         -2    1    1    2    0  502 -0.27771718617E+02  0.18943816362E+01 -0.26955721764E+02  0.38748780271E+02  0.00000000000E+00 0. -1.
</event>
<event>
 4    1  0.9702297E+003  0.2885227E+02  0.7546771E-02  0.1429839E+00
          2   -1    0    0  501    0  0.00000000000E+00  0.00000000000E+00  0.11036598636E+04  0.11036598636E+04  0.00000000000E+00 0.  1.
         -2   -1    0    0    0  501 -0.00000000000E+00 -0.00000000000E+00 -0.38136178793E+03  0.38136178793E+03  0.00000000000E+00 0. -1.
          2    1    1    2  502    0 -0.25411361872E+02 -0.13664422531E+02  0.11029252223E+04  0.11033025422E+04  0.00000000000E+00 0.  1.
         -2    1    1    2    0  502  0.25411361872E+02  0.13664422531E+02 -0.38062714656E+03  0.38171910936E+03  0.00000000000E+00 0. -1.
</event>
<event>
 4    1  0.5573045E+003  0.2250210E+02  0.7546771E-02  0.1498847E+00
          2   -1    0    0  501    0  0.00000000000E+00  0.00000000000E+00  0.29975320863E+03  0.29975320863E+03  0.00000000000E+00 0.  1.
         -2   -1    0    0    0  501 -0.00000000000E+00 -0.00000000000E+00 -0.40228130013E+03  0.40228130013E+03  0.00000000000E+00 0.  1.
          2    1    1    2  502    0 -0.42603558624E+01  0.22095114317E+02  0.29901546123E+03  0.29986095239E+03  0.00000000000E+00 0.  1.
         -2    1    1    2    0  502  0.42603558624E+01 -0.22095114317E+02 -0.40154355273E+03  0.40217355637E+03  0.00000000000E+00 0.  1.
</event>
<event>
 4    1  0.5573045E+003  0.2169340E+02  0.7546771E-02  0.1509591E+00
          2   -1    0    0  501    0  0.00000000000E+00  0.00000000000E+00  0.15892677392E+04  0.15892677392E+04  0.00000000000E+00 0. -1.
         -2   -1    0    0    0  501 -0.00000000000E+00 -0.00000000000E+00 -0.17459772434E+01  0.17459772434E+01  0.00000000000E+00 0.  1.
          2    1    1    2  502    0  0.21342796606E+02 -0.38843953035E+01  0.15186778177E+04  0.15188327484E+04  0.00000000000E+00 0. -1.
         -2    1    1    2    0  502 -0.21342796606E+02  0.38843953035E+01  0.68843944272E+02  0.72180968106E+02  0.00000000000E+00 0.  1.
</event>
<event>
 4    1  0.5573045E+003  0.2314256E+02  0.7546771E-02  0.1490716E+00
          2   -1    0    0  501    0  0.00000000000E+00  0.00000000000E+00  0.11181796814E+04  0.11181796814E+04  0.00000000000E+00 0.  1.
         -2   -1    0    0    0  501 -0.00000000000E+00 -0.00000000000E+00 -0.59387729032E+00  0.59387729032E+00  0.00000000000E+00 0.  1.
          2    1    1    2  502    0  0.21949601284E+02 -0.73343908596E+01  0.80484737785E+03  0.80518002951E+03  0.00000000000E+00 0.  1.
         -2    1    1    2    0  502 -0.21949601284E+02  0.73343908596E+01  0.31273842621E+03  0.31359352914E+03  0.00000000000E+00 0.  1.
</event>
<event>
 4    1  0.5573045E+003  0.2572193E+02  0.7546771E-02  0.1460887E+00
          2   -1    0    0  501    0  0.00000000000E+00  0.00000000000E+00  0.63343773040E+03  0.63343773040E+03  0.00000000000E+00 0.  1.
         -2   -1    0    0    0  501 -0.00000000000E+00 -0.00000000000E+00 -0.56454101638E+02  0.56454101638E+02  0.00000000000E+00 0.  1.
          2    1    1    2  502    0  0.15578691799E+02  0.20467589844E+02  0.63023181784E+03  0.63075649984E+03  0.00000000000E+00 0.  1.
         -2    1    1    2    0  502 -0.15578691799E+02 -0.20467589844E+02 -0.53248189086E+02  0.59135332190E+02  0.00000000000E+00 0.  1.
</event>
<event>
 4    1  0.5573045E+003  0.2179737E+02  0.7546771E-02  0.1508178E+00
          2   -1    0    0  501    0  0.00000000000E+00  0.00000000000E+00  0.19016835744E+03  0.19016835744E+03  0.00000000000E+00 0.  1.
         -2   -1    0    0    0  501 -0.00000000000E+00 -0.00000000000E+00 -0.65778842745E+01  0.65778842745E+01  0.00000000000E+00 0. -1.
          2    1    1    2  502    0 -0.14632857537E+02 -0.16155647126E+02  0.16926522578E+03  0.17066294885E+03  0.00000000000E+00 0.  1.
         -2    1    1    2    0  502  0.14632857537E+02  0.16155647126E+02  0.14325247387E+02  0.26083292860E+02  0.00000000000E+00 0. -1.
</event>
<event>
 4    1  0.5573045E+003  0.2462154E+02  0.7546771E-02  0.1473082E+00
          2   -1    0    0  501    0  0.00000000000E+00  0.00000000000E+00  0.87862301673E+03  0.87862301673E+03  0.00000000000E+00 0.  1.
         -2   -1    0    0    0  501 -0.00000000000E+00 -0.00000000000E+00 -0.94432828317E+00  0.94432828317E+00  0.00000000000E+00 0. -1.
          2    1    1    2  502    0 -0.86264991093E+01 -0.23060868777E+02  0.66708568158E+03  0.66753990646E+03  0.00000000000E+00 0.  1.
         -2    1    1    2    0  502  0.86264991093E+01  0.23060868777E+02  0.21059300687E+03  0.21202743855E+03  0.00000000000E+00 0. -1.
</event>
<event>
 4    1  0.5573045E+003  0.2021866E+02  0.7546771E-02  0.1530719E+00
          2   -1    0    0  501    0  0.00000000000E+00  0.00000000000E+00  0.19762936127E+03  0.19762936127E+03  0.00000000000E+00 0. -1.
         -2   -1    0    0    0  501 -0.00000000000E+00 -0.00000000000E+00 -0.45309719139E+01  0.45309719139E+01  0.00000000000E+00 0.  1.
          2    1    1    2  502    0 -0.17246592841E+01 -0.20144972023E+02  0.17106644020E+03  0.17225713718E+03  0.00000000000E+00 0. -1.
         -2    1    1    2    0  502  0.17246592841E+01  0.20144972023E+02  0.22031949152E+02  0.29903195998E+02  0.00000000000E+00 0.  1.
</event>
<event>
 4    1  0.5573045E+003  0.2071204E+02  0.7546771E-02  0.1523416E+00
          2   -1    0    0  501    0  0.00000000000E+00  0.00000000000E+00  0.84104412170E+02  0.84104412170E+02  0.00000000000E+00 0.  1.
         -2   -1    0    0    0  501 -0.00000000000E+00 -0.00000000000E+00 -0.91457759878E+01  0.91457759878E+01  0.00000000000E+00 0.  1.
          2    1    1    2  502    0 -0.98499503720E+01  0.18219967206E+02  0.68487369362E+02  0.71550740663E+02  0.00000000000E+00 0.  1.
         -2    1    1    2    0  502  0.98499503720E+01 -0.18219967206E+02  0.64712668206E+01  0.21699447495E+02  0.00000000000E+00 0.  1.
</event>
<event>
 4    1  0.5573045E+003  0.2212465E+02  0.7546771E-02  0.1503793E+00
          2   -1    0    0  501    0  0.00000000000E+00  0.00000000000E+00  0.88823394508E+01  0.88823394508E+01  0.00000000000E+00 0. -1.
         -2   -1    0    0    0  501 -0.00000000000E+00 -0.00000000000E+00 -0.55467891795E+02  0.55467891795E+02  0.00000000000E+00 0.  1.
          2    1    1    2  502    0  0.19822847768E+02 -0.98262216652E+01 -0.20705927200E+02  0.30302398371E+02  0.00000000000E+00 0. -1.
         -2    1    1    2    0  502 -0.19822847768E+02  0.98262216652E+01 -0.25879625145E+02  0.34047832875E+02  0.00000000000E+00 0.  1.
</event>
<event>
 4    1  0.5573045E+003  0.2045035E+02  0.7546771E-02  0.1527259E+00
          2   -1    0    0  501    0  0.00000000000E+00  0.00000000000E+00  0.11349350771E+03  0.11349350771E+03  0.00000000000E+00 0. -1.
         -2   -1    0    0    0  501 -0.00000000000E+00 -0.00000000000E+00 -0.32003599911E+02  0.32003599911E+02  0.00000000000E+00 0.  1.
          2    1    1    2  502    0 -0.16657677877E+02 -0.11863333709E+02  0.10917727752E+03  0.11107607683E+03  0.00000000000E+00 0. -1.
         -2    1    1    2    0  502  0.16657677877E+02  0.11863333709E+02 -0.27687369714E+02  0.34421030790E+02  0.00000000000E+00 0.  1.
</event>
<event>
 4    1  0.5573045E+003  0.3186304E+02  0.7546771E-02  0.1404069E+00
          2   -1    0    0  501    0  0.00000000000E+00  0.00000000000E+00  0.34967178551E+03  0.34967178551E+03  0.00000000000E+00 0. -1.
         -2   -1    0    0    0  501 -0.00000000000E+00 -0.00000000000E+00 -0.37299652812E+02  0.37299652812E+02  0.00000000000E+00 0.  1.
          2    1    1    2  502    0  0.36693758423E+01 -0.31651049619E+02  0.34198866982E+03  0.34346980005E+03  0.00000000000E+00 0. -1.
         -2    1    1    2    0  502 -0.36693758423E+01  0.31651049619E+02 -0.29616537124E+02  0.43501638271E+02  0.00000000000E+00 0.  1.
</event>
<event>
 4    1  0.5573045E+003  0.2794721E+02  0.7546771E-02  0.1438318E+00
          2   -1    0    0  501    0  0.00000000000E+00  0.00000000000E+00  0.26431738584E+03  0.26431738584E+03  0.00000000000E+00 0. -1.
         -2   -1    0    0    0  501 -0.00000000000E+00 -0.00000000000E+00 -0.37263503311E+02  0.37263503311E+02  0.00000000000E+00 0. -1.
          2    1    1    2  502    0 -0.26768023151E+01  0.27818726603E+02  0.25821514713E+03  0.25972313919E+03  0.00000000000E+00 0. -1.
         -2    1    1    2    0  502  0.26768023151E+01 -0.27818726603E+02 -0.31161264603E+02  0.41857749965E+02  0.00000000000E+00 0. -1.
</event>
<event>
 4    1  0.5573045E+003  0.5074368E+02  0.7546771E-02  0.1294980E+00
          2   -1    0    0  501    0  0.00000000000E+00  0.00000000000E+00  0.18673282747E+04  0.18673282747E+04  0.00000000000E+00 0.  1.
         -2   -1    0    0    0  501 -0.00000000000E+00 -0.00000000000E+00 -0.36508263239E+01  0.36508263239E+01  0.00000000000E+00 0.  1.
          2    1    1    2  502    0 -0.50485605220E+02 -0.51112006971E+01  0.16698063590E+04  0.16705772048E+04  0.00000000000E+00 0.  1.
         -2    1    1    2    0  502  0.50485605220E+02  0.51112006971E+01  0.19387108943E+03  0.20040189626E+03  0.00000000000E+00 0.  1.
</event>
<event>
 4    1  0.5573045E+003  0.2169407E+02  0.7546771E-02  0.1509582E+00
          2   -1    0    0  501    0  0.00000000000E+00  0.00000000000E+00  0.34535439565E+03  0.34535439565E+03  0.00000000000E+00 0.  1.
         -2   -1    0    0    0  501 -0.00000000000E+00 -0.00000000000E+00 -0.24906203224E+01  0.24906203224E+01  0.00000000000E+00 0.  1.
          2    1    1    2  502    0 -0.20809908980E+02 -0.61302718313E+01  0.28847103279E+03  0.28928561890E+03  0.00000000000E+00 0.  1.
         -2    1    1    2    0  502  0.20809908980E+02  0.61302718313E+01  0.54392742533E+02  0.58559397066E+02  0.00000000000E+00 0.  1.
</event>
<event>
 4    1  0.5573045E+003  0.2572655E+02  0.7546771E-02  0.1460837E+00
          2   -1    0    0  501    0  0.00000000000E+00  0.00000000000E+00  0.30532165611E+02  0.30532165611E+02  0.00000000000E+00 0. -1.
         -2   -1    0    0    0  501 -0.00000000000E+00 -0.00000000000E+00 -0.15574590240E+03  0.15574590240E+03  0.00000000000E+00 0. -1.
          2    1    1    2  502    0 -0.20769024019E+02  0.15182320318E+02  0.23807694993E+02  0.35052268825E+02  0.00000000000E+00 0. -1.
         -2    1    1    2    0  502  0.20769024019E+02 -0.15182320318E+02 -0.14902143179E+03  0.15122579919E+03  0.00000000000E+00 0. -1.
</event>
<event>
 4    1  0.5573045E+003  0.2015125E+02  0.7546771E-02  0.1531736E+00
          2   -1    0    0  501    0  0.00000000000E+00  0.00000000000E+00  0.13635191003E+01  0.13635191003E+01  0.00000000000E+00 0. -1.
         -2   -1    0    0    0  501 -0.00000000000E+00 -0.00000000000E+00 -0.30597816607E+03  0.30597816607E+03  0.00000000000E+00 0. -1.
          2    1    1    2  502    0  0.15741367658E+01 -0.20089666278E+02 -0.17741176316E+03  0.17855253094E+03  0.00000000000E+00 0. -1.
         -2    1    1    2    0  502 -0.15741367658E+01  0.20089666278E+02 -0.12720288381E+03  0.12878915423E+03  0.00000000000E+00 0. -1.
</event>
<event>
 4    1  0.5573045E+003  0.2968054E+02  0.7546771E-02  0.1422393E+00
          2   -1    0    0  501    0  0.00000000000E+00  0.00000000000E+00  0.69965224445E+03  0.69965224445E+03  0.00000000000E+00 0.  1.
         -2   -1    0    0    0  501 -0.00000000000E+00 -0.00000000000E+00 -0.19356401066E+02  0.19356401066E+02  0.00000000000E+00 0.  1.
          2    1    1    2  502    0 -0.17149774616E+01 -0.29630949945E+02  0.68776305788E+03  0.68840319445E+03  0.00000000000E+00 0.  1.
         -2    1    1    2    0  502  0.17149774616E+01  0.29630949945E+02 -0.74672145016E+01  0.30605451063E+02  0.00000000000E+00 0.  1.
</event>
<event>
 4    1  0.5573045E+003  0.2597671E+02  0.7546771E-02  0.1458167E+00
          2   -1    0    0  501    0  0.00000000000E+00  0.00000000000E+00  0.96845642997E+03  0.96845642997E+03  0.00000000000E+00 0.  1.
         -2   -1    0    0    0  501 -0.00000000000E+00 -0.00000000000E+00 -0.15237421787E+02  0.15237421787E+02  0.00000000000E+00 0.  1.
          2    1    1    2  502    0 -0.25850316151E+01  0.25847767021E+02  0.95707940191E+03  0.95743186234E+03  0.00000000000E+00 0.  1.
         -2    1    1    2    0  502  0.25850316151E+01 -0.25847767021E+02 -0.38603937334E+01  0.26261989418E+02  0.00000000000E+00 0.  1.
</event>
<event>
 4    1  0.5573045E+003  0.2168201E+02  0.7546771E-02  0.1509746E+00
          2   -1    0    0  501    0  0.00000000000E+00  0.00000000000E+00  0.22584026063E+03  0.22584026063E+03  0.00000000000E+00 0.  1.
         -2   -1    0    0    0  501 -0.00000000000E+00 -0.00000000000E+00 -0.27557521284E+01  0.27557521284E+01  0.00000000000E+00 0. -1.
          2    1    1    2  502    0  0.21174641058E+02 -0.46630502119E+01  0.16807459919E+03  0.16946734303E+03  0.00000000000E+00 0.  1.
         -2    1    1    2    0  502 -0.21174641058E+02  0.46630502119E+01  0.55009909309E+02  0.59128669725E+02  0.00000000000E+00 0. -1.
</event>
<event>
 4    1  0.6968780E+003  0.2124109E+02  0.7546771E-02  0.1515850E+00
          2   -1    0    0  501    0  0.00000000000E+00  0.00000000000E+00  0.66850425137E+03  0.66850425137E+03  0.00000000000E+00 0.  1.
         -2   -1    0    0    0  501 -0.00000000000E+00 -0.00000000000E+00 -0.30541727337E+03  0.30541727337E+03  0.00000000000E+00 0. -1.
          2    1    1    2  502    0  0.61179105626E+01 -0.20340975115E+02  0.66796590707E+03  0.66830355162E+03  0.00000000000E+00 0.  1.
         -2    1    1    2    0  502 -0.61179105626E+01  0.20340975115E+02 -0.30487892908E+03  0.30561797312E+03  0.00000000000E+00 0. -1.
</event>
<event>
 4    1  0.5573045E+003  0.2004224E+02  0.7546771E-02  0.1533391E+00
          2   -1    0    0  501    0  0.00000000000E+00  0.00000000000E+00  0.24998764002E+03  0.24998764002E+03  0.00000000000E+00 0. -1.
         -2   -1    0    0    0  501 -0.00000000000E+00 -0.00000000000E+00 -0.62520079147E+02  0.62520079147E+02  0.00000000000E+00 0. -1.
          2    1    1    2  502    0  0.12365109847E+02 -0.15773250786E+02  0.24796660900E+03  0.24877526115E+03  0.00000000000E+00 0. -1.
         -2    1    1    2    0  502 -0.12365109847E+02  0.15773250786E+02 -0.60499048121E+02  0.63732458022E+02  0.00000000000E+00 0. -1.
</event>
<event>
 4    1  0.5573045E+003  0.4431634E+02  0.7546771E-02  0.1324894E+00
          2   -1    0    0  501    0  0.00000000000E+00  0.00000000000E+00  0.30112519362E+04  0.30112519362E+04  0.00000000000E+00 0.  1.
         -2   -1    0    0    0  501 -0.00000000000E+00 -0.00000000000E+00 -0.71373829043E+00  0.71373829043E+00  0.00000000000E+00 0. -1.
          2    1    1    2  502    0  0.40204035771E+02  0.18643330839E+02  0.19474739618E+04  0.19479781236E+04  0.00000000000E+00 0.  1.
         -2    1    1    2    0  502 -0.40204035771E+02 -0.18643330839E+02  0.10630642361E+04  0.10639875508E+04  0.00000000000E+00 0. -1.
</event>
<event>
 4    1  0.5573045E+003  0.3523947E+02  0.7546771E-02  0.1378887E+00
          2   -1    0    0  501    0  0.00000000000E+00  0.00000000000E+00  0.68667174744E+01  0.68667174744E+01  0.00000000000E+00 0.  1.
         -2   -1    0    0    0  501 -0.00000000000E+00 -0.00000000000E+00 -0.51992861193E+03  0.51992861193E+03  0.00000000000E+00 0.  1.
          2    1    1    2  502    0 -0.35051360846E+01 -0.35064716225E+02 -0.43818628008E+02  0.56230707477E+02  0.00000000000E+00 0.  1.
         -2    1    1    2    0  502  0.35051360846E+01  0.35064716225E+02 -0.46924326645E+03  0.47056462193E+03  0.00000000000E+00 0.  1.
</event>
<event>
 4    1  0.5573045E+003  0.2016114E+02  0.7546771E-02  0.1531587E+00
          2   -1    0    0  501    0  0.00000000000E+00  0.00000000000E+00  0.68172938413E+03  0.68172938413E+03  0.00000000000E+00 0.  1.
         -2   -1    0    0    0  501 -0.00000000000E+00 -0.00000000000E+00 -0.60192085111E+02  0.60192085111E+02  0.00000000000E+00 0.  1.
          2    1    1    2  502    0 -0.39215999675E+01 -0.19776056862E+02  0.67988752671E+03  0.68018638648E+03  0.00000000000E+00 0.  1.
         -2    1    1    2    0  502  0.39215999675E+01  0.19776056862E+02 -0.58350227695E+02  0.61735082760E+02  0.00000000000E+00 0.  1.
</event>
<event>
 4    1  0.5573045E+003  0.2263007E+02  0.7546771E-02  0.1497196E+00
          2   -1    0    0  501    0  0.00000000000E+00  0.00000000000E+00  0.99441670222E+03  0.99441670222E+03  0.00000000000E+00 0. -1.
         -2   -1    0    0    0  501 -0.00000000000E+00 -0.00000000000E+00 -0.86250071592E+00  0.86250071592E+00  0.00000000000E+00 0. -1.
          2    1    1    2  502    0 -0.17987309369E+02  0.13732329491E+02  0.81265252420E+03  0.81296755486E+03  0.00000000000E+00 0. -1.
         -2    1    1    2    0  502  0.17987309369E+02 -0.13732329491E+02  0.18090167731E+03  0.18231164808E+03  0.00000000000E+00 0. -1.
</event>
<event>
 4    1  0.5573045E+003  0.2065732E+02  0.7546771E-02  0.1524214E+00
          2   -1    0    0  501    0  0.00000000000E+00  0.00000000000E+00  0.10894006781E+04  0.10894006781E+04  0.00000000000E+00 0.  1.
         -2   -1    0    0    0  501 -0.00000000000E+00 -0.00000000000E+00 -0.10593614406E+01  0.10593614406E+01  0.00000000000E+00 0.  1.
          2    1    1    2  502    0  0.73215488847E+01 -0.19316305477E+02  0.97701713742E+03  0.97723549442E+03  0.00000000000E+00 0.  1.
         -2    1    1    2    0  502 -0.73215488847E+01  0.19316305477E+02  0.11132417927E+03  0.11322454515E+03  0.00000000000E+00 0.  1.
</event>
<event>
 4    1  0.5573045E+003  0.2004862E+02  0.7546771E-02  0.1533294E+00
          2   -1    0    0  501    0  0.00000000000E+00  0.00000000000E+00  0.55637389246E+03  0.55637389246E+03  0.00000000000E+00 0. -1.
         -2   -1    0    0    0  501 -0.00000000000E+00 -0.00000000000E+00 -0.66078581989E+01  0.66078581989E+01  0.00000000000E+00 0. -1.
          2    1    1    2  502    0  0.16184133484E+02 -0.11833050715E+02  0.54054083086E+03  0.54091250410E+03  0.00000000000E+00 0. -1.
         -2    1    1    2    0  502 -0.16184133484E+02  0.11833050715E+02  0.92252034005E+01  0.22069246557E+02  0.00000000000E+00 0. -1.
</event>
<event>
 4    1  0.5573045E+003  0.2790899E+02  0.7546771E-02  0.1438685E+00
          2   -1    0    0  501    0  0.00000000000E+00  0.00000000000E+00  0.80832269044E+01  0.80832269044E+01  0.00000000000E+00 0.  1.
         -2   -1    0    0    0  501 -0.00000000000E+00 -0.00000000000E+00 -0.14249149487E+03  0.14249149487E+03  0.00000000000E+00 0.  1.
          2    1    1    2  502    0 -0.27145844097E+02  0.64818699344E+01 -0.24367086796E+02  0.37049512932E+02  0.00000000000E+00 0.  1.
         -2    1    1    2    0  502  0.27145844097E+02 -0.64818699344E+01 -0.11004118117E+03  0.11352520885E+03  0.00000000000E+00 0.  1.
</event>
<event>
 4    1  0.5573045E+003  0.3646500E+02  0.7546771E-02  0.1370546E+00
          2   -1    0    0  501    0  0.00000000000E+00  0.00000000000E+00  0.10504338805E+02  0.10504338805E+02  0.00000000000E+00 0. -1.
         -2   -1    0    0    0  501 -0.00000000000E+00 -0.00000000000E+00 -0.36850948116E+03  0.36850948116E+03  0.00000000000E+00 0. -1.
          2    1    1    2  502    0  0.30819951712E+02  0.19489143958E+02 -0.25455955704E+02  0.44471359733E+02  0.00000000000E+00 0. -1.
         -2    1    1    2    0  502 -0.30819951712E+02 -0.19489143958E+02 -0.33254918665E+03  0.33454246024E+03  0.00000000000E+00 0. -1.
</event>
<event>
 4    1  0.5573045E+003  0.2699930E+02  0.7546771E-02  0.1447615E+00
          2   -1    0    0  501    0  0.00000000000E+00  0.00000000000E+00  0.15698556626E+03  0.15698556626E+03  0.00000000000E+00 0.  1.
         -2   -1    0    0    0  501 -0.00000000000E+00 -0.00000000000E+00 -0.47999568349E+01  0.47999568349E+01  0.00000000000E+00 0. -1.
          2    1    1    2  502    0  0.25871876184E+02 -0.77206441935E+01  0.90697403057E+02  0.94630762680E+02  0.00000000000E+00 0.  1.
         -2    1    1    2    0  502 -0.25871876184E+02  0.77206441935E+01  0.61488206366E+02  0.67154760413E+02  0.00000000000E+00 0. -1.
</event>
<event>
 4    1  0.5573045E+003  0.2183637E+02  0.7546771E-02  0.1507651E+00
          2   -1    0    0  501    0  0.00000000000E+00  0.00000000000E+00  0.74353717029E+03  0.74353717029E+03  0.00000000000E+00 0. -1.
         -2   -1    0    0    0  501 -0.00000000000E+00 -0.00000000000E+00 -0.69687371903E+00  0.69687371903E+00  0.00000000000E+00 0.  1.
          2    1    1    2  502    0 -0.19259682443E+01  0.21751269551E+02  0.47650850466E+03  0.47700857654E+03  0.00000000000E+00 0. -1.
         -2    1    1    2    0  502  0.19259682443E+01 -0.21751269551E+02  0.26633179191E+03  0.26722546747E+03  0.00000000000E+00 0.  1.
</event>
<event>
 4    1  0.5573045E+003  0.2762043E+02  0.7546771E-02  0.1441473E+00
          2   -1    0    0  501    0  0.00000000000E+00  0.00000000000E+00  0.16074174541E+04  0.16074174541E+04  0.00000000000E+00 0.  1.
         -2   -1    0    0    0  501 -0.00000000000E+00 -0.00000000000E+00 -0.24882290049E+01  0.24882290049E+01  0.00000000000E+00 0.  1.
          2    1    1    2  502    0  0.27572435885E+02  0.16276068951E+01  0.15265911374E+04  0.15268409836E+04  0.00000000000E+00 0.  1.
         -2    1    1    2    0  502 -0.27572435885E+02 -0.16276068951E+01  0.78338087690E+02  0.83064699529E+02  0.00000000000E+00 0.  1.
</event>
<event>
 4    1  0.5573045E+003  0.2471994E+02  0.7546771E-02  0.1471961E+00
          2   -1    0    0  501    0  0.00000000000E+00  0.00000000000E+00  0.15681304902E+04  0.15681304902E+04  0.00000000000E+00 0.  1.
         -2   -1    0    0    0  501 -0.00000000000E+00 -0.00000000000E+00 -0.81039706373E+00  0.81039706373E+00  0.00000000000E+00 0. -1.
          2    1    1    2  502    0  0.18469493424E+02  0.16430256046E+02  0.13488840659E+04  0.13491105584E+04  0.00000000000E+00 0.  1.
         -2    1    1    2    0  502 -0.18469493424E+02 -0.16430256046E+02  0.21843602723E+03  0.21983032887E+03  0.00000000000E+00 0. -1.
</event>
<event>
 4    1  0.5573045E+003  0.2987067E+02  0.7546771E-02  0.1420724E+00
          2   -1    0    0  501    0  0.00000000000E+00  0.00000000000E+00  0.12656908602E+04  0.12656908602E+04  0.00000000000E+00 0.  1.
         -2   -1    0    0    0  501 -0.00000000000E+00 -0.00000000000E+00 -0.82194505822E+00  0.82194505822E+00  0.00000000000E+00 0.  1.
          2    1    1    2  502    0  0.12400477239E+02  0.27175083126E+02  0.87134203211E+03  0.87185388334E+03  0.00000000000E+00 0.  1.
         -2    1    1    2    0  502 -0.12400477239E+02 -0.27175083126E+02  0.39352688305E+03  0.39465892194E+03  0.00000000000E+00 0.  1.
</event>
<event>
 4    1  0.5573045E+003  0.4477418E+02  0.7546771E-02  0.1322572E+00
          2   -1    0    0  501    0  0.00000000000E+00  0.00000000000E+00  0.13686642970E+04  0.13686642970E+04  0.00000000000E+00 0.  1.
         -2   -1    0    0    0  501 -0.00000000000E+00 -0.00000000000E+00 -0.54926902170E+03  0.54926902170E+03  0.00000000000E+00 0.  1.
          2    1    1    2  502    0  0.20004885636E+02 -0.40056609556E+02  0.13673848078E+04  0.13681176631E+04  0.00000000000E+00 0.  1.
         -2    1    1    2    0  502 -0.20004885636E+02  0.40056609556E+02 -0.54798953251E+03  0.54981565561E+03  0.00000000000E+00 0.  1.
</event>
<event>
 4    1  0.5573045E+003  0.2253603E+02  0.7546771E-02  0.1498408E+00
          2   -1    0    0  501    0  0.00000000000E+00  0.00000000000E+00  0.70458622176E+03  0.70458622176E+03  0.00000000000E+00 0. -1.
         -2   -1    0    0    0  501 -0.00000000000E+00 -0.00000000000E+00 -0.31448174353E+02  0.31448174353E+02  0.00000000000E+00 0.  1.
          2    1    1    2  502    0  0.36367919666E+01  0.22240646036E+02  0.70034419363E+03  0.70070668767E+03  0.00000000000E+00 0. -1.
         -2    1    1    2    0  502 -0.36367919666E+01 -0.22240646036E+02 -0.27206146221E+02  0.35327708447E+02  0.00000000000E+00 0.  1.
</event>
<event>
 4    1  0.5573045E+003  0.2191684E+02  0.7546771E-02  0.1506567E+00
          2   -1    0    0  501    0  0.00000000000E+00  0.00000000000E+00  0.12960430127E+04  0.12960430127E+04  0.00000000000E+00 0. -1.
         -2   -1    0    0    0  501 -0.00000000000E+00 -0.00000000000E+00 -0.31491588107E+02  0.31491588107E+02  0.00000000000E+00 0.  1.
          2    1    1    2  502    0  0.20315975027E+02  0.82224596709E+01  0.12921254941E+04  0.12923113558E+04  0.00000000000E+00 0. -1.
         -2    1    1    2    0  502 -0.20315975027E+02 -0.82224596709E+01 -0.27574069501E+02  0.35223245068E+02  0.00000000000E+00 0.  1.
</event>
<event>
 4    1  0.5573045E+003  0.2798920E+02  0.7546771E-02  0.1437917E+00
          2   -1    0    0  501    0  0.00000000000E+00  0.00000000000E+00  0.92099867221E+03  0.92099867221E+03  0.00000000000E+00 0.  1.
         -2   -1    0    0    0  501 -0.00000000000E+00 -0.00000000000E+00 -0.46724694282E+01  0.46724694282E+01  0.00000000000E+00 0. -1.
          2    1    1    2  502    0  0.23909060585E+02 -0.14551704527E+02  0.87675594493E+03  0.87720258906E+03  0.00000000000E+00 0.  1.
         -2    1    1    2    0  502 -0.23909060585E+02  0.14551704527E+02  0.39570257855E+02  0.48468552582E+02  0.00000000000E+00 0. -1.
</event>
<event>
 4    1  0.5573045E+003  0.2170183E+02  0.7546771E-02  0.1509476E+00
          2   -1    0    0  501    0  0.00000000000E+00  0.00000000000E+00  0.29536229995E+02  0.29536229995E+02  0.00000000000E+00 0. -1.
         -2   -1    0    0    0  501 -0.00000000000E+00 -0.00000000000E+00 -0.16011229223E+02  0.16011229223E+02  0.00000000000E+00 0. -1.
          2    1    1    2  502    0  0.21607757815E+02  0.20184541094E+01  0.82218798783E+01  0.23207082184E+02  0.00000000000E+00 0. -1.
         -2    1    1    2    0  502 -0.21607757815E+02 -0.20184541094E+01  0.53031208937E+01  0.22340377033E+02  0.00000000000E+00 0. -1.
</event>
<event>
 4    1  0.5573045E+003  0.2255890E+02  0.7546771E-02  0.1498113E+00
          2   -1    0    0  501    0  0.00000000000E+00  0.00000000000E+00  0.92320537989E+02  0.92320537989E+02  0.00000000000E+00 0. -1.
         -2   -1    0    0    0  501 -0.00000000000E+00 -0.00000000000E+00 -0.11280105526E+02  0.11280105526E+02  0.00000000000E+00 0.  1.
          2    1    1    2  502    0 -0.16172750099E+02 -0.15727235615E+02  0.77560902597E+02  0.80774980022E+02  0.00000000000E+00 0. -1.
         -2    1    1    2    0  502  0.16172750099E+02  0.15727235615E+02  0.34795298667E+01  0.22825663493E+02  0.00000000000E+00 0.  1.
</event>
<event>
 4    1  0.5573045E+003  0.3964557E+02  0.7546771E-02  0.1350575E+00
          2   -1    0    0  501    0  0.00000000000E+00  0.00000000000E+00  0.13086773343E+03  0.13086773343E+03  0.00000000000E+00 0. -1.
         -2   -1    0    0    0  501 -0.00000000000E+00 -0.00000000000E+00 -0.30857931933E+02  0.30857931933E+02  0.00000000000E+00 0.  1.
          2    1    1    2  502    0 -0.32813180834E+02 -0.22250090593E+02  0.11320139730E+03  0.11994301863E+03  0.00000000000E+00 0. -1.
         -2    1    1    2    0  502  0.32813180834E+02  0.22250090593E+02 -0.13191595804E+02  0.41782646729E+02  0.00000000000E+00 0.  1.
</event>
<event>
 4    1  0.5573045E+003  0.2051506E+02  0.7546771E-02  0.1526302E+00
          2   -1    0    0  501    0  0.00000000000E+00  0.00000000000E+00  0.34458473055E+02  0.34458473055E+02  0.00000000000E+00 0. -1.
         -2   -1    0    0    0  501 -0.00000000000E+00 -0.00000000000E+00 -0.35118619544E+02  0.35118619544E+02  0.00000000000E+00 0. -1.
          2    1    1    2  502    0  0.11659616116E+02 -0.16879601504E+02  0.27765077014E+02  0.34521979904E+02  0.00000000000E+00 0. -1.
         -2    1    1    2    0  502 -0.11659616116E+02  0.16879601504E+02 -0.28425223503E+02  0.35055112695E+02  0.00000000000E+00 0. -1.
</event>
<event>
 4    1  0.5573045E+003  0.2074147E+02  0.7546771E-02  0.1522988E+00
          2   -1    0    0  501    0  0.00000000000E+00  0.00000000000E+00  0.54031355715E+03  0.54031355715E+03  0.00000000000E+00 0.  1.
         -2   -1    0    0    0  501 -0.00000000000E+00 -0.00000000000E+00 -0.11193116305E+02  0.11193116305E+02  0.00000000000E+00 0.  1.
          2    1    1    2  502    0 -0.20493362930E+02  0.31985085929E+01  0.53032481748E+03  0.53073027087E+03  0.00000000000E+00 0.  1.
         -2    1    1    2    0  502  0.20493362930E+02 -0.31985085929E+01 -0.12043766342E+01  0.20776402587E+02  0.00000000000E+00 0.  1.
</event>
<event>
 4    1  0.6191341E+003  0.3151768E+02  0.7546771E-02  0.1406851E+00
          2   -1    0    0  501    0  0.00000000000E+00  0.00000000000E+00  0.13177460727E+04  0.13177460727E+04  0.00000000000E+00 0.  1.
         -2   -1    0    0    0  501 -0.00000000000E+00 -0.00000000000E+00 -0.18183719580E+03  0.18183719580E+03  0.00000000000E+00 0. -1.
          2    1    1    2  502    0  0.21363903675E+02  0.23172134990E+02  0.13161902666E+04  0.13165675760E+04  0.00000000000E+00 0.  1.
         -2    1    1    2    0  502 -0.21363903675E+02 -0.23172134990E+02 -0.18028138972E+03  0.18301569250E+03  0.00000000000E+00 0. -1.
</event>
<event>
 4    1  0.5573045E+003  0.2059929E+02  0.7546771E-02  0.1525064E+00
          2   -1    0    0  501    0  0.00000000000E+00  0.00000000000E+00  0.79808676222E+02  0.79808676222E+02  0.00000000000E+00 0. -1.
         -2   -1    0    0    0  501 -0.00000000000E+00 -0.00000000000E+00 -0.19192450319E+03  0.19192450319E+03  0.00000000000E+00 0.  1.
          2    1    1    2  502    0  0.14908436903E+02  0.14215102230E+02  0.77913515478E+02  0.80590610598E+02  0.00000000000E+00 0. -1.
         -2    1    1    2    0  502 -0.14908436903E+02 -0.14215102230E+02 -0.19002934245E+03  0.19114256882E+03  0.00000000000E+00 0.  1.
</event>
<event>
 4    1  0.5573045E+003  0.3057214E+02  0.7546771E-02  0.1414688E+00
          2   -1    0    0  501    0  0.00000000000E+00  0.00000000000E+00  0.94263457278E+03  0.94263457278E+03  0.00000000000E+00 0. -1.
         -2   -1    0    0    0  501 -0.00000000000E+00 -0.00000000000E+00 -0.30713586592E+01  0.30713586592E+01  0.00000000000E+00 0.  1.
          2    1    1    2  502    0  0.30272495919E+02 -0.42698585301E+01  0.85889309110E+03  0.85943702366E+03  0.00000000000E+00 0. -1.
         -2    1    1    2    0  502 -0.30272495919E+02  0.42698585301E+01  0.80670123028E+02  0.86268907785E+02  0.00000000000E+00 0.  1.
</event>
<event>
 4    1  0.5573045E+003  0.2207067E+02  0.7546771E-02  0.1504510E+00
          2   -1    0    0  501    0  0.00000000000E+00  0.00000000000E+00  0.79303858035E+02  0.79303858035E+02  0.00000000000E+00 0. -1.
         -2   -1    0    0    0  501 -0.00000000000E+00 -0.00000000000E+00 -0.71200185127E+01  0.71200185127E+01  0.00000000000E+00 0.  1.
          2    1    1    2  502    0 -0.14635239700E+02  0.16520414017E+02  0.52104180294E+02  0.56585863291E+02  0.00000000000E+00 0. -1.
         -2    1    1    2    0  502  0.14635239700E+02 -0.16520414017E+02  0.20079659229E+02  0.29838013256E+02  0.00000000000E+00 0.  1.
</event>
<event>
 4    1  0.5573045E+003  0.2590610E+02  0.7546771E-02  0.1458917E+00
          2   -1    0    0  501    0  0.00000000000E+00  0.00000000000E+00  0.61034085836E+02  0.61034085836E+02  0.00000000000E+00 0. -1.
         -2   -1    0    0    0  501 -0.00000000000E+00 -0.00000000000E+00 -0.20253776550E+02  0.20253776550E+02  0.00000000000E+00 0. -1.
          2    1    1    2  502    0  0.82092579181E+01  0.24570996917E+02  0.47868967731E+02  0.54429439431E+02  0.00000000000E+00 0. -1.
         -2    1    1    2    0  502 -0.82092579181E+01 -0.24570996917E+02 -0.70886584454E+01  0.26858422955E+02  0.00000000000E+00 0. -1.
</event>
<event>
 4    1  0.5573045E+003  0.2019081E+02  0.7546771E-02  0.1531139E+00
          2   -1    0    0  501    0  0.00000000000E+00  0.00000000000E+00  0.18444408279E+02  0.18444408279E+02  0.00000000000E+00 0. -1.
         -2   -1    0    0    0  501 -0.00000000000E+00 -0.00000000000E+00 -0.22353282149E+02  0.22353282149E+02  0.00000000000E+00 0. -1.
          2    1    1    2  502    0 -0.36650356894E+00  0.20187486619E+02  0.20587858459E+00  0.20191862887E+02  0.00000000000E+00 0. -1.
         -2    1    1    2    0  502  0.36650356894E+00 -0.20187486619E+02 -0.41147524546E+01  0.20605827541E+02  0.00000000000E+00 0. -1.
</event>
<event>
 4    1  0.5573045E+003  0.2706680E+02  0.7546771E-02  0.1446938E+00
          2   -1    0    0  501    0  0.00000000000E+00  0.00000000000E+00  0.59545745917E+03  0.59545745917E+03  0.00000000000E+00 0.  1.
         -2   -1    0    0    0  501 -0.00000000000E+00 -0.00000000000E+00 -0.14885830235E+02  0.14885830235E+02  0.00000000000E+00 0.  1.
          2    1    1    2  502    0  0.15313419300E+02 -0.22318397785E+02  0.58257408481E+03  0.58320251712E+03  0.00000000000E+00 0.  1.
         -2    1    1    2    0  502 -0.15313419300E+02  0.22318397785E+02 -0.20024558756E+01  0.27140772279E+02  0.00000000000E+00 0.  1.
</event>
<event>
 4    1  0.5573045E+003  0.3087382E+02  0.7546771E-02  0.1412152E+00
          2   -1    0    0  501    0  0.00000000000E+00  0.00000000000E+00  0.12393075944E+03  0.12393075944E+03  0.00000000000E+00 0. -1.
         -2   -1    0    0    0  501 -0.00000000000E+00 -0.00000000000E+00 -0.37593257771E+02  0.37593257771E+02  0.00000000000E+00 0.  1.
          2    1    1    2  502    0  0.25256253439E+02 -0.17757086734E+02  0.11519681098E+03  0.11926230639E+03  0.00000000000E+00 0. -1.
         -2    1    1    2    0  502 -0.25256253439E+02  0.17757086734E+02 -0.28859309311E+02  0.42261710815E+02  0.00000000000E+00 0.  1.
</event>
<event>
 4    1  0.5573045E+003  0.2095305E+02  0.7546771E-02  0.1519936E+00
          2   -1    0    0  501    0  0.00000000000E+00  0.00000000000E+00  0.27610962568E+02  0.27610962568E+02  0.00000000000E+00 0.  1.
         -2   -1    0    0    0  501 -0.00000000000E+00 -0.00000000000E+00 -0.16351233782E+02  0.16351233782E+02  0.00000000000E+00 0.  1.
          2    1    1    2  502    0  0.19050287748E+02 -0.87244894853E+01  0.92790677006E+01  0.22915743005E+02  0.00000000000E+00 0.  1.
         -2    1    1    2    0  502 -0.19050287748E+02  0.87244894853E+01  0.19806610861E+01  0.21046453345E+02  0.00000000000E+00 0.  1.
</event>
<event>
 4    1  0.5573045E+003  0.2446385E+02  0.7546771E-02  0.1474891E+00
          2   -1    0    0  501    0  0.00000000000E+00  0.00000000000E+00  0.55790073451E+03  0.55790073451E+03  0.00000000000E+00 0.  1.
         -2   -1    0    0    0  501 -0.00000000000E+00 -0.00000000000E+00 -0.80069581369E+01  0.80069581369E+01  0.00000000000E+00 0.  1.
          2    1    1    2  502    0 -0.28272514141E+01 -0.24299934752E+02  0.53826498002E+03  0.53882062776E+03  0.00000000000E+00 0.  1.
         -2    1    1    2    0  502  0.28272514141E+01  0.24299934752E+02  0.11628796345E+02  0.27087064882E+02  0.00000000000E+00 0.  1.
</event>
<event>
 4    1  0.5573045E+003  0.2547955E+02  0.7546771E-02  0.1463510E+00
          2   -1    0    0  501    0  0.00000000000E+00  0.00000000000E+00  0.70447698749E+00  0.70447698749E+00  0.00000000000E+00 0.  1.
         -2   -1    0    0    0  501 -0.00000000000E+00 -0.00000000000E+00 -0.93338609207E+03  0.93338609207E+03  0.00000000000E+00 0. -1.
          2    1    1    2  502    0 -0.18672891972E+02 -0.17335820530E+02 -0.41373716604E+03  0.41452098877E+03  0.00000000000E+00 0.  1.
         -2    1    1    2    0  502  0.18672891972E+02  0.17335820530E+02 -0.51894444904E+03  0.51956958029E+03  0.00000000000E+00 0. -1.
</event>
<event>
 4    1  0.5573045E+003  0.2486205E+02  0.7546771E-02  0.1470353E+00
          2   -1    0    0  501    0  0.00000000000E+00  0.00000000000E+00  0.30228245068E+03  0.30228245068E+03  0.00000000000E+00 0. -1.
         -2   -1    0    0    0  501 -0.00000000000E+00 -0.00000000000E+00 -0.72814593022E+01  0.72814593022E+01  0.00000000000E+00 0. -1.
          2    1    1    2  502    0  0.24789402288E+02 -0.18991962030E+01  0.27876168005E+03  0.27986817553E+03  0.00000000000E+00 0. -1.
         -2    1    1    2    0  502 -0.24789402288E+02  0.18991962030E+01  0.16239311326E+02  0.29695734448E+02  0.00000000000E+00 0. -1.
</event>
<event>
 4    1  0.5573045E+003  0.2117321E+02  0.7546771E-02  0.1516806E+00
          2   -1    0    0  501    0  0.00000000000E+00  0.00000000000E+00  0.15141099832E+01  0.15141099832E+01  0.00000000000E+00 0.  1.
         -2   -1    0    0    0  501 -0.00000000000E+00 -0.00000000000E+00 -0.38319136026E+03  0.38319136026E+03  0.00000000000E+00 0.  1.
          2    1    1    2  502    0  0.15624127846E+02 -0.14289551592E+02 -0.99128680540E+02  0.10136468794E+03  0.00000000000E+00 0.  1.
         -2    1    1    2    0  502 -0.15624127846E+02  0.14289551592E+02 -0.28254856974E+03  0.28334078230E+03  0.00000000000E+00 0.  1.
</event>
<event>
 4    1  0.5762723E+003  0.2140376E+02  0.7546771E-02  0.1513578E+00
          2   -1    0    0  501    0  0.00000000000E+00  0.00000000000E+00  0.12846159510E+04  0.12846159510E+04  0.00000000000E+00 0. -1.
         -2   -1    0    0    0  501 -0.00000000000E+00 -0.00000000000E+00 -0.75386226912E+02  0.75386226912E+02  0.00000000000E+00 0.  1.
          2    1    1    2  502    0 -0.20966043477E+02 -0.43065106314E+01  0.12830056426E+04  0.12831841645E+04  0.00000000000E+00 0. -1.
         -2    1    1    2    0  502  0.20966043477E+02  0.43065106314E+01 -0.73775918590E+02  0.76818013360E+02  0.00000000000E+00 0.  1.
</event>
<event>
 4    1  0.5573045E+003  0.2219984E+02  0.7546771E-02  0.1502798E+00
          2   -1    0    0  501    0  0.00000000000E+00  0.00000000000E+00  0.12696152808E+04  0.12696152808E+04  0.00000000000E+00 0. -1.
         -2   -1    0    0    0  501 -0.00000000000E+00 -0.00000000000E+00 -0.27550170747E+02  0.27550170747E+02  0.00000000000E+00 0. -1.
          2    1    1    2  502    0 -0.99350068743E+01 -0.19852672684E+02  0.12650298871E+04  0.12652246632E+04  0.00000000000E+00 0. -1.
         -2    1    1    2    0  502  0.99350068743E+01  0.19852672684E+02 -0.22964777089E+02  0.31940788360E+02  0.00000000000E+00 0. -1.
</event>
<event>
 4    1  0.5573045E+003  0.2004606E+02  0.7546771E-02  0.1533333E+00
          2   -1    0    0  501    0  0.00000000000E+00  0.00000000000E+00  0.49024681946E+03  0.49024681946E+03  0.00000000000E+00 0. -1.
         -2   -1    0    0    0  501 -0.00000000000E+00 -0.00000000000E+00 -0.22459526327E+01  0.22459526327E+01  0.00000000000E+00 0.  1.
          2    1    1    2  502    0 -0.20014160262E+02  0.11304728427E+01  0.44023302224E+03  0.44068918577E+03  0.00000000000E+00 0. -1.
         -2    1    1    2    0  502  0.20014160262E+02 -0.11304728427E+01  0.47767844583E+02  0.51803586324E+02  0.00000000000E+00 0.  1.
</event>
<event>
 4    1  0.5573045E+003  0.2559240E+02  0.7546771E-02  0.1462284E+00
          2   -1    0    0  501    0  0.00000000000E+00  0.00000000000E+00  0.13682827988E+04  0.13682827988E+04  0.00000000000E+00 0. -1.
         -2   -1    0    0    0  501 -0.00000000000E+00 -0.00000000000E+00 -0.56399735295E+00  0.56399735295E+00  0.00000000000E+00 0. -1.
          2    1    1    2  502    0 -0.23535367371E+02 -0.10052725198E+02  0.95005617349E+03  0.95040081208E+03  0.00000000000E+00 0. -1.
         -2    1    1    2    0  502  0.23535367371E+02  0.10052725198E+02  0.41766262794E+03  0.41844598406E+03  0.00000000000E+00 0. -1.
</event>
<event>
 4    1  0.5573045E+003  0.2220467E+02  0.7546771E-02  0.1502734E+00
          2   -1    0    0  501    0  0.00000000000E+00  0.00000000000E+00  0.10678443083E+04  0.10678443083E+04  0.00000000000E+00 0.  1.
         -2   -1    0    0    0  501 -0.00000000000E+00 -0.00000000000E+00 -0.20623589049E+02  0.20623589049E+02  0.00000000000E+00 0.  1.
          2    1    1    2  502    0 -0.12912969646E+02 -0.18063845015E+02  0.10617176531E+04  0.10619498210E+04  0.00000000000E+00 0.  1.
         -2    1    1    2    0  502  0.12912969646E+02  0.18063845015E+02 -0.14496933895E+02  0.26518076366E+02  0.00000000000E+00 0.  1.
</event>
<event>
 4    1  0.5573045E+003  0.4660692E+02  0.7546771E-02  0.1313594E+00
          2   -1    0    0  501    0  0.00000000000E+00  0.00000000000E+00  0.15842054749E+02  0.15842054749E+02  0.00000000000E+00 0.  1.
         -2   -1    0    0    0  501 -0.00000000000E+00 -0.00000000000E+00 -0.40327463965E+03  0.40327463965E+03  0.00000000000E+00 0.  1.
          2    1    1    2  502    0 -0.45946738169E+02  0.78167834500E+01 -0.23471239639E+02  0.52183368443E+02  0.00000000000E+00 0.  1.
         -2    1    1    2    0  502  0.45946738169E+02 -0.78167834500E+01 -0.36396134526E+03  0.36693332596E+03  0.00000000000E+00 0.  1.
</event>
<event>
 4    1  0.5573045E+003  0.2135413E+02  0.7546771E-02  0.1514268E+00
          2   -1    0    0  501    0  0.00000000000E+00  0.00000000000E+00  0.68692045831E+03  0.68692045831E+03  0.00000000000E+00 0. -1.
         -2   -1    0    0    0  501 -0.00000000000E+00 -0.00000000000E+00 -0.41441261027E+01  0.41441261027E+01  0.00000000000E+00 0.  1.
          2    1    1    2  502    0 -0.21040327072E+02  0.36473981901E+01  0.65803869306E+03  0.65838508522E+03  0.00000000000E+00 0. -1.
         -2    1    1    2    0  502  0.21040327072E+02 -0.36473981901E+01  0.24737639147E+02  0.32679499191E+02  0.00000000000E+00 0.  1.
</event>
<event>
 4    1  0.5573045E+003  0.8131035E+02  0.7546771E-02  0.1200838E+00
          2   -1    0    0  501    0  0.00000000000E+00  0.00000000000E+00  0.13949304932E+04  0.13949304932E+04  0.00000000000E+00 0. -1.
         -2   -1    0    0    0  501 -0.00000000000E+00 -0.00000000000E+00 -0.14197371903E+02  0.14197371903E+02  0.00000000000E+00 0.  1.
          2    1    1    2  502    0 -0.69074729661E+01  0.81016418444E+02  0.12654243534E+04  0.12680339773E+04  0.00000000000E+00 0. -1.
         -2    1    1    2    0  502  0.69074729661E+01 -0.81016418444E+02  0.11530876790E+03  0.14109388787E+03  0.00000000000E+00 0.  1.
</event>
<event>
 4    1  0.5573045E+003  0.2013161E+02  0.7546771E-02  0.1532033E+00
          2   -1    0    0  501    0  0.00000000000E+00  0.00000000000E+00  0.42974815548E+03  0.42974815548E+03  0.00000000000E+00 0. -1.
         -2   -1    0    0    0  501 -0.00000000000E+00 -0.00000000000E+00 -0.17370737397E+02  0.17370737397E+02  0.00000000000E+00 0. -1.
          2    1    1    2  502    0  0.10476831196E+02  0.17190628584E+02  0.42359488452E+03  0.42407299831E+03  0.00000000000E+00 0. -1.
         -2    1    1    2    0  502 -0.10476831196E+02 -0.17190628584E+02 -0.11217466439E+02  0.23045894566E+02  0.00000000000E+00 0. -1.
</event>
<event>
 4    1  0.5573045E+003  0.2524327E+02  0.7546771E-02  0.1466100E+00
          2   -1    0    0  501    0  0.00000000000E+00  0.00000000000E+00  0.80135337528E+03  0.80135337528E+03  0.00000000000E+00 0.  1.
         -2   -1    0    0    0  501 -0.00000000000E+00 -0.00000000000E+00 -0.10689290626E+02  0.10689290626E+02  0.00000000000E+00 0. -1.
          2    1    1    2  502    0 -0.23254025481E+02 -0.98220727807E+01  0.78595945657E+03  0.78636473101E+03  0.00000000000E+00 0.  1.
         -2    1    1    2    0  502  0.23254025481E+02  0.98220727807E+01  0.47046280839E+01  0.25677934889E+02  0.00000000000E+00 0. -1.
</event>
<event>
 4    1  0.5573045E+003  0.2847058E+02  0.7546771E-02  0.1433370E+00
          2   -1    0    0  501    0  0.00000000000E+00  0.00000000000E+00  0.75473925278E+03  0.75473925278E+03  0.00000000000E+00 0. -1.
         -2   -1    0    0    0  501 -0.00000000000E+00 -0.00000000000E+00 -0.28167424608E+02  0.28167424608E+02  0.00000000000E+00 0. -1.
          2    1    1    2  502    0  0.32927448931E+01  0.28279532525E+02  0.74720398167E+03  0.74774618980E+03  0.00000000000E+00 0. -1.
         -2    1    1    2    0  502 -0.32927448931E+01 -0.28279532525E+02 -0.20632153507E+02  0.35160487583E+02  0.00000000000E+00 0. -1.
</event>
<event>
 4    1  0.5573045E+003  0.5170623E+02  0.7546771E-02  0.1290940E+00
          2   -1    0    0  501    0  0.00000000000E+00  0.00000000000E+00  0.23225601346E+02  0.23225601346E+02  0.00000000000E+00 0. -1.
         -2   -1    0    0    0  501 -0.00000000000E+00 -0.00000000000E+00 -0.21191812971E+03  0.21191812971E+03  0.00000000000E+00 0. -1.
          2    1    1    2  502    0  0.45849549096E+02  0.23902999732E+02 -0.14882006285E+02  0.53805284681E+02  0.00000000000E+00 0. -1.
         -2    1    1    2    0  502 -0.45849549096E+02 -0.23902999732E+02 -0.17381052208E+03  0.18133844638E+03  0.00000000000E+00 0. -1.
</event>
<event>
 4    1  0.5573045E+003  0.2096767E+02  0.7546771E-02  0.1519727E+00
          2   -1    0    0  501    0  0.00000000000E+00  0.00000000000E+00  0.41315435538E+02  0.41315435538E+02  0.00000000000E+00 0.  1.
         -2   -1    0    0    0  501 -0.00000000000E+00 -0.00000000000E+00 -0.44926801687E+02  0.44926801687E+02  0.00000000000E+00 0.  1.
          2    1    1    2  502    0 -0.43970364718E+01  0.20501446372E+02  0.35864137387E+02  0.41543706907E+02  0.00000000000E+00 0.  1.
         -2    1    1    2    0  502  0.43970364718E+01 -0.20501446372E+02 -0.39475503536E+02  0.44698530317E+02  0.00000000000E+00 0.  1.
</event>
<event>
 4    1  0.5573045E+003  0.2007921E+02  0.7546771E-02  0.1532828E+00
          2   -1    0    0  501    0  0.00000000000E+00  0.00000000000E+00  0.37107899565E+01  0.37107899565E+01  0.00000000000E+00 0.  1.
         -2   -1    0    0    0  501 -0.00000000000E+00 -0.00000000000E+00 -0.17863707925E+03  0.17863707925E+03  0.00000000000E+00 0. -1.
          2    1    1    2  502    0 -0.61078646801E+00  0.20069921979E+02 -0.30394715561E+02  0.36428197352E+02  0.00000000000E+00 0.  1.
         -2    1    1    2    0  502  0.61078646801E+00 -0.20069921979E+02 -0.14453157373E+03  0.14591967186E+03  0.00000000000E+00 0. -1.
</event>
<event>
 4    1  0.5573045E+003  0.2510200E+02  0.7546771E-02  0.1467665E+00
          2   -1    0    0  501    0  0.00000000000E+00  0.00000000000E+00  0.11280266431E+03  0.11280266431E+03  0.00000000000E+00 0.  1.
         -2   -1    0    0    0  501 -0.00000000000E+00 -0.00000000000E+00 -0.10127715580E+02  0.10127715580E+02  0.00000000000E+00 0. -1.
          2    1    1    2  502    0 -0.25074752917E+02 -0.11693474290E+01  0.92498444090E+02  0.95844002245E+02  0.00000000000E+00 0.  1.
         -2    1    1    2    0  502  0.25074752917E+02  0.11693474290E+01  0.10176504641E+02  0.27086377645E+02  0.00000000000E+00 0. -1.
</event>
<event>
 4    1  0.5573045E+003  0.2438296E+02  0.7546771E-02  0.1475826E+00
          2   -1    0    0  501    0  0.00000000000E+00  0.00000000000E+00  0.60731570370E+02  0.60731570370E+02  0.00000000000E+00 0.  1.
         -2   -1    0    0    0  501 -0.00000000000E+00 -0.00000000000E+00 -0.46071864380E+02  0.46071864380E+02  0.00000000000E+00 0.  1.
          2    1    1    2  502    0 -0.21479612322E+01 -0.24288170847E+02  0.54719709045E+02  0.59906389797E+02  0.00000000000E+00 0.  1.
         -2    1    1    2    0  502  0.21479612322E+01  0.24288170847E+02 -0.40060003055E+02  0.46897044953E+02  0.00000000000E+00 0.  1.
</event>
<event>
 4    1  0.5573045E+003  0.2229513E+02  0.7546771E-02  0.1501544E+00
          2   -1    0    0  501    0  0.00000000000E+00  0.00000000000E+00  0.10102003792E+02  0.10102003792E+02  0.00000000000E+00 0.  1.
         -2   -1    0    0    0  501 -0.00000000000E+00 -0.00000000000E+00 -0.57563527028E+02  0.57563527028E+02  0.00000000000E+00 0.  1.
          2    1    1    2  502    0  0.59975491323E+01 -0.21473294852E+02 -0.10838809946E+02  0.24790175240E+02  0.00000000000E+00 0.  1.
         -2    1    1    2    0  502 -0.59975491323E+01  0.21473294852E+02 -0.36622713291E+02  0.42875355580E+02  0.00000000000E+00 0.  1.
</event>
<event>
 4    1  0.5573045E+003  0.2803333E+02  0.7546771E-02  0.1437495E+00
          2   -1    0    0  501    0  0.00000000000E+00  0.00000000000E+00  0.19704983102E+02  0.19704983102E+02  0.00000000000E+00 0. -1.
         -2   -1    0    0    0  501 -0.00000000000E+00 -0.00000000000E+00 -0.14192897242E+03  0.14192897242E+03  0.00000000000E+00 0. -1.
          2    1    1    2  502    0 -0.19574227119E+02  0.20067813347E+02  0.74159734750E+01  0.28997657878E+02  0.00000000000E+00 0. -1.
         -2    1    1    2    0  502  0.19574227119E+02 -0.20067813347E+02 -0.12963996280E+03  0.13263629765E+03  0.00000000000E+00 0. -1.
</event>
<event>
 4    1  0.5573045E+003  0.2597607E+02  0.7546771E-02  0.1458174E+00
          2   -1    0    0  501    0  0.00000000000E+00  0.00000000000E+00  0.35845894463E+02  0.35845894463E+02  0.00000000000E+00 0.  1.
         -2   -1    0    0    0  501 -0.00000000000E+00 -0.00000000000E+00 -0.37533586553E+02  0.37533586553E+02  0.00000000000E+00 0. -1.
          2    1    1    2  502    0 -0.14861776910E+02 -0.21304552565E+02  0.25060276519E+02  0.36093958388E+02  0.00000000000E+00 0.  1.
         -2    1    1    2    0  502  0.14861776910E+02  0.21304552565E+02 -0.26747968610E+02  0.37285522628E+02  0.00000000000E+00 0. -1.
</event>
<event>
 4    1  0.5573045E+003  0.2509011E+02  0.7546771E-02  0.1467798E+00
          2   -1    0    0  501    0  0.00000000000E+00  0.00000000000E+00  0.58577816574E+03  0.58577816574E+03  0.00000000000E+00 0. -1.
         -2   -1    0    0    0  501 -0.00000000000E+00 -0.00000000000E+00 -0.26696653440E+01  0.26696653440E+01  0.00000000000E+00 0.  1.
          2    1    1    2  502    0 -0.11998518191E+02  0.22035178179E+02  0.51897514412E+03  0.51958128693E+03  0.00000000000E+00 0. -1.
         -2    1    1    2    0  502  0.11998518191E+02 -0.22035178179E+02  0.64133356277E+02  0.68866544152E+02  0.00000000000E+00 0.  1.
</event>
<event>
 4    1  0.5573045E+003  0.2010135E+02  0.7546771E-02  0.1532492E+00
          2   -1    0    0  501    0  0.00000000000E+00  0.00000000000E+00  0.74897024314E+03  0.74897024314E+03  0.00000000000E+00 0. -1.
         -2   -1    0    0    0  501 -0.00000000000E+00 -0.00000000000E+00 -0.13910426554E+01  0.13910426554E+01  0.00000000000E+00 0.  1.
          2    1    1    2  502    0 -0.18183066801E+02 -0.85697371635E+01  0.66733491349E+03  0.66763758962E+03  0.00000000000E+00 0. -1.
         -2    1    1    2    0  502  0.18183066801E+02  0.85697371635E+01  0.80244286992E+02  0.82723696171E+02  0.00000000000E+00 0.  1.
</event>
<event>
 4    1  0.5573045E+003  0.3197407E+02  0.7546771E-02  0.1403183E+00
          2   -1    0    0  501    0  0.00000000000E+00  0.00000000000E+00  0.12580867400E+04  0.12580867400E+04  0.00000000000E+00 0. -1.
         -2   -1    0    0    0  501 -0.00000000000E+00 -0.00000000000E+00 -0.35462932609E+01  0.35462932609E+01  0.00000000000E+00 0. -1.
          2    1    1    2  502    0 -0.31966846373E+02 -0.67974104191E+00  0.11811166512E+04  0.11815493579E+04  0.00000000000E+00 0. -1.
         -2    1    1    2    0  502  0.31966846373E+02  0.67974104191E+00  0.73423795567E+02  0.80083675430E+02  0.00000000000E+00 0. -1.
</event>
<event>
 4    1  0.5573045E+003  0.2038009E+02  0.7546771E-02  0.1528302E+00
          2   -1    0    0  501    0  0.00000000000E+00  0.00000000000E+00  0.13177348502E+02  0.13177348502E+02  0.00000000000E+00 0.  1.
         -2   -1    0    0    0  501 -0.00000000000E+00 -0.00000000000E+00 -0.32181667755E+02  0.32181667755E+02  0.00000000000E+00 0. -1.
          2    1    1    2  502    0 -0.75432938649E+01  0.18932692567E+02 -0.62498152618E+01  0.21316855325E+02  0.00000000000E+00 0.  1.
         -2    1    1    2    0  502  0.75432938649E+01 -0.18932692567E+02 -0.12754503991E+02  0.24042160931E+02  0.00000000000E+00 0. -1.
</event>
<event>
 4    1  0.5573045E+003  0.2080873E+02  0.7546771E-02  0.1522013E+00
          2   -1    0    0  501    0  0.00000000000E+00  0.00000000000E+00  0.16195530853E+04  0.16195530853E+04  0.00000000000E+00 0. -1.
         -2   -1    0    0    0  501 -0.00000000000E+00 -0.00000000000E+00 -0.61997351782E+00  0.61997351782E+00  0.00000000000E+00 0.  1.
          2    1    1    2  502    0  0.12339557022E+02  0.16755260869E+02  0.14204007392E+04  0.14205531540E+04  0.00000000000E+00 0. -1.
         -2    1    1    2    0  502 -0.12339557022E+02 -0.16755260869E+02  0.19853237259E+03  0.19961990482E+03  0.00000000000E+00 0.  1.
</event>
<event>
 4    1  0.5573045E+003  0.2165789E+02  0.7546771E-02  0.1510076E+00
          2   -1    0    0  501    0  0.00000000000E+00  0.00000000000E+00  0.23997378454E+03  0.23997378454E+03  0.00000000000E+00 0.  1.
         -2   -1    0    0    0  501 -0.00000000000E+00 -0.00000000000E+00 -0.12518680574E+02  0.12518680574E+02  0.00000000000E+00 0.  1.
          2    1    1    2  502    0 -0.21162899228E+02  0.46038932813E+01  0.22969978664E+03  0.23071856474E+03  0.00000000000E+00 0.  1.
         -2    1    1    2    0  502  0.21162899228E+02 -0.46038932813E+01 -0.22446826683E+01  0.21773900371E+02  0.00000000000E+00 0.  1.
</event>
<event>
 4    1  0.5573045E+003  0.2052190E+02  0.7546771E-02  0.1526202E+00
          2   -1    0    0  501    0  0.00000000000E+00  0.00000000000E+00  0.11206462006E+03  0.11206462006E+03  0.00000000000E+00 0.  1.
         -2   -1    0    0    0  501 -0.00000000000E+00 -0.00000000000E+00 -0.22645419287E+03  0.22645419287E+03  0.00000000000E+00 0.  1.
          2    1    1    2  502    0 -0.19801795050E+02 -0.53886199026E+01  0.11065428557E+03  0.11254118903E+03  0.00000000000E+00 0.  1.
         -2    1    1    2    0  502  0.19801795050E+02  0.53886199026E+01 -0.22504385838E+03  0.22597762391E+03  0.00000000000E+00 0.  1.
</event>
<event>
 4    1  0.5573045E+003  0.4573383E+02  0.7546771E-02  0.1317810E+00
          2   -1    0    0  501    0  0.00000000000E+00  0.00000000000E+00  0.15971719971E+04  0.15971719971E+04  0.00000000000E+00 0. -1.
         -2   -1    0    0    0  501 -0.00000000000E+00 -0.00000000000E+00 -0.30263540439E+01  0.30263540439E+01  0.00000000000E+00 0.  1.
          2    1    1    2  502    0  0.41711736421E+02  0.18754042512E+02  0.13996931906E+04  0.14004401489E+04  0.00000000000E+00 0. -1.
         -2    1    1    2    0  502 -0.41711736421E+02 -0.18754042512E+02  0.19445245252E+03  0.19975820222E+03  0.00000000000E+00 0.  1.
</event>
<event>
 4    1  0.5573045E+003  0.2115931E+02  0.7546771E-02  0.1517002E+00
          2   -1    0    0  501    0  0.00000000000E+00  0.00000000000E+00  0.76751483556E+02  0.76751483556E+02  0.00000000000E+00 0. -1.
         -2   -1    0    0    0  501 -0.00000000000E+00 -0.00000000000E+00 -0.11590466508E+02  0.11590466508E+02  0.00000000000E+00 0. -1.
          2    1    1    2  502    0  0.15470841351E+02  0.14435004384E+02  0.63711289184E+02  0.67133036972E+02  0.00000000000E+00 0. -1.
         -2    1    1    2    0  502 -0.15470841351E+02 -0.14435004384E+02  0.14497278640E+01  0.21208913092E+02  0.00000000000E+00 0. -1.
</event>
<event>
 4    1  0.5573045E+003  0.2784968E+02  0.7546771E-02  0.1439255E+00
          2   -1    0    0  501    0  0.00000000000E+00  0.00000000000E+00  0.31356947791E+02  0.31356947791E+02  0.00000000000E+00 0. -1.
         -2   -1    0    0    0  501 -0.00000000000E+00 -0.00000000000E+00 -0.71249939795E+02  0.71249939795E+02  0.00000000000E+00 0.  1.
          2    1    1    2  502    0  0.16822800805E+02 -0.22194551773E+02  0.21506115006E+02  0.35186897249E+02  0.00000000000E+00 0. -1.
         -2    1    1    2    0  502 -0.16822800805E+02  0.22194551773E+02 -0.61399107011E+02  0.67419990337E+02  0.00000000000E+00 0.  1.
</event>
<event>
 4    1  0.5573045E+003  0.4724639E+02  0.7546771E-02  0.1310574E+00
          2   -1    0    0  501    0  0.00000000000E+00  0.00000000000E+00  0.45414399191E+03  0.45414399191E+03  0.00000000000E+00 0.  1.
         -2   -1    0    0    0  501 -0.00000000000E+00 -0.00000000000E+00 -0.79131493213E+02  0.79131493213E+02  0.00000000000E+00 0. -1.
          2    1    1    2  502    0  0.36706335539E+02 -0.29746698522E+02  0.44573018254E+03  0.44822719325E+03  0.00000000000E+00 0.  1.
         -2    1    1    2    0  502 -0.36706335539E+02  0.29746698522E+02 -0.70717683845E+02  0.85048291871E+02  0.00000000000E+00 0. -1.
</event>
<event>
 4    1  0.5573045E+003  0.2445890E+02  0.7546771E-02  0.1474949E+00
          2   -1    0    0  501    0  0.00000000000E+00  0.00000000000E+00  0.10276688044E+04  0.10276688044E+04  0.00000000000E+00 0.  1.
         -2   -1    0    0    0  501 -0.00000000000E+00 -0.00000000000E+00 -0.73737381906E+00  0.73737381906E+00  0.00000000000E+00 0.  1.
          2    1    1    2  502    0  0.71099201821E+01 -0.23402707252E+02  0.74940314990E+03  0.74980218642E+03  0.00000000000E+00 0.  1.
         -2    1    1    2    0  502 -0.71099201821E+01  0.23402707252E+02  0.27752828063E+03  0.27860399175E+03  0.00000000000E+00 0.  1.
</event>
<event>
 4    1  0.5573045E+003  0.3132290E+02  0.7546771E-02  0.1408438E+00
          2   -1    0    0  501    0  0.00000000000E+00  0.00000000000E+00  0.21544771519E+03  0.21544771519E+03  0.00000000000E+00 0.  1.
         -2   -1    0    0    0  501 -0.00000000000E+00 -0.00000000000E+00 -0.36707996094E+02  0.36707996094E+02  0.00000000000E+00 0. -1.
          2    1    1    2  502    0 -0.23492449742E+02 -0.20717845938E+02  0.20736842362E+03  0.20972073681E+03  0.00000000000E+00 0.  1.
         -2    1    1    2    0  502  0.23492449742E+02  0.20717845938E+02 -0.28628704527E+02  0.42434974468E+02  0.00000000000E+00 0. -1.
</event>
<event>
 4    1  0.5573045E+003  0.2554660E+02  0.7546771E-02  0.1462781E+00
          2   -1    0    0  501    0  0.00000000000E+00  0.00000000000E+00  0.18660005860E+02  0.18660005860E+02  0.00000000000E+00 0.  1.
         -2   -1    0    0    0  501 -0.00000000000E+00 -0.00000000000E+00 -0.46238674704E+03  0.46238674704E+03  0.00000000000E+00 0.  1.
          2    1    1    2  502    0 -0.13069440611E+02 -0.21950362877E+02  0.93846191401E+01  0.27215800277E+02  0.00000000000E+00 0.  1.
         -2    1    1    2    0  502  0.13069440611E+02  0.21950362877E+02 -0.45311136032E+03  0.45383095263E+03  0.00000000000E+00 0.  1.
</event>
<event>
 4    1  0.5573045E+003  0.2683475E+02  0.7546771E-02  0.1449275E+00
          2   -1    0    0  501    0  0.00000000000E+00  0.00000000000E+00  0.15755372812E+04  0.15755372812E+04  0.00000000000E+00 0. -1.
         -2   -1    0    0    0  501 -0.00000000000E+00 -0.00000000000E+00 -0.64236669016E+00  0.64236669016E+00  0.00000000000E+00 0. -1.
          2    1    1    2  502    0  0.24657602872E+01  0.26721221024E+02  0.12107377157E+04  0.12110350613E+04  0.00000000000E+00 0. -1.
         -2    1    1    2    0  502 -0.24657602872E+01 -0.26721221024E+02  0.36415719891E+03  0.36514458663E+03  0.00000000000E+00 0. -1.
</event>
<event>
 4    1  0.5573045E+003  0.7080245E+02  0.7546771E-02  0.1226978E+00
          2   -1    0    0  501    0  0.00000000000E+00  0.00000000000E+00  0.20252896429E+03  0.20252896429E+03  0.00000000000E+00 0. -1.
         -2   -1    0    0    0  501 -0.00000000000E+00 -0.00000000000E+00 -0.11487978051E+03  0.11487978051E+03  0.00000000000E+00 0.  1.
          2    1    1    2  502    0 -0.50741313756E+02  0.49379210289E+02  0.18439585450E+03  0.19752169118E+03  0.00000000000E+00 0. -1.
         -2    1    1    2    0  502  0.50741313756E+02 -0.49379210289E+02 -0.96746670720E+02  0.11988705362E+03  0.00000000000E+00 0.  1.
</event>
<event>
 4    1  0.5573045E+003  0.2008740E+02  0.7546771E-02  0.1532704E+00
          2   -1    0    0  501    0  0.00000000000E+00  0.00000000000E+00  0.15461702483E+03  0.15461702483E+03  0.00000000000E+00 0.  1.
         -2   -1    0    0    0  501 -0.00000000000E+00 -0.00000000000E+00 -0.82998344521E+01  0.82998344521E+01  0.00000000000E+00 0. -1.
          2    1    1    2  502    0 -0.80827596709E+01  0.18389474097E+02  0.14060559776E+03  0.14203322809E+03  0.00000000000E+00 0.  1.
         -2    1    1    2    0  502  0.80827596709E+01 -0.18389474097E+02  0.57115926221E+01  0.20883631192E+02  0.00000000000E+00 0. -1.
</event>
<event>
 4    1  0.5573045E+003  0.2078174E+02  0.7546771E-02  0.1522404E+00
          2   -1    0    0  501    0  0.00000000000E+00  0.00000000000E+00  0.62212146589E+02  0.62212146589E+02  0.00000000000E+00 0. -1.
         -2   -1    0    0    0  501 -0.00000000000E+00 -0.00000000000E+00 -0.43106461361E+02  0.43106461361E+02  0.00000000000E+00 0. -1.
          2    1    1    2  502    0 -0.69434584844E+01 -0.19587470773E+02  0.57785873341E+02  0.61409183228E+02  0.00000000000E+00 0. -1.
         -2    1    1    2    0  502  0.69434584844E+01  0.19587470773E+02 -0.38680188112E+02  0.43909424722E+02  0.00000000000E+00 0. -1.
</event>
<event>
 4    1  0.5573045E+003  0.3595050E+02  0.7546771E-02  0.1374001E+00
          2   -1    0    0  501    0  0.00000000000E+00  0.00000000000E+00  0.12626964162E+04  0.12626964162E+04  0.00000000000E+00 0. -1.
         -2   -1    0    0    0  501 -0.00000000000E+00 -0.00000000000E+00 -0.59684862174E+01  0.59684862174E+01  0.00000000000E+00 0. -1.
          2    1    1    2  502    0  0.26723568238E+02  0.24047643621E+02  0.12057482950E+04  0.12062841245E+04  0.00000000000E+00 0. -1.
         -2    1    1    2    0  502 -0.26723568238E+02 -0.24047643621E+02  0.50979634964E+02  0.62380777842E+02  0.00000000000E+00 0. -1.
</event>
<event>
 4    1  0.5573045E+003  0.2384402E+02  0.7546771E-02  0.1482163E+00
          2   -1    0    0  501    0  0.00000000000E+00  0.00000000000E+00  0.37033013034E+03  0.37033013034E+03  0.00000000000E+00 0. -1.
         -2   -1    0    0    0  501 -0.00000000000E+00 -0.00000000000E+00 -0.38505303435E+01  0.38505303435E+01  0.00000000000E+00 0. -1.
          2    1    1    2  502    0 -0.15823019391E+01 -0.23791458292E+02  0.32831592268E+03  0.32918062254E+03  0.00000000000E+00 0. -1.
         -2    1    1    2    0  502  0.15823019391E+01  0.23791458292E+02  0.38163677317E+02  0.45000038149E+02  0.00000000000E+00 0. -1.
</event>
<event>
 4    1  0.5573045E+003  0.2163478E+02  0.7546771E-02  0.1510392E+00
          2   -1    0    0  501    0  0.00000000000E+00  0.00000000000E+00  0.13109612141E+04  0.13109612141E+04  0.00000000000E+00 0.  1.
         -2   -1    0    0    0  501 -0.00000000000E+00 -0.00000000000E+00 -0.72302211327E+00  0.72302211327E+00  0.00000000000E+00 0. -1.
          2    1    1    2  502    0  0.42088299950E+01 -0.21221442320E+02  0.11217292934E+04  0.11219379089E+04  0.00000000000E+00 0.  1.
         -2    1    1    2    0  502 -0.42088299950E+01  0.21221442320E+02  0.18850889859E+03  0.18974632727E+03  0.00000000000E+00 0. -1.
</event>
<event>
 4    1  0.5573045E+003  0.2526310E+02  0.7546771E-02  0.1465881E+00
          2   -1    0    0  501    0  0.00000000000E+00  0.00000000000E+00  0.27496758162E+03  0.27496758162E+03  0.00000000000E+00 0. -1.
         -2   -1    0    0    0  501 -0.00000000000E+00 -0.00000000000E+00 -0.44715044976E+01  0.44715044976E+01  0.00000000000E+00 0. -1.
          2    1    1    2  502    0 -0.23763126135E+02 -0.85754319726E+01  0.23214084228E+03  0.23351144480E+03  0.00000000000E+00 0. -1.
         -2    1    1    2    0  502  0.23763126135E+02  0.85754319726E+01  0.38355234833E+02  0.45927641310E+02  0.00000000000E+00 0. -1.
</event>
<event>
 4    1  0.5573045E+003  0.2335383E+02  0.7546771E-02  0.1488102E+00
          2   -1    0    0  501    0  0.00000000000E+00  0.00000000000E+00  0.11381181025E+04  0.11381181025E+04  0.00000000000E+00 0.  1.
         -2   -1    0    0    0  501 -0.00000000000E+00 -0.00000000000E+00 -0.63047281333E+00  0.63047281333E+00  0.00000000000E+00 0. -1.
          2    1    1    2  502    0  0.20864990078E+02 -0.10490638873E+02  0.84762938214E+03  0.84795104268E+03  0.00000000000E+00 0.  1.
         -2    1    1    2    0  502 -0.20864990078E+02  0.10490638873E+02  0.28985824759E+03  0.29079753268E+03  0.00000000000E+00 0. -1.
</event>
<event>
 4    1  0.5573045E+003  0.2639897E+02  0.7546771E-02  0.1453741E+00
          2   -1    0    0  501    0  0.00000000000E+00  0.00000000000E+00  0.12498766713E+04  0.12498766713E+04  0.00000000000E+00 0.  1.
         -2   -1    0    0    0  501 -0.00000000000E+00 -0.00000000000E+00 -0.97230863962E+00  0.97230863962E+00  0.00000000000E+00 0. -1.
          2    1    1    2  502    0  0.26382784709E+02 -0.92430260580E+00  0.10329173825E+04  0.10332546756E+04  0.00000000000E+00 0.  1.
         -2    1    1    2    0  502 -0.26382784709E+02  0.92430260580E+00  0.21598698019E+03  0.21759430433E+03  0.00000000000E+00 0. -1.
</event>
<event>
 4    1  0.5573045E+003  0.3616965E+02  0.7546771E-02  0.1372522E+00
          2   -1    0    0  501    0  0.00000000000E+00  0.00000000000E+00  0.89334824610E+03  0.89334824610E+03  0.00000000000E+00 0. -1.
         -2   -1    0    0    0  501 -0.00000000000E+00 -0.00000000000E+00 -0.55754379693E+02  0.55754379693E+02  0.00000000000E+00 0.  1.
          2    1    1    2  502    0 -0.38161958583E+01  0.35967768641E+02  0.88707456649E+03  0.88781165246E+03  0.00000000000E+00 0. -1.
         -2    1    1    2    0  502  0.38161958583E+01 -0.35967768641E+02 -0.49480700080E+02  0.61290973334E+02  0.00000000000E+00 0.  1.
</event>
<event>
 4    1  0.5573045E+003  0.3257648E+02  0.7546771E-02  0.1398452E+00
          2   -1    0    0  501    0  0.00000000000E+00  0.00000000000E+00  0.26334801791E+04  0.26334801791E+04  0.00000000000E+00 0. -1.
         -2   -1    0    0    0  501 -0.00000000000E+00 -0.00000000000E+00 -0.86005008673E+00  0.86005008673E+00  0.00000000000E+00 0.  1.
          2    1    1    2  502    0  0.10926120386E+02  0.30689523471E+02  0.22765366382E+04  0.22767697055E+04  0.00000000000E+00 0. -1.
         -2    1    1    2    0  502 -0.10926120386E+02 -0.30689523471E+02  0.35608349081E+03  0.35757052365E+03  0.00000000000E+00 0.  1.
</event>
<event>
 4    1  0.5573045E+003  0.2089309E+02  0.7546771E-02  0.1520797E+00
          2   -1    0    0  501    0  0.00000000000E+00  0.00000000000E+00  0.25419553259E+03  0.25419553259E+03  0.00000000000E+00 0. -1.
         -2   -1    0    0    0  501 -0.00000000000E+00 -0.00000000000E+00 -0.23797784404E+01  0.23797784404E+01  0.00000000000E+00 0.  1.
          2    1    1    2  502    0  0.15597932526E+02 -0.13900557773E+02  0.19359624812E+03  0.19472038489E+03  0.00000000000E+00 0. -1.
         -2    1    1    2    0  502 -0.15597932526E+02  0.13900557773E+02  0.58219506021E+02  0.61854926132E+02  0.00000000000E+00 0.  1.
</event>
<event>
 4    1  0.5573045E+003  0.4225495E+02  0.7546771E-02  0.1335755E+00
          2   -1    0    0  501    0  0.00000000000E+00  0.00000000000E+00  0.30203517662E+04  0.30203517662E+04  0.00000000000E+00 0. -1.
         -2   -1    0    0    0  501 -0.00000000000E+00 -0.00000000000E+00 -0.77882771847E+00  0.77882771847E+00  0.00000000000E+00 0.  1.
          2    1    1    2  502    0  0.13754455779E+02  0.39953667524E+02  0.22513106075E+04  0.22517071151E+04  0.00000000000E+00 0. -1.
         -2    1    1    2    0  502 -0.13754455779E+02 -0.39953667524E+02  0.76826233099E+03  0.76942347886E+03  0.00000000000E+00 0.  1.
</event>
<event>
 4    1  0.5573045E+003  0.2182602E+02  0.7546771E-02  0.1507790E+00
          2   -1    0    0  501    0  0.00000000000E+00  0.00000000000E+00  0.11895281288E+02  0.11895281288E+02  0.00000000000E+00 0.  1.
         -2   -1    0    0    0  501 -0.00000000000E+00 -0.00000000000E+00 -0.11333159491E+03  0.11333159491E+03  0.00000000000E+00 0. -1.
          2    1    1    2  502    0  0.21593650284E+02  0.31764147476E+01 -0.36842656132E+00  0.21829133775E+02  0.00000000000E+00 0.  1.
         -2    1    1    2    0  502 -0.21593650284E+02 -0.31764147476E+01 -0.10106788706E+03  0.10339774242E+03  0.00000000000E+00 0. -1.
</event>
<event>
 4    1  0.5573045E+003  0.2191398E+02  0.7546771E-02  0.1506605E+00
          2   -1    0    0  501    0  0.00000000000E+00  0.00000000000E+00  0.25284863718E+03  0.25284863718E+03  0.00000000000E+00 0.  1.
         -2   -1    0    0    0  501 -0.00000000000E+00 -0.00000000000E+00 -0.44010311355E+01  0.44010311355E+01  0.00000000000E+00 0.  1.
          2    1    1    2  502    0  0.19263424712E+02  0.10447158482E+02  0.22120159818E+03  0.22228443420E+03  0.00000000000E+00 0.  1.
         -2    1    1    2    0  502 -0.19263424712E+02 -0.10447158482E+02  0.27246007870E+02  0.34965234117E+02  0.00000000000E+00 0.  1.
</event>
<event>
 4    1  0.5573045E+003  0.2233640E+02  0.7546771E-02  0.1501003E+00
          2   -1    0    0  501    0  0.00000000000E+00  0.00000000000E+00  0.19592192607E+03  0.19592192607E+03  0.00000000000E+00 0.  1.
         -2   -1    0    0    0  501 -0.00000000000E+00 -0.00000000000E+00 -0.98027636005E+01  0.98027636005E+01  0.00000000000E+00 0.  1.
          2    1    1    2  502    0 -0.18264044106E+02 -0.12858442480E+02  0.18155865637E+03  0.18292747348E+03  0.00000000000E+00 0.  1.
         -2    1    1    2    0  502  0.18264044106E+02  0.12858442480E+02  0.45605060963E+01  0.22797216189E+02  0.00000000000E+00 0.  1.
</event>
<event>
 4    1  0.5573045E+003  0.2123776E+02  0.7546771E-02  0.1515897E+00
          2   -1    0    0  501    0  0.00000000000E+00  0.00000000000E+00  0.10459681104E+04  0.10459681104E+04  0.00000000000E+00 0. -1.
         -2   -1    0    0    0  501 -0.00000000000E+00 -0.00000000000E+00 -0.12140918863E+01  0.12140918863E+01  0.00000000000E+00 0. -1.
          2    1    1    2  502    0 -0.17332496193E+02 -0.12273017662E+02  0.94282455546E+03  0.94306372254E+03  0.00000000000E+00 0. -1.
         -2    1    1    2    0  502  0.17332496193E+02  0.12273017662E+02  0.10192946302E+03  0.10411847972E+03  0.00000000000E+00 0. -1.
</event>
<event>
 4    1  0.5573045E+003  0.3070052E+02  0.7546771E-02  0.1413605E+00
          2   -1    0    0  501    0  0.00000000000E+00  0.00000000000E+00  0.69885445875E+03  0.69885445875E+03  0.00000000000E+00 0.  1.
         -2   -1    0    0    0  501 -0.00000000000E+00 -0.00000000000E+00 -0.16612084388E+02  0.16612084388E+02  0.00000000000E+00 0.  1.
          2    1    1    2  502    0  0.12708757198E+02  0.27946547402E+02  0.68402566682E+03  0.68471427244E+03  0.00000000000E+00 0.  1.
         -2    1    1    2    0  502 -0.12708757198E+02 -0.27946547402E+02 -0.17832924520E+01  0.30752270699E+02  0.00000000000E+00 0.  1.
</event>
<event>
 4    1  0.5573045E+003  0.4321642E+02  0.7546771E-02  0.1330603E+00
          2   -1    0    0  501    0  0.00000000000E+00  0.00000000000E+00  0.17094382436E+04  0.17094382436E+04  0.00000000000E+00 0. -1.
         -2   -1    0    0    0  501 -0.00000000000E+00 -0.00000000000E+00 -0.89338584079E+01  0.89338584079E+01  0.00000000000E+00 0.  1.
          2    1    1    2  502    0  0.39903023372E+02 -0.16595410200E+02  0.16551889424E+04  0.16557530292E+04  0.00000000000E+00 0. -1.
         -2    1    1    2    0  502 -0.39903023372E+02  0.16595410200E+02  0.45315442780E+02  0.62619072719E+02  0.00000000000E+00 0.  1.
</event>
<event>
 4    1  0.5573045E+003  0.2226003E+02  0.7546771E-02  0.1502005E+00
          2   -1    0    0  501    0  0.00000000000E+00  0.00000000000E+00  0.43762175847E+02  0.43762175847E+02  0.00000000000E+00 0.  1.
         -2   -1    0    0    0  501 -0.00000000000E+00 -0.00000000000E+00 -0.14783986159E+02  0.14783986159E+02  0.00000000000E+00 0. -1.
          2    1    1    2  502    0  0.10811249632E+02  0.19458297304E+02  0.32503081826E+00  0.22262392001E+02  0.00000000000E+00 0. -1.
         -2    1    1    2    0  502 -0.10811249632E+02 -0.19458297304E+02  0.28653158870E+02  0.36283770005E+02  0.00000000000E+00 0.  1.
</event>
<event>
 4    1  0.5573045E+003  0.3855885E+02  0.7546771E-02  0.1357144E+00
          2   -1    0    0  501    0  0.00000000000E+00  0.00000000000E+00  0.11284664387E+04  0.11284664387E+04  0.00000000000E+00 0.  1.
         -2   -1    0    0    0  501 -0.00000000000E+00 -0.00000000000E+00 -0.32091164141E+01  0.32091164141E+01  0.00000000000E+00 0.  1.
          2    1    1    2  502    0 -0.36815726167E+01 -0.38382693770E+02  0.99705147564E+03  0.99779678804E+03  0.00000000000E+00 0.  1.
         -2    1    1    2    0  502  0.36815726167E+01  0.38382693770E+02  0.12820584668E+03  0.13387876710E+03  0.00000000000E+00 0.  1.
</event>
<event>
 4    1  0.5573045E+003  0.2505127E+02  0.7546771E-02  0.1468231E+00
          2   -1    0    0  501    0  0.00000000000E+00  0.00000000000E+00  0.66518961090E+01  0.66518961090E+01  0.00000000000E+00 0.  1.
         -2   -1    0    0    0  501 -0.00000000000E+00 -0.00000000000E+00 -0.84550902624E+03  0.84550902624E+03  0.00000000000E+00 0.  1.
          2    1    1    2  502    0  0.21790273428E+02  0.12359212955E+02 -0.17822568534E+02  0.30744269549E+02  0.00000000000E+00 0.  1.
         -2    1    1    2    0  502 -0.21790273428E+02 -0.12359212955E+02 -0.82103456160E+03  0.82141665280E+03  0.00000000000E+00 0.  1.
</event>
<event>
 4    1  0.5573045E+003  0.3173534E+02  0.7546771E-02  0.1405093E+00
          2   -1    0    0  501    0  0.00000000000E+00  0.00000000000E+00  0.19851566376E+04  0.19851566376E+04  0.00000000000E+00 0. -1.
         -2   -1    0    0    0  501 -0.00000000000E+00 -0.00000000000E+00 -0.62843046344E+00  0.62843046344E+00  0.00000000000E+00 0. -1.
          2    1    1    2  502    0  0.31722172633E+02 -0.91400101825E+00  0.14281217007E+04  0.14284742643E+04  0.00000000000E+00 0. -1.
         -2    1    1    2    0  502 -0.31722172633E+02  0.91400101825E+00  0.55640650643E+03  0.55731080380E+03  0.00000000000E+00 0. -1.
</event>
<event>
 4    1  0.5573045E+003  0.2045487E+02  0.7546771E-02  0.1527192E+00
          2   -1    0    0  501    0  0.00000000000E+00  0.00000000000E+00  0.25992588594E+01  0.25992588594E+01  0.00000000000E+00 0.  1.
         -2   -1    0    0    0  501 -0.00000000000E+00 -0.00000000000E+00 -0.24828107966E+03  0.24828107966E+03  0.00000000000E+00 0. -1.
          2    1    1    2  502    0 -0.20316728319E+02  0.23732620937E+01 -0.48453346516E+02  0.52593997862E+02  0.00000000000E+00 0.  1.
         -2    1    1    2    0  502  0.20316728319E+02 -0.23732620937E+01 -0.19722847428E+03  0.19828634066E+03  0.00000000000E+00 0. -1.
</event>
<event>
 4    1  0.5573045E+003  0.2841005E+02  0.7546771E-02  0.1433936E+00
          2   -1    0    0  501    0  0.00000000000E+00  0.00000000000E+00  0.52164215860E+01  0.52164215860E+01  0.00000000000E+00 0. -1.
         -2   -1    0    0    0  501 -0.00000000000E+00 -0.00000000000E+00 -0.23339272653E+03  0.23339272653E+03  0.00000000000E+00 0.  1.
          2    1    1    2  502    0 -0.23963458883E+02 -0.15260521647E+02 -0.44825180238E+02  0.53070026059E+02  0.00000000000E+00 0. -1.
         -2    1    1    2    0  502  0.23963458883E+02  0.15260521647E+02 -0.18335112471E+03  0.18553912206E+03  0.00000000000E+00 0.  1.
</event>
<event>
 4    1  0.5573045E+003  0.2086895E+02  0.7546771E-02  0.1521144E+00
          2   -1    0    0  501    0  0.00000000000E+00  0.00000000000E+00  0.11537405276E+04  0.11537405276E+04  0.00000000000E+00 0.  1.
         -2   -1    0    0    0  501 -0.00000000000E+00 -0.00000000000E+00 -0.10842619346E+02  0.10842619346E+02  0.00000000000E+00 0. -1.
          2    1    1    2  502    0 -0.63015141436E+01  0.19894827903E+02  0.11435146690E+04  0.11437050807E+04  0.00000000000E+00 0.  1.
         -2    1    1    2    0  502  0.63015141436E+01 -0.19894827903E+02 -0.61676077300E+00  0.20878066281E+02  0.00000000000E+00 0. -1.
</event>
<event>
 4    1  0.5573045E+003  0.2636249E+02  0.7546771E-02  0.1454119E+00
          2   -1    0    0  501    0  0.00000000000E+00  0.00000000000E+00  0.11132170906E+04  0.11132170906E+04  0.00000000000E+00 0. -1.
         -2   -1    0    0    0  501 -0.00000000000E+00 -0.00000000000E+00 -0.11029963348E+01  0.11029963348E+01  0.00000000000E+00 0. -1.
          2    1    1    2  502    0 -0.88543285187E+01  0.24831061188E+02  0.92310538675E+03  0.92348174632E+03  0.00000000000E+00 0. -1.
         -2    1    1    2    0  502  0.88543285187E+01 -0.24831061188E+02  0.18900870750E+03  0.19083834061E+03  0.00000000000E+00 0. -1.
</event>
<event>
 4    1  0.5573045E+003  0.2886675E+02  0.7546771E-02  0.1429707E+00
          2   -1    0    0  501    0  0.00000000000E+00  0.00000000000E+00  0.11174324268E+03  0.11174324268E+03  0.00000000000E+00 0. -1.
         -2   -1    0    0    0  501 -0.00000000000E+00 -0.00000000000E+00 -0.10184735247E+02  0.10184735247E+02  0.00000000000E+00 0.  1.
          2    1    1    2  502    0  0.26314502584E+02  0.11867445476E+02  0.82328239334E+02  0.87242353821E+02  0.00000000000E+00 0. -1.
         -2    1    1    2    0  502 -0.26314502584E+02 -0.11867445476E+02  0.19230268096E+02  0.34685624103E+02  0.00000000000E+00 0.  1.
</event>
<event>
 4    1  0.5573045E+003  0.3263992E+02  0.7546771E-02  0.1397960E+00
          2   -1    0    0  501    0  0.00000000000E+00  0.00000000000E+00  0.29953233469E+02  0.29953233469E+02  0.00000000000E+00 0. -1.
         -2   -1    0    0    0  501 -0.00000000000E+00 -0.00000000000E+00 -0.29705652205E+03  0.29705652205E+03  0.00000000000E+00 0. -1.
          2    1    1    2  502    0  0.18997813743E+02  0.26541435041E+02  0.19852754371E+02  0.38203357931E+02  0.00000000000E+00 0. -1.
         -2    1    1    2    0  502 -0.18997813743E+02 -0.26541435041E+02 -0.28695604295E+03  0.28880639758E+03  0.00000000000E+00 0. -1.
</event>
<event>
 4    1  0.5573045E+003  0.2843461E+02  0.7546771E-02  0.1433706E+00
          2   -1    0    0  501    0  0.00000000000E+00  0.00000000000E+00  0.13484758756E+04  0.13484758756E+04  0.00000000000E+00 0. -1.
         -2   -1    0    0    0  501 -0.00000000000E+00 -0.00000000000E+00 -0.22369317215E+02  0.22369317215E+02  0.00000000000E+00 0. -1.
          2    1    1    2  502    0 -0.28362527845E+02  0.20234022761E+01  0.13392274669E+04  0.13395292962E+04  0.00000000000E+00 0. -1.
         -2    1    1    2    0  502  0.28362527845E+02 -0.20234022761E+01 -0.13120908529E+02  0.31315896652E+02  0.00000000000E+00 0. -1.
</event>
<event>
 4    1  0.5573045E+003  0.2085607E+02  0.7546771E-02  0.1521330E+00
          2   -1    0    0  501    0  0.00000000000E+00  0.00000000000E+00  0.16257530812E+03  0.16257530812E+03  0.00000000000E+00 0.  1.
         -2   -1    0    0    0  501 -0.00000000000E+00 -0.00000000000E+00 -0.22097543238E+02  0.22097543238E+02  0.00000000000E+00 0. -1.
          2    1    1    2  502    0  0.10996008188E+02 -0.17721833675E+02  0.15680504253E+03  0.15818595686E+03  0.00000000000E+00 0.  1.
         -2    1    1    2    0  502 -0.10996008188E+02  0.17721833675E+02 -0.16327277646E+02  0.26486894499E+02  0.00000000000E+00 0. -1.
</event>
<event>
 4    1  0.5573045E+003  0.2177658E+02  0.7546771E-02  0.1508460E+00
          2   -1    0    0  501    0  0.00000000000E+00  0.00000000000E+00  0.50044205104E+03  0.50044205104E+03  0.00000000000E+00 0. -1.
         -2   -1    0    0    0  501 -0.00000000000E+00 -0.00000000000E+00 -0.42037772260E+01  0.42037772260E+01  0.00000000000E+00 0.  1.
          2    1    1    2  502    0  0.16233036156E+02 -0.14515782456E+02  0.47018959772E+03  0.47069361288E+03  0.00000000000E+00 0. -1.
         -2    1    1    2    0  502 -0.16233036156E+02  0.14515782456E+02  0.26048676087E+02  0.33952215378E+02  0.00000000000E+00 0.  1.
</event>
<event>
 4    1  0.5573045E+003  0.3387841E+02  0.7546771E-02  0.1388624E+00
          2   -1    0    0  501    0  0.00000000000E+00  0.00000000000E+00  0.20250013456E+03  0.20250013456E+03  0.00000000000E+00 0. -1.
         -2   -1    0    0    0  501 -0.00000000000E+00 -0.00000000000E+00 -0.15670991879E+03  0.15670991879E+03  0.00000000000E+00 0.  1.
          2    1    1    2  502    0 -0.24313048633E+02 -0.23592842882E+02  0.19922224787E+03  0.20208228674E+03  0.00000000000E+00 0. -1.
         -2    1    1    2    0  502  0.24313048633E+02  0.23592842882E+02 -0.15343203209E+03  0.15712776661E+03  0.00000000000E+00 0.  1.
</event>
<event>
 4    1  0.5573045E+003  0.2840912E+02  0.7546771E-02  0.1433945E+00
          2   -1    0    0  501    0  0.00000000000E+00  0.00000000000E+00  0.17466571564E+04  0.17466571564E+04  0.00000000000E+00 0.  1.
         -2   -1    0    0    0  501 -0.00000000000E+00 -0.00000000000E+00 -0.15856593448E+01  0.15856593448E+01  0.00000000000E+00 0. -1.
          2    1    1    2  502    0 -0.16211202363E+01  0.28362833413E+02  0.16083540136E+04  0.16086048960E+04  0.00000000000E+00 0.  1.
         -2    1    1    2    0  502  0.16211202363E+01 -0.28362833413E+02  0.13671748342E+03  0.13963791972E+03  0.00000000000E+00 0. -1.
</event>
<event>
 4    1  0.5573045E+003  0.3232400E+02  0.7546771E-02  0.1400420E+00
          2   -1    0    0  501    0  0.00000000000E+00  0.00000000000E+00  0.11232683908E+03  0.11232683908E+03  0.00000000000E+00 0. -1.
         -2   -1    0    0    0  501 -0.00000000000E+00 -0.00000000000E+00 -0.40992739013E+02  0.40992739013E+02  0.00000000000E+00 0. -1.
          2    1    1    2  502    0 -0.37612037277E+01  0.32104430642E+02  0.10307044101E+03  0.10802016909E+03  0.00000000000E+00 0. -1.
         -2    1    1    2    0  502  0.37612037277E+01 -0.32104430642E+02 -0.31736340938E+02  0.45299409008E+02  0.00000000000E+00 0. -1.
</event>
<event>
 4    1  0.5573045E+003  0.2830680E+02  0.7546771E-02  0.1434905E+00
          2   -1    0    0  501    0  0.00000000000E+00  0.00000000000E+00  0.15037189552E+02  0.15037189552E+02  0.00000000000E+00 0. -1.
         -2   -1    0    0    0  501 -0.00000000000E+00 -0.00000000000E+00 -0.54269120716E+02  0.54269120716E+02  0.00000000000E+00 0. -1.
          2    1    1    2  502    0 -0.22591436138E+02  0.17055851113E+02 -0.14952374827E+02  0.32013255957E+02  0.00000000000E+00 0. -1.
         -2    1    1    2    0  502  0.22591436138E+02 -0.17055851113E+02 -0.24279556337E+02  0.37293054312E+02  0.00000000000E+00 0. -1.
</event>
<event>
 4    1  0.5573045E+003  0.2533737E+02  0.7546771E-02  0.1465064E+00
          2   -1    0    0  501    0  0.00000000000E+00  0.00000000000E+00  0.19590285048E+01  0.19590285048E+01  0.00000000000E+00 0. -1.
         -2   -1    0    0    0  501 -0.00000000000E+00 -0.00000000000E+00 -0.45693540790E+03  0.45693540790E+03  0.00000000000E+00 0. -1.
          2    1    1    2  502    0  0.20476393001E+02 -0.14923131430E+02 -0.10546607929E+03  0.10846693691E+03  0.00000000000E+00 0. -1.
         -2    1    1    2    0  502 -0.20476393001E+02  0.14923131430E+02 -0.34951030010E+03  0.35042749949E+03  0.00000000000E+00 0. -1.
</event>
<event>
 4    1  0.5573045E+003  0.7423757E+02  0.7546771E-02  0.1217897E+00
          2   -1    0    0  501    0  0.00000000000E+00  0.00000000000E+00  0.12763881365E+04  0.12763881365E+04  0.00000000000E+00 0. -1.
         -2   -1    0    0    0  501 -0.00000000000E+00 -0.00000000000E+00 -0.23429112971E+02  0.23429112971E+02  0.00000000000E+00 0. -1.
          2    1    1    2  502    0 -0.95904407134E+01  0.73615485283E+02  0.12134542278E+04  0.12157229862E+04  0.00000000000E+00 0. -1.
         -2    1    1    2    0  502  0.95904407134E+01 -0.73615485283E+02  0.39504795710E+02  0.84094263244E+02  0.00000000000E+00 0. -1.
</event>
<event>
 4    1  0.5573045E+003  0.2594353E+02  0.7546771E-02  0.1458519E+00
          2   -1    0    0  501    0  0.00000000000E+00  0.00000000000E+00  0.18178352974E+02  0.18178352974E+02  0.00000000000E+00 0. -1.
         -2   -1    0    0    0  501 -0.00000000000E+00 -0.00000000000E+00 -0.60607043266E+02  0.60607043266E+02  0.00000000000E+00 0. -1.
          2    1    1    2  502    0  0.17324131365E+02 -0.19311683011E+02  0.33575274336E+01  0.26159885679E+02  0.00000000000E+00 0. -1.
         -2    1    1    2    0  502 -0.17324131365E+02  0.19311683011E+02 -0.45786217725E+02  0.52625510561E+02  0.00000000000E+00 0. -1.
</event>
<event>
 4    1  0.5573045E+003  0.2114565E+02  0.7546771E-02  0.1517195E+00
          2   -1    0    0  501    0  0.00000000000E+00  0.00000000000E+00  0.13242336845E+03  0.13242336845E+03  0.00000000000E+00 0.  1.
         -2   -1    0    0    0  501 -0.00000000000E+00 -0.00000000000E+00 -0.47743794409E+02  0.47743794409E+02  0.00000000000E+00 0. -1.
          2    1    1    2  502    0  0.16498586605E+02  0.13226309586E+02  0.12917947214E+03  0.13089871904E+03  0.00000000000E+00 0.  1.
         -2    1    1    2    0  502 -0.16498586605E+02 -0.13226309586E+02 -0.44499898098E+02  0.49268443815E+02  0.00000000000E+00 0. -1.
</event>
<event>
 4    1  0.5573045E+003  0.2032385E+02  0.7546771E-02  0.1529141E+00
          2   -1    0    0  501    0  0.00000000000E+00  0.00000000000E+00  0.15825426926E+03  0.15825426926E+03  0.00000000000E+00 0. -1.
         -2   -1    0    0    0  501 -0.00000000000E+00 -0.00000000000E+00 -0.30590188313E+01  0.30590188313E+01  0.00000000000E+00 0.  1.
          2    1    1    2  502    0  0.50527488294E+00  0.20317572613E+02  0.10849590017E+03  0.11038305763E+03  0.00000000000E+00 0. -1.
         -2    1    1    2    0  502 -0.50527488294E+00 -0.20317572613E+02  0.46699350266E+02  0.50930230461E+02  0.00000000000E+00 0.  1.
</event>
<event>
 4    1  0.5573045E+003  0.2235318E+02  0.7546771E-02  0.1500784E+00
          2   -1    0    0  501    0  0.00000000000E+00  0.00000000000E+00  0.20971512958E+03  0.20971512958E+03  0.00000000000E+00 0. -1.
         -2   -1    0    0    0  501 -0.00000000000E+00 -0.00000000000E+00 -0.17516210037E+02  0.17516210037E+02  0.00000000000E+00 0. -1.
          2    1    1    2  502    0  0.21831069145E+02  0.48030238774E+01  0.20170570742E+03  0.20294052584E+03  0.00000000000E+00 0. -1.
         -2    1    1    2    0  502 -0.21831069145E+02 -0.48030238774E+01 -0.95067878813E+01  0.24290813782E+02  0.00000000000E+00 0. -1.
</event>
<event>
 4    1  0.5573045E+003  0.2495716E+02  0.7546771E-02  0.1469283E+00
          2   -1    0    0  501    0  0.00000000000E+00  0.00000000000E+00  0.10246756870E+04  0.10246756870E+04  0.00000000000E+00 0.  1.
         -2   -1    0    0    0  501 -0.00000000000E+00 -0.00000000000E+00 -0.62067581065E+00  0.62067581065E+00  0.00000000000E+00 0. -1.
          2    1    1    2  502    0 -0.19842700463E+02  0.15136917538E+02  0.43836177676E+03  0.43907164148E+03  0.00000000000E+00 0.  1.
         -2    1    1    2    0  502  0.19842700463E+02 -0.15136917538E+02  0.58569323442E+03  0.58622472131E+03  0.00000000000E+00 0. -1.
</event>
<event>
 4    1  0.5573045E+003  0.2102715E+02  0.7546771E-02  0.1518877E+00
          2   -1    0    0  501    0  0.00000000000E+00  0.00000000000E+00  0.15555013422E+01  0.15555013422E+01  0.00000000000E+00 0.  1.
         -2   -1    0    0    0  501 -0.00000000000E+00 -0.00000000000E+00 -0.29534860880E+03  0.29534860880E+03  0.00000000000E+00 0.  1.
          2    1    1    2  502    0 -0.20077999292E+02  0.62462042755E+01 -0.11811061218E+03  0.11996773663E+03  0.00000000000E+00 0.  1.
         -2    1    1    2    0  502  0.20077999292E+02 -0.62462042755E+01 -0.17568249529E+03  0.17693637352E+03  0.00000000000E+00 0.  1.
</event>
<event>
 4    1  0.5573045E+003  0.2539575E+02  0.7546771E-02  0.1464424E+00
          2   -1    0    0  501    0  0.00000000000E+00  0.00000000000E+00  0.43492372219E+03  0.43492372219E+03  0.00000000000E+00 0. -1.
         -2   -1    0    0    0  501 -0.00000000000E+00 -0.00000000000E+00 -0.70824902394E+01  0.70824902394E+01  0.00000000000E+00 0.  1.
          2    1    1    2  502    0 -0.21834941170E+01 -0.25301711223E+02  0.41043026474E+03  0.41121520698E+03  0.00000000000E+00 0. -1.
         -2    1    1    2    0  502  0.21834941170E+01  0.25301711223E+02  0.17410967211E+02  0.30791005450E+02  0.00000000000E+00 0.  1.
</event>
<event>
 4    1  0.5573045E+003  0.2880072E+02  0.7546771E-02  0.1430312E+00
          2   -1    0    0  501    0  0.00000000000E+00  0.00000000000E+00  0.18996129608E+02  0.18996129608E+02  0.00000000000E+00 0.  1.
         -2   -1    0    0    0  501 -0.00000000000E+00 -0.00000000000E+00 -0.26115693386E+03  0.26115693386E+03  0.00000000000E+00 0. -1.
          2    1    1    2  502    0  0.23263606318E+02  0.16978986986E+02  0.67503572302E+01  0.29581222097E+02  0.00000000000E+00 0.  1.
         -2    1    1    2    0  502 -0.23263606318E+02 -0.16978986986E+02 -0.24891116148E+03  0.25057184137E+03  0.00000000000E+00 0. -1.
</event>
<event>
 4    1  0.5573045E+003  0.2165075E+02  0.7546771E-02  0.1510173E+00
          2   -1    0    0  501    0  0.00000000000E+00  0.00000000000E+00  0.51129295815E+02  0.51129295815E+02  0.00000000000E+00 0.  1.
         -2   -1    0    0    0  501 -0.00000000000E+00 -0.00000000000E+00 -0.29718582641E+02  0.29718582641E+02  0.00000000000E+00 0.  1.
          2    1    1    2  502    0  0.83605535521E+01 -0.19971378943E+02  0.44320607413E+02  0.49326170276E+02  0.00000000000E+00 0.  1.
         -2    1    1    2    0  502 -0.83605535521E+01  0.19971378943E+02 -0.22909894238E+02  0.31521708180E+02  0.00000000000E+00 0.  1.
</event>
<event>
 4    1  0.5573045E+003  0.2449946E+02  0.7546771E-02  0.1474481E+00
          2   -1    0    0  501    0  0.00000000000E+00  0.00000000000E+00  0.34776300299E+02  0.34776300299E+02  0.00000000000E+00 0. -1.
         -2   -1    0    0    0  501 -0.00000000000E+00 -0.00000000000E+00 -0.37198664663E+03  0.37198664663E+03  0.00000000000E+00 0. -1.
          2    1    1    2  502    0 -0.17609237125E+02 -0.17033440935E+02  0.30001984286E+02  0.38734253618E+02  0.00000000000E+00 0. -1.
         -2    1    1    2    0  502  0.17609237125E+02  0.17033440935E+02 -0.36721233062E+03  0.36802869331E+03  0.00000000000E+00 0. -1.
</event>
<event>
 4    1  0.5573045E+003  0.3348824E+02  0.7546771E-02  0.1391514E+00
          2   -1    0    0  501    0  0.00000000000E+00  0.00000000000E+00  0.32646458145E+03  0.32646458145E+03  0.00000000000E+00 0. -1.
         -2   -1    0    0    0  501 -0.00000000000E+00 -0.00000000000E+00 -0.39501179261E+01  0.39501179261E+01  0.00000000000E+00 0.  1.
          2    1    1    2  502    0 -0.30883565227E+02 -0.12948645567E+02  0.22090649764E+03  0.22343039794E+03  0.00000000000E+00 0. -1.
         -2    1    1    2    0  502  0.30883565227E+02  0.12948645567E+02  0.10160796588E+03  0.10698430144E+03  0.00000000000E+00 0.  1.
</event>
<event>
 4    1  0.5573045E+003  0.3562719E+02  0.7546771E-02  0.1376207E+00
          2   -1    0    0  501    0  0.00000000000E+00  0.00000000000E+00  0.45868050301E+03  0.45868050301E+03  0.00000000000E+00 0. -1.
         -2   -1    0    0    0  501 -0.00000000000E+00 -0.00000000000E+00 -0.19702411697E+03  0.19702411697E+03  0.00000000000E+00 0.  1.
          2    1    1    2  502    0 -0.32415397801E+02  0.14783053785E+02  0.45636995613E+03  0.45775848824E+03  0.00000000000E+00 0. -1.
         -2    1    1    2    0  502  0.32415397801E+02 -0.14783053785E+02 -0.19471357009E+03  0.19794613174E+03  0.00000000000E+00 0.  1.
</event>
<event>
 4    1  0.5573045E+003  0.2853526E+02  0.7546771E-02  0.1432767E+00
          2   -1    0    0  501    0  0.00000000000E+00  0.00000000000E+00  0.11678637219E+02  0.11678637219E+02  0.00000000000E+00 0. -1.
         -2   -1    0    0    0  501 -0.00000000000E+00 -0.00000000000E+00 -0.32020708708E+03  0.32020708708E+03  0.00000000000E+00 0. -1.
          2    1    1    2  502    0 -0.54678716218E+01 -0.28006486762E+02 -0.74953980501E+01  0.29503252579E+02  0.00000000000E+00 0. -1.
         -2    1    1    2    0  502  0.54678716218E+01  0.28006486762E+02 -0.30103305181E+03  0.30238247172E+03  0.00000000000E+00 0. -1.
</event>
<event>
 4    1  0.5573045E+003  0.2110687E+02  0.7546771E-02  0.1517744E+00
          2   -1    0    0  501    0  0.00000000000E+00  0.00000000000E+00  0.96593176686E+03  0.96593176686E+03  0.00000000000E+00 0.  1.
         -2   -1    0    0    0  501 -0.00000000000E+00 -0.00000000000E+00 -0.49309661724E+00  0.49309661724E+00  0.00000000000E+00 0. -1.
          2    1    1    2  502    0 -0.20945169968E+02 -0.26076572505E+01  0.60559270269E+03  0.60596041255E+03  0.00000000000E+00 0.  1.
         -2    1    1    2    0  502  0.20945169968E+02  0.26076572505E+01  0.35984596755E+03  0.36046445093E+03  0.00000000000E+00 0. -1.
</event>
<event>
 4    1  0.5573045E+003  0.2135443E+02  0.7546771E-02  0.1514264E+00
          2   -1    0    0  501    0  0.00000000000E+00  0.00000000000E+00  0.17565343044E+04  0.17565343044E+04  0.00000000000E+00 0. -1.
         -2   -1    0    0    0  501 -0.00000000000E+00 -0.00000000000E+00 -0.26317624139E+00  0.26317624139E+00  0.00000000000E+00 0. -1.
          2    1    1    2  502    0  0.15556507464E+02  0.14628971629E+02  0.98040544304E+03  0.98063797830E+03  0.00000000000E+00 0. -1.
         -2    1    1    2    0  502 -0.15556507464E+02 -0.14628971629E+02  0.77586568512E+03  0.77615950235E+03  0.00000000000E+00 0. -1.
</event>
<event>
 4    1  0.5573045E+003  0.2272028E+02  0.7546771E-02  0.1496041E+00
          2   -1    0    0  501    0  0.00000000000E+00  0.00000000000E+00  0.15540153920E+03  0.15540153920E+03  0.00000000000E+00 0.  1.
         -2   -1    0    0    0  501 -0.00000000000E+00 -0.00000000000E+00 -0.43039370420E+03  0.43039370420E+03  0.00000000000E+00 0. -1.
          2    1    1    2  502    0  0.11078816916E+02 -0.19836105770E+02  0.15426905403E+03  0.15593316616E+03  0.00000000000E+00 0.  1.
         -2    1    1    2    0  502 -0.11078816916E+02  0.19836105770E+02 -0.42926121904E+03  0.42986207724E+03  0.00000000000E+00 0. -1.
</event>
<event>
 4    1  0.5573045E+003  0.4239521E+02  0.7546771E-02  0.1334994E+00
          2   -1    0    0  501    0  0.00000000000E+00  0.00000000000E+00  0.24026137689E+04  0.24026137689E+04  0.00000000000E+00 0. -1.
         -2   -1    0    0    0  501 -0.00000000000E+00 -0.00000000000E+00 -0.71087571960E+02  0.71087571960E+02  0.00000000000E+00 0.  1.
          2    1    1    2  502    0  0.15971697414E+02  0.39271606067E+02  0.23960886206E+04  0.23964636513E+04  0.00000000000E+00 0. -1.
         -2    1    1    2    0  502 -0.15971697414E+02 -0.39271606067E+02 -0.64562423591E+02  0.77237689643E+02  0.00000000000E+00 0.  1.
</event>
<event>
 4    1  0.5573045E+003  0.2782633E+02  0.7546771E-02  0.1439479E+00
          2   -1    0    0  501    0  0.00000000000E+00  0.00000000000E+00  0.54148353358E+03  0.54148353358E+03  0.00000000000E+00 0. -1.
         -2   -1    0    0    0  501 -0.00000000000E+00 -0.00000000000E+00 -0.39862602102E+01  0.39862602102E+01  0.00000000000E+00 0. -1.
          2    1    1    2  502    0  0.32961575716E+01  0.27630419701E+02  0.48715386905E+03  0.48794794485E+03  0.00000000000E+00 0. -1.
         -2    1    1    2    0  502 -0.32961575716E+01 -0.27630419701E+02  0.50343404317E+02  0.57521848943E+02  0.00000000000E+00 0. -1.
</event>
<event>
 4    1  0.5573045E+003  0.2134160E+02  0.7546771E-02  0.1514443E+00
          2   -1    0    0  501    0  0.00000000000E+00  0.00000000000E+00  0.93078392792E+02  0.93078392792E+02  0.00000000000E+00 0.  1.
         -2   -1    0    0    0  501 -0.00000000000E+00 -0.00000000000E+00 -0.61934935477E+01  0.61934935477E+01  0.00000000000E+00 0. -1.
          2    1    1    2  502    0 -0.89353053630E+01 -0.19381028515E+02  0.66184323617E+02  0.69540122525E+02  0.00000000000E+00 0.  1.
         -2    1    1    2    0  502  0.89353053630E+01  0.19381028515E+02  0.20700575628E+02  0.29731763815E+02  0.00000000000E+00 0. -1.
</event>
<event>
 4    1  0.5573045E+003  0.3447254E+02  0.7546771E-02  0.1384310E+00
          2   -1    0    0  501    0  0.00000000000E+00  0.00000000000E+00  0.31063015246E+03  0.31063015246E+03  0.00000000000E+00 0.  1.
         -2   -1    0    0    0  501 -0.00000000000E+00 -0.00000000000E+00 -0.27253607776E+02  0.27253607776E+02  0.00000000000E+00 0.  1.
          2    1    1    2  502    0 -0.22654673998E+02  0.25983103197E+02  0.29832468483E+03  0.30030979585E+03  0.00000000000E+00 0.  1.
         -2    1    1    2    0  502  0.22654673998E+02 -0.25983103197E+02 -0.14948140146E+02  0.37573964384E+02  0.00000000000E+00 0.  1.
</event>
<event>
 4    1  0.5573045E+003  0.2953756E+02  0.7546771E-02  0.1423658E+00
          2   -1    0    0  501    0  0.00000000000E+00  0.00000000000E+00  0.16824853471E+04  0.16824853471E+04  0.00000000000E+00 0. -1.
         -2   -1    0    0    0  501 -0.00000000000E+00 -0.00000000000E+00 -0.12175306898E+01  0.12175306898E+01  0.00000000000E+00 0. -1.
          2    1    1    2  502    0 -0.29459120129E+02 -0.21511782808E+01  0.14784939578E+04  0.14787889811E+04  0.00000000000E+00 0. -1.
         -2    1    1    2    0  502  0.29459120129E+02  0.21511782808E+01  0.20277385853E+03  0.20491389662E+03  0.00000000000E+00 0. -1.
</event>
<event>
 4    1  0.5573045E+003  0.3631700E+02  0.7546771E-02  0.1371533E+00
          2   -1    0    0  501    0  0.00000000000E+00  0.00000000000E+00  0.16000738221E+04  0.16000738221E+04  0.00000000000E+00 0. -1.
         -2   -1    0    0    0  501 -0.00000000000E+00 -0.00000000000E+00 -0.82506880133E+00  0.82506880133E+00  0.00000000000E+00 0.  1.
          2    1    1    2  502    0  0.19061215481E+02  0.30912693115E+02  0.82422000105E+03  0.82501971774E+03  0.00000000000E+00 0. -1.
         -2    1    1    2    0  502 -0.19061215481E+02 -0.30912693115E+02  0.77502875225E+03  0.77587917316E+03  0.00000000000E+00 0.  1.
</event>
<event>
 4    1  0.5573045E+003  0.2803243E+02  0.7546771E-02  0.1437504E+00
          2   -1    0    0  501    0  0.00000000000E+00  0.00000000000E+00  0.26923977928E+03  0.26923977928E+03  0.00000000000E+00 0.  1.
         -2   -1    0    0    0  501 -0.00000000000E+00 -0.00000000000E+00 -0.18562287055E+02  0.18562287055E+02  0.00000000000E+00 0.  1.
          2    1    1    2  502    0 -0.27250762077E+02 -0.65736826100E+01  0.25744306059E+03  0.25896475974E+03  0.00000000000E+00 0.  1.
         -2    1    1    2    0  502  0.27250762077E+02  0.65736826100E+01 -0.67655683657E+01  0.28837306603E+02  0.00000000000E+00 0.  1.
</event>
<event>
 4    1  0.5573045E+003  0.2010977E+02  0.7546771E-02  0.1532364E+00
          2   -1    0    0  501    0  0.00000000000E+00  0.00000000000E+00  0.41644285329E+02  0.41644285329E+02  0.00000000000E+00 0.  1.
         -2   -1    0    0    0  501 -0.00000000000E+00 -0.00000000000E+00 -0.45759043524E+02  0.45759043524E+02  0.00000000000E+00 0. -1.
          2    1    1    2  502    0 -0.19514799502E+02  0.48554416476E+01  0.36730950117E+02  0.41875594440E+02  0.00000000000E+00 0.  1.
         -2    1    1    2    0  502  0.19514799502E+02 -0.48554416476E+01 -0.40845708312E+02  0.45527734412E+02  0.00000000000E+00 0. -1.
</event>
<event>
 4    1  0.5573045E+003  0.2160307E+02  0.7546771E-02  0.1510826E+00
          2   -1    0    0  501    0  0.00000000000E+00  0.00000000000E+00  0.28033245852E+03  0.28033245852E+03  0.00000000000E+00 0.  1.
         -2   -1    0    0    0  501 -0.00000000000E+00 -0.00000000000E+00 -0.58666718886E+01  0.58666718886E+01  0.00000000000E+00 0. -1.
          2    1    1    2  502    0  0.18734858566E+02  0.10756283966E+02  0.25833863184E+03  0.25924031568E+03  0.00000000000E+00 0.  1.
         -2    1    1    2    0  502 -0.18734858566E+02 -0.10756283966E+02  0.16127154794E+02  0.26958814737E+02  0.00000000000E+00 0. -1.
</event>
<event>
 4    1  0.5573045E+003  0.2027322E+02  0.7546771E-02  0.1529899E+00
          2   -1    0    0  501    0  0.00000000000E+00  0.00000000000E+00  0.37620731973E+02  0.37620731973E+02  0.00000000000E+00 0. -1.
         -2   -1    0    0    0  501 -0.00000000000E+00 -0.00000000000E+00 -0.58698634226E+02  0.58698634226E+02  0.00000000000E+00 0. -1.
          2    1    1    2  502    0  0.19160936050E+02 -0.66228410184E+01  0.32908482180E+02  0.38651930002E+02  0.00000000000E+00 0. -1.
         -2    1    1    2    0  502 -0.19160936050E+02  0.66228410184E+01 -0.53986384433E+02  0.57667436198E+02  0.00000000000E+00 0. -1.
</event>
<event>
 4    1  0.5573045E+003  0.2598522E+02  0.7546771E-02  0.1458077E+00
          2   -1    0    0  501    0  0.00000000000E+00  0.00000000000E+00  0.18595143838E+03  0.18595143838E+03  0.00000000000E+00 0.  1.
         -2   -1    0    0    0  501 -0.00000000000E+00 -0.00000000000E+00 -0.53800985753E+01  0.53800985753E+01  0.00000000000E+00 0.  1.
          2    1    1    2  502    0  0.34963955203E+00 -0.25982863030E+02  0.14482888295E+03  0.14714155346E+03  0.00000000000E+00 0.  1.
         -2    1    1    2    0  502 -0.34963955203E+00  0.25982863030E+02  0.35742456858E+02  0.44189983495E+02  0.00000000000E+00 0.  1.
</event>
<event>
 4    1  0.5573045E+003  0.2196899E+02  0.7546771E-02  0.1505867E+00
          2   -1    0    0  501    0  0.00000000000E+00  0.00000000000E+00  0.20225350169E+02  0.20225350169E+02  0.00000000000E+00 0.  1.
         -2   -1    0    0    0  501 -0.00000000000E+00 -0.00000000000E+00 -0.33583211999E+02  0.33583211999E+02  0.00000000000E+00 0.  1.
          2    1    1    2  502    0 -0.21921914479E+02  0.14373770483E+01  0.77954303549E+01  0.23311051491E+02  0.00000000000E+00 0.  1.
         -2    1    1    2    0  502  0.21921914479E+02 -0.14373770483E+01 -0.21153292184E+02  0.30497510676E+02  0.00000000000E+00 0.  1.
</event>
<event>
 4    1  0.5573045E+003  0.3716734E+02  0.7546771E-02  0.1365935E+00
          2   -1    0    0  501    0  0.00000000000E+00  0.00000000000E+00  0.78121333163E+02  0.78121333163E+02  0.00000000000E+00 0.  1.
         -2   -1    0    0    0  501 -0.00000000000E+00 -0.00000000000E+00 -0.42854572926E+03  0.42854572926E+03  0.00000000000E+00 0.  1.
          2    1    1    2  502    0  0.35045758038E+02 -0.12377627184E+02  0.72839682253E+02  0.81774263200E+02  0.00000000000E+00 0.  1.
         -2    1    1    2    0  502 -0.35045758038E+02  0.12377627184E+02 -0.42326407835E+03  0.42489279922E+03  0.00000000000E+00 0.  1.
</event>
<event>
 4    1  0.5573045E+003  0.2297517E+02  0.7546771E-02  0.1492810E+00
          2   -1    0    0  501    0  0.00000000000E+00  0.00000000000E+00  0.33054345516E+03  0.33054345516E+03  0.00000000000E+00 0. -1.
         -2   -1    0    0    0  501 -0.00000000000E+00 -0.00000000000E+00 -0.17710598758E+01  0.17710598758E+01  0.00000000000E+00 0. -1.
          2    1    1    2  502    0 -0.19889425041E+02  0.11500842616E+02  0.21648464914E+03  0.21770039487E+03  0.00000000000E+00 0. -1.
         -2    1    1    2    0  502  0.19889425041E+02 -0.11500842616E+02  0.11228774614E+03  0.11461412017E+03  0.00000000000E+00 0. -1.
</event>
<event>
 4    1  0.5573045E+003  0.2195826E+02  0.7546771E-02  0.1506011E+00
          2   -1    0    0  501    0  0.00000000000E+00  0.00000000000E+00  0.17881776176E+02  0.17881776176E+02  0.00000000000E+00 0.  1.
         -2   -1    0    0    0  501 -0.00000000000E+00 -0.00000000000E+00 -0.70718373822E+02  0.70718373822E+02  0.00000000000E+00 0.  1.
          2    1    1    2  502    0  0.18970819098E+02  0.11057723797E+02  0.84273681865E+01  0.23519901517E+02  0.00000000000E+00 0.  1.
         -2    1    1    2    0  502 -0.18970819098E+02 -0.11057723797E+02 -0.61263965832E+02  0.65080248481E+02  0.00000000000E+00 0.  1.
</event>
<event>
 4    1  0.5573045E+003  0.2002665E+02  0.7546771E-02  0.1533629E+00
          2   -1    0    0  501    0  0.00000000000E+00  0.00000000000E+00  0.31793675504E+03  0.31793675504E+03  0.00000000000E+00 0.  1.
         -2   -1    0    0    0  501 -0.00000000000E+00 -0.00000000000E+00 -0.17754421795E+02  0.17754421795E+02  0.00000000000E+00 0. -1.
          2    1    1    2  502    0  0.15548990945E+02  0.12621236814E+02  0.31186411399E+03  0.31250646767E+03  0.00000000000E+00 0.  1.
         -2    1    1    2    0  502 -0.15548990945E+02 -0.12621236814E+02 -0.11681780742E+02  0.23184709173E+02  0.00000000000E+00 0. -1.
</event>
<event>
 4    1  0.5573045E+003  0.2113498E+02  0.7546771E-02  0.1517346E+00
          2   -1    0    0  501    0  0.00000000000E+00  0.00000000000E+00  0.50785769392E+03  0.50785769392E+03  0.00000000000E+00 0.  1.
         -2   -1    0    0    0  501 -0.00000000000E+00 -0.00000000000E+00 -0.13612955544E+01  0.13612955544E+01  0.00000000000E+00 0.  1.
          2    1    1    2  502    0 -0.16730516863E+02 -0.12914227830E+02  0.40471105424E+03  0.40526253823E+03  0.00000000000E+00 0.  1.
         -2    1    1    2    0  502  0.16730516863E+02  0.12914227830E+02  0.10178534413E+03  0.10395645124E+03  0.00000000000E+00 0.  1.
</event>
<event>
 4    1  0.5573045E+003  0.2088313E+02  0.7546771E-02  0.1520940E+00
          2   -1    0    0  501    0  0.00000000000E+00  0.00000000000E+00  0.41936851716E+01  0.41936851716E+01  0.00000000000E+00 0. -1.
         -2   -1    0    0    0  501 -0.00000000000E+00 -0.00000000000E+00 -0.12337369466E+03  0.12337369466E+03  0.00000000000E+00 0. -1.
          2    1    1    2  502    0 -0.20552095643E+02  0.37035971556E+01 -0.34308315275E+02  0.40164234889E+02  0.00000000000E+00 0. -1.
         -2    1    1    2    0  502  0.20552095643E+02 -0.37035971556E+01 -0.84871694218E+02  0.87403144947E+02  0.00000000000E+00 0. -1.
</event>
<event>
 4    1  0.5573045E+003  0.5746929E+02  0.7546771E-02  0.1268682E+00
          2   -1    0    0  501    0  0.00000000000E+00  0.00000000000E+00  0.44145427486E+02  0.44145427486E+02  0.00000000000E+00 0. -1.
         -2   -1    0    0    0  501 -0.00000000000E+00 -0.00000000000E+00 -0.11505818893E+03  0.11505818893E+03  0.00000000000E+00 0.  1.
          2    1    1    2  502    0  0.46522243530E+02  0.33740182793E+02  0.11621069904E+02  0.58632485396E+02  0.00000000000E+00 0. -1.
         -2    1    1    2    0  502 -0.46522243530E+02 -0.33740182793E+02 -0.82533831352E+02  0.10057113102E+03  0.00000000000E+00 0.  1.
</event>
<event>
 4    1  0.5573045E+003  0.2409598E+02  0.7546771E-02  0.1479176E+00
          2   -1    0    0  501    0  0.00000000000E+00  0.00000000000E+00  0.10611822555E+03  0.10611822555E+03  0.00000000000E+00 0.  1.
         -2   -1    0    0    0  501 -0.00000000000E+00 -0.00000000000E+00 -0.13254683669E+02  0.13254683669E+02  0.00000000000E+00 0.  1.
          2    1    1    2  502    0 -0.18469029845E+02  0.15476148360E+02  0.92169255157E+02  0.95266929349E+02  0.00000000000E+00 0.  1.
         -2    1    1    2    0  502  0.18469029845E+02 -0.15476148360E+02  0.69428672625E+00  0.24105979871E+02  0.00000000000E+00 0.  1.
</event>
<event>
 4    1  0.5573045E+003  0.2312429E+02  0.7546771E-02  0.1490943E+00
          2   -1    0    0  501    0  0.00000000000E+00  0.00000000000E+00  0.13360119889E+04  0.13360119889E+04  0.00000000000E+00 0.  1.
         -2   -1    0    0    0  501 -0.00000000000E+00 -0.00000000000E+00 -0.29434124417E+01  0.29434124417E+01  0.00000000000E+00 0. -1.
          2    1    1    2  502    0 -0.22291119594E+02  0.61513181784E+01  0.12888316986E+04  0.12890391306E+04  0.00000000000E+00 0.  1.
         -2    1    1    2    0  502  0.22291119594E+02 -0.61513181784E+01  0.44236877792E+02  0.49916270743E+02  0.00000000000E+00 0. -1.
</event>
<event>
 4    1  0.5573045E+003  0.4000166E+02  0.7546771E-02  0.1348476E+00
          2   -1    0    0  501    0  0.00000000000E+00  0.00000000000E+00  0.22038764051E+04  0.22038764051E+04  0.00000000000E+00 0.  1.
         -2   -1    0    0    0  501 -0.00000000000E+00 -0.00000000000E+00 -0.46182900027E+02  0.46182900027E+02  0.00000000000E+00 0.  1.
          2    1    1    2  502    0  0.11035384943E+02 -0.38449356587E+02  0.21949979252E+04  0.21953623902E+04  0.00000000000E+00 0.  1.
         -2    1    1    2    0  502 -0.11035384943E+02  0.38449356587E+02 -0.37304420111E+02  0.54696914928E+02  0.00000000000E+00 0.  1.
</event>
<event>
 4    1  0.5573045E+003  0.2614306E+02  0.7546771E-02  0.1456411E+00
          2   -1    0    0  501    0  0.00000000000E+00  0.00000000000E+00  0.97006918605E+03  0.97006918605E+03  0.00000000000E+00 0.  1.
         -2   -1    0    0    0  501 -0.00000000000E+00 -0.00000000000E+00 -0.29459896959E+02  0.29459896959E+02  0.00000000000E+00 0. -1.
          2    1    1    2  502    0  0.18542942526E+02  0.18428755112E+02  0.96405696923E+03  0.96441137470E+03  0.00000000000E+00 0.  1.
         -2    1    1    2    0  502 -0.18542942526E+02 -0.18428755112E+02 -0.23447680143E+02  0.35117708305E+02  0.00000000000E+00 0. -1.
</event>
<event>
 4    1  0.5573045E+003  0.2322780E+02  0.7546771E-02  0.1489657E+00
          2   -1    0    0  501    0  0.00000000000E+00  0.00000000000E+00  0.27333937028E+03  0.27333937028E+03  0.00000000000E+00 0. -1.
         -2   -1    0    0    0  501 -0.00000000000E+00 -0.00000000000E+00 -0.10481957521E+02  0.10481957521E+02  0.00000000000E+00 0. -1.
          2    1    1    2  502    0  0.99018110610E+01  0.21011544373E+02  0.25928153013E+03  0.26031988538E+03  0.00000000000E+00 0. -1.
         -2    1    1    2    0  502 -0.99018110610E+01 -0.21011544373E+02  0.35758826318E+01  0.23501442420E+02  0.00000000000E+00 0. -1.
</event>
<event>
 4    1  0.5573045E+003  0.2610578E+02  0.7546771E-02  0.1456803E+00
          2   -1    0    0  501    0  0.00000000000E+00  0.00000000000E+00  0.30960694771E+03  0.30960694771E+03  0.00000000000E+00 0.  1.
         -2   -1    0    0    0  501 -0.00000000000E+00 -0.00000000000E+00 -0.52383010204E+01  0.52383010204E+01  0.00000000000E+00 0.  1.
          2    1    1    2  502    0 -0.23034506941E+02 -0.12285091797E+02  0.27205151919E+03  0.27330119115E+03  0.00000000000E+00 0.  1.
         -2    1    1    2    0  502  0.23034506941E+02  0.12285091797E+02  0.32317127504E+02  0.41544057585E+02  0.00000000000E+00 0.  1.
</event>
<event>
 4    1  0.5573045E+003  0.2156861E+02  0.7546771E-02  0.1511299E+00
          2   -1    0    0  501    0  0.00000000000E+00  0.00000000000E+00  0.36800854465E+01  0.36800854465E+01  0.00000000000E+00 0. -1.
         -2   -1    0    0    0  501 -0.00000000000E+00 -0.00000000000E+00 -0.21174972042E+03  0.21174972042E+03  0.00000000000E+00 0. -1.
          2    1    1    2  502    0 -0.18909320172E+02  0.10375093917E+02 -0.35653687660E+02  0.41670018082E+02  0.00000000000E+00 0. -1.
         -2    1    1    2    0  502  0.18909320172E+02 -0.10375093917E+02 -0.17241594731E+03  0.17375978778E+03  0.00000000000E+00 0. -1.
</event>
<event>
 4    1  0.5573045E+003  0.2405233E+02  0.7546771E-02  0.1479690E+00
          2   -1    0    0  501    0  0.00000000000E+00  0.00000000000E+00  0.64460127671E+02  0.64460127671E+02  0.00000000000E+00 0.  1.
         -2   -1    0    0    0  501 -0.00000000000E+00 -0.00000000000E+00 -0.24976229067E+02  0.24976229067E+02  0.00000000000E+00 0. -1.
          2    1    1    2  502    0  0.16600378837E+02  0.17405235861E+02  0.55535144054E+02  0.60519972224E+02  0.00000000000E+00 0.  1.
         -2    1    1    2    0  502 -0.16600378837E+02 -0.17405235861E+02 -0.16051245450E+02  0.28916384515E+02  0.00000000000E+00 0. -1.
</event>
<event>
 4    1  0.5573045E+003  0.2469979E+02  0.7546771E-02  0.1472190E+00
          2   -1    0    0  501    0  0.00000000000E+00  0.00000000000E+00  0.14218425068E+02  0.14218425068E+02  0.00000000000E+00 0. -1.
         -2   -1    0    0    0  501 -0.00000000000E+00 -0.00000000000E+00 -0.27374681910E+03  0.27374681910E+03  0.00000000000E+00 0.  1.
          2    1    1    2  502    0 -0.23219973852E+02  0.84209444467E+01  0.24537075196E+01  0.24821365226E+02  0.00000000000E+00 0. -1.
         -2    1    1    2    0  502  0.23219973852E+02 -0.84209444467E+01 -0.26198210156E+03  0.26314387895E+03  0.00000000000E+00 0.  1.
</event>
<event>
 4    1  0.5573045E+003  0.2651950E+02  0.7546771E-02  0.1452495E+00
          2   -1    0    0  501    0  0.00000000000E+00  0.00000000000E+00  0.43615424253E+03  0.43615424253E+03  0.00000000000E+00 0.  1.
         -2   -1    0    0    0  501 -0.00000000000E+00 -0.00000000000E+00 -0.20770028556E+01  0.20770028556E+01  0.00000000000E+00 0. -1.
          2    1    1    2  502    0 -0.74541882999E+01 -0.25450325419E+02  0.32066367553E+03  0.32175841371E+03  0.00000000000E+00 0.  1.
         -2    1    1    2    0  502  0.74541882999E+01  0.25450325419E+02  0.11341356414E+03  0.11647283168E+03  0.00000000000E+00 0. -1.
</event>
<event>
 4    1  0.5573045E+003  0.4552048E+02  0.7546771E-02  0.1318857E+00
          2   -1    0    0  501    0  0.00000000000E+00  0.00000000000E+00  0.34564850987E+04  0.34564850987E+04  0.00000000000E+00 0. -1.
         -2   -1    0    0    0  501 -0.00000000000E+00 -0.00000000000E+00 -0.62247948711E+00  0.62247948711E+00  0.00000000000E+00 0. -1.
          2    1    1    2  502    0 -0.11483325895E+02 -0.44048235007E+02  0.20601503799E+04  0.20606532220E+04  0.00000000000E+00 0. -1.
         -2    1    1    2    0  502  0.11483325895E+02  0.44048235007E+02  0.13957122393E+04  0.13964543562E+04  0.00000000000E+00 0. -1.
</event>
<event>
 4    1  0.5573045E+003  0.2234226E+02  0.7546771E-02  0.1500927E+00
          2   -1    0    0  501    0  0.00000000000E+00  0.00000000000E+00  0.10949207128E+04  0.10949207128E+04  0.00000000000E+00 0. -1.
         -2   -1    0    0    0  501 -0.00000000000E+00 -0.00000000000E+00 -0.43328152356E+01  0.43328152356E+01  0.00000000000E+00 0.  1.
          2    1    1    2  502    0  0.22241949659E+02  0.21147630909E+01  0.10652011444E+04  0.10654354296E+04  0.00000000000E+00 0. -1.
         -2    1    1    2    0  502 -0.22241949659E+02 -0.21147630909E+01  0.25386753155E+02  0.33818098458E+02  0.00000000000E+00 0.  1.
</event>
<event>
 4    1  0.5573045E+003  0.2267391E+02  0.7546771E-02  0.1496634E+00
          2   -1    0    0  501    0  0.00000000000E+00  0.00000000000E+00  0.76524867153E+03  0.76524867153E+03  0.00000000000E+00 0.  1.
         -2   -1    0    0    0  501 -0.00000000000E+00 -0.00000000000E+00 -0.67351563489E+00  0.67351563489E+00  0.00000000000E+00 0. -1.
          2    1    1    2  502    0 -0.16813664170E+02  0.15212070647E+02  0.40152482078E+03  0.40216450378E+03  0.00000000000E+00 0.  1.
         -2    1    1    2    0  502  0.16813664170E+02 -0.15212070647E+02  0.36305033512E+03  0.36375768339E+03  0.00000000000E+00 0. -1.
</event>
<event>
 4    1  0.5573045E+003  0.2172178E+02  0.7546771E-02  0.1509204E+00
          2   -1    0    0  501    0  0.00000000000E+00  0.00000000000E+00  0.27445102932E+03  0.27445102932E+03  0.00000000000E+00 0. -1.
         -2   -1    0    0    0  501 -0.00000000000E+00 -0.00000000000E+00 -0.11479919243E+03  0.11479919243E+03  0.00000000000E+00 0. -1.
          2    1    1    2  502    0  0.16394621622E+02  0.14249642876E+02  0.27298820769E+03  0.27385104981E+03  0.00000000000E+00 0. -1.
         -2    1    1    2    0  502 -0.16394621622E+02 -0.14249642876E+02 -0.11333637080E+03  0.11539917195E+03  0.00000000000E+00 0. -1.
</event>
<event>
 4    1  0.5573045E+003  0.2175858E+02  0.7546771E-02  0.1508704E+00
          2   -1    0    0  501    0  0.00000000000E+00  0.00000000000E+00  0.15791435425E+02  0.15791435425E+02  0.00000000000E+00 0. -1.
         -2   -1    0    0    0  501 -0.00000000000E+00 -0.00000000000E+00 -0.40408722727E+03  0.40408722727E+03  0.00000000000E+00 0.  1.
          2    1    1    2  502    0 -0.16840545280E+02  0.13777952069E+02  0.78533172176E+01  0.23132455985E+02  0.00000000000E+00 0. -1.
         -2    1    1    2    0  502  0.16840545280E+02 -0.13777952069E+02 -0.39614910906E+03  0.39674620671E+03  0.00000000000E+00 0.  1.
</event>
<event>
 4    1  0.5573045E+003  0.3027537E+02  0.7546771E-02  0.1417218E+00
          2   -1    0    0  501    0  0.00000000000E+00  0.00000000000E+00  0.33356240094E+03  0.33356240094E+03  0.00000000000E+00 0. -1.
         -2   -1    0    0    0  501 -0.00000000000E+00 -0.00000000000E+00 -0.28778857473E+01  0.28778857473E+01  0.00000000000E+00 0. -1.
          2    1    1    2  502    0 -0.78686107569E+01  0.29234960507E+02  0.20109257724E+03  0.20335885172E+03  0.00000000000E+00 0. -1.
         -2    1    1    2    0  502  0.78686107569E+01 -0.29234960507E+02  0.12959193795E+03  0.13308143497E+03  0.00000000000E+00 0. -1.
</event>
<event>
 4    1  0.1006609E+004  0.2324709E+02  0.7546771E-02  0.1489419E+00
          2   -1    0    0  501    0  0.00000000000E+00  0.00000000000E+00  0.16162457701E+04  0.16162457701E+04  0.00000000000E+00 0.  1.
         -2   -1    0    0    0  501 -0.00000000000E+00 -0.00000000000E+00 -0.33135469656E+03  0.33135469656E+03  0.00000000000E+00 0. -1.
          2    1    1    2  502    0  0.13414513361E+01 -0.23208352064E+02  0.16157543125E+04  0.16159215406E+04  0.00000000000E+00 0.  1.
         -2    1    1    2    0  502 -0.13414513361E+01  0.23208352064E+02 -0.33086323895E+03  0.33167892605E+03  0.00000000000E+00 0. -1.
</event>
<event>
 4    1  0.5573045E+003  0.2052498E+02  0.7546771E-02  0.1526156E+00
          2   -1    0    0  501    0  0.00000000000E+00  0.00000000000E+00  0.10370325669E+04  0.10370325669E+04  0.00000000000E+00 0.  1.
         -2   -1    0    0    0  501 -0.00000000000E+00 -0.00000000000E+00 -0.11268189053E+01  0.11268189053E+01  0.00000000000E+00 0.  1.
          2    1    1    2  502    0  0.87338384900E+01 -0.18574036973E+02  0.93305069981E+03  0.93327642379E+03  0.00000000000E+00 0.  1.
         -2    1    1    2    0  502 -0.87338384900E+01  0.18574036973E+02  0.10285504819E+03  0.10488296202E+03  0.00000000000E+00 0.  1.
</event>
<event>
 4    1  0.5573045E+003  0.2515427E+02  0.7546771E-02  0.1467085E+00
          2   -1    0    0  501    0  0.00000000000E+00  0.00000000000E+00  0.15496875922E+04  0.15496875922E+04  0.00000000000E+00 0.  1.
         -2   -1    0    0    0  501 -0.00000000000E+00 -0.00000000000E+00 -0.43608295708E+00  0.43608295708E+00  0.00000000000E+00 0. -1.
          2    1    1    2  502    0  0.21593395053E+02  0.12902020552E+02  0.57899188063E+03  0.57953803558E+03  0.00000000000E+00 0.  1.
         -2    1    1    2    0  502 -0.21593395053E+02 -0.12902020552E+02  0.97025962860E+03  0.97058563957E+03  0.00000000000E+00 0. -1.
</event>
<event>
 4    1  0.5573045E+003  0.2035333E+02  0.7546771E-02  0.1528701E+00
          2   -1    0    0  501    0  0.00000000000E+00  0.00000000000E+00  0.48566679296E+02  0.48566679296E+02  0.00000000000E+00 0. -1.
         -2   -1    0    0    0  501 -0.00000000000E+00 -0.00000000000E+00 -0.63093728077E+02  0.63093728077E+02  0.00000000000E+00 0.  1.
          2    1    1    2  502    0 -0.47741127692E+01 -0.19785493398E+02  0.44655848244E+02  0.49075479459E+02  0.00000000000E+00 0. -1.
         -2    1    1    2    0  502  0.47741127692E+01  0.19785493398E+02 -0.59182897025E+02  0.62584927914E+02  0.00000000000E+00 0.  1.
</event>
<event>
 4    1  0.5573045E+003  0.2009721E+02  0.7546771E-02  0.1532555E+00
          2   -1    0    0  501    0  0.00000000000E+00  0.00000000000E+00  0.13367116550E+03  0.13367116550E+03  0.00000000000E+00 0.  1.
         -2   -1    0    0    0  501 -0.00000000000E+00 -0.00000000000E+00 -0.85641299969E+02  0.85641299969E+02  0.00000000000E+00 0.  1.
          2    1    1    2  502    0  0.16198418062E+02  0.11895757399E+02  0.13171936157E+03  0.13324371657E+03  0.00000000000E+00 0.  1.
         -2    1    1    2    0  502 -0.16198418062E+02 -0.11895757399E+02 -0.83689496036E+02  0.86068748908E+02  0.00000000000E+00 0.  1.
</event>
<event>
 4    1  0.5573045E+003  0.2255563E+02  0.7546771E-02  0.1498155E+00
          2   -1    0    0  501    0  0.00000000000E+00  0.00000000000E+00  0.69968540466E+03  0.69968540466E+03  0.00000000000E+00 0. -1.
         -2   -1    0    0    0  501 -0.00000000000E+00 -0.00000000000E+00 -0.97428489252E+00  0.97428489252E+00  0.00000000000E+00 0. -1.
          2    1    1    2  502    0 -0.21267561810E+02  0.75131015406E+01  0.17290349100E+03  0.17436849796E+03  0.00000000000E+00 0. -1.
         -2    1    1    2    0  502  0.21267561810E+02 -0.75131015406E+01  0.52580762877E+03  0.52629119160E+03  0.00000000000E+00 0. -1.
</event>
<event>
 4    1  0.5573045E+003  0.2075582E+02  0.7546771E-02  0.1522780E+00
          2   -1    0    0  501    0  0.00000000000E+00  0.00000000000E+00  0.17144084887E+02  0.17144084887E+02  0.00000000000E+00 0. -1.
         -2   -1    0    0    0  501 -0.00000000000E+00 -0.00000000000E+00 -0.11985414445E+03  0.11985414445E+03  0.00000000000E+00 0.  1.
          2    1    1    2  502    0  0.19190821871E+02  0.79067309133E+01  0.95414743062E+01  0.22843900056E+02  0.00000000000E+00 0. -1.
         -2    1    1    2    0  502 -0.19190821871E+02 -0.79067309133E+01 -0.11225153387E+03  0.11415432928E+03  0.00000000000E+00 0.  1.
</event>
<event>
 4    1  0.5573045E+003  0.2735935E+02  0.7546771E-02  0.1444031E+00
          2   -1    0    0  501    0  0.00000000000E+00  0.00000000000E+00  0.42778158324E+02  0.42778158324E+02  0.00000000000E+00 0.  1.
         -2   -1    0    0    0  501 -0.00000000000E+00 -0.00000000000E+00 -0.19537692614E+02  0.19537692614E+02  0.00000000000E+00 0.  1.
          2    1    1    2  502    0  0.26143068381E+02  0.80668450207E+01  0.21687458046E+02  0.34912459802E+02  0.00000000000E+00 0.  1.
         -2    1    1    2    0  502 -0.26143068381E+02 -0.80668450207E+01  0.15530076641E+01  0.27403391136E+02  0.00000000000E+00 0.  1.
</event>
<event>
 4    1  0.5573045E+003  0.2106583E+02  0.7546771E-02  0.1518327E+00
          2   -1    0    0  501    0  0.00000000000E+00  0.00000000000E+00  0.49934926126E+03  0.49934926126E+03  0.00000000000E+00 0.  1.
         -2   -1    0    0    0  501 -0.00000000000E+00 -0.00000000000E+00 -0.46061923721E+01  0.46061923721E+01  0.00000000000E+00 0. -1.
          2    1    1    2  502    0 -0.16010611666E+01  0.21004897427E+02  0.47374027893E+03  0.47420841514E+03  0.00000000000E+00 0.  1.
         -2    1    1    2    0  502  0.16010611666E+01 -0.21004897427E+02  0.21002789957E+02  0.29747038487E+02  0.00000000000E+00 0. -1.
</event>
<event>
 4    1  0.5573045E+003  0.3155616E+02  0.7546771E-02  0.1406539E+00
          2   -1    0    0  501    0  0.00000000000E+00  0.00000000000E+00  0.35490983390E+03  0.35490983390E+03  0.00000000000E+00 0. -1.
         -2   -1    0    0    0  501 -0.00000000000E+00 -0.00000000000E+00 -0.16099282117E+02  0.16099282117E+02  0.00000000000E+00 0.  1.
          2    1    1    2  502    0  0.30312688467E+02  0.87711139302E+01  0.33797181661E+03  0.33944180701E+03  0.00000000000E+00 0. -1.
         -2    1    1    2    0  502 -0.30312688467E+02 -0.87711139302E+01  0.83873517825E+00  0.31567309014E+02  0.00000000000E+00 0.  1.
</event>
<event>
 4    1  0.5573045E+003  0.2859991E+02  0.7546771E-02  0.1432166E+00
          2   -1    0    0  501    0  0.00000000000E+00  0.00000000000E+00  0.57845968500E+03  0.57845968500E+03  0.00000000000E+00 0. -1.
         -2   -1    0    0    0  501 -0.00000000000E+00 -0.00000000000E+00 -0.10002072104E+02  0.10002072104E+02  0.00000000000E+00 0.  1.
          2    1    1    2  502    0  0.30370841609E+01  0.28438193239E+02  0.55686941537E+03  0.55760335409E+03  0.00000000000E+00 0. -1.
         -2    1    1    2    0  502 -0.30370841609E+01 -0.28438193239E+02  0.11588197527E+02  0.30858403019E+02  0.00000000000E+00 0.  1.
</event>
<event>
 4    1  0.5573045E+003  0.3537421E+02  0.7546771E-02  0.1377951E+00
          2   -1    0    0  501    0  0.00000000000E+00  0.00000000000E+00  0.16092980945E+04  0.16092980945E+04  0.00000000000E+00 0.  1.
         -2   -1    0    0    0  501 -0.00000000000E+00 -0.00000000000E+00 -0.77251343208E+01  0.77251343208E+01  0.00000000000E+00 0. -1.
          2    1    1    2  502    0  0.33667966530E+02  0.10853710486E+02  0.15675292081E+04  0.15679282998E+04  0.00000000000E+00 0.  1.
         -2    1    1    2    0  502 -0.33667966530E+02 -0.10853710486E+02  0.34043752066E+02  0.49094929028E+02  0.00000000000E+00 0. -1.
</event>
<event>
 4    1  0.5573045E+003  0.2520792E+02  0.7546771E-02  0.1466491E+00
          2   -1    0    0  501    0  0.00000000000E+00  0.00000000000E+00  0.25443679800E+02  0.25443679800E+02  0.00000000000E+00 0. -1.
         -2   -1    0    0    0  501 -0.00000000000E+00 -0.00000000000E+00 -0.32435140780E+02  0.32435140780E+02  0.00000000000E+00 0.  1.
          2    1    1    2  502    0  0.20032207863E+01  0.25128202392E+02  0.10383778983E+02  0.27262837617E+02  0.00000000000E+00 0. -1.
         -2    1    1    2    0  502 -0.20032207863E+01 -0.25128202392E+02 -0.17375239964E+02  0.30615982963E+02  0.00000000000E+00 0.  1.
</event>
<event>
 4    1  0.5573045E+003  0.2352874E+02  0.7546771E-02  0.1485963E+00
          2   -1    0    0  501    0  0.00000000000E+00  0.00000000000E+00  0.53473686248E+01  0.53473686248E+01  0.00000000000E+00 0. -1.
         -2   -1    0    0    0  501 -0.00000000000E+00 -0.00000000000E+00 -0.42609917697E+03  0.42609917697E+03  0.00000000000E+00 0. -1.
          2    1    1    2  502    0 -0.55174022831E+01 -0.22872686833E+02 -0.22680110960E+02  0.32680100429E+02  0.00000000000E+00 0. -1.
         -2    1    1    2    0  502  0.55174022831E+01  0.22872686833E+02 -0.39807169738E+03  0.39876644516E+03  0.00000000000E+00 0. -1.
</event>
<event>
 4    1  0.5573045E+003  0.2204575E+02  0.7546771E-02  0.1504841E+00
          2   -1    0    0  501    0  0.00000000000E+00  0.00000000000E+00  0.28318412827E+01  0.28318412827E+01  0.00000000000E+00 0. -1.
         -2   -1    0    0    0  501 -0.00000000000E+00 -0.00000000000E+00 -0.31921422792E+03  0.31921422792E+03  0.00000000000E+00 0. -1.
          2    1    1    2  502    0  0.18570102429E+02  0.11881335034E+02 -0.26768112450E+03  0.26858741453E+03  0.00000000000E+00 0. -1.
         -2    1    1    2    0  502 -0.18570102429E+02 -0.11881335034E+02 -0.48701262135E+02  0.53458654678E+02  0.00000000000E+00 0. -1.
</event>
<event>
 4    1  0.5573045E+003  0.3427119E+02  0.7546771E-02  0.1385761E+00
          2   -1    0    0  501    0  0.00000000000E+00  0.00000000000E+00  0.17173364852E+03  0.17173364852E+03  0.00000000000E+00 0.  1.
         -2   -1    0    0    0  501 -0.00000000000E+00 -0.00000000000E+00 -0.38801179074E+02  0.38801179074E+02  0.00000000000E+00 0. -1.
          2    1    1    2  502    0  0.28658598639E+02 -0.18793589116E+02  0.16200697026E+03  0.16559218787E+03  0.00000000000E+00 0.  1.
         -2    1    1    2    0  502 -0.28658598639E+02  0.18793589116E+02 -0.29074500819E+02  0.44942639727E+02  0.00000000000E+00 0. -1.
</event>
<event>
 4    1  0.5573045E+003  0.2652646E+02  0.7546771E-02  0.1452424E+00
          2   -1    0    0  501    0  0.00000000000E+00  0.00000000000E+00  0.13518542223E+03  0.13518542223E+03  0.00000000000E+00 0.  1.
         -2   -1    0    0    0  501 -0.00000000000E+00 -0.00000000000E+00 -0.70720541520E+01  0.70720541520E+01  0.00000000000E+00 0. -1.
          2    1    1    2  502    0 -0.19815987692E+02  0.17634618774E+02  0.10060266023E+03  0.10404108992E+03  0.00000000000E+00 0.  1.
         -2    1    1    2    0  502  0.19815987692E+02 -0.17634618774E+02  0.27510707849E+02  0.38216386457E+02  0.00000000000E+00 0. -1.
</event>
<event>
 4    1  0.5573045E+003  0.3080234E+02  0.7546771E-02  0.1412750E+00
          2   -1    0    0  501    0  0.00000000000E+00  0.00000000000E+00  0.27848402902E+04  0.27848402902E+04  0.00000000000E+00 0.  1.
         -2   -1    0    0    0  501 -0.00000000000E+00 -0.00000000000E+00 -0.36309665086E+00  0.36309665086E+00  0.00000000000E+00 0.  1.
          2    1    1    2  502    0 -0.14539878716E+02 -0.27154674093E+02  0.17381338062E+04  0.17384067167E+04  0.00000000000E+00 0.  1.
         -2    1    1    2    0  502  0.14539878716E+02  0.27154674093E+02  0.10463433873E+04  0.10467966701E+04  0.00000000000E+00 0.  1.
</event>
<event>
 4    1  0.5573045E+003  0.2348835E+02  0.7546771E-02  0.1486455E+00
          2   -1    0    0  501    0  0.00000000000E+00  0.00000000000E+00  0.10349956406E+04  0.10349956406E+04  0.00000000000E+00 0. -1.
         -2   -1    0    0    0  501 -0.00000000000E+00 -0.00000000000E+00 -0.39591436596E+01  0.39591436596E+01  0.00000000000E+00 0. -1.
          2    1    1    2  502    0  0.21923581533E+02  0.84296656430E+01  0.99876143922E+03  0.99903759447E+03  0.00000000000E+00 0. -1.
         -2    1    1    2    0  502 -0.21923581533E+02 -0.84296656430E+01  0.32275057731E+02  0.39917189801E+02  0.00000000000E+00 0. -1.
</event>
<event>
 4    1  0.5573045E+003  0.2773166E+02  0.7546771E-02  0.1440394E+00
          2   -1    0    0  501    0  0.00000000000E+00  0.00000000000E+00  0.12337581753E+04  0.12337581753E+04  0.00000000000E+00 0.  1.
         -2   -1    0    0    0  501 -0.00000000000E+00 -0.00000000000E+00 -0.65361195368E+01  0.65361195368E+01  0.00000000000E+00 0.  1.
          2    1    1    2  502    0 -0.49106692782E+01  0.27293414468E+02  0.12034463400E+04  0.12037658154E+04  0.00000000000E+00 0.  1.
         -2    1    1    2    0  502  0.49106692782E+01 -0.27293414468E+02  0.23775715708E+02  0.36528479348E+02  0.00000000000E+00 0.  1.
</event>
<event>
 4    1  0.5573045E+003  0.2374692E+02  0.7546771E-02  0.1483326E+00
          2   -1    0    0  501    0  0.00000000000E+00  0.00000000000E+00  0.26161846483E+02  0.26161846483E+02  0.00000000000E+00 0.  1.
         -2   -1    0    0    0  501 -0.00000000000E+00 -0.00000000000E+00 -0.12817369165E+03  0.12817369165E+03  0.00000000000E+00 0. -1.
          2    1    1    2  502    0 -0.19138719592E+02  0.14057935807E+02  0.19374742073E+02  0.30647948988E+02  0.00000000000E+00 0.  1.
         -2    1    1    2    0  502  0.19138719592E+02 -0.14057935807E+02 -0.12138658724E+03  0.12368758914E+03  0.00000000000E+00 0. -1.
</event>
<event>
 4    1  0.5573045E+003  0.2023337E+02  0.7546771E-02  0.1530498E+00
          2   -1    0    0  501    0  0.00000000000E+00  0.00000000000E+00  0.61435083147E+02  0.61435083147E+02  0.00000000000E+00 0.  1.
         -2   -1    0    0    0  501 -0.00000000000E+00 -0.00000000000E+00 -0.18454382847E+03  0.18454382847E+03  0.00000000000E+00 0. -1.
          2    1    1    2  502    0 -0.10901319830E+02 -0.17045541965E+02  0.59194128445E+02  0.62556647267E+02  0.00000000000E+00 0.  1.
         -2    1    1    2    0  502  0.10901319830E+02  0.17045541965E+02 -0.18230287377E+03  0.18342226435E+03  0.00000000000E+00 0. -1.
</event>
<event>
 4    1  0.5573045E+003  0.2457517E+02  0.7546771E-02  0.1473612E+00
          2   -1    0    0  501    0  0.00000000000E+00  0.00000000000E+00  0.14141243607E+01  0.14141243607E+01  0.00000000000E+00 0.  1.
         -2   -1    0    0    0  501 -0.00000000000E+00 -0.00000000000E+00 -0.42842283431E+03  0.42842283431E+03  0.00000000000E+00 0. -1.
          2    1    1    2  502    0 -0.15693654440E+02  0.18911592360E+02 -0.20145585486E+03  0.20294925615E+03  0.00000000000E+00 0.  1.
         -2    1    1    2    0  502  0.15693654440E+02 -0.18911592360E+02 -0.22555285509E+03  0.22688770252E+03  0.00000000000E+00 0. -1.
</event>
<event>
 4    1  0.5573045E+003  0.2567154E+02  0.7546771E-02  0.1461429E+00
          2   -1    0    0  501    0  0.00000000000E+00  0.00000000000E+00  0.42768619634E+03  0.42768619634E+03  0.00000000000E+00 0. -1.
         -2   -1    0    0    0  501 -0.00000000000E+00 -0.00000000000E+00 -0.20434186027E+01  0.20434186027E+01  0.00000000000E+00 0. -1.
          2    1    1    2  502    0 -0.14792423718E+02  0.20981238377E+02  0.31937204248E+03  0.32040213745E+03  0.00000000000E+00 0. -1.
         -2    1    1    2    0  502  0.14792423718E+02 -0.20981238377E+02  0.10627073525E+03  0.10932747749E+03  0.00000000000E+00 0. -1.
</event>
<event>
 4    1  0.5573045E+003  0.2188297E+02  0.7546771E-02  0.1507022E+00
          2   -1    0    0  501    0  0.00000000000E+00  0.00000000000E+00  0.93880600106E+01  0.93880600106E+01  0.00000000000E+00 0.  1.
         -2   -1    0    0    0  501 -0.00000000000E+00 -0.00000000000E+00 -0.12041957741E+04  0.12041957741E+04  0.00000000000E+00 0.  1.
          2    1    1    2  502    0  0.78552058222E+01  0.20424502402E+02 -0.36023649109E+01  0.22177501885E+02  0.00000000000E+00 0.  1.
         -2    1    1    2    0  502 -0.78552058222E+01 -0.20424502402E+02 -0.11912053492E+04  0.11914063322E+04  0.00000000000E+00 0.  1.
</event>
<event>
 4    1  0.5573045E+003  0.2091411E+02  0.7546771E-02  0.1520495E+00
          2   -1    0    0  501    0  0.00000000000E+00  0.00000000000E+00  0.23683915908E+02  0.23683915908E+02  0.00000000000E+00 0. -1.
         -2   -1    0    0    0  501 -0.00000000000E+00 -0.00000000000E+00 -0.19620037225E+02  0.19620037225E+02  0.00000000000E+00 0. -1.
          2    1    1    2  502    0 -0.19036310146E+02  0.86613499616E+01  0.72780432760E+01  0.22144299516E+02  0.00000000000E+00 0. -1.
         -2    1    1    2    0  502  0.19036310146E+02 -0.86613499616E+01 -0.32141645928E+01  0.21159653617E+02  0.00000000000E+00 0. -1.
</event>
<event>
 4    1  0.5573045E+003  0.2450667E+02  0.7546771E-02  0.1474399E+00
          2   -1    0    0  501    0  0.00000000000E+00  0.00000000000E+00  0.97220727989E+01  0.97220727989E+01  0.00000000000E+00 0. -1.
         -2   -1    0    0    0  501 -0.00000000000E+00 -0.00000000000E+00 -0.99628155422E+02  0.99628155422E+02  0.00000000000E+00 0. -1.
          2    1    1    2  502    0  0.24221003334E+02 -0.37309200164E+01 -0.11251309135E+02  0.26966066156E+02  0.00000000000E+00 0. -1.
         -2    1    1    2    0  502 -0.24221003334E+02  0.37309200164E+01 -0.78654773488E+02  0.82384162065E+02  0.00000000000E+00 0. -1.
</event>
<event>
 4    1  0.5573045E+003  0.3775672E+02  0.7546771E-02  0.1362158E+00
          2   -1    0    0  501    0  0.00000000000E+00  0.00000000000E+00  0.37892584319E+03  0.37892584319E+03  0.00000000000E+00 0.  1.
         -2   -1    0    0    0  501 -0.00000000000E+00 -0.00000000000E+00 -0.70125628452E+01  0.70125628452E+01  0.00000000000E+00 0.  1.
          2    1    1    2  502    0 -0.32349014726E+02 -0.19470785791E+02  0.31733380080E+03  0.31957207541E+03  0.00000000000E+00 0.  1.
         -2    1    1    2    0  502  0.32349014726E+02  0.19470785791E+02  0.54579479547E+02  0.66366330625E+02  0.00000000000E+00 0.  1.
</event>
<event>
 4    1  0.5573045E+003  0.2492149E+02  0.7546771E-02  0.1469684E+00
          2   -1    0    0  501    0  0.00000000000E+00  0.00000000000E+00  0.86912609612E+03  0.86912609612E+03  0.00000000000E+00 0.  1.
         -2   -1    0    0    0  501 -0.00000000000E+00 -0.00000000000E+00 -0.11758648594E+01  0.11758648594E+01  0.00000000000E+00 0.  1.
          2    1    1    2  502    0  0.23635062655E+02 -0.79034387308E+01  0.70651797536E+03  0.70695737498E+03  0.00000000000E+00 0.  1.
         -2    1    1    2    0  502 -0.23635062655E+02  0.79034387308E+01  0.16143225590E+03  0.16334458600E+03  0.00000000000E+00 0.  1.
</event>
<event>
 4    1  0.5573045E+003  0.2883165E+02  0.7546771E-02  0.1430028E+00
          2   -1    0    0  501    0  0.00000000000E+00  0.00000000000E+00  0.12957693581E+04  0.12957693581E+04  0.00000000000E+00 0. -1.
         -2   -1    0    0    0  501 -0.00000000000E+00 -0.00000000000E+00 -0.67498271262E+00  0.67498271262E+00  0.00000000000E+00 0. -1.
          2    1    1    2  502    0  0.23660134805E+02  0.16476106838E+02  0.79187416809E+03  0.79239886557E+03  0.00000000000E+00 0. -1.
         -2    1    1    2    0  502 -0.23660134805E+02 -0.16476106838E+02  0.50322020725E+03  0.50404547519E+03  0.00000000000E+00 0. -1.
</event>
<event>
 4    1  0.5573045E+003  0.2081449E+02  0.7546771E-02  0.1521930E+00
          2   -1    0    0  501    0  0.00000000000E+00  0.00000000000E+00  0.11293894068E+04  0.11293894068E+04  0.00000000000E+00 0.  1.
         -2   -1    0    0    0  501 -0.00000000000E+00 -0.00000000000E+00 -0.77790935270E+00  0.77790935270E+00  0.00000000000E+00 0.  1.
          2    1    1    2  502    0  0.17343468474E+02 -0.11508566506E+02  0.96661710537E+03  0.96684118209E+03  0.00000000000E+00 0.  1.
         -2    1    1    2    0  502 -0.17343468474E+02  0.11508566506E+02  0.16199439212E+03  0.16332613410E+03  0.00000000000E+00 0.  1.
</event>
<event>
 4    1  0.5573045E+003  0.2559378E+02  0.7546771E-02  0.1462269E+00
          2   -1    0    0  501    0  0.00000000000E+00  0.00000000000E+00  0.26940512340E+01  0.26940512340E+01  0.00000000000E+00 0.  1.
         -2   -1    0    0    0  501 -0.00000000000E+00 -0.00000000000E+00 -0.67443511280E+03  0.67443511280E+03  0.00000000000E+00 0. -1.
          2    1    1    2  502    0 -0.17106776043E+02  0.19036806664E+02 -0.65127800771E+02  0.69976226162E+02  0.00000000000E+00 0.  1.
         -2    1    1    2    0  502  0.17106776043E+02 -0.19036806664E+02 -0.60661326080E+03  0.60715293787E+03  0.00000000000E+00 0. -1.
</event>
<event>
 4    1  0.5573045E+003  0.2493496E+02  0.7546771E-02  0.1469532E+00
          2   -1    0    0  501    0  0.00000000000E+00  0.00000000000E+00  0.10074135078E+04  0.10074135078E+04  0.00000000000E+00 0.  1.
         -2   -1    0    0    0  501 -0.00000000000E+00 -0.00000000000E+00 -0.67047621034E+01  0.67047621034E+01  0.00000000000E+00 0. -1.
          2    1    1    2  502    0 -0.24882748185E+02 -0.16127314730E+01  0.98351269138E+03  0.98382872806E+03  0.00000000000E+00 0.  1.
         -2    1    1    2    0  502  0.24882748185E+02  0.16127314730E+01  0.17196054289E+02  0.30289541811E+02  0.00000000000E+00 0. -1.
</event>
<event>
 4    1  0.5573045E+003  0.5304483E+02  0.7546771E-02  0.1285485E+00
          2   -1    0    0  501    0  0.00000000000E+00  0.00000000000E+00  0.42932178654E+03  0.42932178654E+03  0.00000000000E+00 0. -1.
         -2   -1    0    0    0  501 -0.00000000000E+00 -0.00000000000E+00 -0.15538038476E+02  0.15538038476E+02  0.00000000000E+00 0. -1.
          2    1    1    2  502    0  0.42361575262E+02 -0.31925704590E+02  0.37602633220E+03  0.37974933335E+03  0.00000000000E+00 0. -1.
         -2    1    1    2    0  502 -0.42361575262E+02  0.31925704590E+02  0.37757415867E+02  0.65110491668E+02  0.00000000000E+00 0. -1.
</event>
<event>
 4    1  0.5573045E+003  0.2340916E+02  0.7546771E-02  0.1487423E+00
          2   -1    0    0  501    0  0.00000000000E+00  0.00000000000E+00  0.13426744316E+04  0.13426744316E+04  0.00000000000E+00 0.  1.
         -2   -1    0    0    0  501 -0.00000000000E+00 -0.00000000000E+00 -0.11693968023E+01  0.11693968023E+01  0.00000000000E+00 0.  1.
          2    1    1    2  502    0  0.16927783389E+02  0.16169070105E+02  0.12128853013E+04  0.12131111832E+04  0.00000000000E+00 0.  1.
         -2    1    1    2    0  502 -0.16927783389E+02 -0.16169070105E+02  0.12861973354E+03  0.13073264525E+03  0.00000000000E+00 0.  1.
</event>
<event>
 4    1  0.5573045E+003  0.3257331E+02  0.7546771E-02  0.1398476E+00
          2   -1    0    0  501    0  0.00000000000E+00  0.00000000000E+00  0.43496130711E+03  0.43496130711E+03  0.00000000000E+00 0.  1.
         -2   -1    0    0    0  501 -0.00000000000E+00 -0.00000000000E+00 -0.67395182130E+01  0.67395182130E+01  0.00000000000E+00 0.  1.
          2    1    1    2  502    0  0.32152124910E+02 -0.52212265459E+01  0.39052235859E+03  0.39187846700E+03  0.00000000000E+00 0.  1.
         -2    1    1    2    0  502 -0.32152124910E+02  0.52212265459E+01  0.37699430304E+02  0.49822358316E+02  0.00000000000E+00 0.  1.
</event>
<event>
 4    1  0.5573045E+003  0.2493538E+02  0.7546771E-02  0.1469528E+00
          2   -1    0    0  501    0  0.00000000000E+00  0.00000000000E+00  0.31247053164E+02  0.31247053164E+02  0.00000000000E+00 0. -1.
         -2   -1    0    0    0  501 -0.00000000000E+00 -0.00000000000E+00 -0.11885547160E+03  0.11885547160E+03  0.00000000000E+00 0.  1.
          2    1    1    2  502    0 -0.20673459221E+02  0.13942071077E+02  0.24676988073E+02  0.35081718921E+02  0.00000000000E+00 0. -1.
         -2    1    1    2    0  502  0.20673459221E+02 -0.13942071077E+02 -0.11228540651E+03  0.11502080585E+03  0.00000000000E+00 0.  1.
</event>
<event>
 4    1  0.5573045E+003  0.6449809E+02  0.7546771E-02  0.1245271E+00
          2   -1    0    0  501    0  0.00000000000E+00  0.00000000000E+00  0.50284515264E+03  0.50284515264E+03  0.00000000000E+00 0.  1.
         -2   -1    0    0    0  501 -0.00000000000E+00 -0.00000000000E+00 -0.13597474104E+03  0.13597474104E+03  0.00000000000E+00 0.  1.
          2    1    1    2  502    0 -0.28072986992E+02 -0.58068162556E+02  0.49297596250E+03  0.49717733627E+03  0.00000000000E+00 0.  1.
         -2    1    1    2    0  502  0.28072986992E+02  0.58068162556E+02 -0.12610555090E+03  0.14164255741E+03  0.00000000000E+00 0.  1.
</event>
<event>
 4    1  0.5573045E+003  0.2327599E+02  0.7546771E-02  0.1489061E+00
          2   -1    0    0  501    0  0.00000000000E+00  0.00000000000E+00  0.38526424984E+02  0.38526424984E+02  0.00000000000E+00 0.  1.
         -2   -1    0    0    0  501 -0.00000000000E+00 -0.00000000000E+00 -0.19535782705E+03  0.19535782705E+03  0.00000000000E+00 0.  1.
          2    1    1    2  502    0 -0.15878242677E+02  0.17019194300E+02  0.34238937284E+02  0.41401405670E+02  0.00000000000E+00 0.  1.
         -2    1    1    2    0  502  0.15878242677E+02 -0.17019194300E+02 -0.19107033935E+03  0.19248284636E+03  0.00000000000E+00 0.  1.
</event>
<event>
 4    1  0.5573045E+003  0.2505397E+02  0.7546771E-02  0.1468201E+00
          2   -1    0    0  501    0  0.00000000000E+00  0.00000000000E+00  0.15553265500E+03  0.15553265500E+03  0.00000000000E+00 0. -1.
         -2   -1    0    0    0  501 -0.00000000000E+00 -0.00000000000E+00 -0.22907024575E+03  0.22907024575E+03  0.00000000000E+00 0.  1.
          2    1    1    2  502    0 -0.21295365776E+02  0.13198816483E+02  0.15383111953E+03  0.15585799529E+03  0.00000000000E+00 0. -1.
         -2    1    1    2    0  502  0.21295365776E+02 -0.13198816483E+02 -0.22736871028E+03  0.22874490546E+03  0.00000000000E+00 0.  1.
</event>
<event>
 4    1  0.5573045E+003  0.2484812E+02  0.7546771E-02  0.1470510E+00
          2   -1    0    0  501    0  0.00000000000E+00  0.00000000000E+00  0.12282539518E+02  0.12282539518E+02  0.00000000000E+00 0.  1.
         -2   -1    0    0    0  501 -0.00000000000E+00 -0.00000000000E+00 -0.16912590425E+03  0.16912590425E+03  0.00000000000E+00 0. -1.
          2    1    1    2  502    0  0.17219196958E+02  0.17914475058E+02 -0.23829419878E+01  0.24962122766E+02  0.00000000000E+00 0.  1.
         -2    1    1    2    0  502 -0.17219196958E+02 -0.17914475058E+02 -0.15446042274E+03  0.15644632100E+03  0.00000000000E+00 0. -1.
</event>
<event>
 4    1  0.5573045E+003  0.2135927E+02  0.7546771E-02  0.1514197E+00
          2   -1    0    0  501    0  0.00000000000E+00  0.00000000000E+00  0.12804046308E+04  0.12804046308E+04  0.00000000000E+00 0. -1.
         -2   -1    0    0    0  501 -0.00000000000E+00 -0.00000000000E+00 -0.16851721168E+01  0.16851721168E+01  0.00000000000E+00 0. -1.
          2    1    1    2  502    0 -0.10572632381E+02 -0.18559038350E+02  0.12086143956E+04  0.12088031170E+04  0.00000000000E+00 0. -1.
         -2    1    1    2    0  502  0.10572632381E+02  0.18559038350E+02  0.70105063041E+02  0.73286685857E+02  0.00000000000E+00 0. -1.
</event>
<event>
 4    1  0.5573045E+003  0.2996933E+02  0.7546771E-02  0.1419863E+00
          2   -1    0    0  501    0  0.00000000000E+00  0.00000000000E+00  0.40854510641E+03  0.40854510641E+03  0.00000000000E+00 0. -1.
         -2   -1    0    0    0  501 -0.00000000000E+00 -0.00000000000E+00 -0.84455843756E+02  0.84455843756E+02  0.00000000000E+00 0.  1.
          2    1    1    2  502    0  0.27336869035E+02 -0.12282369156E+02  0.40531567196E+03  0.40642213884E+03  0.00000000000E+00 0. -1.
         -2    1    1    2    0  502 -0.27336869035E+02  0.12282369156E+02 -0.81226409311E+02  0.86578811324E+02  0.00000000000E+00 0.  1.
</event>
<event>
 4    1  0.5573045E+003  0.2847266E+02  0.7546771E-02  0.1433351E+00
          2   -1    0    0  501    0  0.00000000000E+00  0.00000000000E+00  0.25016814272E+04  0.25016814272E+04  0.00000000000E+00 0. -1.
         -2   -1    0    0    0  501 -0.00000000000E+00 -0.00000000000E+00 -0.35275896223E+00  0.35275896223E+00  0.00000000000E+00 0. -1.
          2    1    1    2  502    0 -0.13321712911E+02 -0.25163946364E+02  0.16074975978E+04  0.16077497378E+04  0.00000000000E+00 0. -1.
         -2    1    1    2    0  502  0.13321712911E+02  0.25163946364E+02  0.89383107043E+03  0.89428444842E+03  0.00000000000E+00 0. -1.
</event>
<event>
 4    1  0.5573045E+003  0.2276976E+02  0.7546771E-02  0.1495410E+00
          2   -1    0    0  501    0  0.00000000000E+00  0.00000000000E+00  0.14780370961E+03  0.14780370961E+03  0.00000000000E+00 0. -1.
         -2   -1    0    0    0  501 -0.00000000000E+00 -0.00000000000E+00 -0.75076204987E+01  0.75076204987E+01  0.00000000000E+00 0.  1.
          2    1    1    2  502    0 -0.16596996527E+02 -0.15588516954E+02  0.12682983980E+03  0.12885755863E+03  0.00000000000E+00 0. -1.
         -2    1    1    2    0  502  0.16596996527E+02  0.15588516954E+02  0.13466249313E+02  0.26453771472E+02  0.00000000000E+00 0.  1.
</event>
<event>
 4    1  0.5573045E+003  0.2109114E+02  0.7546771E-02  0.1517967E+00
          2   -1    0    0  501    0  0.00000000000E+00  0.00000000000E+00  0.43380687006E+03  0.43380687006E+03  0.00000000000E+00 0.  1.
         -2   -1    0    0    0  501 -0.00000000000E+00 -0.00000000000E+00 -0.43352800305E+02  0.43352800305E+02  0.00000000000E+00 0. -1.
          2    1    1    2  502    0 -0.69839181326E+01  0.19901283247E+02  0.43096841879E+03  0.43148419922E+03  0.00000000000E+00 0.  1.
         -2    1    1    2    0  502  0.69839181326E+01 -0.19901283247E+02 -0.40514349027E+02  0.45675471147E+02  0.00000000000E+00 0. -1.
</event>
<event>
 4    1  0.5573045E+003  0.2719811E+02  0.7546771E-02  0.1445628E+00
          2   -1    0    0  501    0  0.00000000000E+00  0.00000000000E+00  0.64028247608E+01  0.64028247608E+01  0.00000000000E+00 0.  1.
         -2   -1    0    0    0  501 -0.00000000000E+00 -0.00000000000E+00 -0.73362216990E+03  0.73362216990E+03  0.00000000000E+00 0.  1.
          2    1    1    2  502    0  0.24779087718E+02 -0.11213125716E+02 -0.23979906552E+02  0.36259802739E+02  0.00000000000E+00 0.  1.
         -2    1    1    2    0  502 -0.24779087718E+02  0.11213125716E+02 -0.70323943858E+03  0.70376519192E+03  0.00000000000E+00 0.  1.
</event>
<event>
 4    1  0.5573045E+003  0.2307673E+02  0.7546771E-02  0.1491537E+00
          2   -1    0    0  501    0  0.00000000000E+00  0.00000000000E+00  0.17798438052E+03  0.17798438052E+03  0.00000000000E+00 0.  1.
         -2   -1    0    0    0  501 -0.00000000000E+00 -0.00000000000E+00 -0.71988912696E+02  0.71988912696E+02  0.00000000000E+00 0.  1.
          2    1    1    2  502    0 -0.35914524583E+01 -0.22795541694E+02  0.17535944245E+03  0.17687133546E+03  0.00000000000E+00 0.  1.
         -2    1    1    2    0  502  0.35914524583E+01  0.22795541694E+02 -0.69363974625E+02  0.73101957755E+02  0.00000000000E+00 0.  1.
</event>
<event>
 4    1  0.5573045E+003  0.2912229E+02  0.7546771E-02  0.1427380E+00
          2   -1    0    0  501    0  0.00000000000E+00  0.00000000000E+00  0.10329924057E+04  0.10329924057E+04  0.00000000000E+00 0.  1.
         -2   -1    0    0    0  501 -0.00000000000E+00 -0.00000000000E+00 -0.12680798925E+01  0.12680798925E+01  0.00000000000E+00 0. -1.
          2    1    1    2  502    0 -0.69958112570E-01 -0.29122205568E+02  0.82291232438E+03  0.82342747183E+03  0.00000000000E+00 0.  1.
         -2    1    1    2    0  502  0.69958112570E-01  0.29122205568E+02  0.20881200148E+03  0.21083301381E+03  0.00000000000E+00 0. -1.
</event>
<event>
 4    1  0.5573045E+003  0.2597592E+02  0.7546771E-02  0.1458176E+00
          2   -1    0    0  501    0  0.00000000000E+00  0.00000000000E+00  0.50630268407E+03  0.50630268407E+03  0.00000000000E+00 0. -1.
         -2   -1    0    0    0  501 -0.00000000000E+00 -0.00000000000E+00 -0.13376090483E+01  0.13376090483E+01  0.00000000000E+00 0.  1.
          2    1    1    2  502    0 -0.25095542347E+02  0.67053188571E+01  0.23709963334E+03  0.23851830889E+03  0.00000000000E+00 0. -1.
         -2    1    1    2    0  502  0.25095542347E+02 -0.67053188571E+01  0.26786544168E+03  0.26912198422E+03  0.00000000000E+00 0.  1.
</event>
<event>
 4    1  0.5573045E+003  0.8946223E+02  0.7546771E-02  0.1183438E+00
          2   -1    0    0  501    0  0.00000000000E+00  0.00000000000E+00  0.10410604003E+03  0.10410604003E+03  0.00000000000E+00 0.  1.
         -2   -1    0    0    0  501 -0.00000000000E+00 -0.00000000000E+00 -0.15624880517E+03  0.15624880517E+03  0.00000000000E+00 0.  1.
          2    1    1    2  502    0 -0.84272656413E+02  0.30026821189E+02  0.66709182596E+02  0.11159572417E+03  0.00000000000E+00 0.  1.
         -2    1    1    2    0  502  0.84272656413E+02 -0.30026821189E+02 -0.11885194774E+03  0.14875912103E+03  0.00000000000E+00 0.  1.
</event>
<event>
 4    1  0.5573045E+003  0.2480236E+02  0.7546771E-02  0.1471027E+00
          2   -1    0    0  501    0  0.00000000000E+00  0.00000000000E+00  0.10211846115E+04  0.10211846115E+04  0.00000000000E+00 0. -1.
         -2   -1    0    0    0  501 -0.00000000000E+00 -0.00000000000E+00 -0.24987594866E+01  0.24987594866E+01  0.00000000000E+00 0.  1.
          2    1    1    2  502    0 -0.21089640618E+02 -0.13053128826E+02  0.95523963128E+03  0.95556156802E+03  0.00000000000E+00 0. -1.
         -2    1    1    2    0  502  0.21089640618E+02  0.13053128826E+02  0.63446220713E+02  0.68121802944E+02  0.00000000000E+00 0.  1.
</event>
<event>
 4    1  0.5573045E+003  0.2363105E+02  0.7546771E-02  0.1484722E+00
          2   -1    0    0  501    0  0.00000000000E+00  0.00000000000E+00  0.14399097105E+04  0.14399097105E+04  0.00000000000E+00 0.  1.
         -2   -1    0    0    0  501 -0.00000000000E+00 -0.00000000000E+00 -0.13426547130E+01  0.13426547130E+01  0.00000000000E+00 0. -1.
          2    1    1    2  502    0  0.17483670780E+02 -0.15898050543E+02  0.13269871338E+04  0.13271975287E+04  0.00000000000E+00 0.  1.
         -2    1    1    2    0  502 -0.17483670780E+02  0.15898050543E+02  0.11157992193E+03  0.11405483652E+03  0.00000000000E+00 0. -1.
</event>
<event>
 4    1  0.5573045E+003  0.2013650E+02  0.7546771E-02  0.1531959E+00
          2   -1    0    0  501    0  0.00000000000E+00  0.00000000000E+00  0.31852933773E+03  0.31852933773E+03  0.00000000000E+00 0. -1.
         -2   -1    0    0    0  501 -0.00000000000E+00 -0.00000000000E+00 -0.93155308374E+01  0.93155308374E+01  0.00000000000E+00 0.  1.
          2    1    1    2  502    0 -0.95647831411E+00  0.20113773433E+02  0.30691806525E+03  0.30757792104E+03  0.00000000000E+00 0. -1.
         -2    1    1    2    0  502  0.95647831411E+00 -0.20113773433E+02  0.22957416412E+01  0.20266947529E+02  0.00000000000E+00 0.  1.
</event>
<event>
 4    1  0.5573045E+003  0.2310694E+02  0.7546771E-02  0.1491160E+00
          2   -1    0    0  501    0  0.00000000000E+00  0.00000000000E+00  0.62222360694E+03  0.62222360694E+03  0.00000000000E+00 0.  1.
         -2   -1    0    0    0  501 -0.00000000000E+00 -0.00000000000E+00 -0.82118217950E+01  0.82118217950E+01  0.00000000000E+00 0.  1.
          2    1    1    2  502    0 -0.15638004601E+02  0.17011270247E+02  0.60529983577E+03  0.60574072150E+03  0.00000000000E+00 0.  1.
         -2    1    1    2    0  502  0.15638004601E+02 -0.17011270247E+02  0.87119493724E+01  0.24694707230E+02  0.00000000000E+00 0.  1.
</event>
<event>
 4    1  0.5573045E+003  0.3625639E+02  0.7546771E-02  0.1371939E+00
          2   -1    0    0  501    0  0.00000000000E+00  0.00000000000E+00  0.82025741794E+03  0.82025741794E+03  0.00000000000E+00 0.  1.
         -2   -1    0    0    0  501 -0.00000000000E+00 -0.00000000000E+00 -0.50250329410E+01  0.50250329410E+01  0.00000000000E+00 0. -1.
          2    1    1    2  502    0 -0.35461111812E+02  0.75521812193E+01  0.74815928374E+03  0.74903727526E+03  0.00000000000E+00 0.  1.
         -2    1    1    2    0  502  0.35461111812E+02 -0.75521812193E+01  0.67073101262E+02  0.76245175618E+02  0.00000000000E+00 0. -1.
</event>
<event>
 4    1  0.5573045E+003  0.2130903E+02  0.7546771E-02  0.1514898E+00
          2   -1    0    0  501    0  0.00000000000E+00  0.00000000000E+00  0.37429009581E+03  0.37429009581E+03  0.00000000000E+00 0.  1.
         -2   -1    0    0    0  501 -0.00000000000E+00 -0.00000000000E+00 -0.25921301112E+02  0.25921301112E+02  0.00000000000E+00 0. -1.
          2    1    1    2  502    0 -0.20094519125E+02 -0.70911925121E+01  0.36955133646E+03  0.37016518609E+03  0.00000000000E+00 0.  1.
         -2    1    1    2    0  502  0.20094519125E+02  0.70911925121E+01 -0.21182541763E+02  0.30046210837E+02  0.00000000000E+00 0. -1.
</event>
<event>
 4    1  0.5573045E+003  0.2184827E+02  0.7546771E-02  0.1507490E+00
          2   -1    0    0  501    0  0.00000000000E+00  0.00000000000E+00  0.15854998813E+04  0.15854998813E+04  0.00000000000E+00 0.  1.
         -2   -1    0    0    0  501 -0.00000000000E+00 -0.00000000000E+00 -0.37238027403E+00  0.37238027403E+00  0.00000000000E+00 0. -1.
          2    1    1    2  502    0  0.21722830968E+02  0.23378543510E+01  0.11395561548E+04  0.11397655798E+04  0.00000000000E+00 0.  1.
         -2    1    1    2    0  502 -0.21722830968E+02 -0.23378543510E+01  0.44557134625E+03  0.44610668180E+03  0.00000000000E+00 0. -1.
</event>
<event>
 4    1  0.5573045E+003  0.2593547E+02  0.7546771E-02  0.1458605E+00
          2   -1    0    0  501    0  0.00000000000E+00  0.00000000000E+00  0.11929308227E+03  0.11929308227E+03  0.00000000000E+00 0.  1.
         -2   -1    0    0    0  501 -0.00000000000E+00 -0.00000000000E+00 -0.11655424982E+03  0.11655424982E+03  0.00000000000E+00 0. -1.
          2    1    1    2  502    0 -0.24763136592E+02  0.77094391197E+01  0.11640528848E+03  0.11925954708E+03  0.00000000000E+00 0.  1.
         -2    1    1    2    0  502  0.24763136592E+02 -0.77094391197E+01 -0.11366645603E+03  0.11658778500E+03  0.00000000000E+00 0. -1.
</event>
<event>
 4    1  0.5573045E+003  0.2111034E+02  0.7546771E-02  0.1517695E+00
          2   -1    0    0  501    0  0.00000000000E+00  0.00000000000E+00  0.26960724761E+01  0.26960724761E+01  0.00000000000E+00 0.  1.
         -2   -1    0    0    0  501 -0.00000000000E+00 -0.00000000000E+00 -0.17281422036E+03  0.17281422036E+03  0.00000000000E+00 0.  1.
          2    1    1    2  502    0 -0.94081694986E+01  0.18897944416E+02 -0.10336466067E+03  0.10549833663E+03  0.00000000000E+00 0.  1.
         -2    1    1    2    0  502  0.94081694986E+01 -0.18897944416E+02 -0.66753487216E+02  0.70011956207E+02  0.00000000000E+00 0.  1.
</event>
<event>
 4    1  0.5573045E+003  0.3058905E+02  0.7546771E-02  0.1414545E+00
          2   -1    0    0  501    0  0.00000000000E+00  0.00000000000E+00  0.19644574608E+04  0.19644574608E+04  0.00000000000E+00 0. -1.
         -2   -1    0    0    0  501 -0.00000000000E+00 -0.00000000000E+00 -0.47631942346E+00  0.47631942346E+00  0.00000000000E+00 0.  1.
          2    1    1    2  502    0 -0.19368034498E+02  0.23676328104E+02  0.97745155418E+03  0.97793007420E+03  0.00000000000E+00 0. -1.
         -2    1    1    2    0  502  0.19368034498E+02 -0.23676328104E+02  0.98652958720E+03  0.98700370602E+03  0.00000000000E+00 0.  1.
</event>
<event>
 4    1  0.5573045E+003  0.2018155E+02  0.7546771E-02  0.1531278E+00
          2   -1    0    0  501    0  0.00000000000E+00  0.00000000000E+00  0.81026321323E+03  0.81026321323E+03  0.00000000000E+00 0.  1.
         -2   -1    0    0    0  501 -0.00000000000E+00 -0.00000000000E+00 -0.24039897426E+01  0.24039897426E+01  0.00000000000E+00 0. -1.
          2    1    1    2  502    0  0.19865532190E+02  0.35574523300E+01  0.76529290514E+03  0.76555896278E+03  0.00000000000E+00 0.  1.
         -2    1    1    2    0  502 -0.19865532190E+02 -0.35574523300E+01  0.42566318344E+02  0.47108240188E+02  0.00000000000E+00 0. -1.
</event>
<event>
 4    1  0.5573045E+003  0.2438774E+02  0.7546771E-02  0.1475771E+00
          2   -1    0    0  501    0  0.00000000000E+00  0.00000000000E+00  0.32452476486E+01  0.32452476486E+01  0.00000000000E+00 0. -1.
         -2   -1    0    0    0  501 -0.00000000000E+00 -0.00000000000E+00 -0.32828126522E+03  0.32828126522E+03  0.00000000000E+00 0.  1.
          2    1    1    2  502    0  0.11929837935E+02 -0.21270652609E+02 -0.52347917069E+02  0.57750031317E+02  0.00000000000E+00 0. -1.
         -2    1    1    2    0  502 -0.11929837935E+02  0.21270652609E+02 -0.27268810050E+03  0.27377648155E+03  0.00000000000E+00 0.  1.
</event>
<event>
 4    1  0.5573045E+003  0.2060240E+02  0.7546771E-02  0.1525018E+00
          2   -1    0    0  501    0  0.00000000000E+00  0.00000000000E+00  0.14114624563E+04  0.14114624563E+04  0.00000000000E+00 0.  1.
         -2   -1    0    0    0  501 -0.00000000000E+00 -0.00000000000E+00 -0.31504676768E+00  0.31504676768E+00  0.00000000000E+00 0.  1.
          2    1    1    2  502    0  0.47299941900E+01  0.20052088071E+02  0.85608840554E+03  0.85633627576E+03  0.00000000000E+00 0.  1.
         -2    1    1    2    0  502 -0.47299941900E+01 -0.20052088071E+02  0.55505900399E+03  0.55544122730E+03  0.00000000000E+00 0.  1.
</event>
<event>
 4    1  0.5573045E+003  0.3426164E+02  0.7546771E-02  0.1385830E+00
          2   -1    0    0  501    0  0.00000000000E+00  0.00000000000E+00  0.17121591070E+04  0.17121591070E+04  0.00000000000E+00 0.  1.
         -2   -1    0    0    0  501 -0.00000000000E+00 -0.00000000000E+00 -0.30877451951E+01  0.30877451951E+01  0.00000000000E+00 0.  1.
          2    1    1    2  502    0  0.25637048984E+02  0.22728875458E+02  0.16109771611E+04  0.16113414516E+04  0.00000000000E+00 0.  1.
         -2    1    1    2    0  502 -0.25637048984E+02 -0.22728875458E+02  0.98094200654E+02  0.10390540054E+03  0.00000000000E+00 0.  1.
</event>
<event>
 4    1  0.5573045E+003  0.2238005E+02  0.7546771E-02  0.1500433E+00
          2   -1    0    0  501    0  0.00000000000E+00  0.00000000000E+00  0.25291345003E+03  0.25291345003E+03  0.00000000000E+00 0.  1.
         -2   -1    0    0    0  501 -0.00000000000E+00 -0.00000000000E+00 -0.20433765938E+01  0.20433765938E+01  0.00000000000E+00 0. -1.
          2    1    1    2  502    0 -0.19473688052E+02 -0.11029128123E+02  0.10305292082E+03  0.10545506476E+03  0.00000000000E+00 0. -1.
         -2    1    1    2    0  502  0.19473688052E+02  0.11029128123E+02  0.14781715262E+03  0.14950176187E+03  0.00000000000E+00 0.  1.
</event>
<event>
 4    1  0.5573045E+003  0.2691301E+02  0.7546771E-02  0.1448484E+00
          2   -1    0    0  501    0  0.00000000000E+00  0.00000000000E+00  0.25310908467E+03  0.25310908467E+03  0.00000000000E+00 0. -1.
         -2   -1    0    0    0  501 -0.00000000000E+00 -0.00000000000E+00 -0.10724956603E+02  0.10724956603E+02  0.00000000000E+00 0. -1.
          2    1    1    2  502    0 -0.15572268560E+02 -0.21950271425E+02  0.23414710800E+03  0.23568873148E+03  0.00000000000E+00 0. -1.
         -2    1    1    2    0  502  0.15572268560E+02  0.21950271425E+02  0.82370200725E+01  0.28145309794E+02  0.00000000000E+00 0. -1.
</event>
<event>
 4    1  0.5573045E+003  0.2192491E+02  0.7546771E-02  0.1506458E+00
          2   -1    0    0  501    0  0.00000000000E+00  0.00000000000E+00  0.85462885990E+03  0.85462885990E+03  0.00000000000E+00 0. -1.
         -2   -1    0    0    0  501 -0.00000000000E+00 -0.00000000000E+00 -0.92545892132E+00  0.92545892132E+00  0.00000000000E+00 0.  1.
          2    1    1    2  502    0  0.20729302594E+02  0.71412799189E+01  0.69476024513E+03  0.69510610706E+03  0.00000000000E+00 0. -1.
         -2    1    1    2    0  502 -0.20729302594E+02 -0.71412799189E+01  0.15894315585E+03  0.16044821176E+03  0.00000000000E+00 0.  1.
</event>
<event>
 4    1  0.5573045E+003  0.2212652E+02  0.7546771E-02  0.1503768E+00
          2   -1    0    0  501    0  0.00000000000E+00  0.00000000000E+00  0.35194583179E+03  0.35194583179E+03  0.00000000000E+00 0. -1.
         -2   -1    0    0    0  501 -0.00000000000E+00 -0.00000000000E+00 -0.20821316979E+02  0.20821316979E+02  0.00000000000E+00 0.  1.
          2    1    1    2  502    0 -0.15813938141E+02  0.15475853947E+02  0.34561206188E+03  0.34631962118E+03  0.00000000000E+00 0. -1.
         -2    1    1    2    0  502  0.15813938141E+02 -0.15475853947E+02 -0.14487547078E+02  0.26447527584E+02  0.00000000000E+00 0.  1.
</event>
<event>
 4    1  0.5573045E+003  0.2161494E+02  0.7546771E-02  0.1510663E+00
          2   -1    0    0  501    0  0.00000000000E+00  0.00000000000E+00  0.16714725897E+03  0.16714725897E+03  0.00000000000E+00 0. -1.
         -2   -1    0    0    0  501 -0.00000000000E+00 -0.00000000000E+00 -0.41052880246E+01  0.41052880246E+01  0.00000000000E+00 0. -1.
          2    1    1    2  502    0 -0.17451425118E+02 -0.12753555548E+02  0.12989253814E+03  0.13167868803E+03  0.00000000000E+00 0. -1.
         -2    1    1    2    0  502  0.17451425118E+02  0.12753555548E+02  0.33149432806E+02  0.39573858962E+02  0.00000000000E+00 0. -1.
</event>
<event>
 4    1  0.5573045E+003  0.2663889E+02  0.7546771E-02  0.1451270E+00
          2   -1    0    0  501    0  0.00000000000E+00  0.00000000000E+00  0.12020795648E+01  0.12020795648E+01  0.00000000000E+00 0. -1.
         -2   -1    0    0    0  501 -0.00000000000E+00 -0.00000000000E+00 -0.97870230149E+03  0.97870230149E+03  0.00000000000E+00 0.  1.
          2    1    1    2  502    0  0.22166817980E+02  0.14773721708E+02 -0.18011221666E+03  0.18207152787E+03  0.00000000000E+00 0. -1.
         -2    1    1    2    0  502 -0.22166817980E+02 -0.14773721708E+02 -0.79738800527E+03  0.79783285318E+03  0.00000000000E+00 0.  1.
</event>
<event>
 4    1  0.5573045E+003  0.2101430E+02  0.7546771E-02  0.1519061E+00
          2   -1    0    0  501    0  0.00000000000E+00  0.00000000000E+00  0.16379422449E+03  0.16379422449E+03  0.00000000000E+00 0. -1.
         -2   -1    0    0    0  501 -0.00000000000E+00 -0.00000000000E+00 -0.54031340789E+01  0.54031340789E+01  0.00000000000E+00 0. -1.
          2    1    1    2  502    0  0.14577523897E+02 -0.15135940991E+02  0.13907665933E+03  0.14065531659E+03  0.00000000000E+00 0. -1.
         -2    1    1    2    0  502 -0.14577523897E+02  0.15135940991E+02  0.19314431076E+02  0.28542041981E+02  0.00000000000E+00 0. -1.
</event>
<event>
 4    1  0.5573045E+003  0.3145364E+02  0.7546771E-02  0.1407371E+00
          2   -1    0    0  501    0  0.00000000000E+00  0.00000000000E+00  0.32376278610E+03  0.32376278610E+03  0.00000000000E+00 0. -1.
         -2   -1    0    0    0  501 -0.00000000000E+00 -0.00000000000E+00 -0.91658125819E+01  0.91658125819E+01  0.00000000000E+00 0.  1.
          2    1    1    2  502    0 -0.27643034971E+02  0.15006476560E+02  0.29321090942E+03  0.29489314865E+03  0.00000000000E+00 0. -1.
         -2    1    1    2    0  502  0.27643034971E+02 -0.15006476560E+02  0.21386064099E+02  0.38035450027E+02  0.00000000000E+00 0.  1.
</event>
<event>
 4    1  0.5573045E+003  0.2569560E+02  0.7546771E-02  0.1461170E+00
          2   -1    0    0  501    0  0.00000000000E+00  0.00000000000E+00  0.26452611931E+03  0.26452611931E+03  0.00000000000E+00 0.  1.
         -2   -1    0    0    0  501 -0.00000000000E+00 -0.00000000000E+00 -0.50174666155E+02  0.50174666155E+02  0.00000000000E+00 0.  1.
          2    1    1    2  502    0  0.83517590717E+01 -0.24300449806E+02  0.26056236205E+03  0.26182629405E+03  0.00000000000E+00 0.  1.
         -2    1    1    2    0  502 -0.83517590717E+01  0.24300449806E+02 -0.46210908899E+02  0.52874491408E+02  0.00000000000E+00 0.  1.
</event>
<event>
 4    1  0.5573045E+003  0.2162165E+02  0.7546771E-02  0.1510571E+00
          2   -1    0    0  501    0  0.00000000000E+00  0.00000000000E+00  0.45372167931E+01  0.45372167931E+01  0.00000000000E+00 0. -1.
         -2   -1    0    0    0  501 -0.00000000000E+00 -0.00000000000E+00 -0.17007282304E+03  0.17007282304E+03  0.00000000000E+00 0.  1.
          2    1    1    2  502    0 -0.16477213511E+02 -0.13999899781E+02 -0.27955365351E+02  0.35341168782E+02  0.00000000000E+00 0. -1.
         -2    1    1    2    0  502  0.16477213511E+02  0.13999899781E+02 -0.13758024090E+03  0.13926887105E+03  0.00000000000E+00 0.  1.
</event>
<event>
 4    1  0.5573045E+003  0.2407071E+02  0.7546771E-02  0.1479474E+00
          2   -1    0    0  501    0  0.00000000000E+00  0.00000000000E+00  0.25475516314E+03  0.25475516314E+03  0.00000000000E+00 0. -1.
         -2   -1    0    0    0  501 -0.00000000000E+00 -0.00000000000E+00 -0.22872468271E+01  0.22872468271E+01  0.00000000000E+00 0.  1.
          2    1    1    2  502    0  0.22715226946E+02 -0.79635237764E+01  0.13588931665E+03  0.13800473045E+03  0.00000000000E+00 0. -1.
         -2    1    1    2    0  502 -0.22715226946E+02  0.79635237764E+01  0.11657859966E+03  0.11903767951E+03  0.00000000000E+00 0.  1.
</event>
<event>
 4    1  0.5573045E+003  0.2269699E+02  0.7546771E-02  0.1496339E+00
          2   -1    0    0  501    0  0.00000000000E+00  0.00000000000E+00  0.16755499077E+04  0.16755499077E+04  0.00000000000E+00 0. -1.
         -2   -1    0    0    0  501 -0.00000000000E+00 -0.00000000000E+00 -0.88628359302E+00  0.88628359302E+00  0.00000000000E+00 0. -1.
          2    1    1    2  502    0 -0.69101735743E-02  0.22696987613E+02  0.15147335638E+04  0.15149036017E+04  0.00000000000E+00 0. -1.
         -2    1    1    2    0  502  0.69101735743E-02 -0.22696987613E+02  0.15993006030E+03  0.16153258953E+03  0.00000000000E+00 0. -1.
</event>
<event>
 4    1  0.5573045E+003  0.4274560E+02  0.7546771E-02  0.1333107E+00
          2   -1    0    0  501    0  0.00000000000E+00  0.00000000000E+00  0.13384651825E+04  0.13384651825E+04  0.00000000000E+00 0. -1.
         -2   -1    0    0    0  501 -0.00000000000E+00 -0.00000000000E+00 -0.45879859736E+01  0.45879859736E+01  0.00000000000E+00 0. -1.
          2    1    1    2  502    0 -0.42503261396E+02  0.45452704173E+01  0.12297621062E+04  0.12305047844E+04  0.00000000000E+00 0. -1.
         -2    1    1    2    0  502  0.42503261396E+02 -0.45452704173E+01  0.10411509034E+03  0.11254838403E+03  0.00000000000E+00 0. -1.
</event>
<event>
 4    1  0.5573045E+003  0.2042771E+02  0.7546771E-02  0.1527595E+00
          2   -1    0    0  501    0  0.00000000000E+00  0.00000000000E+00  0.93345091718E+03  0.93345091718E+03  0.00000000000E+00 0. -1.
         -2   -1    0    0    0  501 -0.00000000000E+00 -0.00000000000E+00 -0.39420984237E+01  0.39420984237E+01  0.00000000000E+00 0. -1.
          2    1    1    2  502    0  0.29799595855E+01  0.20209185427E+02  0.90607593448E+03  0.90630617916E+03  0.00000000000E+00 0. -1.
         -2    1    1    2    0  502 -0.29799595855E+01 -0.20209185427E+02  0.23432884276E+02  0.31086836446E+02  0.00000000000E+00 0. -1.
</event>
<event>
 4    1  0.5573045E+003  0.2014909E+02  0.7546771E-02  0.1531769E+00
          2   -1    0    0  501    0  0.00000000000E+00  0.00000000000E+00  0.16077967426E+03  0.16077967426E+03  0.00000000000E+00 0. -1.
         -2   -1    0    0    0  501 -0.00000000000E+00 -0.00000000000E+00 -0.66686477318E+01  0.66686477318E+01  0.00000000000E+00 0. -1.
          2    1    1    2  502    0 -0.14915583788E+02  0.13546625703E+02  0.14305153828E+03  0.14446358819E+03  0.00000000000E+00 0. -1.
         -2    1    1    2    0  502  0.14915583788E+02 -0.13546625703E+02  0.11059488246E+02  0.22984733802E+02  0.00000000000E+00 0. -1.
</event>
<event>
 4    1  0.5573045E+003  0.3532776E+02  0.7546771E-02  0.1378274E+00
          2   -1    0    0  501    0  0.00000000000E+00  0.00000000000E+00  0.18650640776E+03  0.18650640776E+03  0.00000000000E+00 0.  1.
         -2   -1    0    0    0  501 -0.00000000000E+00 -0.00000000000E+00 -0.67296199788E+01  0.67296199788E+01  0.00000000000E+00 0.  1.
          2    1    1    2  502    0 -0.25538987529E+02  0.24409209228E+02  0.82638023512E+02  0.89872644943E+02  0.00000000000E+00 0.  1.
         -2    1    1    2    0  502  0.25538987529E+02 -0.24409209228E+02  0.97138764265E+02  0.10336338279E+03  0.00000000000E+00 0.  1.
</event>
<event>
 4    1  0.5573045E+003  0.3369545E+02  0.7546771E-02  0.1389974E+00
          2   -1    0    0  501    0  0.00000000000E+00  0.00000000000E+00  0.72537623438E+03  0.72537623438E+03  0.00000000000E+00 0. -1.
         -2   -1    0    0    0  501 -0.00000000000E+00 -0.00000000000E+00 -0.44386717963E+01  0.44386717963E+01  0.00000000000E+00 0. -1.
          2    1    1    2  502    0 -0.22441941342E+02 -0.25134484777E+02  0.65406953616E+03  0.65493689863E+03  0.00000000000E+00 0. -1.
         -2    1    1    2    0  502  0.22441941342E+02  0.25134484777E+02  0.66868026431E+02  0.74878007552E+02  0.00000000000E+00 0. -1.
</event>
<event>
 4    1  0.5573045E+003  0.2091722E+02  0.7546771E-02  0.1520450E+00
          2   -1    0    0  501    0  0.00000000000E+00  0.00000000000E+00  0.14432547723E+02  0.14432547723E+02  0.00000000000E+00 0.  1.
         -2   -1    0    0    0  501 -0.00000000000E+00 -0.00000000000E+00 -0.44736832068E+02  0.44736832068E+02  0.00000000000E+00 0.  1.
          2    1    1    2  502    0  0.78116582236E+01  0.19403820753E+02  0.16450510104E+01  0.20981812525E+02  0.00000000000E+00 0.  1.
         -2    1    1    2    0  502 -0.78116582236E+01 -0.19403820753E+02 -0.31949335356E+02  0.38187567266E+02  0.00000000000E+00 0.  1.
</event>
<event>
 4    1  0.5573045E+003  0.2055158E+02  0.7546771E-02  0.1525764E+00
          2   -1    0    0  501    0  0.00000000000E+00  0.00000000000E+00  0.30093412227E+03  0.30093412227E+03  0.00000000000E+00 0.  1.
         -2   -1    0    0    0  501 -0.00000000000E+00 -0.00000000000E+00 -0.79195865400E+01  0.79195865400E+01  0.00000000000E+00 0.  1.
          2    1    1    2  502    0  0.11345146037E+02  0.17136372008E+02  0.28658344085E+03  0.28731939745E+03  0.00000000000E+00 0.  1.
         -2    1    1    2    0  502 -0.11345146037E+02 -0.17136372008E+02  0.64310948801E+01  0.21534311356E+02  0.00000000000E+00 0.  1.
</event>
<event>
 4    1  0.5573045E+003  0.2095783E+02  0.7546771E-02  0.1519868E+00
          2   -1    0    0  501    0  0.00000000000E+00  0.00000000000E+00  0.41826026150E+03  0.41826026150E+03  0.00000000000E+00 0.  1.
         -2   -1    0    0    0  501 -0.00000000000E+00 -0.00000000000E+00 -0.23507035544E+01  0.23507035544E+01  0.00000000000E+00 0. -1.
          2    1    1    2  502    0  0.89860308829E+01 -0.18933615626E+02  0.36438402899E+03  0.36498623417E+03  0.00000000000E+00 0.  1.
         -2    1    1    2    0  502 -0.89860308829E+01  0.18933615626E+02  0.51525528962E+02  0.55624730889E+02  0.00000000000E+00 0. -1.
</event>
<event>
 4    1  0.5573045E+003  0.2280282E+02  0.7546771E-02  0.1494989E+00
          2   -1    0    0  501    0  0.00000000000E+00  0.00000000000E+00  0.46185711652E+02  0.46185711652E+02  0.00000000000E+00 0.  1.
         -2   -1    0    0    0  501 -0.00000000000E+00 -0.00000000000E+00 -0.33143363558E+02  0.33143363558E+02  0.00000000000E+00 0.  1.
          2    1    1    2  502    0 -0.22680295781E+02 -0.23606752556E+01  0.38752551744E+02  0.44963639433E+02  0.00000000000E+00 0.  1.
         -2    1    1    2    0  502  0.22680295781E+02  0.23606752556E+01 -0.25710203650E+02  0.34365435776E+02  0.00000000000E+00 0.  1.
</event>
<event>
 4    1  0.5573045E+003  0.2729827E+02  0.7546771E-02  0.1444635E+00
          2   -1    0    0  501    0  0.00000000000E+00  0.00000000000E+00  0.33793843094E+03  0.33793843094E+03  0.00000000000E+00 0. -1.
         -2   -1    0    0    0  501 -0.00000000000E+00 -0.00000000000E+00 -0.34332582580E+02  0.34332582580E+02  0.00000000000E+00 0. -1.
          2    1    1    2  502    0  0.25684889445E+02 -0.92456539114E+01  0.33186165523E+03  0.33298251287E+03  0.00000000000E+00 0. -1.
         -2    1    1    2    0  502 -0.25684889445E+02  0.92456539114E+01 -0.28255806868E+02  0.39288500656E+02  0.00000000000E+00 0. -1.
</event>
<event>
 4    1  0.5573045E+003  0.2314842E+02  0.7546771E-02  0.1490643E+00
          2   -1    0    0  501    0  0.00000000000E+00  0.00000000000E+00  0.49404074278E+01  0.49404074278E+01  0.00000000000E+00 0.  1.
         -2   -1    0    0    0  501 -0.00000000000E+00 -0.00000000000E+00 -0.11176285256E+03  0.11176285256E+03  0.00000000000E+00 0.  1.
          2    1    1    2  502    0  0.68904542390E+00  0.23138162733E+02 -0.43384041451E+02  0.49173411625E+02  0.00000000000E+00 0.  1.
         -2    1    1    2    0  502 -0.68904542390E+00 -0.23138162733E+02 -0.63438403686E+02  0.67529848368E+02  0.00000000000E+00 0.  1.
</event>
<event>
 4    1  0.5573045E+003  0.2736049E+02  0.7546771E-02  0.1444020E+00
          2   -1    0    0  501    0  0.00000000000E+00  0.00000000000E+00  0.74445776546E+03  0.74445776546E+03  0.00000000000E+00 0. -1.
         -2   -1    0    0    0  501 -0.00000000000E+00 -0.00000000000E+00 -0.68070170676E+01  0.68070170676E+01  0.00000000000E+00 0. -1.
          2    1    1    2  502    0  0.28949851213E+01  0.27206898289E+02  0.71560469496E+03  0.71612755547E+03  0.00000000000E+00 0. -1.
         -2    1    1    2    0  502 -0.28949851213E+01 -0.27206898289E+02  0.22046053430E+02  0.35137227056E+02  0.00000000000E+00 0. -1.
</event>
<event>
 4    1  0.5573045E+003  0.2004390E+02  0.7546771E-02  0.1533366E+00
          2   -1    0    0  501    0  0.00000000000E+00  0.00000000000E+00  0.64573000634E+03  0.64573000634E+03  0.00000000000E+00 0.  1.
         -2   -1    0    0    0  501 -0.00000000000E+00 -0.00000000000E+00 -0.68113656371E+00  0.68113656371E+00  0.00000000000E+00 0.  1.
          2    1    1    2  502    0  0.40151456724E+01  0.19637635140E+02  0.41761562772E+03  0.41809636523E+03  0.00000000000E+00 0.  1.
         -2    1    1    2    0  502 -0.40151456724E+01 -0.19637635140E+02  0.22743324206E+03  0.22831477767E+03  0.00000000000E+00 0.  1.
</event>
<event>
 4    1  0.5573045E+003  0.2055357E+02  0.7546771E-02  0.1525735E+00
          2   -1    0    0  501    0  0.00000000000E+00  0.00000000000E+00  0.35939874355E+02  0.35939874355E+02  0.00000000000E+00 0.  1.
         -2   -1    0    0    0  501 -0.00000000000E+00 -0.00000000000E+00 -0.14227632865E+02  0.14227632865E+02  0.00000000000E+00 0.  1.
          2    1    1    2  502    0 -0.16333530139E+02  0.12476586799E+02  0.21314494625E+02  0.29610084533E+02  0.00000000000E+00 0.  1.
         -2    1    1    2    0  502  0.16333530139E+02 -0.12476586799E+02  0.39774686526E+00  0.20557422687E+02  0.00000000000E+00 0.  1.
</event>
<event>
 4    1  0.5573045E+003  0.2239866E+02  0.7546771E-02  0.1500191E+00
          2   -1    0    0  501    0  0.00000000000E+00  0.00000000000E+00  0.51254516641E+02  0.51254516641E+02  0.00000000000E+00 0.  1.
         -2   -1    0    0    0  501 -0.00000000000E+00 -0.00000000000E+00 -0.25859235871E+02  0.25859235871E+02  0.00000000000E+00 0. -1.
          2    1    1    2  502    0  0.21479705023E+02  0.63499645247E+01  0.43093414833E+02  0.48566883566E+02  0.00000000000E+00 0.  1.
         -2    1    1    2    0  502 -0.21479705023E+02 -0.63499645247E+01 -0.17698134063E+02  0.28546868946E+02  0.00000000000E+00 0. -1.
</event>
<event>
 4    1  0.5573045E+003  0.2313374E+02  0.7546771E-02  0.1490826E+00
          2   -1    0    0  501    0  0.00000000000E+00  0.00000000000E+00  0.96512677189E+03  0.96512677189E+03  0.00000000000E+00 0.  1.
         -2   -1    0    0    0  501 -0.00000000000E+00 -0.00000000000E+00 -0.11736462381E+01  0.11736462381E+01  0.00000000000E+00 0. -1.
          2    1    1    2  502    0  0.10705817936E+02 -0.20507448562E+02  0.83289612030E+03  0.83321732890E+03  0.00000000000E+00 0.  1.
         -2    1    1    2    0  502 -0.10705817936E+02  0.20507448562E+02  0.13105700536E+03  0.13308308923E+03  0.00000000000E+00 0. -1.
</event>
<event>
 4    1  0.5573045E+003  0.2566948E+02  0.7546771E-02  0.1461451E+00
          2   -1    0    0  501    0  0.00000000000E+00  0.00000000000E+00  0.12574299816E+03  0.12574299816E+03  0.00000000000E+00 0.  1.
         -2   -1    0    0    0  501 -0.00000000000E+00 -0.00000000000E+00 -0.83226104892E+01  0.83226104892E+01  0.00000000000E+00 0. -1.
          2    1    1    2  502    0  0.25603683878E+02  0.18367004785E+01  0.99504617577E+02  0.10276230348E+03  0.00000000000E+00 0.  1.
         -2    1    1    2    0  502 -0.25603683878E+02 -0.18367004785E+01  0.17915770098E+02  0.31303305177E+02  0.00000000000E+00 0. -1.
</event>
<event>
 4    1  0.5573045E+003  0.2424007E+02  0.7546771E-02  0.1477487E+00
          2   -1    0    0  501    0  0.00000000000E+00  0.00000000000E+00  0.34793792135E+03  0.34793792135E+03  0.00000000000E+00 0.  1.
         -2   -1    0    0    0  501 -0.00000000000E+00 -0.00000000000E+00 -0.63248743978E+01  0.63248743978E+01  0.00000000000E+00 0.  1.
          2    1    1    2  502    0  0.83603024576E+01  0.22752724681E+02  0.32245812691E+03  0.32336794020E+03  0.00000000000E+00 0.  1.
         -2    1    1    2    0  502 -0.83603024576E+01 -0.22752724681E+02  0.19154920041E+02  0.30894855548E+02  0.00000000000E+00 0.  1.
</event>
<event>
 4    1  0.5573045E+003  0.2173604E+02  0.7546771E-02  0.1509010E+00
          2   -1    0    0  501    0  0.00000000000E+00  0.00000000000E+00  0.56967188533E+03  0.56967188533E+03  0.00000000000E+00 0. -1.
         -2   -1    0    0    0  501 -0.00000000000E+00 -0.00000000000E+00 -0.29914730364E+01  0.29914730364E+01  0.00000000000E+00 0.  1.
          2    1    1    2  502    0 -0.20626533127E+02 -0.68557791071E+01  0.52676643639E+03  0.52721469449E+03  0.00000000000E+00 0. -1.
         -2    1    1    2    0  502  0.20626533127E+02  0.68557791071E+01  0.39913975904E+02  0.45448663880E+02  0.00000000000E+00 0.  1.
</event>
<event>
 4    1  0.5573045E+003  0.2825504E+02  0.7546771E-02  0.1435393E+00
          2   -1    0    0  501    0  0.00000000000E+00  0.00000000000E+00  0.63380954607E+01  0.63380954607E+01  0.00000000000E+00 0. -1.
         -2   -1    0    0    0  501 -0.00000000000E+00 -0.00000000000E+00 -0.30912345338E+03  0.30912345338E+03  0.00000000000E+00 0.  1.
          2    1    1    2  502    0 -0.26906496651E+02  0.86248448154E+01 -0.29978423561E+02  0.41195307855E+02  0.00000000000E+00 0. -1.
         -2    1    1    2    0  502  0.26906496651E+02 -0.86248448154E+01 -0.27280693436E+03  0.27426624099E+03  0.00000000000E+00 0.  1.
</event>
<event>
 4    1  0.5573045E+003  0.2111723E+02  0.7546771E-02  0.1517598E+00
          2   -1    0    0  501    0  0.00000000000E+00  0.00000000000E+00  0.29488359352E+03  0.29488359352E+03  0.00000000000E+00 0. -1.
         -2   -1    0    0    0  501 -0.00000000000E+00 -0.00000000000E+00 -0.10278667962E+02  0.10278667962E+02  0.00000000000E+00 0.  1.
          2    1    1    2  502    0  0.21067002294E+02 -0.14555434507E+01  0.28321302277E+03  0.28399921383E+03  0.00000000000E+00 0. -1.
         -2    1    1    2    0  502 -0.21067002294E+02  0.14555434507E+01  0.13919027890E+01  0.21163047648E+02  0.00000000000E+00 0.  1.
</event>
<event>
 4    1  0.5573045E+003  0.2005142E+02  0.7546771E-02  0.1533251E+00
          2   -1    0    0  501    0  0.00000000000E+00  0.00000000000E+00  0.13378820649E+02  0.13378820649E+02  0.00000000000E+00 0.  1.
         -2   -1    0    0    0  501 -0.00000000000E+00 -0.00000000000E+00 -0.48246600730E+02  0.48246600730E+02  0.00000000000E+00 0.  1.
          2    1    1    2  502    0 -0.29380186858E+01  0.19835003505E+02  0.14881825123E+01  0.20106566217E+02  0.00000000000E+00 0.  1.
         -2    1    1    2    0  502  0.29380186858E+01 -0.19835003505E+02 -0.36355962593E+02  0.41518855162E+02  0.00000000000E+00 0.  1.
</event>
<event>
 4    1  0.5573045E+003  0.2281987E+02  0.7546771E-02  0.1494773E+00
          2   -1    0    0  501    0  0.00000000000E+00  0.00000000000E+00  0.23577427194E+03  0.23577427194E+03  0.00000000000E+00 0. -1.
         -2   -1    0    0    0  501 -0.00000000000E+00 -0.00000000000E+00 -0.34280595560E+01  0.34280595560E+01  0.00000000000E+00 0. -1.
          2    1    1    2  502    0  0.17950642332E+02  0.14089745298E+02  0.18750492268E+03  0.18888843933E+03  0.00000000000E+00 0. -1.
         -2    1    1    2    0  502 -0.17950642332E+02 -0.14089745298E+02  0.44841289700E+02  0.50313892164E+02  0.00000000000E+00 0. -1.
</event>
<event>
 4    1  0.5573045E+003  0.2078557E+02  0.7546771E-02  0.1522348E+00
          2   -1    0    0  501    0  0.00000000000E+00  0.00000000000E+00  0.89416513364E+01  0.89416513364E+01  0.00000000000E+00 0. -1.
         -2   -1    0    0    0  501 -0.00000000000E+00 -0.00000000000E+00 -0.35374845832E+03  0.35374845832E+03  0.00000000000E+00 0.  1.
          2    1    1    2  502    0 -0.17354582842E+02  0.11439338808E+02 -0.38976146790E+01  0.21147846656E+02  0.00000000000E+00 0. -1.
         -2    1    1    2    0  502  0.17354582842E+02 -0.11439338808E+02 -0.34090919230E+03  0.34154226300E+03  0.00000000000E+00 0.  1.
</event>
<event>
 4    1  0.5573045E+003  0.3021066E+02  0.7546771E-02  0.1417774E+00
          2   -1    0    0  501    0  0.00000000000E+00  0.00000000000E+00  0.11300348181E+03  0.11300348181E+03  0.00000000000E+00 0.  1.
         -2   -1    0    0    0  501 -0.00000000000E+00 -0.00000000000E+00 -0.41322420420E+02  0.41322420420E+02  0.00000000000E+00 0. -1.
          2    1    1    2  502    0  0.23777141129E+02 -0.18636832290E+02  0.10505302140E+03  0.10931066399E+03  0.00000000000E+00 0.  1.
         -2    1    1    2    0  502 -0.23777141129E+02  0.18636832290E+02 -0.33371960011E+02  0.45015238232E+02  0.00000000000E+00 0. -1.
</event>
<event>
 4    1  0.5573045E+003  0.2417058E+02  0.7546771E-02  0.1478300E+00
          2   -1    0    0  501    0  0.00000000000E+00  0.00000000000E+00  0.56163068082E+02  0.56163068082E+02  0.00000000000E+00 0. -1.
         -2   -1    0    0    0  501 -0.00000000000E+00 -0.00000000000E+00 -0.15373742008E+02  0.15373742008E+02  0.00000000000E+00 0.  1.
          2    1    1    2  502    0 -0.18860517919E+02 -0.15116141218E+02  0.40734963472E+02  0.47366170529E+02  0.00000000000E+00 0. -1.
         -2    1    1    2    0  502  0.18860517919E+02  0.15116141218E+02  0.54362601169E-01  0.24170639561E+02  0.00000000000E+00 0.  1.
</event>
<event>
 4    1  0.5573045E+003  0.2239137E+02  0.7546771E-02  0.1500286E+00
          2   -1    0    0  501    0  0.00000000000E+00  0.00000000000E+00  0.55284941534E+01  0.55284941534E+01  0.00000000000E+00 0. -1.
         -2   -1    0    0    0  501 -0.00000000000E+00 -0.00000000000E+00 -0.10109232244E+03  0.10109232244E+03  0.00000000000E+00 0. -1.
          2    1    1    2  502    0  0.12509214217E+02 -0.18571292557E+02 -0.30680188770E+02  0.37982197548E+02  0.00000000000E+00 0. -1.
         -2    1    1    2    0  502 -0.12509214217E+02  0.18571292557E+02 -0.64883639517E+02  0.68638619046E+02  0.00000000000E+00 0. -1.
</event>
<event>
 4    1  0.5573045E+003  0.2227151E+02  0.7546771E-02  0.1501854E+00
          2   -1    0    0  501    0  0.00000000000E+00  0.00000000000E+00  0.90368889267E+03  0.90368889267E+03  0.00000000000E+00 0. -1.
         -2   -1    0    0    0  501 -0.00000000000E+00 -0.00000000000E+00 -0.28643045131E+01  0.28643045131E+01  0.00000000000E+00 0.  1.
          2    1    1    2  502    0  0.14321335903E+02  0.17056364467E+02  0.85795080823E+03  0.85823983220E+03  0.00000000000E+00 0. -1.
         -2    1    1    2    0  502 -0.14321335903E+02 -0.17056364467E+02  0.42873779931E+02  0.48313364987E+02  0.00000000000E+00 0.  1.
</event>
<event>
 4    1  0.5573045E+003  0.2537571E+02  0.7546771E-02  0.1464644E+00
          2   -1    0    0  501    0  0.00000000000E+00  0.00000000000E+00  0.30502041189E+03  0.30502041189E+03  0.00000000000E+00 0.  1.
         -2   -1    0    0    0  501 -0.00000000000E+00 -0.00000000000E+00 -0.23284499984E+02  0.23284499984E+02  0.00000000000E+00 0. -1.
          2    1    1    2  502    0 -0.29773684326E+01 -0.25200433966E+02  0.29740217636E+03  0.29848279866E+03  0.00000000000E+00 0.  1.
         -2    1    1    2    0  502  0.29773684326E+01  0.25200433966E+02 -0.15666264448E+02  0.29822113216E+02  0.00000000000E+00 0. -1.
</event>
<event>
 4    1  0.5573045E+003  0.4350671E+02  0.7546771E-02  0.1329077E+00
          2   -1    0    0  501    0  0.00000000000E+00  0.00000000000E+00  0.10507916598E+04  0.10507916598E+04  0.00000000000E+00 0. -1.
         -2   -1    0    0    0  501 -0.00000000000E+00 -0.00000000000E+00 -0.18855952678E+01  0.18855952678E+01  0.00000000000E+00 0. -1.
          2    1    1    2  502    0  0.27572683557E+02 -0.33653807572E+02  0.41319202596E+03  0.41547621107E+03  0.00000000000E+00 0. -1.
         -2    1    1    2    0  502 -0.27572683557E+02  0.33653807572E+02  0.63571403861E+03  0.63720104404E+03  0.00000000000E+00 0. -1.
</event>
<event>
 4    1  0.5573045E+003  0.2410308E+02  0.7546771E-02  0.1479092E+00
          2   -1    0    0  501    0  0.00000000000E+00  0.00000000000E+00  0.76743206514E+02  0.76743206514E+02  0.00000000000E+00 0.  1.
         -2   -1    0    0    0  501 -0.00000000000E+00 -0.00000000000E+00 -0.23649017961E+02  0.23649017961E+02  0.00000000000E+00 0. -1.
          2    1    1    2  502    0  0.22523943127E+02 -0.85808272687E+01  0.67936680052E+02  0.72085720550E+02  0.00000000000E+00 0.  1.
         -2    1    1    2    0  502 -0.22523943127E+02  0.85808272687E+01 -0.14842491499E+02  0.28306503926E+02  0.00000000000E+00 0. -1.
</event>
<event>
 4    1  0.5573045E+003  0.2080360E+02  0.7546771E-02  0.1522087E+00
          2   -1    0    0  501    0  0.00000000000E+00  0.00000000000E+00  0.78869849811E+03  0.78869849811E+03  0.00000000000E+00 0.  1.
         -2   -1    0    0    0  501 -0.00000000000E+00 -0.00000000000E+00 -0.69664942824E+00  0.69664942824E+00  0.00000000000E+00 0.  1.
          2    1    1    2  502    0  0.20791115644E+02  0.72037815081E+00  0.21213259952E+03  0.21315025033E+03  0.00000000000E+00 0.  1.
         -2    1    1    2    0  502 -0.20791115644E+02 -0.72037815081E+00  0.57586924916E+03  0.57624489721E+03  0.00000000000E+00 0.  1.
</event>
<event>
 4    1  0.5573045E+003  0.4914275E+02  0.7546771E-02  0.1301933E+00
          2   -1    0    0  501    0  0.00000000000E+00  0.00000000000E+00  0.22604865584E+02  0.22604865584E+02  0.00000000000E+00 0. -1.
         -2   -1    0    0    0  501 -0.00000000000E+00 -0.00000000000E+00 -0.10685593916E+03  0.10685593916E+03  0.00000000000E+00 0. -1.
          2    1    1    2  502    0 -0.44791461625E+02 -0.20217127726E+02 -0.43015755142E+02  0.65309742600E+02  0.00000000000E+00 0. -1.
         -2    1    1    2    0  502  0.44791461625E+02  0.20217127726E+02 -0.41235318436E+02  0.64151062146E+02  0.00000000000E+00 0. -1.
</event>
<event>
 4    1  0.5573045E+003  0.2614262E+02  0.7546771E-02  0.1456416E+00
          2   -1    0    0  501    0  0.00000000000E+00  0.00000000000E+00  0.46281126810E+03  0.46281126810E+03  0.00000000000E+00 0.  1.
         -2   -1    0    0    0  501 -0.00000000000E+00 -0.00000000000E+00 -0.70559185711E+01  0.70559185711E+01  0.00000000000E+00 0.  1.
          2    1    1    2  502    0  0.25634581469E+02  0.51288350060E+01  0.43678552029E+03  0.43756716907E+03  0.00000000000E+00 0.  1.
         -2    1    1    2    0  502 -0.25634581469E+02 -0.51288350060E+01  0.18969829244E+02  0.32300017603E+02  0.00000000000E+00 0.  1.
</event>
<event>
 4    1  0.5573045E+003  0.3347386E+02  0.7546771E-02  0.1391622E+00
          2   -1    0    0  501    0  0.00000000000E+00  0.00000000000E+00  0.18666455174E+03  0.18666455174E+03  0.00000000000E+00 0. -1.
         -2   -1    0    0    0  501 -0.00000000000E+00 -0.00000000000E+00 -0.87240853677E+01  0.87240853677E+01  0.00000000000E+00 0.  1.
          2    1    1    2  502    0 -0.33221787731E+02 -0.41002909366E+01  0.14353356048E+03  0.14738515037E+03  0.00000000000E+00 0. -1.
         -2    1    1    2    0  502  0.33221787731E+02  0.41002909366E+01  0.34406905892E+02  0.48003486737E+02  0.00000000000E+00 0.  1.
</event>
<event>
 4    1  0.5573045E+003  0.2009559E+02  0.7546771E-02  0.1532579E+00
          2   -1    0    0  501    0  0.00000000000E+00  0.00000000000E+00  0.95205900895E+03  0.95205900895E+03  0.00000000000E+00 0.  1.
         -2   -1    0    0    0  501 -0.00000000000E+00 -0.00000000000E+00 -0.12925435519E+02  0.12925435519E+02  0.00000000000E+00 0. -1.
          2    1    1    2  502    0 -0.34743771604E+01  0.19792962477E+02  0.94407611463E+03  0.94428996758E+03  0.00000000000E+00 0.  1.
         -2    1    1    2    0  502  0.34743771604E+01 -0.19792962477E+02 -0.49425411968E+01  0.20694476890E+02  0.00000000000E+00 0. -1.
</event>
<event>
 4    1  0.5573045E+003  0.2097006E+02  0.7546771E-02  0.1519693E+00
          2   -1    0    0  501    0  0.00000000000E+00  0.00000000000E+00  0.10396396858E+04  0.10396396858E+04  0.00000000000E+00 0. -1.
         -2   -1    0    0    0  501 -0.00000000000E+00 -0.00000000000E+00 -0.75646315896E+00  0.75646315896E+00  0.00000000000E+00 0.  1.
          2    1    1    2  502    0  0.60147269827E+01  0.20088969137E+02  0.86483481667E+03  0.86508901493E+03  0.00000000000E+00 0. -1.
         -2    1    1    2    0  502 -0.60147269827E+01 -0.20088969137E+02  0.17404840597E+03  0.17530713403E+03  0.00000000000E+00 0.  1.
</event>
<event>
 4    1  0.5573045E+003  0.4581091E+02  0.7546771E-02  0.1317434E+00
          2   -1    0    0  501    0  0.00000000000E+00  0.00000000000E+00  0.96598301116E+03  0.96598301116E+03  0.00000000000E+00 0.  1.
         -2   -1    0    0    0  501 -0.00000000000E+00 -0.00000000000E+00 -0.27905860111E+01  0.27905860111E+01  0.00000000000E+00 0. -1.
          2    1    1    2  502    0 -0.45379654965E+02  0.62711091979E+01  0.70955369136E+03  0.71103099850E+03  0.00000000000E+00 0.  1.
         -2    1    1    2    0  502  0.45379654965E+02 -0.62711091979E+01  0.25363873379E+03  0.25774259868E+03  0.00000000000E+00 0. -1.
</event>
<event>
 4    1  0.5573045E+003  0.2591107E+02  0.7546771E-02  0.1458864E+00
          2   -1    0    0  501    0  0.00000000000E+00  0.00000000000E+00  0.16420003787E+04  0.16420003787E+04  0.00000000000E+00 0.  1.
         -2   -1    0    0    0  501 -0.00000000000E+00 -0.00000000000E+00 -0.92433014560E+00  0.92433014560E+00  0.00000000000E+00 0.  1.
          2    1    1    2  502    0 -0.25143776161E+02  0.62589271199E+01  0.14339705369E+04  0.14342046173E+04  0.00000000000E+00 0.  1.
         -2    1    1    2    0  502  0.25143776161E+02 -0.62589271199E+01  0.20710551167E+03  0.20872009154E+03  0.00000000000E+00 0.  1.
</event>
<event>
 4    1  0.5573045E+003  0.2477977E+02  0.7546771E-02  0.1471282E+00
          2   -1    0    0  501    0  0.00000000000E+00  0.00000000000E+00  0.10136586891E+02  0.10136586891E+02  0.00000000000E+00 0.  1.
         -2   -1    0    0    0  501 -0.00000000000E+00 -0.00000000000E+00 -0.35090258066E+03  0.35090258066E+03  0.00000000000E+00 0. -1.
          2    1    1    2  502    0 -0.54275605754E+01 -0.24178056405E+02 -0.61825914068E+01  0.25539406059E+02  0.00000000000E+00 0.  1.
         -2    1    1    2    0  502  0.54275605754E+01  0.24178056405E+02 -0.33458340236E+03  0.33549976149E+03  0.00000000000E+00 0. -1.
</event>
<event>
 4    1  0.5573045E+003  0.3186521E+02  0.7546771E-02  0.1404052E+00
          2   -1    0    0  501    0  0.00000000000E+00  0.00000000000E+00  0.96366106152E+02  0.96366106152E+02  0.00000000000E+00 0.  1.
         -2   -1    0    0    0  501 -0.00000000000E+00 -0.00000000000E+00 -0.19755708501E+02  0.19755708501E+02  0.00000000000E+00 0. -1.
          2    1    1    2  502    0 -0.58605703728E+01 -0.31321645868E+02  0.77967410158E+02  0.84227720091E+02  0.00000000000E+00 0.  1.
         -2    1    1    2    0  502  0.58605703728E+01  0.31321645868E+02 -0.13570125072E+01  0.31894094562E+02  0.00000000000E+00 0. -1.
</event>
<event>
 4    1  0.5573045E+003  0.2117160E+02  0.7546771E-02  0.1516829E+00
          2   -1    0    0  501    0  0.00000000000E+00  0.00000000000E+00  0.51176588410E+03  0.51176588410E+03  0.00000000000E+00 0. -1.
         -2   -1    0    0    0  501 -0.00000000000E+00 -0.00000000000E+00 -0.73201230630E+01  0.73201230630E+01  0.00000000000E+00 0. -1.
          2    1    1    2  502    0  0.14102661729E+02 -0.15790863469E+02  0.49574403184E+03  0.49619591044E+03  0.00000000000E+00 0. -1.
         -2    1    1    2    0  502 -0.14102661729E+02  0.15790863469E+02  0.87017292027E+01  0.22890096724E+02  0.00000000000E+00 0. -1.
</event>
<event>
 4    1  0.5573045E+003  0.3127932E+02  0.7546771E-02  0.1408796E+00
          2   -1    0    0  501    0  0.00000000000E+00  0.00000000000E+00  0.22219832487E+04  0.22219832487E+04  0.00000000000E+00 0. -1.
         -2   -1    0    0    0  501 -0.00000000000E+00 -0.00000000000E+00 -0.48699385965E+00  0.48699385965E+00  0.00000000000E+00 0. -1.
          2    1    1    2  502    0 -0.13345207946E+02  0.28289596406E+02  0.14547458590E+04  0.14550820974E+04  0.00000000000E+00 0. -1.
         -2    1    1    2    0  502  0.13345207946E+02 -0.28289596406E+02  0.76675039583E+03  0.76738814517E+03  0.00000000000E+00 0. -1.
</event>
<event>
 4    1  0.5573045E+003  0.2192950E+02  0.7546771E-02  0.1506396E+00
          2   -1    0    0  501    0  0.00000000000E+00  0.00000000000E+00  0.88668118088E+02  0.88668118088E+02  0.00000000000E+00 0.  1.
         -2   -1    0    0    0  501 -0.00000000000E+00 -0.00000000000E+00 -0.15850616311E+02  0.15850616311E+02  0.00000000000E+00 0.  1.
          2    1    1    2  502    0  0.17097697642E+02  0.13732138009E+02  0.78794563661E+02  0.81789278891E+02  0.00000000000E+00 0.  1.
         -2    1    1    2    0  502 -0.17097697642E+02 -0.13732138009E+02 -0.59770618843E+01  0.22729455509E+02  0.00000000000E+00 0.  1.
</event>
<event>
 4    1  0.5573045E+003  0.3055083E+02  0.7546771E-02  0.1414869E+00
          2   -1    0    0  501    0  0.00000000000E+00  0.00000000000E+00  0.13931256782E+03  0.13931256782E+03  0.00000000000E+00 0.  1.
         -2   -1    0    0    0  501 -0.00000000000E+00 -0.00000000000E+00 -0.21806373821E+02  0.21806373821E+02  0.00000000000E+00 0.  1.
          2    1    1    2  502    0 -0.26375218463E+02  0.15417564049E+02  0.12580470529E+03  0.12946110343E+03  0.00000000000E+00 0.  1.
         -2    1    1    2    0  502  0.26375218463E+02 -0.15417564049E+02 -0.82985112891E+01  0.31657838205E+02  0.00000000000E+00 0.  1.
</event>
<event>
 4    1  0.5573045E+003  0.2573592E+02  0.7546771E-02  0.1460737E+00
          2   -1    0    0  501    0  0.00000000000E+00  0.00000000000E+00  0.27488562744E+03  0.27488562744E+03  0.00000000000E+00 0.  1.
         -2   -1    0    0    0  501 -0.00000000000E+00 -0.00000000000E+00 -0.45003687055E+01  0.45003687055E+01  0.00000000000E+00 0. -1.
          2    1    1    2  502    0 -0.24924963028E+02 -0.64096680002E+01  0.23040945626E+03  0.23184230667E+03  0.00000000000E+00 0.  1.
         -2    1    1    2    0  502  0.24924963028E+02  0.64096680002E+01  0.39975802469E+02  0.47543689474E+02  0.00000000000E+00 0. -1.
</event>
<event>
 4    1  0.5573045E+003  0.2602081E+02  0.7546771E-02  0.1457700E+00
          2   -1    0    0  501    0  0.00000000000E+00  0.00000000000E+00  0.20064790197E+04  0.20064790197E+04  0.00000000000E+00 0.  1.
         -2   -1    0    0    0  501 -0.00000000000E+00 -0.00000000000E+00 -0.10283945021E+01  0.10283945021E+01  0.00000000000E+00 0.  1.
          2    1    1    2  502    0 -0.25704019808E+02  0.40479774999E+01  0.18254782358E+04  0.18256636799E+04  0.00000000000E+00 0.  1.
         -2    1    1    2    0  502  0.25704019808E+02 -0.40479774999E+01  0.17997238933E+03  0.18184373423E+03  0.00000000000E+00 0.  1.
</event>
<event>
 4    1  0.5573045E+003  0.2359102E+02  0.7546771E-02  0.1485207E+00
          2   -1    0    0  501    0  0.00000000000E+00  0.00000000000E+00  0.85238269387E+03  0.85238269387E+03  0.00000000000E+00 0. -1.
         -2   -1    0    0    0  501 -0.00000000000E+00 -0.00000000000E+00 -0.54099305605E+02  0.54099305605E+02  0.00000000000E+00 0.  1.
          2    1    1    2  502    0 -0.70857004791E+01 -0.22501754202E+02  0.84963933548E+03  0.84996678552E+03  0.00000000000E+00 0. -1.
         -2    1    1    2    0  502  0.70857004791E+01  0.22501754202E+02 -0.51355947217E+02  0.56515213952E+02  0.00000000000E+00 0.  1.
</event>
<event>
 4    1  0.5573045E+003  0.2153597E+02  0.7546771E-02  0.1511748E+00
          2   -1    0    0  501    0  0.00000000000E+00  0.00000000000E+00  0.49910993011E+03  0.49910993011E+03  0.00000000000E+00 0. -1.
         -2   -1    0    0    0  501 -0.00000000000E+00 -0.00000000000E+00 -0.95000561510E+01  0.95000561510E+01  0.00000000000E+00 0. -1.
          2    1    1    2  502    0  0.75803206180E+00 -0.21522621816E+02  0.48635248852E+03  0.48682906749E+03  0.00000000000E+00 0. -1.
         -2    1    1    2    0  502 -0.75803206180E+00  0.21522621816E+02  0.32573854328E+01  0.21780918766E+02  0.00000000000E+00 0. -1.
</event>
<event>
 4    1  0.5573045E+003  0.5817771E+02  0.7546771E-02  0.1266153E+00
          2   -1    0    0  501    0  0.00000000000E+00  0.00000000000E+00  0.62520786500E+03  0.62520786500E+03  0.00000000000E+00 0. -1.
         -2   -1    0    0    0  501 -0.00000000000E+00 -0.00000000000E+00 -0.19184257948E+02  0.19184257948E+02  0.00000000000E+00 0.  1.
          2    1    1    2  502    0 -0.57270690595E+02 -0.10233006038E+02  0.57598784873E+03  0.57891851611E+03  0.00000000000E+00 0. -1.
         -2    1    1    2    0  502  0.57270690595E+02  0.10233006038E+02  0.30035758319E+02  0.65473606832E+02  0.00000000000E+00 0.  1.
</event>
<event>
 4    1  0.5573045E+003  0.2055084E+02  0.7546771E-02  0.1525775E+00
          2   -1    0    0  501    0  0.00000000000E+00  0.00000000000E+00  0.31048195538E+01  0.31048195538E+01  0.00000000000E+00 0.  1.
         -2   -1    0    0    0  501 -0.00000000000E+00 -0.00000000000E+00 -0.14556005622E+03  0.14556005622E+03  0.00000000000E+00 0. -1.
          2    1    1    2  502    0  0.20471530478E+02  0.18037556987E+01 -0.52204161065E+02  0.56103578560E+02  0.00000000000E+00 0.  1.
         -2    1    1    2    0  502 -0.20471530478E+02 -0.18037556987E+01 -0.90251075603E+02  0.92561297216E+02  0.00000000000E+00 0. -1.
</event>
<event>
 4    1  0.5573045E+003  0.2123062E+02  0.7546771E-02  0.1515998E+00
          2   -1    0    0  501    0  0.00000000000E+00  0.00000000000E+00  0.39573341583E+02  0.39573341583E+02  0.00000000000E+00 0.  1.
         -2   -1    0    0    0  501 -0.00000000000E+00 -0.00000000000E+00 -0.15176479927E+02  0.15176479927E+02  0.00000000000E+00 0. -1.
          2    1    1    2  502    0 -0.79038402568E+01  0.19704526324E+02  0.25872158213E+02  0.33468008890E+02  0.00000000000E+00 0.  1.
         -2    1    1    2    0  502  0.79038402568E+01 -0.19704526324E+02 -0.14752965569E+01  0.21281812620E+02  0.00000000000E+00 0. -1.
</event>
<event>
 4    1  0.5573045E+003  0.2997512E+02  0.7546771E-02  0.1419813E+00
          2   -1    0    0  501    0  0.00000000000E+00  0.00000000000E+00  0.21775787631E+04  0.21775787631E+04  0.00000000000E+00 0.  1.
         -2   -1    0    0    0  501 -0.00000000000E+00 -0.00000000000E+00 -0.11267670548E+01  0.11267670548E+01  0.00000000000E+00 0. -1.
          2    1    1    2  502    0  0.20014277236E+02 -0.22314495823E+02  0.19554792311E+04  0.19557089587E+04  0.00000000000E+00 0.  1.
         -2    1    1    2    0  502 -0.20014277236E+02  0.22314495823E+02  0.22097276498E+03  0.22299657145E+03  0.00000000000E+00 0. -1.
</event>
<event>
 4    1  0.5573045E+003  0.2094354E+02  0.7546771E-02  0.1520072E+00
          2   -1    0    0  501    0  0.00000000000E+00  0.00000000000E+00  0.60475680625E+02  0.60475680625E+02  0.00000000000E+00 0. -1.
         -2   -1    0    0    0  501 -0.00000000000E+00 -0.00000000000E+00 -0.20305819516E+03  0.20305819516E+03  0.00000000000E+00 0. -1.
          2    1    1    2  502    0  0.99845032033E+01 -0.18410370587E+02  0.58100991992E+02  0.61760483481E+02  0.00000000000E+00 0. -1.
         -2    1    1    2    0  502 -0.99845032033E+01  0.18410370587E+02 -0.20068350652E+03  0.20177339230E+03  0.00000000000E+00 0. -1.
</event>
<event>
 4    1  0.5573045E+003  0.2104518E+02  0.7546771E-02  0.1518621E+00
          2   -1    0    0  501    0  0.00000000000E+00  0.00000000000E+00  0.36308460737E+02  0.36308460737E+02  0.00000000000E+00 0. -1.
         -2   -1    0    0    0  501 -0.00000000000E+00 -0.00000000000E+00 -0.14080260896E+03  0.14080260896E+03  0.00000000000E+00 0. -1.
          2    1    1    2  502    0  0.43173374459E+01 -0.20597580890E+02  0.32385626841E+02  0.38622902105E+02  0.00000000000E+00 0. -1.
         -2    1    1    2    0  502 -0.43173374459E+01  0.20597580890E+02 -0.13687977507E+03  0.13848816759E+03  0.00000000000E+00 0. -1.
</event>
<event>
 4    1  0.5573045E+003  0.2023219E+02  0.7546771E-02  0.1530515E+00
          2   -1    0    0  501    0  0.00000000000E+00  0.00000000000E+00  0.38280976499E+01  0.38280976499E+01  0.00000000000E+00 0.  1.
         -2   -1    0    0    0  501 -0.00000000000E+00 -0.00000000000E+00 -0.57261546346E+03  0.57261546346E+03  0.00000000000E+00 0.  1.
          2    1    1    2  502    0  0.47126732370E+01 -0.19675679089E+02 -0.24472773841E+02  0.31753083254E+02  0.00000000000E+00 0.  1.
         -2    1    1    2    0  502 -0.47126732370E+01  0.19675679089E+02 -0.54431459197E+03  0.54469047785E+03  0.00000000000E+00 0.  1.
</event>
<event>
 4    1  0.5573045E+003  0.2461293E+02  0.7546771E-02  0.1473180E+00
          2   -1    0    0  501    0  0.00000000000E+00  0.00000000000E+00  0.18944308014E+02  0.18944308014E+02  0.00000000000E+00 0. -1.
         -2   -1    0    0    0  501 -0.00000000000E+00 -0.00000000000E+00 -0.10284831165E+03  0.10284831165E+03  0.00000000000E+00 0. -1.
          2    1    1    2  502    0 -0.23831769622E+02  0.61516624710E+01  0.85984864264E+01  0.26071635224E+02  0.00000000000E+00 0. -1.
         -2    1    1    2    0  502  0.23831769622E+02 -0.61516624710E+01 -0.92502490059E+02  0.95720984437E+02  0.00000000000E+00 0. -1.
</event>
<event>
 4    1  0.5573045E+003  0.2615800E+02  0.7546771E-02  0.1456255E+00
          2   -1    0    0  501    0  0.00000000000E+00  0.00000000000E+00  0.40559303443E+03  0.40559303443E+03  0.00000000000E+00 0. -1.
         -2   -1    0    0    0  501 -0.00000000000E+00 -0.00000000000E+00 -0.35753500440E+01  0.35753500440E+01  0.00000000000E+00 0.  1.
          2    1    1    2  502    0  0.14986686495E+02 -0.21439216459E+02  0.34968883498E+03  0.35066582679E+03  0.00000000000E+00 0. -1.
         -2    1    1    2    0  502 -0.14986686495E+02  0.21439216459E+02  0.52328849409E+02  0.58502557679E+02  0.00000000000E+00 0.  1.
</event>
<event>
 4    1  0.5573045E+003  0.2263144E+02  0.7546771E-02  0.1497179E+00
          2   -1    0    0  501    0  0.00000000000E+00  0.00000000000E+00  0.53126780163E+03  0.53126780163E+03  0.00000000000E+00 0.  1.
         -2   -1    0    0    0  501 -0.00000000000E+00 -0.00000000000E+00 -0.96427206716E+00  0.96427206716E+00  0.00000000000E+00 0.  1.
          2    1    1    2  502    0  0.19570303855E+02  0.11365964310E+02  0.26895733530E+03  0.26990781787E+03  0.00000000000E+00 0.  1.
         -2    1    1    2    0  502 -0.19570303855E+02 -0.11365964310E+02  0.26134619427E+03  0.26232425583E+03  0.00000000000E+00 0.  1.
</event>
<event>
 4    1  0.5573045E+003  0.2328266E+02  0.7546771E-02  0.1488979E+00
          2   -1    0    0  501    0  0.00000000000E+00  0.00000000000E+00  0.93116117001E+01  0.93116117001E+01  0.00000000000E+00 0.  1.
         -2   -1    0    0    0  501 -0.00000000000E+00 -0.00000000000E+00 -0.22241989957E+03  0.22241989957E+03  0.00000000000E+00 0. -1.
          2    1    1    2  502    0  0.22471930556E+02  0.60905209287E+01 -0.69997593819E+01  0.24312110963E+02  0.00000000000E+00 0.  1.
         -2    1    1    2    0  502 -0.22471930556E+02 -0.60905209287E+01 -0.20610852849E+03  0.20741940031E+03  0.00000000000E+00 0. -1.
</event>
<event>
 4    1  0.5573045E+003  0.4056958E+02  0.7546771E-02  0.1345180E+00
          2   -1    0    0  501    0  0.00000000000E+00  0.00000000000E+00  0.10882095563E+04  0.10882095563E+04  0.00000000000E+00 0. -1.
         -2   -1    0    0    0  501 -0.00000000000E+00 -0.00000000000E+00 -0.24590683725E+01  0.24590683725E+01  0.00000000000E+00 0. -1.
          2    1    1    2  502    0 -0.33300012780E+02 -0.23173251269E+02  0.88121973475E+03  0.88215311105E+03  0.00000000000E+00 0. -1.
         -2    1    1    2    0  502  0.33300012780E+02  0.23173251269E+02  0.20453075322E+03  0.20851551367E+03  0.00000000000E+00 0. -1.
</event>
<event>
 4    1  0.5573045E+003  0.2049917E+02  0.7546771E-02  0.1526537E+00
          2   -1    0    0  501    0  0.00000000000E+00  0.00000000000E+00  0.40436662305E+03  0.40436662305E+03  0.00000000000E+00 0. -1.
         -2   -1    0    0    0  501 -0.00000000000E+00 -0.00000000000E+00 -0.52671477129E+01  0.52671477129E+01  0.00000000000E+00 0.  1.
          2    1    1    2  502    0 -0.12122835747E+02  0.16530366474E+02  0.38305267476E+03  0.38360079224E+03  0.00000000000E+00 0. -1.
         -2    1    1    2    0  502  0.12122835747E+02 -0.16530366474E+02  0.16046800578E+02  0.26032978529E+02  0.00000000000E+00 0.  1.
</event>
<event>
 4    1  0.5573045E+003  0.2905078E+02  0.7546771E-02  0.1428028E+00
          2   -1    0    0  501    0  0.00000000000E+00  0.00000000000E+00  0.61499343824E+01  0.61499343824E+01  0.00000000000E+00 0.  1.
         -2   -1    0    0    0  501 -0.00000000000E+00 -0.00000000000E+00 -0.19547965004E+03  0.19547965004E+03  0.00000000000E+00 0.  1.
          2    1    1    2  502    0 -0.21452911858E+02  0.19588779589E+02 -0.39631645900E+02  0.49138732887E+02  0.00000000000E+00 0.  1.
         -2    1    1    2    0  502  0.21452911858E+02 -0.19588779589E+02 -0.14969806976E+03  0.15249085154E+03  0.00000000000E+00 0.  1.
</event>
<event>
 4    1  0.5573045E+003  0.2970267E+02  0.7546771E-02  0.1422198E+00
          2   -1    0    0  501    0  0.00000000000E+00  0.00000000000E+00  0.26743459315E+03  0.26743459315E+03  0.00000000000E+00 0. -1.
         -2   -1    0    0    0  501 -0.00000000000E+00 -0.00000000000E+00 -0.84666775389E+01  0.84666775389E+01  0.00000000000E+00 0.  1.
          2    1    1    2  502    0 -0.27897627444E+02 -0.10196615772E+02  0.23725888726E+03  0.23911091187E+03  0.00000000000E+00 0. -1.
         -2    1    1    2    0  502  0.27897627444E+02  0.10196615772E+02  0.21709028350E+02  0.36790358820E+02  0.00000000000E+00 0.  1.
</event>
<event>
 4    1  0.5573045E+003  0.2309759E+02  0.7546771E-02  0.1491276E+00
          2   -1    0    0  501    0  0.00000000000E+00  0.00000000000E+00  0.61577486436E+03  0.61577486436E+03  0.00000000000E+00 0. -1.
         -2   -1    0    0    0  501 -0.00000000000E+00 -0.00000000000E+00 -0.38400510809E+02  0.38400510809E+02  0.00000000000E+00 0. -1.
          2    1    1    2  502    0 -0.14743309667E+02  0.17780145043E+02  0.61206396439E+03  0.61249962877E+03  0.00000000000E+00 0. -1.
         -2    1    1    2    0  502  0.14743309667E+02 -0.17780145043E+02 -0.34689610840E+02  0.41675746399E+02  0.00000000000E+00 0. -1.
</event>
<event>
 4    1  0.5573045E+003  0.2276831E+02  0.7546771E-02  0.1495428E+00
          2   -1    0    0  501    0  0.00000000000E+00  0.00000000000E+00  0.22042330080E+02  0.22042330080E+02  0.00000000000E+00 0. -1.
         -2   -1    0    0    0  501 -0.00000000000E+00 -0.00000000000E+00 -0.61573914818E+02  0.61573914818E+02  0.00000000000E+00 0.  1.
          2    1    1    2  502    0  0.11508938383E+02  0.19645362882E+02  0.13102127412E+02  0.26269025261E+02  0.00000000000E+00 0. -1.
         -2    1    1    2    0  502 -0.11508938383E+02 -0.19645362882E+02 -0.52633712149E+02  0.57347219637E+02  0.00000000000E+00 0.  1.
</event>
<event>
 4    1  0.5573045E+003  0.5189257E+02  0.7546771E-02  0.1290169E+00
          2   -1    0    0  501    0  0.00000000000E+00  0.00000000000E+00  0.15126252510E+04  0.15126252510E+04  0.00000000000E+00 0.  1.
         -2   -1    0    0    0  501 -0.00000000000E+00 -0.00000000000E+00 -0.51239380382E+01  0.51239380382E+01  0.00000000000E+00 0.  1.
          2    1    1    2  502    0 -0.16141302754E+02  0.49318321196E+02  0.13667803311E+04  0.13677650793E+04  0.00000000000E+00 0.  1.
         -2    1    1    2    0  502  0.16141302754E+02 -0.49318321196E+02  0.14072098182E+03  0.14998410977E+03  0.00000000000E+00 0.  1.
</event>
<event>
 4    1  0.5573045E+003  0.2118599E+02  0.7546771E-02  0.1516626E+00
          2   -1    0    0  501    0  0.00000000000E+00  0.00000000000E+00  0.26131362058E+01  0.26131362058E+01  0.00000000000E+00 0. -1.
         -2   -1    0    0    0  501 -0.00000000000E+00 -0.00000000000E+00 -0.37351410519E+03  0.37351410519E+03  0.00000000000E+00 0.  1.
          2    1    1    2  502    0  0.65664610086E+01 -0.20142690137E+02 -0.47235009171E+02  0.51768643671E+02  0.00000000000E+00 0. -1.
         -2    1    1    2    0  502 -0.65664610086E+01  0.20142690137E+02 -0.32366595982E+03  0.32435859773E+03  0.00000000000E+00 0.  1.
</event>
<event>
 4    1  0.5573045E+003  0.4257536E+02  0.7546771E-02  0.1334021E+00
          2   -1    0    0  501    0  0.00000000000E+00  0.00000000000E+00  0.19887164252E+04  0.19887164252E+04  0.00000000000E+00 0. -1.
         -2   -1    0    0    0  501 -0.00000000000E+00 -0.00000000000E+00 -0.36028867485E+02  0.36028867485E+02  0.00000000000E+00 0. -1.
          2    1    1    2  502    0  0.42561102041E+02 -0.11018573250E+01  0.19758286837E+04  0.19762873397E+04  0.00000000000E+00 0. -1.
         -2    1    1    2    0  502 -0.42561102041E+02  0.11018573250E+01 -0.23141126018E+02  0.48457953010E+02  0.00000000000E+00 0. -1.
</event>
<event>
 4    1  0.5573045E+003  0.2983966E+02  0.7546771E-02  0.1420995E+00
          2   -1    0    0  501    0  0.00000000000E+00  0.00000000000E+00  0.80165177140E+03  0.80165177140E+03  0.00000000000E+00 0.  1.
         -2   -1    0    0    0  501 -0.00000000000E+00 -0.00000000000E+00 -0.14592374147E+01  0.14592374147E+01  0.00000000000E+00 0.  1.
          2    1    1    2  502    0 -0.23285500202E+02  0.18659868678E+02  0.59634148039E+03  0.59708757017E+03  0.00000000000E+00 0.  1.
         -2    1    1    2    0  502  0.23285500202E+02 -0.18659868678E+02  0.20385105359E+03  0.20602343864E+03  0.00000000000E+00 0.  1.
</event>
<event>
 4    1  0.5573045E+003  0.2900547E+02  0.7546771E-02  0.1428440E+00
          2   -1    0    0  501    0  0.00000000000E+00  0.00000000000E+00  0.38010225067E+02  0.38010225067E+02  0.00000000000E+00 0.  1.
         -2   -1    0    0    0  501 -0.00000000000E+00 -0.00000000000E+00 -0.14578205508E+03  0.14578205508E+03  0.00000000000E+00 0.  1.
          2    1    1    2  502    0  0.28686530160E+02 -0.42895558065E+01  0.30746927572E+02  0.42269266101E+02  0.00000000000E+00 0.  1.
         -2    1    1    2    0  502 -0.28686530160E+02  0.42895558065E+01 -0.13851875758E+03  0.14152301404E+03  0.00000000000E+00 0.  1.
</event>
<event>
 4    1  0.5573045E+003  0.2123422E+02  0.7546771E-02  0.1515947E+00
          2   -1    0    0  501    0  0.00000000000E+00  0.00000000000E+00  0.14632516726E+04  0.14632516726E+04  0.00000000000E+00 0.  1.
         -2   -1    0    0    0  501 -0.00000000000E+00 -0.00000000000E+00 -0.30905033178E+00  0.30905033178E+00  0.00000000000E+00 0.  1.
          2    1    1    2  502    0  0.20009128087E+02 -0.71081964731E+01  0.69183425967E+03  0.69216004978E+03  0.00000000000E+00 0.  1.
         -2    1    1    2    0  502 -0.20009128087E+02  0.71081964731E+01  0.77110836256E+03  0.77140067311E+03  0.00000000000E+00 0.  1.
</event>
<event>
 4    1  0.5573045E+003  0.2563486E+02  0.7546771E-02  0.1461825E+00
          2   -1    0    0  501    0  0.00000000000E+00  0.00000000000E+00  0.14114376341E+04  0.14114376341E+04  0.00000000000E+00 0. -1.
         -2   -1    0    0    0  501 -0.00000000000E+00 -0.00000000000E+00 -0.74704104599E+01  0.74704104599E+01  0.00000000000E+00 0. -1.
          2    1    1    2  502    0  0.18218184087E+02  0.18034523040E+02  0.13889739621E+04  0.13892105001E+04  0.00000000000E+00 0. -1.
         -2    1    1    2    0  502 -0.18218184087E+02 -0.18034523040E+02  0.14993261492E+02  0.29697544391E+02  0.00000000000E+00 0. -1.
</event>
<event>
 4    1  0.5573045E+003  0.2432144E+02  0.7546771E-02  0.1476540E+00
          2   -1    0    0  501    0  0.00000000000E+00  0.00000000000E+00  0.99056150752E+03  0.99056150752E+03  0.00000000000E+00 0.  1.
         -2   -1    0    0    0  501 -0.00000000000E+00 -0.00000000000E+00 -0.77874861493E+01  0.77874861493E+01  0.00000000000E+00 0.  1.
          2    1    1    2  502    0  0.14035174231E+02  0.19863185819E+02  0.97104068917E+03  0.97134522817E+03  0.00000000000E+00 0.  1.
         -2    1    1    2    0  502 -0.14035174231E+02 -0.19863185819E+02  0.11733332202E+02  0.27003765500E+02  0.00000000000E+00 0.  1.
</event>
<event>
 4    1  0.5573045E+003  0.5086813E+02  0.7546771E-02  0.1294452E+00
          2   -1    0    0  501    0  0.00000000000E+00  0.00000000000E+00  0.16051172272E+04  0.16051172272E+04  0.00000000000E+00 0. -1.
         -2   -1    0    0    0  501 -0.00000000000E+00 -0.00000000000E+00 -0.77905585070E+01  0.77905585070E+01  0.00000000000E+00 0.  1.
          2    1    1    2  502    0 -0.48778466604E+02  0.14430109431E+02  0.15168481957E+04  0.15177008979E+04  0.00000000000E+00 0. -1.
         -2    1    1    2    0  502  0.48778466604E+02 -0.14430109431E+02  0.80478473086E+02  0.95206887843E+02  0.00000000000E+00 0.  1.
</event>
<event>
 4    1  0.5573045E+003  0.2616762E+02  0.7546771E-02  0.1456154E+00
          2   -1    0    0  501    0  0.00000000000E+00  0.00000000000E+00  0.21485856744E+02  0.21485856744E+02  0.00000000000E+00 0.  1.
         -2   -1    0    0    0  501 -0.00000000000E+00 -0.00000000000E+00 -0.72669755983E+02  0.72669755983E+02  0.00000000000E+00 0.  1.
          2    1    1    2  502    0 -0.14033739840E+02 -0.22086156614E+02  0.96833449203E+01  0.27901816011E+02  0.00000000000E+00 0.  1.
         -2    1    1    2    0  502  0.14033739840E+02  0.22086156614E+02 -0.60867244159E+02  0.66253796716E+02  0.00000000000E+00 0.  1.
</event>
<event>
 4    1  0.5573045E+003  0.4744747E+02  0.7546771E-02  0.1309635E+00
          2   -1    0    0  501    0  0.00000000000E+00  0.00000000000E+00  0.13959668236E+04  0.13959668236E+04  0.00000000000E+00 0.  1.
         -2   -1    0    0    0  501 -0.00000000000E+00 -0.00000000000E+00 -0.40942717129E+01  0.40942717129E+01  0.00000000000E+00 0.  1.
          2    1    1    2  502    0  0.20353204495E+02 -0.42860349900E+02  0.12409317581E+04  0.12418385123E+04  0.00000000000E+00 0.  1.
         -2    1    1    2    0  502 -0.20353204495E+02  0.42860349900E+02  0.15094079382E+03  0.15822258298E+03  0.00000000000E+00 0.  1.
</event>
<event>
 4    1  0.5573045E+003  0.3578342E+02  0.7546771E-02  0.1375138E+00
          2   -1    0    0  501    0  0.00000000000E+00  0.00000000000E+00  0.21606290913E+03  0.21606290913E+03  0.00000000000E+00 0.  1.
         -2   -1    0    0    0  501 -0.00000000000E+00 -0.00000000000E+00 -0.59731905845E+02  0.59731905845E+02  0.00000000000E+00 0. -1.
          2    1    1    2  502    0 -0.32784953808E+02  0.14338753143E+02  0.20904351354E+03  0.21208404841E+03  0.00000000000E+00 0.  1.
         -2    1    1    2    0  502  0.32784953808E+02 -0.14338753143E+02 -0.52712510259E+02  0.63710766560E+02  0.00000000000E+00 0. -1.
</event>
<event>
 4    1  0.5573045E+003  0.7265124E+02  0.7546771E-02  0.1222019E+00
          2   -1    0    0  501    0  0.00000000000E+00  0.00000000000E+00  0.17586796491E+04  0.17586796491E+04  0.00000000000E+00 0.  1.
         -2   -1    0    0    0  501 -0.00000000000E+00 -0.00000000000E+00 -0.67835391047E+01  0.67835391047E+01  0.00000000000E+00 0. -1.
          2    1    1    2  502    0 -0.44764022955E+01 -0.72513201207E+02  0.15350900775E+04  0.15368082993E+04  0.00000000000E+00 0.  1.
         -2    1    1    2    0  502  0.44764022955E+01  0.72513201207E+02  0.21680603244E+03  0.22865488892E+03  0.00000000000E+00 0. -1.
</event>
<event>
 4    1  0.5573045E+003  0.2835850E+02  0.7546771E-02  0.1434419E+00
          2   -1    0    0  501    0  0.00000000000E+00  0.00000000000E+00  0.22225867827E+03  0.22225867827E+03  0.00000000000E+00 0.  1.
         -2   -1    0    0    0  501 -0.00000000000E+00 -0.00000000000E+00 -0.43429536237E+01  0.43429536237E+01  0.00000000000E+00 0.  1.
          2    1    1    2  502    0 -0.13722996776E+02  0.24817008208E+02  0.15523831927E+03  0.15780728851E+03  0.00000000000E+00 0.  1.
         -2    1    1    2    0  502  0.13722996776E+02 -0.24817008208E+02  0.62677405371E+02  0.68794343379E+02  0.00000000000E+00 0.  1.
</event>
<event>
 4    1  0.5573045E+003  0.2575346E+02  0.7546771E-02  0.1460548E+00
          2   -1    0    0  501    0  0.00000000000E+00  0.00000000000E+00  0.46338001555E+01  0.46338001555E+01  0.00000000000E+00 0. -1.
         -2   -1    0    0    0  501 -0.00000000000E+00 -0.00000000000E+00 -0.40381145499E+03  0.40381145499E+03  0.00000000000E+00 0. -1.
          2    1    1    2  502    0 -0.14761472503E+02  0.21103068959E+02 -0.35503876154E+02  0.43860754803E+02  0.00000000000E+00 0. -1.
         -2    1    1    2    0  502  0.14761472503E+02 -0.21103068959E+02 -0.36367377868E+03  0.36458450035E+03  0.00000000000E+00 0. -1.
</event>
<event>
 4    1  0.5573045E+003  0.4445336E+02  0.7546771E-02  0.1324196E+00
          2   -1    0    0  501    0  0.00000000000E+00  0.00000000000E+00  0.87639009478E+03  0.87639009478E+03  0.00000000000E+00 0. -1.
         -2   -1    0    0    0  501 -0.00000000000E+00 -0.00000000000E+00 -0.37267414523E+01  0.37267414523E+01  0.00000000000E+00 0.  1.
          2    1    1    2  502    0  0.29852065553E+02 -0.32938655131E+02  0.71289093562E+03  0.71427556791E+03  0.00000000000E+00 0. -1.
         -2    1    1    2    0  502 -0.29852065553E+02  0.32938655131E+02  0.15977241770E+03  0.16584126832E+03  0.00000000000E+00 0.  1.
</event>
<event>
 4    1  0.5573045E+003  0.2229600E+02  0.7546771E-02  0.1501533E+00
          2   -1    0    0  501    0  0.00000000000E+00  0.00000000000E+00  0.35466024662E+03  0.35466024662E+03  0.00000000000E+00 0.  1.
         -2   -1    0    0    0  501 -0.00000000000E+00 -0.00000000000E+00 -0.85096511319E+01  0.85096511319E+01  0.00000000000E+00 0. -1.
          2    1    1    2  502    0  0.52360286074E+01 -0.21672458103E+02  0.33903305248E+03  0.33976539275E+03  0.00000000000E+00 0.  1.
         -2    1    1    2    0  502 -0.52360286074E+01  0.21672458103E+02  0.71175430029E+01  0.23404504998E+02  0.00000000000E+00 0. -1.
</event>
<event>
 4    1  0.5573045E+003  0.3009014E+02  0.7546771E-02  0.1418815E+00
          2   -1    0    0  501    0  0.00000000000E+00  0.00000000000E+00  0.47754582535E+02  0.47754582535E+02  0.00000000000E+00 0.  1.
         -2   -1    0    0    0  501 -0.00000000000E+00 -0.00000000000E+00 -0.26556084844E+02  0.26556084844E+02  0.00000000000E+00 0. -1.
          2    1    1    2  502    0  0.29660576701E+02 -0.50662252606E+01  0.30471190022E+02  0.42824173898E+02  0.00000000000E+00 0.  1.
         -2    1    1    2    0  502 -0.29660576701E+02  0.50662252606E+01 -0.92726923318E+01  0.31486493481E+02  0.00000000000E+00 0. -1.
</event>
<event>
 4    1  0.5573045E+003  0.2033881E+02  0.7546771E-02  0.1528918E+00
          2   -1    0    0  501    0  0.00000000000E+00  0.00000000000E+00  0.30867746444E+03  0.30867746444E+03  0.00000000000E+00 0. -1.
         -2   -1    0    0    0  501 -0.00000000000E+00 -0.00000000000E+00 -0.30923134124E+02  0.30923134124E+02  0.00000000000E+00 0. -1.
          2    1    1    2  502    0  0.19053007460E+02  0.71168974867E+01  0.30495736195E+03  0.30563484738E+03  0.00000000000E+00 0. -1.
         -2    1    1    2    0  502 -0.19053007460E+02 -0.71168974867E+01 -0.27203031639E+02  0.33965751183E+02  0.00000000000E+00 0. -1.
</event>
<event>
 4    1  0.5573045E+003  0.2066203E+02  0.7546771E-02  0.1524145E+00
          2   -1    0    0  501    0  0.00000000000E+00  0.00000000000E+00  0.34813323330E+01  0.34813323330E+01  0.00000000000E+00 0. -1.
         -2   -1    0    0    0  501 -0.00000000000E+00 -0.00000000000E+00 -0.34238758064E+03  0.34238758064E+03  0.00000000000E+00 0.  1.
          2    1    1    2  502    0  0.32582460209E+01 -0.20403511823E+02 -0.30907306398E+02  0.37177695607E+02  0.00000000000E+00 0. -1.
         -2    1    1    2    0  502 -0.32582460209E+01  0.20403511823E+02 -0.30799894191E+03  0.30869121736E+03  0.00000000000E+00 0.  1.
</event>
<event>
 4    1  0.5573045E+003  0.2700193E+02  0.7546771E-02  0.1447589E+00
          2   -1    0    0  501    0  0.00000000000E+00  0.00000000000E+00  0.49360259229E+03  0.49360259229E+03  0.00000000000E+00 0. -1.
         -2   -1    0    0    0  501 -0.00000000000E+00 -0.00000000000E+00 -0.20945969691E+02  0.20945969691E+02  0.00000000000E+00 0. -1.
          2    1    1    2  502    0 -0.15225662597E+02  0.22299853522E+02  0.48436528236E+03  0.48511733738E+03  0.00000000000E+00 0. -1.
         -2    1    1    2    0  502  0.15225662597E+02 -0.22299853522E+02 -0.11708659757E+02  0.29431224608E+02  0.00000000000E+00 0. -1.
</event>
<event>
 4    1  0.5573045E+003  0.7410205E+02  0.7546771E-02  0.1218244E+00
          2   -1    0    0  501    0  0.00000000000E+00  0.00000000000E+00  0.41550645132E+03  0.41550645132E+03  0.00000000000E+00 0.  1.
         -2   -1    0    0    0  501 -0.00000000000E+00 -0.00000000000E+00 -0.99028415304E+02  0.99028415304E+02  0.00000000000E+00 0. -1.
          2    1    1    2  502    0 -0.11213947719E+02  0.73248621483E+02  0.39772566434E+03  0.40456991638E+03  0.00000000000E+00 0.  1.
         -2    1    1    2    0  502  0.11213947719E+02 -0.73248621483E+02 -0.81247628322E+02  0.10996495024E+03  0.00000000000E+00 0. -1.
</event>
<event>
 4    1  0.5573045E+003  0.2155802E+02  0.7546771E-02  0.1511445E+00
          2   -1    0    0  501    0  0.00000000000E+00  0.00000000000E+00  0.49262647789E+02  0.49262647789E+02  0.00000000000E+00 0.  1.
         -2   -1    0    0    0  501 -0.00000000000E+00 -0.00000000000E+00 -0.27028435296E+02  0.27028435296E+02  0.00000000000E+00 0. -1.
          2    1    1    2  502    0 -0.15294488778E+02 -0.15192990868E+02  0.41893651071E+02  0.47115033255E+02  0.00000000000E+00 0.  1.
         -2    1    1    2    0  502  0.15294488778E+02  0.15192990868E+02 -0.19659438578E+02  0.29176049830E+02  0.00000000000E+00 0. -1.
</event>
<event>
 4    1  0.5573045E+003  0.2905121E+02  0.7546771E-02  0.1428024E+00
          2   -1    0    0  501    0  0.00000000000E+00  0.00000000000E+00  0.83803836658E+02  0.83803836658E+02  0.00000000000E+00 0.  1.
         -2   -1    0    0    0  501 -0.00000000000E+00 -0.00000000000E+00 -0.12943295325E+03  0.12943295325E+03  0.00000000000E+00 0.  1.
          2    1    1    2  502    0  0.28663194527E+02 -0.47322647845E+01  0.79572013699E+02  0.84709376191E+02  0.00000000000E+00 0.  1.
         -2    1    1    2    0  502 -0.28663194527E+02  0.47322647845E+01 -0.12520113029E+03  0.12852741371E+03  0.00000000000E+00 0.  1.
</event>
<event>
 4    1  0.5573045E+003  0.7290143E+02  0.7546771E-02  0.1221361E+00
          2   -1    0    0  501    0  0.00000000000E+00  0.00000000000E+00  0.48932931603E+03  0.48932931603E+03  0.00000000000E+00 0.  1.
         -2   -1    0    0    0  501 -0.00000000000E+00 -0.00000000000E+00 -0.16567026203E+02  0.16567026203E+02  0.00000000000E+00 0.  1.
          2    1    1    2  502    0  0.35158590061E+02 -0.63863072173E+02  0.38482941948E+03  0.39167371693E+03  0.00000000000E+00 0.  1.
         -2    1    1    2    0  502 -0.35158590061E+02  0.63863072173E+02  0.87932870355E+02  0.11422262530E+03  0.00000000000E+00 0.  1.
</event>
<event>
 4    1  0.5573045E+003  0.3169814E+02  0.7546771E-02  0.1405392E+00
          2   -1    0    0  501    0  0.00000000000E+00  0.00000000000E+00  0.36353061749E+02  0.36353061749E+02  0.00000000000E+00 0.  1.
         -2   -1    0    0    0  501 -0.00000000000E+00 -0.00000000000E+00 -0.27649563132E+02  0.27649563132E+02  0.00000000000E+00 0. -1.
          2    1    1    2  502    0  0.96403807590E+01  0.30196595596E+02  0.37336769684E+01  0.31917262892E+02  0.00000000000E+00 0.  1.
         -2    1    1    2    0  502 -0.96403807590E+01 -0.30196595596E+02  0.49698216480E+01  0.32085361989E+02  0.00000000000E+00 0. -1.
</event>
<event>
 4    1  0.5573045E+003  0.2830590E+02  0.7546771E-02  0.1434913E+00
          2   -1    0    0  501    0  0.00000000000E+00  0.00000000000E+00  0.16133304127E+03  0.16133304127E+03  0.00000000000E+00 0. -1.
         -2   -1    0    0    0  501 -0.00000000000E+00 -0.00000000000E+00 -0.15831483178E+02  0.15831483178E+02  0.00000000000E+00 0.  1.
          2    1    1    2  502    0  0.45712297035E+01 -0.27934344231E+02  0.14613540006E+03  0.14885153301E+03  0.00000000000E+00 0. -1.
         -2    1    1    2    0  502 -0.45712297035E+01  0.27934344231E+02 -0.63384196825E+00  0.28312991439E+02  0.00000000000E+00 0.  1.
</event>
<event>
 4    1  0.5573045E+003  0.4080350E+02  0.7546771E-02  0.1343841E+00
          2   -1    0    0  501    0  0.00000000000E+00  0.00000000000E+00  0.12240633105E+04  0.12240633105E+04  0.00000000000E+00 0.  1.
         -2   -1    0    0    0  501 -0.00000000000E+00 -0.00000000000E+00 -0.15371286776E+01  0.15371286776E+01  0.00000000000E+00 0. -1.
          2    1    1    2  502    0 -0.21669010576E+02  0.34574256234E+02  0.81918905958E+03  0.82020463334E+03  0.00000000000E+00 0.  1.
         -2    1    1    2    0  502  0.21669010576E+02 -0.34574256234E+02  0.40333712221E+03  0.40539580580E+03  0.00000000000E+00 0. -1.
</event>
<event>
 4    1  0.5573045E+003  0.2468742E+02  0.7546771E-02  0.1472331E+00
          2   -1    0    0  501    0  0.00000000000E+00  0.00000000000E+00  0.26901623129E+03  0.26901623129E+03  0.00000000000E+00 0. -1.
         -2   -1    0    0    0  501 -0.00000000000E+00 -0.00000000000E+00 -0.29661524059E+03  0.29661524059E+03  0.00000000000E+00 0.  1.
          2    1    1    2  502    0  0.19045171343E+02  0.15708276976E+02  0.26793408849E+03  0.26906903258E+03  0.00000000000E+00 0. -1.
         -2    1    1    2    0  502 -0.19045171343E+02 -0.15708276976E+02 -0.29553309779E+03  0.29656243930E+03  0.00000000000E+00 0.  1.
</event>
<event>
 4    1  0.5573045E+003  0.2035415E+02  0.7546771E-02  0.1528689E+00
          2   -1    0    0  501    0  0.00000000000E+00  0.00000000000E+00  0.81420211034E+03  0.81420211034E+03  0.00000000000E+00 0.  1.
         -2   -1    0    0    0  501 -0.00000000000E+00 -0.00000000000E+00 -0.92903982912E+00  0.92903982912E+00  0.00000000000E+00 0.  1.
          2    1    1    2  502    0  0.20352353109E+02  0.27079705272E+00  0.68073884950E+03  0.68104307707E+03  0.00000000000E+00 0.  1.
         -2    1    1    2    0  502 -0.20352353109E+02 -0.27079705272E+00  0.13253422100E+03  0.13408807309E+03  0.00000000000E+00 0.  1.
</event>
<event>
 4    1  0.5573045E+003  0.3151200E+02  0.7546771E-02  0.1406897E+00
          2   -1    0    0  501    0  0.00000000000E+00  0.00000000000E+00  0.14032415372E+02  0.14032415372E+02  0.00000000000E+00 0.  1.
         -2   -1    0    0    0  501 -0.00000000000E+00 -0.00000000000E+00 -0.10713391105E+04  0.10713391105E+04  0.00000000000E+00 0. -1.
          2    1    1    2  502    0 -0.97083533364E+01 -0.29979227299E+02 -0.41967618775E+01  0.31790234416E+02  0.00000000000E+00 0.  1.
         -2    1    1    2    0  502  0.97083533364E+01  0.29979227299E+02 -0.10531099332E+04  0.10535812914E+04  0.00000000000E+00 0. -1.
</event>
<event>
 4    1  0.5573045E+003  0.2501518E+02  0.7546771E-02  0.1468634E+00
          2   -1    0    0  501    0  0.00000000000E+00  0.00000000000E+00  0.56861295180E+02  0.56861295180E+02  0.00000000000E+00 0.  1.
         -2   -1    0    0    0  501 -0.00000000000E+00 -0.00000000000E+00 -0.68683140408E+02  0.68683140408E+02  0.00000000000E+00 0.  1.
          2    1    1    2  502    0 -0.24535892427E+02 -0.48733111458E+01  0.51612932578E+02  0.57355505298E+02  0.00000000000E+00 0.  1.
         -2    1    1    2    0  502  0.24535892427E+02  0.48733111458E+01 -0.63434777807E+02  0.68188930290E+02  0.00000000000E+00 0.  1.
</event>
<event>
 4    1  0.5573045E+003  0.2092098E+02  0.7546771E-02  0.1520396E+00
          2   -1    0    0  501    0  0.00000000000E+00  0.00000000000E+00  0.47097827617E+03  0.47097827617E+03  0.00000000000E+00 0. -1.
         -2   -1    0    0    0  501 -0.00000000000E+00 -0.00000000000E+00 -0.11794165953E+02  0.11794165953E+02  0.00000000000E+00 0.  1.
          2    1    1    2  502    0 -0.19819245962E+02  0.66996208087E+01  0.46127322334E+03  0.46174741364E+03  0.00000000000E+00 0. -1.
         -2    1    1    2    0  502  0.19819245962E+02 -0.66996208087E+01 -0.20891131176E+01  0.21025028492E+02  0.00000000000E+00 0.  1.
</event>
<event>
 4    1  0.5573045E+003  0.2839603E+02  0.7546771E-02  0.1434067E+00
          2   -1    0    0  501    0  0.00000000000E+00  0.00000000000E+00  0.45779938546E+03  0.45779938546E+03  0.00000000000E+00 0.  1.
         -2   -1    0    0    0  501 -0.00000000000E+00 -0.00000000000E+00 -0.73034406706E+01  0.73034406706E+01  0.00000000000E+00 0.  1.
          2    1    1    2  502    0  0.24195004388E+02  0.14863916584E+02  0.42782628933E+03  0.42876761549E+03  0.00000000000E+00 0.  1.
         -2    1    1    2    0  502 -0.24195004388E+02 -0.14863916584E+02  0.22669655462E+02  0.36335210641E+02  0.00000000000E+00 0.  1.
</event>
<event>
 4    1  0.5573045E+003  0.2096306E+02  0.7546771E-02  0.1519793E+00
          2   -1    0    0  501    0  0.00000000000E+00  0.00000000000E+00  0.36742849055E+02  0.36742849055E+02  0.00000000000E+00 0. -1.
         -2   -1    0    0    0  501 -0.00000000000E+00 -0.00000000000E+00 -0.38152251891E+02  0.38152251891E+02  0.00000000000E+00 0. -1.
          2    1    1    2  502    0  0.10245726965E+02 -0.18288658518E+02  0.30322921875E+02  0.36863661544E+02  0.00000000000E+00 0. -1.
         -2    1    1    2    0  502 -0.10245726965E+02  0.18288658518E+02 -0.31732324711E+02  0.38031439402E+02  0.00000000000E+00 0. -1.
</event>
<event>
 4    1  0.5573045E+003  0.2336511E+02  0.7546771E-02  0.1487964E+00
          2   -1    0    0  501    0  0.00000000000E+00  0.00000000000E+00  0.84578546262E+03  0.84578546262E+03  0.00000000000E+00 0.  1.
         -2   -1    0    0    0  501 -0.00000000000E+00 -0.00000000000E+00 -0.20132977644E+01  0.20132977644E+01  0.00000000000E+00 0.  1.
          2    1    1    2  502    0  0.16658230890E+02 -0.16383882896E+02  0.77128748674E+03  0.77164131271E+03  0.00000000000E+00 0.  1.
         -2    1    1    2    0  502 -0.16658230890E+02  0.16383882896E+02  0.72484678113E+02  0.76157447674E+02  0.00000000000E+00 0.  1.
</event>
<event>
 4    1  0.5573045E+003  0.2330588E+02  0.7546771E-02  0.1488692E+00
          2   -1    0    0  501    0  0.00000000000E+00  0.00000000000E+00  0.16860574332E+04  0.16860574332E+04  0.00000000000E+00 0. -1.
         -2   -1    0    0    0  501 -0.00000000000E+00 -0.00000000000E+00 -0.35043114944E+00  0.35043114944E+00  0.00000000000E+00 0.  1.
          2    1    1    2  502    0  0.15782791573E+02 -0.17148401929E+02  0.10823924683E+04  0.10826433483E+04  0.00000000000E+00 0. -1.
         -2    1    1    2    0  502 -0.15782791573E+02  0.17148401929E+02  0.60331453376E+03  0.60376451605E+03  0.00000000000E+00 0.  1.
</event>
<event>
 4    1  0.5573045E+003  0.3686292E+02  0.7546771E-02  0.1367919E+00
          2   -1    0    0  501    0  0.00000000000E+00  0.00000000000E+00  0.38638119634E+02  0.38638119634E+02  0.00000000000E+00 0.  1.
         -2   -1    0    0    0  501 -0.00000000000E+00 -0.00000000000E+00 -0.17439230532E+03  0.17439230532E+03  0.00000000000E+00 0. -1.
          2    1    1    2  502    0  0.36255717602E+02 -0.66631480605E+01  0.27293663779E+02  0.45867403277E+02  0.00000000000E+00 0.  1.
         -2    1    1    2    0  502 -0.36255717602E+02  0.66631480605E+01 -0.16304784946E+03  0.16716302167E+03  0.00000000000E+00 0. -1.
</event>
<event>
 4    1  0.5573045E+003  0.2584013E+02  0.7546771E-02  0.1459620E+00
          2   -1    0    0  501    0  0.00000000000E+00  0.00000000000E+00  0.28031301548E+03  0.28031301548E+03  0.00000000000E+00 0. -1.
         -2   -1    0    0    0  501 -0.00000000000E+00 -0.00000000000E+00 -0.92019140117E+01  0.92019140117E+01  0.00000000000E+00 0. -1.
          2    1    1    2  502    0  0.79253139957E+01  0.24594750420E+02  0.26017635970E+03  0.26145640267E+03  0.00000000000E+00 0. -1.
         -2    1    1    2    0  502 -0.79253139957E+01 -0.24594750420E+02  0.10934741776E+02  0.28058526830E+02  0.00000000000E+00 0. -1.
</event>
<event>
 4    1  0.5573045E+003  0.3107224E+02  0.7546771E-02  0.1410502E+00
          2   -1    0    0  501    0  0.00000000000E+00  0.00000000000E+00  0.66555677816E+03  0.66555677816E+03  0.00000000000E+00 0. -1.
         -2   -1    0    0    0  501 -0.00000000000E+00 -0.00000000000E+00 -0.38260567394E+01  0.38260567394E+01  0.00000000000E+00 0. -1.
          2    1    1    2  502    0  0.23131117669E+02  0.20746936539E+02  0.59458269882E+03  0.59539404575E+03  0.00000000000E+00 0. -1.
         -2    1    1    2    0  502 -0.23131117669E+02 -0.20746936539E+02  0.67148022601E+02  0.73988789148E+02  0.00000000000E+00 0. -1.
</event>
<event>
 4    1  0.5573045E+003  0.2480530E+02  0.7546771E-02  0.1470993E+00
          2   -1    0    0  501    0  0.00000000000E+00  0.00000000000E+00  0.78184594995E+02  0.78184594995E+02  0.00000000000E+00 0.  1.
         -2   -1    0    0    0  501 -0.00000000000E+00 -0.00000000000E+00 -0.79820315951E+01  0.79820315951E+01  0.00000000000E+00 0. -1.
          2    1    1    2  502    0 -0.13489622036E+02  0.20816652735E+02  0.40208285290E+02  0.47244143973E+02  0.00000000000E+00 0.  1.
         -2    1    1    2    0  502  0.13489622036E+02 -0.20816652735E+02  0.29994278110E+02  0.38922482617E+02  0.00000000000E+00 0. -1.
</event>
<event>
 4    1  0.5573045E+003  0.2738769E+02  0.7546771E-02  0.1443752E+00
          2   -1    0    0  501    0  0.00000000000E+00  0.00000000000E+00  0.13498783492E+04  0.13498783492E+04  0.00000000000E+00 0. -1.
         -2   -1    0    0    0  501 -0.00000000000E+00 -0.00000000000E+00 -0.18814166620E+01  0.18814166620E+01  0.00000000000E+00 0.  1.
          2    1    1    2  502    0 -0.26865498570E+02 -0.53226463142E+01  0.12413568271E+04  0.12416589137E+04  0.00000000000E+00 0. -1.
         -2    1    1    2    0  502  0.26865498570E+02  0.53226463142E+01  0.10664010543E+03  0.11010085224E+03  0.00000000000E+00 0.  1.
</event>
<event>
 4    1  0.5573045E+003  0.2034400E+02  0.7546771E-02  0.1528840E+00
          2   -1    0    0  501    0  0.00000000000E+00  0.00000000000E+00  0.31263317455E+02  0.31263317455E+02  0.00000000000E+00 0.  1.
         -2   -1    0    0    0  501 -0.00000000000E+00 -0.00000000000E+00 -0.13558253901E+02  0.13558253901E+02  0.00000000000E+00 0.  1.
          2    1    1    2  502    0  0.11920852916E+02 -0.16485499322E+02  0.12294326607E+02  0.23770336322E+02  0.00000000000E+00 0.  1.
         -2    1    1    2    0  502 -0.11920852916E+02  0.16485499322E+02  0.54107369477E+01  0.21051235034E+02  0.00000000000E+00 0.  1.
</event>
<event>
 4    1  0.5573045E+003  0.2160678E+02  0.7546771E-02  0.1510775E+00
          2   -1    0    0  501    0  0.00000000000E+00  0.00000000000E+00  0.13976118040E+04  0.13976118040E+04  0.00000000000E+00 0. -1.
         -2   -1    0    0    0  501 -0.00000000000E+00 -0.00000000000E+00 -0.25597914811E+01  0.25597914811E+01  0.00000000000E+00 0. -1.
          2    1    1    2  502    0  0.30294176955E+01 -0.21393352066E+02  0.13503373352E+04  0.13505101894E+04  0.00000000000E+00 0. -1.
         -2    1    1    2    0  502 -0.30294176955E+01  0.21393352066E+02  0.44714677286E+02  0.49661406031E+02  0.00000000000E+00 0. -1.
</event>
<event>
 4    1  0.5573045E+003  0.2170549E+02  0.7546771E-02  0.1509426E+00
          2   -1    0    0  501    0  0.00000000000E+00  0.00000000000E+00  0.76744594866E+03  0.76744594866E+03  0.00000000000E+00 0. -1.
         -2   -1    0    0    0  501 -0.00000000000E+00 -0.00000000000E+00 -0.58597227843E+01  0.58597227843E+01  0.00000000000E+00 0.  1.
          2    1    1    2  502    0  0.45694614367E+01 -0.21219051099E+02  0.74663198326E+03  0.74694741886E+03  0.00000000000E+00 0. -1.
         -2    1    1    2    0  502 -0.45694614367E+01  0.21219051099E+02  0.14954242616E+02  0.26358252590E+02  0.00000000000E+00 0.  1.
</event>
<event>
 4    1  0.5573045E+003  0.2391233E+02  0.7546771E-02  0.1481349E+00
          2   -1    0    0  501    0  0.00000000000E+00  0.00000000000E+00  0.13033989792E+03  0.13033989792E+03  0.00000000000E+00 0.  1.
         -2   -1    0    0    0  501 -0.00000000000E+00 -0.00000000000E+00 -0.56428538876E+01  0.56428538876E+01  0.00000000000E+00 0.  1.
          2    1    1    2  502    0 -0.14463715821E+02 -0.19042069585E+02  0.94424223553E+02  0.97404997218E+02  0.00000000000E+00 0.  1.
         -2    1    1    2    0  502  0.14463715821E+02  0.19042069585E+02  0.30272820481E+02  0.38577754591E+02  0.00000000000E+00 0.  1.
</event>
<event>
 4    1  0.5573045E+003  0.3692744E+02  0.7546771E-02  0.1367497E+00
          2   -1    0    0  501    0  0.00000000000E+00  0.00000000000E+00  0.45963591515E+03  0.45963591515E+03  0.00000000000E+00 0. -1.
         -2   -1    0    0    0  501 -0.00000000000E+00 -0.00000000000E+00 -0.14799378817E+03  0.14799378817E+03  0.00000000000E+00 0. -1.
          2    1    1    2  502    0  0.32268691996E+01  0.36786186015E+02  0.45657526878E+03  0.45806616578E+03  0.00000000000E+00 0. -1.
         -2    1    1    2    0  502 -0.32268691996E+01 -0.36786186015E+02 -0.14493314180E+03  0.14956353753E+03  0.00000000000E+00 0. -1.
</event>
<event>
 4    1  0.5573045E+003  0.2022953E+02  0.7546771E-02  0.1530555E+00
          2   -1    0    0  501    0  0.00000000000E+00  0.00000000000E+00  0.50077200115E+02  0.50077200115E+02  0.00000000000E+00 0. -1.
         -2   -1    0    0    0  501 -0.00000000000E+00 -0.00000000000E+00 -0.11657051682E+02  0.11657051682E+02  0.00000000000E+00 0. -1.
          2    1    1    2  502    0 -0.19587860045E+02 -0.50546521600E+01  0.36087369451E+02  0.41370665979E+02  0.00000000000E+00 0. -1.
         -2    1    1    2    0  502  0.19587860045E+02  0.50546521600E+01  0.23327789820E+01  0.20363585818E+02  0.00000000000E+00 0. -1.
</event>
<event>
 4    1  0.5573045E+003  0.3305614E+02  0.7546771E-02  0.1394769E+00
          2   -1    0    0  501    0  0.00000000000E+00  0.00000000000E+00  0.35493217008E+03  0.35493217008E+03  0.00000000000E+00 0.  1.
         -2   -1    0    0    0  501 -0.00000000000E+00 -0.00000000000E+00 -0.11723273874E+03  0.11723273874E+03  0.00000000000E+00 0.  1.
          2    1    1    2  502    0  0.32835740834E+02 -0.38108466697E+01  0.35181167521E+03  0.35336123620E+03  0.00000000000E+00 0.  1.
         -2    1    1    2    0  502 -0.32835740834E+02  0.38108466697E+01 -0.11411224387E+03  0.11880367263E+03  0.00000000000E+00 0.  1.
</event>
<event>
 4    1  0.5573045E+003  0.2572077E+02  0.7546771E-02  0.1460899E+00
          2   -1    0    0  501    0  0.00000000000E+00  0.00000000000E+00  0.14302720420E+04  0.14302720420E+04  0.00000000000E+00 0.  1.
         -2   -1    0    0    0  501 -0.00000000000E+00 -0.00000000000E+00 -0.81393606140E+00  0.81393606140E+00  0.00000000000E+00 0.  1.
          2    1    1    2  502    0  0.53746333174E+01 -0.25152954702E+02  0.11848819581E+04  0.11851610914E+04  0.00000000000E+00 0.  1.
         -2    1    1    2    0  502 -0.53746333174E+01  0.25152954702E+02  0.24457614783E+03  0.24592488670E+03  0.00000000000E+00 0.  1.
</event>
<event>
 4    1  0.5573045E+003  0.2461231E+02  0.7546771E-02  0.1473187E+00
          2   -1    0    0  501    0  0.00000000000E+00  0.00000000000E+00  0.79127938735E+01  0.79127938735E+01  0.00000000000E+00 0. -1.
         -2   -1    0    0    0  501 -0.00000000000E+00 -0.00000000000E+00 -0.94039212329E+02  0.94039212329E+02  0.00000000000E+00 0. -1.
          2    1    1    2  502    0 -0.20164174496E+02 -0.14112826345E+02 -0.21083021519E+02  0.32407708912E+02  0.00000000000E+00 0. -1.
         -2    1    1    2    0  502  0.20164174496E+02  0.14112826345E+02 -0.65043396936E+02  0.69544297290E+02  0.00000000000E+00 0. -1.
</event>
<event>
 4    1  0.5573045E+003  0.2543856E+02  0.7546771E-02  0.1463957E+00
          2   -1    0    0  501    0  0.00000000000E+00  0.00000000000E+00  0.34873032214E+03  0.34873032214E+03  0.00000000000E+00 0. -1.
         -2   -1    0    0    0  501 -0.00000000000E+00 -0.00000000000E+00 -0.14025708585E+02  0.14025708585E+02  0.00000000000E+00 0. -1.
          2    1    1    2  502    0 -0.51329352905E+01  0.24915323494E+02  0.33630636515E+03  0.33726709239E+03  0.00000000000E+00 0. -1.
         -2    1    1    2    0  502  0.51329352905E+01 -0.24915323494E+02 -0.16017515893E+01  0.25488938339E+02  0.00000000000E+00 0. -1.
</event>
<event>
 4    1  0.5573045E+003  0.2562312E+02  0.7546771E-02  0.1461952E+00
          2   -1    0    0  501    0  0.00000000000E+00  0.00000000000E+00  0.77827276072E+03  0.77827276072E+03  0.00000000000E+00 0.  1.
         -2   -1    0    0    0  501 -0.00000000000E+00 -0.00000000000E+00 -0.63747507399E+01  0.63747507399E+01  0.00000000000E+00 0. -1.
          2    1    1    2  502    0  0.31410269718E+01  0.25429866066E+02  0.75139321913E+03  0.75182997672E+03  0.00000000000E+00 0.  1.
         -2    1    1    2    0  502 -0.31410269718E+01 -0.25429866066E+02  0.20504790847E+02  0.32817534738E+02  0.00000000000E+00 0. -1.
</event>
<event>
 4    1  0.5573045E+003  0.2172447E+02  0.7546771E-02  0.1509168E+00
          2   -1    0    0  501    0  0.00000000000E+00  0.00000000000E+00  0.30638042284E+03  0.30638042284E+03  0.00000000000E+00 0.  1.
         -2   -1    0    0    0  501 -0.00000000000E+00 -0.00000000000E+00 -0.15482349373E+02  0.15482349373E+02  0.00000000000E+00 0.  1.
          2    1    1    2  502    0 -0.13157548435E+02  0.17286742351E+02  0.29816479766E+03  0.29895517909E+03  0.00000000000E+00 0.  1.
         -2    1    1    2    0  502  0.13157548435E+02 -0.17286742351E+02 -0.72667241960E+01  0.22907593118E+02  0.00000000000E+00 0.  1.
</event>
<event>
 4    1  0.5573045E+003  0.2121173E+02  0.7546771E-02  0.1516263E+00
          2   -1    0    0  501    0  0.00000000000E+00  0.00000000000E+00  0.14059112385E+04  0.14059112385E+04  0.00000000000E+00 0.  1.
         -2   -1    0    0    0  501 -0.00000000000E+00 -0.00000000000E+00 -0.23951395501E+01  0.23951395501E+01  0.00000000000E+00 0.  1.
          2    1    1    2  502    0 -0.18743455944E+02  0.99307838490E+01  0.13571814887E+04  0.13573472403E+04  0.00000000000E+00 0.  1.
         -2    1    1    2    0  502  0.18743455944E+02 -0.99307838490E+01  0.46334610269E+02  0.50959137722E+02  0.00000000000E+00 0.  1.
</event>
<event>
 4    1  0.5573045E+003  0.2871814E+02  0.7546771E-02  0.1431073E+00
          2   -1    0    0  501    0  0.00000000000E+00  0.00000000000E+00  0.15753244418E+04  0.15753244418E+04  0.00000000000E+00 0.  1.
         -2   -1    0    0    0  501 -0.00000000000E+00 -0.00000000000E+00 -0.18494544191E+01  0.18494544191E+01  0.00000000000E+00 0. -1.
          2    1    1    2  502    0  0.19863505367E+02 -0.20740599739E+02  0.14544461007E+04  0.14547295938E+04  0.00000000000E+00 0.  1.
         -2    1    1    2    0  502 -0.19863505367E+02  0.20740599739E+02  0.11902888667E+03  0.12244430238E+03  0.00000000000E+00 0. -1.
</event>
<event>
 4    1  0.5573045E+003  0.2489853E+02  0.7546771E-02  0.1469942E+00
          2   -1    0    0  501    0  0.00000000000E+00  0.00000000000E+00  0.19279600430E+04  0.19279600430E+04  0.00000000000E+00 0.  1.
         -2   -1    0    0    0  501 -0.00000000000E+00 -0.00000000000E+00 -0.54874918125E+00  0.54874918125E+00  0.00000000000E+00 0.  1.
          2    1    1    2  502    0 -0.23323279649E+02 -0.87155722842E+01  0.15841567474E+04  0.15843524030E+04  0.00000000000E+00 0.  1.
         -2    1    1    2    0  502  0.23323279649E+02  0.87155722842E+01  0.34325454638E+03  0.34415638913E+03  0.00000000000E+00 0.  1.
</event>
<event>
 4    1  0.5573045E+003  0.2014500E+02  0.7546771E-02  0.1531831E+00
          2   -1    0    0  501    0  0.00000000000E+00  0.00000000000E+00  0.77402076228E+02  0.77402076228E+02  0.00000000000E+00 0.  1.
         -2   -1    0    0    0  501 -0.00000000000E+00 -0.00000000000E+00 -0.35883524713E+02  0.35883524713E+02  0.00000000000E+00 0. -1.
          2    1    1    2  502    0 -0.18848113432E+02 -0.71112217840E+01  0.73100648235E+02  0.75825626457E+02  0.00000000000E+00 0.  1.
         -2    1    1    2    0  502  0.18848113432E+02  0.71112217840E+01 -0.31582096719E+02  0.37459974484E+02  0.00000000000E+00 0. -1.
</event>
<event>
 4    1  0.5573045E+003  0.2866759E+02  0.7546771E-02  0.1431540E+00
          2   -1    0    0  501    0  0.00000000000E+00  0.00000000000E+00  0.48574072971E+03  0.48574072971E+03  0.00000000000E+00 0.  1.
         -2   -1    0    0    0  501 -0.00000000000E+00 -0.00000000000E+00 -0.59415980918E+03  0.59415980918E+03  0.00000000000E+00 0. -1.
          2    1    1    2  502    0 -0.20486086531E+02 -0.20053695747E+02  0.48497140850E+03  0.48581796747E+03  0.00000000000E+00 0.  1.
         -2    1    1    2    0  502  0.20486086531E+02  0.20053695747E+02 -0.59339048797E+03  0.59408257142E+03  0.00000000000E+00 0. -1.
</event>
<event>
 4    1  0.5573045E+003  0.3227649E+02  0.7546771E-02  0.1400793E+00
          2   -1    0    0  501    0  0.00000000000E+00  0.00000000000E+00  0.13589413122E+02  0.13589413122E+02  0.00000000000E+00 0. -1.
         -2   -1    0    0    0  501 -0.00000000000E+00 -0.00000000000E+00 -0.66198809664E+03  0.66198809664E+03  0.00000000000E+00 0. -1.
          2    1    1    2  502    0  0.14066664647E+02  0.29049972489E+02 -0.65707587332E+01  0.32938531027E+02  0.00000000000E+00 0. -1.
         -2    1    1    2    0  502 -0.14066664647E+02 -0.29049972489E+02 -0.64182792478E+03  0.64263897873E+03  0.00000000000E+00 0. -1.
</event>
<event>
 4    1  0.5573045E+003  0.3297043E+02  0.7546771E-02  0.1395422E+00
          2   -1    0    0  501    0  0.00000000000E+00  0.00000000000E+00  0.38580412966E+03  0.38580412966E+03  0.00000000000E+00 0. -1.
         -2   -1    0    0    0  501 -0.00000000000E+00 -0.00000000000E+00 -0.99313366659E+01  0.99313366659E+01  0.00000000000E+00 0.  1.
          2    1    1    2  502    0 -0.14769247968E+02  0.29477426031E+02  0.35539960814E+03  0.35692566564E+03  0.00000000000E+00 0. -1.
         -2    1    1    2    0  502  0.14769247968E+02 -0.29477426031E+02  0.20473184860E+02  0.38809800686E+02  0.00000000000E+00 0.  1.
</event>
<event>
 4    1  0.5573045E+003  0.2530566E+02  0.7546771E-02  0.1465413E+00
          2   -1    0    0  501    0  0.00000000000E+00  0.00000000000E+00  0.33767095275E+02  0.33767095275E+02  0.00000000000E+00 0.  1.
         -2   -1    0    0    0  501 -0.00000000000E+00 -0.00000000000E+00 -0.69361576541E+02  0.69361576541E+02  0.00000000000E+00 0. -1.
          2    1    1    2  502    0  0.25142120970E+02 -0.28722927114E+01  0.26156171302E+02  0.36393977654E+02  0.00000000000E+00 0.  1.
         -2    1    1    2    0  502 -0.25142120970E+02  0.28722927114E+01 -0.61750652568E+02  0.66734694162E+02  0.00000000000E+00 0. -1.
</event>
<event>
 4    1  0.5573045E+003  0.2019618E+02  0.7546771E-02  0.1531058E+00
          2   -1    0    0  501    0  0.00000000000E+00  0.00000000000E+00  0.11190781425E+04  0.11190781425E+04  0.00000000000E+00 0. -1.
         -2   -1    0    0    0  501 -0.00000000000E+00 -0.00000000000E+00 -0.45835829373E+00  0.45835829373E+00  0.00000000000E+00 0. -1.
          2    1    1    2  502    0 -0.16461299956E+02  0.11700907007E+02  0.81263602890E+03  0.81288695468E+03  0.00000000000E+00 0. -1.
         -2    1    1    2    0  502  0.16461299956E+02 -0.11700907007E+02  0.30598375532E+03  0.30664954613E+03  0.00000000000E+00 0. -1.
</event>
<event>
 4    1  0.5573045E+003  0.2588550E+02  0.7546771E-02  0.1459136E+00
          2   -1    0    0  501    0  0.00000000000E+00  0.00000000000E+00  0.24673044805E+03  0.24673044805E+03  0.00000000000E+00 0.  1.
         -2   -1    0    0    0  501 -0.00000000000E+00 -0.00000000000E+00 -0.15593147678E+03  0.15593147678E+03  0.00000000000E+00 0. -1.
          2    1    1    2  502    0 -0.30509421618E+01 -0.25705075245E+02  0.24496952412E+03  0.24633336536E+03  0.00000000000E+00 0.  1.
         -2    1    1    2    0  502  0.30509421618E+01  0.25705075245E+02 -0.15417055285E+03  0.15632855947E+03  0.00000000000E+00 0. -1.
</event>
<event>
 4    1  0.5573045E+003  0.5150134E+02  0.7546771E-02  0.1291791E+00
          2   -1    0    0  501    0  0.00000000000E+00  0.00000000000E+00  0.87510612252E+03  0.87510612252E+03  0.00000000000E+00 0. -1.
         -2   -1    0    0    0  501 -0.00000000000E+00 -0.00000000000E+00 -0.85828724152E+01  0.85828724152E+01  0.00000000000E+00 0.  1.
          2    1    1    2  502    0  0.19366428085E+02  0.47721372015E+02  0.78862730925E+03  0.79030716862E+03  0.00000000000E+00 0. -1.
         -2    1    1    2    0  502 -0.19366428085E+02 -0.47721372015E+02  0.77895940861E+02  0.93381826318E+02  0.00000000000E+00 0.  1.
</event>
<event>
 4    1  0.5573045E+003  0.2080440E+02  0.7546771E-02  0.1522076E+00
          2   -1    0    0  501    0  0.00000000000E+00  0.00000000000E+00  0.64811902072E+03  0.64811902072E+03  0.00000000000E+00 0.  1.
         -2   -1    0    0    0  501 -0.00000000000E+00 -0.00000000000E+00 -0.19761925851E+01  0.19761925851E+01  0.00000000000E+00 0.  1.
          2    1    1    2  502    0  0.63658601094E+01 -0.19806538088E+02  0.58755517380E+03  0.58792338394E+03  0.00000000000E+00 0.  1.
         -2    1    1    2    0  502 -0.63658601094E+01  0.19806538088E+02  0.58587654335E+02  0.62171829364E+02  0.00000000000E+00 0.  1.
</event>
<event>
 4    1  0.5573045E+003  0.2190074E+02  0.7546771E-02  0.1506783E+00
          2   -1    0    0  501    0  0.00000000000E+00  0.00000000000E+00  0.81693587696E+02  0.81693587696E+02  0.00000000000E+00 0.  1.
         -2   -1    0    0    0  501 -0.00000000000E+00 -0.00000000000E+00 -0.63541740976E+01  0.63541740976E+01  0.00000000000E+00 0.  1.
          2    1    1    2  502    0  0.19118156150E+02  0.10683566809E+02  0.49806490599E+02  0.54408905522E+02  0.00000000000E+00 0.  1.
         -2    1    1    2    0  502 -0.19118156150E+02 -0.10683566809E+02  0.25532922999E+02  0.33638856271E+02  0.00000000000E+00 0.  1.
</event>
<event>
 4    1  0.5573045E+003  0.2605954E+02  0.7546771E-02  0.1457291E+00
          2   -1    0    0  501    0  0.00000000000E+00  0.00000000000E+00  0.10406295171E+04  0.10406295171E+04  0.00000000000E+00 0. -1.
         -2   -1    0    0    0  501 -0.00000000000E+00 -0.00000000000E+00 -0.69430031096E+00  0.69430031096E+00  0.00000000000E+00 0. -1.
          2    1    1    2  502    0  0.15244709451E+02  0.21135244311E+02  0.64759013650E+03  0.64811425274E+03  0.00000000000E+00 0. -1.
         -2    1    1    2    0  502 -0.15244709451E+02 -0.21135244311E+02  0.39234508034E+03  0.39320956472E+03  0.00000000000E+00 0. -1.
</event>
<event>
 4    1  0.5573045E+003  0.2115003E+02  0.7546771E-02  0.1517133E+00
          2   -1    0    0  501    0  0.00000000000E+00  0.00000000000E+00  0.25694858930E+03  0.25694858930E+03  0.00000000000E+00 0.  1.
         -2   -1    0    0    0  501 -0.00000000000E+00 -0.00000000000E+00 -0.26645148794E+01  0.26645148794E+01  0.00000000000E+00 0.  1.
          2    1    1    2  502    0 -0.48139870540E+01  0.20594887610E+02  0.20356627354E+03  0.20466204238E+03  0.00000000000E+00 0.  1.
         -2    1    1    2    0  502  0.48139870540E+01 -0.20594887610E+02  0.50717800876E+02  0.54951061798E+02  0.00000000000E+00 0.  1.
</event>
<event>
 4    1  0.5573045E+003  0.3332155E+02  0.7546771E-02  0.1392763E+00
          2   -1    0    0  501    0  0.00000000000E+00  0.00000000000E+00  0.71146876711E+03  0.71146876711E+03  0.00000000000E+00 0.  1.
         -2   -1    0    0    0  501 -0.00000000000E+00 -0.00000000000E+00 -0.17894378712E+01  0.17894378712E+01  0.00000000000E+00 0.  1.
          2    1    1    2  502    0  0.58483616880E+01  0.32804308215E+02  0.48236955781E+03  0.48351909608E+03  0.00000000000E+00 0.  1.
         -2    1    1    2    0  502 -0.58483616880E+01 -0.32804308215E+02  0.22730977143E+03  0.22973910890E+03  0.00000000000E+00 0.  1.
</event>
<event>
 4    1  0.5573045E+003  0.2003952E+02  0.7546771E-02  0.1533432E+00
          2   -1    0    0  501    0  0.00000000000E+00  0.00000000000E+00  0.83084834789E+03  0.83084834789E+03  0.00000000000E+00 0. -1.
         -2   -1    0    0    0  501 -0.00000000000E+00 -0.00000000000E+00 -0.58116174543E+01  0.58116174543E+01  0.00000000000E+00 0. -1.
          2    1    1    2  502    0 -0.99841435052E+01  0.17375250103E+02  0.81307496230E+03  0.81332187770E+03  0.00000000000E+00 0. -1.
         -2    1    1    2    0  502  0.99841435052E+01 -0.17375250103E+02  0.11961768138E+02  0.23338087639E+02  0.00000000000E+00 0. -1.
</event>
<event>
 4    1  0.5573045E+003  0.2409663E+02  0.7546771E-02  0.1479168E+00
          2   -1    0    0  501    0  0.00000000000E+00  0.00000000000E+00  0.11441327684E+04  0.11441327684E+04  0.00000000000E+00 0.  1.
         -2   -1    0    0    0  501 -0.00000000000E+00 -0.00000000000E+00 -0.27101578788E+01  0.27101578788E+01  0.00000000000E+00 0.  1.
          2    1    1    2  502    0  0.34484567631E+01 -0.23848599855E+02  0.10876632294E+04  0.10879301210E+04  0.00000000000E+00 0.  1.
         -2    1    1    2    0  502 -0.34484567631E+01  0.23848599855E+02  0.53759381185E+02  0.58912805352E+02  0.00000000000E+00 0.  1.
</event>
<event>
 4    1  0.5573045E+003  0.2256436E+02  0.7546771E-02  0.1498042E+00
          2   -1    0    0  501    0  0.00000000000E+00  0.00000000000E+00  0.36941312892E+03  0.36941312892E+03  0.00000000000E+00 0. -1.
         -2   -1    0    0    0  501 -0.00000000000E+00 -0.00000000000E+00 -0.47871236088E+01  0.47871236088E+01  0.00000000000E+00 0. -1.
          2    1    1    2  502    0  0.18052059272E+02  0.13537848533E+02  0.34019807894E+03  0.34094557205E+03  0.00000000000E+00 0. -1.
         -2    1    1    2    0  502 -0.18052059272E+02 -0.13537848533E+02  0.24427926372E+02  0.33254680478E+02  0.00000000000E+00 0. -1.
</event>
<event>
 4    1  0.5573045E+003  0.3898240E+02  0.7546771E-02  0.1354554E+00
          2   -1    0    0  501    0  0.00000000000E+00  0.00000000000E+00  0.10067357635E+03  0.10067357635E+03  0.00000000000E+00 0.  1.
         -2   -1    0    0    0  501 -0.00000000000E+00 -0.00000000000E+00 -0.20842777511E+03  0.20842777511E+03  0.00000000000E+00 0.  1.
          2    1    1    2  502    0  0.36787644445E+01  0.38808428707E+02  0.94972031353E+02  0.10266116201E+03  0.00000000000E+00 0.  1.
         -2    1    1    2    0  502 -0.36787644445E+01 -0.38808428707E+02 -0.20272623011E+03  0.20644018946E+03  0.00000000000E+00 0.  1.
</event>
<event>
 4    1  0.5573045E+003  0.2196142E+02  0.7546771E-02  0.1505968E+00
          2   -1    0    0  501    0  0.00000000000E+00  0.00000000000E+00  0.15230674730E+02  0.15230674730E+02  0.00000000000E+00 0.  1.
         -2   -1    0    0    0  501 -0.00000000000E+00 -0.00000000000E+00 -0.97841467049E+02  0.97841467049E+02  0.00000000000E+00 0.  1.
          2    1    1    2  502    0 -0.13178845298E+02  0.17567645384E+02  0.51900680544E+01  0.22566367322E+02  0.00000000000E+00 0.  1.
         -2    1    1    2    0  502  0.13178845298E+02 -0.17567645384E+02 -0.87800860373E+02  0.90505774457E+02  0.00000000000E+00 0.  1.
</event>
<event>
 4    1  0.5573045E+003  0.3933638E+02  0.7546771E-02  0.1352419E+00
          2   -1    0    0  501    0  0.00000000000E+00  0.00000000000E+00  0.84779010057E+03  0.84779010057E+03  0.00000000000E+00 0.  1.
         -2   -1    0    0    0  501 -0.00000000000E+00 -0.00000000000E+00 -0.56531886668E+01  0.56531886668E+01  0.00000000000E+00 0.  1.
          2    1    1    2  502    0  0.28365242066E+02 -0.27253698930E+02  0.77221275715E+03  0.77321400231E+03  0.00000000000E+00 0.  1.
         -2    1    1    2    0  502 -0.28365242066E+02  0.27253698930E+02  0.69924154754E+02  0.80229286928E+02  0.00000000000E+00 0.  1.
</event>
<event>
 4    1  0.5573045E+003  0.2778814E+02  0.7546771E-02  0.1439848E+00
          2   -1    0    0  501    0  0.00000000000E+00  0.00000000000E+00  0.15628541660E+04  0.15628541660E+04  0.00000000000E+00 0. -1.
         -2   -1    0    0    0  501 -0.00000000000E+00 -0.00000000000E+00 -0.61157617758E+00  0.61157617758E+00  0.00000000000E+00 0.  1.
          2    1    1    2  502    0 -0.27773150498E+02 -0.91254732331E+00  0.11237614735E+04  0.11241049906E+04  0.00000000000E+00 0. -1.
         -2    1    1    2    0  502  0.27773150498E+02  0.91254732331E+00  0.43848111635E+03  0.43936075157E+03  0.00000000000E+00 0.  1.
</event>
<event>
 4    1  0.5573045E+003  0.2657814E+02  0.7546771E-02  0.1451892E+00
          2   -1    0    0  501    0  0.00000000000E+00  0.00000000000E+00  0.13557370534E+03  0.13557370534E+03  0.00000000000E+00 0. -1.
         -2   -1    0    0    0  501 -0.00000000000E+00 -0.00000000000E+00 -0.55195715001E+01  0.55195715001E+01  0.00000000000E+00 0.  1.
          2    1    1    2  502    0  0.56230761931E+01  0.25976494925E+02  0.81722682540E+02  0.85935988480E+02  0.00000000000E+00 0. -1.
         -2    1    1    2    0  502 -0.56230761931E+01 -0.25976494925E+02  0.48331451295E+02  0.55157288355E+02  0.00000000000E+00 0.  1.
</event>
<event>
 4    1  0.5573045E+003  0.2933611E+02  0.7546771E-02  0.1425455E+00
          2   -1    0    0  501    0  0.00000000000E+00  0.00000000000E+00  0.37959960404E+03  0.37959960404E+03  0.00000000000E+00 0. -1.
         -2   -1    0    0    0  501 -0.00000000000E+00 -0.00000000000E+00 -0.25831815852E+01  0.25831815852E+01  0.00000000000E+00 0. -1.
          2    1    1    2  502    0 -0.29310632013E+02 -0.12220217800E+01  0.12166860367E+03  0.12515532592E+03  0.00000000000E+00 0. -1.
         -2    1    1    2    0  502  0.29310632013E+02  0.12220217800E+01  0.25534781878E+03  0.25702745970E+03  0.00000000000E+00 0. -1.
</event>
<event>
 4    1  0.5573045E+003  0.2511597E+02  0.7546771E-02  0.1467510E+00
          2   -1    0    0  501    0  0.00000000000E+00  0.00000000000E+00  0.38239191003E+02  0.38239191003E+02  0.00000000000E+00 0. -1.
         -2   -1    0    0    0  501 -0.00000000000E+00 -0.00000000000E+00 -0.28248154603E+03  0.28248154603E+03  0.00000000000E+00 0.  1.
          2    1    1    2  502    0 -0.97249225512E+00  0.25097134749E+02  0.33486361591E+02  0.41858670863E+02  0.00000000000E+00 0. -1.
         -2    1    1    2    0  502  0.97249225512E+00 -0.25097134749E+02 -0.27772871662E+03  0.27886206617E+03  0.00000000000E+00 0.  1.
</event>
<event>
 4    1  0.5573045E+003  0.2357417E+02  0.7546771E-02  0.1485411E+00
          2   -1    0    0  501    0  0.00000000000E+00  0.00000000000E+00  0.49567712370E+03  0.49567712370E+03  0.00000000000E+00 0.  1.
         -2   -1    0    0    0  501 -0.00000000000E+00 -0.00000000000E+00 -0.24798068246E+01  0.24798068246E+01  0.00000000000E+00 0. -1.
          2    1    1    2  502    0  0.20927541136E+02  0.10852637088E+02  0.43096339352E+03  0.43160767865E+03  0.00000000000E+00 0.  1.
         -2    1    1    2    0  502 -0.20927541136E+02 -0.10852637088E+02  0.62233923357E+02  0.66549251883E+02  0.00000000000E+00 0. -1.
</event>
<event>
 4    1  0.5573045E+003  0.2007682E+02  0.7546771E-02  0.1532865E+00
          2   -1    0    0  501    0  0.00000000000E+00  0.00000000000E+00  0.76625124582E+03  0.76625124582E+03  0.00000000000E+00 0.  1.
         -2   -1    0    0    0  501 -0.00000000000E+00 -0.00000000000E+00 -0.23123754310E+01  0.23123754310E+01  0.00000000000E+00 0. -1.
          2    1    1    2  502    0  0.12722107937E+02  0.15531470817E+02  0.71972474972E+03  0.72000471802E+03  0.00000000000E+00 0.  1.
         -2    1    1    2    0  502 -0.12722107937E+02 -0.15531470817E+02  0.44214120663E+02  0.48558903222E+02  0.00000000000E+00 0. -1.
</event>
<event>
 4    1  0.5573045E+003  0.2158970E+02  0.7546771E-02  0.1511010E+00
          2   -1    0    0  501    0  0.00000000000E+00  0.00000000000E+00  0.25186182891E+03  0.25186182891E+03  0.00000000000E+00 0.  1.
         -2   -1    0    0    0  501 -0.00000000000E+00 -0.00000000000E+00 -0.70903186368E+01  0.70903186368E+01  0.00000000000E+00 0. -1.
          2    1    1    2  502    0  0.60418601515E+01  0.20727056962E+02  0.23368889752E+03  0.23468407655E+03  0.00000000000E+00 0.  1.
         -2    1    1    2    0  502 -0.60418601515E+01 -0.20727056962E+02  0.11082612760E+02  0.24268070999E+02  0.00000000000E+00 0. -1.
</event>
<event>
 4    1  0.5573045E+003  0.2636130E+02  0.7546771E-02  0.1454132E+00
          2   -1    0    0  501    0  0.00000000000E+00  0.00000000000E+00  0.11403483310E+04  0.11403483310E+04  0.00000000000E+00 0.  1.
         -2   -1    0    0    0  501 -0.00000000000E+00 -0.00000000000E+00 -0.68420807331E+00  0.68420807331E+00  0.00000000000E+00 0. -1.
          2    1    1    2  502    0  0.24105013223E+02 -0.10670830630E+02  0.75848934827E+03  0.75894730366E+03  0.00000000000E+00 0.  1.
         -2    1    1    2    0  502 -0.24105013223E+02  0.10670830630E+02  0.38117477468E+03  0.38208523544E+03  0.00000000000E+00 0. -1.
</event>
<event>
 4    1  0.5573045E+003  0.3367120E+02  0.7546771E-02  0.1390154E+00
          2   -1    0    0  501    0  0.00000000000E+00  0.00000000000E+00  0.11166258700E+04  0.11166258700E+04  0.00000000000E+00 0.  1.
         -2   -1    0    0    0  501 -0.00000000000E+00 -0.00000000000E+00 -0.77821943009E+01  0.77821943009E+01  0.00000000000E+00 0. -1.
          2    1    1    2  502    0  0.32100798977E+02  0.10163094046E+02  0.10786694748E+04  0.10791948784E+04  0.00000000000E+00 0.  1.
         -2    1    1    2    0  502 -0.32100798977E+02 -0.10163094046E+02  0.30174200877E+02  0.45213185843E+02  0.00000000000E+00 0. -1.
</event>
<event>
 4    1  0.5573045E+003  0.2863415E+02  0.7546771E-02  0.1431849E+00
          2   -1    0    0  501    0  0.00000000000E+00  0.00000000000E+00  0.48393881144E+03  0.48393881144E+03  0.00000000000E+00 0. -1.
         -2   -1    0    0    0  501 -0.00000000000E+00 -0.00000000000E+00 -0.23195417408E+01  0.23195417408E+01  0.00000000000E+00 0. -1.
          2    1    1    2  502    0  0.68262472469E+01  0.27808572349E+02  0.36704370927E+03  0.36815893152E+03  0.00000000000E+00 0. -1.
         -2    1    1    2    0  502 -0.68262472469E+01 -0.27808572349E+02  0.11457556043E+03  0.11809942165E+03  0.00000000000E+00 0. -1.
</event>
<event>
 4    1  0.5573045E+003  0.2194554E+02  0.7546771E-02  0.1506181E+00
          2   -1    0    0  501    0  0.00000000000E+00  0.00000000000E+00  0.10716098682E+01  0.10716098682E+01  0.00000000000E+00 0.  1.
         -2   -1    0    0    0  501 -0.00000000000E+00 -0.00000000000E+00 -0.45964980622E+03  0.45964980622E+03  0.00000000000E+00 0.  1.
          2    1    1    2  502    0  0.18403593776E+02  0.11954669441E+02 -0.26364961247E+03  0.26456138142E+03  0.00000000000E+00 0.  1.
         -2    1    1    2    0  502 -0.18403593776E+02 -0.11954669441E+02 -0.19492858388E+03  0.19616003466E+03  0.00000000000E+00 0.  1.
</event>
<event>
 4    1  0.5573045E+003  0.2520109E+02  0.7546771E-02  0.1466566E+00
          2   -1    0    0  501    0  0.00000000000E+00  0.00000000000E+00  0.70217821730E+03  0.70217821730E+03  0.00000000000E+00 0. -1.
         -2   -1    0    0    0  501 -0.00000000000E+00 -0.00000000000E+00 -0.23914838693E+01  0.23914838693E+01  0.00000000000E+00 0. -1.
          2    1    1    2  502    0 -0.14667427532E+02  0.20492966871E+02  0.62768463028E+03  0.62819032960E+03  0.00000000000E+00 0. -1.
         -2    1    1    2    0  502  0.14667427532E+02 -0.20492966871E+02  0.72102103158E+02  0.76379371570E+02  0.00000000000E+00 0. -1.
</event>
<event>
 4    1  0.5573045E+003  0.2013640E+02  0.7546771E-02  0.1531961E+00
          2   -1    0    0  501    0  0.00000000000E+00  0.00000000000E+00  0.72281315131E+03  0.72281315131E+03  0.00000000000E+00 0. -1.
         -2   -1    0    0    0  501 -0.00000000000E+00 -0.00000000000E+00 -0.61845521183E+01  0.61845521183E+01  0.00000000000E+00 0. -1.
          2    1    1    2  502    0 -0.19059369467E+02  0.64973197282E+01  0.70588939655E+03  0.70617654654E+03  0.00000000000E+00 0. -1.
         -2    1    1    2    0  502  0.19059369467E+02 -0.64973197282E+01  0.10739202643E+02  0.22821156885E+02  0.00000000000E+00 0. -1.
</event>
<event>
 4    1  0.5573045E+003  0.2404220E+02  0.7546771E-02  0.1479810E+00
          2   -1    0    0  501    0  0.00000000000E+00  0.00000000000E+00  0.30353766784E+02  0.30353766784E+02  0.00000000000E+00 0.  1.
         -2   -1    0    0    0  501 -0.00000000000E+00 -0.00000000000E+00 -0.32669128828E+02  0.32669128828E+02  0.00000000000E+00 0. -1.
          2    1    1    2  502    0 -0.18211555575E+02 -0.15696063694E+02  0.19193312718E+02  0.30763784310E+02  0.00000000000E+00 0.  1.
         -2    1    1    2    0  502  0.18211555575E+02  0.15696063694E+02 -0.21508674763E+02  0.32259111302E+02  0.00000000000E+00 0. -1.
</event>
<event>
 4    1  0.5573045E+003  0.2219785E+02  0.7546771E-02  0.1502824E+00
          2   -1    0    0  501    0  0.00000000000E+00  0.00000000000E+00  0.56496299607E+00  0.56496299607E+00  0.00000000000E+00 0. -1.
         -2   -1    0    0    0  501 -0.00000000000E+00 -0.00000000000E+00 -0.15174691375E+04  0.15174691375E+04  0.00000000000E+00 0. -1.
          2    1    1    2  502    0  0.13377180402E+02 -0.17714282536E+02 -0.26349043370E+03  0.26442381400E+03  0.00000000000E+00 0. -1.
         -2    1    1    2    0  502 -0.13377180402E+02  0.17714282536E+02 -0.12534137408E+04  0.12536102865E+04  0.00000000000E+00 0. -1.
</event>
<event>
 4    1  0.5573045E+003  0.2184813E+02  0.7546771E-02  0.1507492E+00
          2   -1    0    0  501    0  0.00000000000E+00  0.00000000000E+00  0.60125634935E+03  0.60125634935E+03  0.00000000000E+00 0. -1.
         -2   -1    0    0    0  501 -0.00000000000E+00 -0.00000000000E+00 -0.14760046434E+02  0.14760046434E+02  0.00000000000E+00 0. -1.
          2    1    1    2  502    0 -0.20777642808E+02 -0.67550368824E+01  0.59285836751E+03  0.59326080680E+03  0.00000000000E+00 0. -1.
         -2    1    1    2    0  502  0.20777642808E+02  0.67550368824E+01 -0.63620645929E+01  0.22755588980E+02  0.00000000000E+00 0. -1.
</event>
<event>
 4    1  0.5573045E+003  0.2626142E+02  0.7546771E-02  0.1455172E+00
          2   -1    0    0  501    0  0.00000000000E+00  0.00000000000E+00  0.41206981867E+02  0.41206981867E+02  0.00000000000E+00 0.  1.
         -2   -1    0    0    0  501 -0.00000000000E+00 -0.00000000000E+00 -0.33732733735E+02  0.33732733735E+02  0.00000000000E+00 0.  1.
          2    1    1    2  502    0 -0.22987677381E+02 -0.12697557985E+02 -0.22859861979E+02  0.34817159273E+02  0.00000000000E+00 0.  1.
         -2    1    1    2    0  502  0.22987677381E+02  0.12697557985E+02  0.30334110110E+02  0.40122556329E+02  0.00000000000E+00 0.  1.
</event>
<event>
 4    1  0.5573045E+003  0.2150304E+02  0.7546771E-02  0.1512203E+00
          2   -1    0    0  501    0  0.00000000000E+00  0.00000000000E+00  0.44586614987E+03  0.44586614987E+03  0.00000000000E+00 0. -1.
         -2   -1    0    0    0  501 -0.00000000000E+00 -0.00000000000E+00 -0.69722261418E+01  0.69722261418E+01  0.00000000000E+00 0. -1.
          2    1    1    2  502    0  0.15389395026E+02 -0.15018230168E+02  0.42834997015E+03  0.42888935362E+03  0.00000000000E+00 0. -1.
         -2    1    1    2    0  502 -0.15389395026E+02  0.15018230168E+02  0.10543953576E+02  0.23949022394E+02  0.00000000000E+00 0. -1.
</event>
<event>
 4    1  0.5573045E+003  0.2080490E+02  0.7546771E-02  0.1522069E+00
          2   -1    0    0  501    0  0.00000000000E+00  0.00000000000E+00  0.75625246215E+03  0.75625246215E+03  0.00000000000E+00 0.  1.
         -2   -1    0    0    0  501 -0.00000000000E+00 -0.00000000000E+00 -0.21362214789E+01  0.21362214789E+01  0.00000000000E+00 0. -1.
          2    1    1    2  502    0 -0.80752851145E+01 -0.19173778077E+02  0.70150134337E+03  0.70180978816E+03  0.00000000000E+00 0.  1.
         -2    1    1    2    0  502  0.80752851145E+01  0.19173778077E+02  0.52614897301E+02  0.56578895477E+02  0.00000000000E+00 0. -1.
</event>
<event>
 4    1  0.5573045E+003  0.2509701E+02  0.7546771E-02  0.1467721E+00
          2   -1    0    0  501    0  0.00000000000E+00  0.00000000000E+00  0.18096313001E+02  0.18096313001E+02  0.00000000000E+00 0.  1.
         -2   -1    0    0    0  501 -0.00000000000E+00 -0.00000000000E+00 -0.19575971455E+03  0.19575971455E+03  0.00000000000E+00 0.  1.
          2    1    1    2  502    0 -0.24938350422E+02  0.28175708226E+01  0.81255646750E+01  0.26379629042E+02  0.00000000000E+00 0.  1.
         -2    1    1    2    0  502  0.24938350422E+02 -0.28175708226E+01 -0.18578896623E+03  0.18747639851E+03  0.00000000000E+00 0.  1.
</event>
<event>
 4    1  0.5573045E+003  0.2010312E+02  0.7546771E-02  0.1532465E+00
          2   -1    0    0  501    0  0.00000000000E+00  0.00000000000E+00  0.31339213767E+03  0.31339213767E+03  0.00000000000E+00 0.  1.
         -2   -1    0    0    0  501 -0.00000000000E+00 -0.00000000000E+00 -0.39234412917E+03  0.39234412917E+03  0.00000000000E+00 0.  1.
          2    1    1    2  502    0 -0.88271207557E+01  0.18061493756E+02  0.31281175877E+03  0.31345706571E+03  0.00000000000E+00 0.  1.
         -2    1    1    2    0  502  0.88271207557E+01 -0.18061493756E+02 -0.39176375026E+03  0.39227920113E+03  0.00000000000E+00 0.  1.
</event>
<event>
 4    1  0.5573045E+003  0.2453487E+02  0.7546771E-02  0.1474075E+00
          2   -1    0    0  501    0  0.00000000000E+00  0.00000000000E+00  0.11102667998E+04  0.11102667998E+04  0.00000000000E+00 0. -1.
         -2   -1    0    0    0  501 -0.00000000000E+00 -0.00000000000E+00 -0.12981408440E+01  0.12981408440E+01  0.00000000000E+00 0.  1.
          2    1    1    2  502    0  0.12706552656E+01 -0.24501945698E+02  0.97861020010E+03  0.97891771035E+03  0.00000000000E+00 0. -1.
         -2    1    1    2    0  502 -0.12706552656E+01  0.24501945698E+02  0.13035845884E+03  0.13264723027E+03  0.00000000000E+00 0.  1.
</event>
<event>
 4    1  0.5573045E+003  0.2179505E+02  0.7546771E-02  0.1508210E+00
          2   -1    0    0  501    0  0.00000000000E+00  0.00000000000E+00  0.19747600248E+02  0.19747600248E+02  0.00000000000E+00 0.  1.
         -2   -1    0    0    0  501 -0.00000000000E+00 -0.00000000000E+00 -0.97277339775E+02  0.97277339775E+02  0.00000000000E+00 0. -1.
          2    1    1    2  502    0  0.19806920535E+02 -0.90945009268E+01  0.12000208742E+02  0.24880294573E+02  0.00000000000E+00 0.  1.
         -2    1    1    2    0  502 -0.19806920535E+02  0.90945009268E+01 -0.89529948269E+02  0.92144645451E+02  0.00000000000E+00 0. -1.
</event>
<event>
 4    1  0.5573045E+003  0.2368985E+02  0.7546771E-02  0.1484013E+00
          2   -1    0    0  501    0  0.00000000000E+00  0.00000000000E+00  0.58094549249E+03  0.58094549249E+03  0.00000000000E+00 0. -1.
         -2   -1    0    0    0  501 -0.00000000000E+00 -0.00000000000E+00 -0.10265940491E+02  0.10265940491E+02  0.00000000000E+00 0.  1.
          2    1    1    2  502    0  0.22911897684E+02 -0.60211350497E+01  0.56669365541E+03  0.56718860020E+03  0.00000000000E+00 0. -1.
         -2    1    1    2    0  502 -0.22911897684E+02  0.60211350497E+01  0.39858965856E+01  0.24022832772E+02  0.00000000000E+00 0.  1.
</event>
<event>
 4    1  0.5573045E+003  0.6026047E+02  0.7546771E-02  0.1258950E+00
          2   -1    0    0  501    0  0.00000000000E+00  0.00000000000E+00  0.14554718012E+04  0.14554718012E+04  0.00000000000E+00 0. -1.
         -2   -1    0    0    0  501 -0.00000000000E+00 -0.00000000000E+00 -0.43540511552E+01  0.43540511552E+01  0.00000000000E+00 0.  1.
          2    1    1    2  502    0 -0.52607011665E+02 -0.29390919432E+02  0.12025126020E+04  0.12040215454E+04  0.00000000000E+00 0. -1.
         -2    1    1    2    0  502  0.52607011665E+02  0.29390919432E+02  0.24860514801E+03  0.25580430692E+03  0.00000000000E+00 0.  1.
</event>
<event>
 4    1  0.5573045E+003  0.2311302E+02  0.7546771E-02  0.1491084E+00
          2   -1    0    0  501    0  0.00000000000E+00  0.00000000000E+00  0.12092449219E+02  0.12092449219E+02  0.00000000000E+00 0. -1.
         -2   -1    0    0    0  501 -0.00000000000E+00 -0.00000000000E+00 -0.46074297005E+02  0.46074297005E+02  0.00000000000E+00 0. -1.
          2    1    1    2  502    0 -0.10663974129E+02 -0.20505883636E+02 -0.11089590523E+02  0.25635729478E+02  0.00000000000E+00 0. -1.
         -2    1    1    2    0  502  0.10663974129E+02  0.20505883636E+02 -0.22892257263E+02  0.32531016746E+02  0.00000000000E+00 0. -1.
</event>
<event>
 4    1  0.5573045E+003  0.2194394E+02  0.7546771E-02  0.1506203E+00
          2   -1    0    0  501    0  0.00000000000E+00  0.00000000000E+00  0.60875277540E+01  0.60875277540E+01  0.00000000000E+00 0.  1.
         -2   -1    0    0    0  501 -0.00000000000E+00 -0.00000000000E+00 -0.20311170427E+03  0.20311170427E+03  0.00000000000E+00 0.  1.
          2    1    1    2  502    0 -0.21935801709E+02 -0.59746336332E+00 -0.16780443530E+02  0.27624620253E+02  0.00000000000E+00 0.  1.
         -2    1    1    2    0  502  0.21935801709E+02  0.59746336332E+00 -0.18024373298E+03  0.18157461177E+03  0.00000000000E+00 0.  1.
</event>
<event>
 4    1  0.5573045E+003  0.2243312E+02  0.7546771E-02  0.1499742E+00
          2   -1    0    0  501    0  0.00000000000E+00  0.00000000000E+00  0.54748943437E+03  0.54748943437E+03  0.00000000000E+00 0. -1.
         -2   -1    0    0    0  501 -0.00000000000E+00 -0.00000000000E+00 -0.29528816889E+01  0.29528816889E+01  0.00000000000E+00 0.  1.
          2    1    1    2  502    0  0.72425667134E+01  0.21231813974E+02  0.50067125538E+03  0.50117357338E+03  0.00000000000E+00 0. -1.
         -2    1    1    2    0  502 -0.72425667134E+01 -0.21231813974E+02  0.43865297303E+02  0.49268742675E+02  0.00000000000E+00 0.  1.
</event>
<event>
 4    1  0.5573045E+003  0.3809861E+02  0.7546771E-02  0.1360003E+00
          2   -1    0    0  501    0  0.00000000000E+00  0.00000000000E+00  0.27442666168E+01  0.27442666168E+01  0.00000000000E+00 0.  1.
         -2   -1    0    0    0  501 -0.00000000000E+00 -0.00000000000E+00 -0.59422782435E+03  0.59422782435E+03  0.00000000000E+00 0. -1.
          2    1    1    2  502    0 -0.33453216920E+02 -0.18231471904E+02 -0.19679038410E+03  0.20044440517E+03  0.00000000000E+00 0.  1.
         -2    1    1    2    0  502  0.33453216920E+02  0.18231471904E+02 -0.39469317363E+03  0.39652768580E+03  0.00000000000E+00 0. -1.
</event>
<event>
 4    1  0.5573045E+003  0.2415036E+02  0.7546771E-02  0.1478537E+00
          2   -1    0    0  501    0  0.00000000000E+00  0.00000000000E+00  0.18572027050E+02  0.18572027050E+02  0.00000000000E+00 0.  1.
         -2   -1    0    0    0  501 -0.00000000000E+00 -0.00000000000E+00 -0.31543999408E+02  0.31543999408E+02  0.00000000000E+00 0.  1.
          2    1    1    2  502    0 -0.18186863077E+02  0.15889539063E+02 -0.81542265327E+01  0.25489818567E+02  0.00000000000E+00 0.  1.
         -2    1    1    2    0  502  0.18186863077E+02 -0.15889539063E+02 -0.48177458249E+01  0.24626207891E+02  0.00000000000E+00 0.  1.
</event>
<event>
 4    1  0.5573045E+003  0.2145851E+02  0.7546771E-02  0.1512818E+00
          2   -1    0    0  501    0  0.00000000000E+00  0.00000000000E+00  0.17346580074E+03  0.17346580074E+03  0.00000000000E+00 0. -1.
         -2   -1    0    0    0  501 -0.00000000000E+00 -0.00000000000E+00 -0.39450066279E+02  0.39450066279E+02  0.00000000000E+00 0.  1.
          2    1    1    2  502    0  0.16924615219E+02 -0.13191859947E+02  0.16982176247E+03  0.17117213202E+03  0.00000000000E+00 0. -1.
         -2    1    1    2    0  502 -0.16924615219E+02  0.13191859947E+02 -0.35806028018E+02  0.41743734998E+02  0.00000000000E+00 0.  1.
</event>
<event>
 4    1  0.5573045E+003  0.2040682E+02  0.7546771E-02  0.1527905E+00
          2   -1    0    0  501    0  0.00000000000E+00  0.00000000000E+00  0.56756233890E+02  0.56756233890E+02  0.00000000000E+00 0.  1.
         -2   -1    0    0    0  501 -0.00000000000E+00 -0.00000000000E+00 -0.35175485399E+02  0.35175485399E+02  0.00000000000E+00 0. -1.
          2    1    1    2  502    0 -0.84651910990E+00  0.20389258130E+02  0.51682121810E+02  0.55565098366E+02  0.00000000000E+00 0.  1.
         -2    1    1    2    0  502  0.84651910990E+00 -0.20389258130E+02 -0.30101373318E+02  0.36366620923E+02  0.00000000000E+00 0. -1.
</event>
<event>
 4    1  0.5573045E+003  0.2824604E+02  0.7546771E-02  0.1435478E+00
          2   -1    0    0  501    0  0.00000000000E+00  0.00000000000E+00  0.10412118102E+04  0.10412118102E+04  0.00000000000E+00 0. -1.
         -2   -1    0    0    0  501 -0.00000000000E+00 -0.00000000000E+00 -0.16145833633E+02  0.16145833633E+02  0.00000000000E+00 0. -1.
          2    1    1    2  502    0  0.18344373175E+02  0.21478420656E+02  0.10285141309E+04  0.10289019176E+04  0.00000000000E+00 0. -1.
         -2    1    1    2    0  502 -0.18344373175E+02 -0.21478420656E+02 -0.34481544269E+01  0.28455726138E+02  0.00000000000E+00 0. -1.
</event>
<event>
 4    1  0.5573045E+003  0.2799867E+02  0.7546771E-02  0.1437826E+00
          2   -1    0    0  501    0  0.00000000000E+00  0.00000000000E+00  0.31556049323E+03  0.31556049323E+03  0.00000000000E+00 0. -1.
         -2   -1    0    0    0  501 -0.00000000000E+00 -0.00000000000E+00 -0.91709140820E+01  0.91709140820E+01  0.00000000000E+00 0.  1.
          2    1    1    2  502    0  0.25887358193E+02 -0.10666312581E+02  0.29183631168E+03  0.29317632639E+03  0.00000000000E+00 0. -1.
         -2    1    1    2    0  502 -0.25887358193E+02  0.10666312581E+02  0.14553267469E+02  0.31555080927E+02  0.00000000000E+00 0.  1.
</event>
<event>
 4    1  0.5573045E+003  0.3427622E+02  0.7546771E-02  0.1385724E+00
          2   -1    0    0  501    0  0.00000000000E+00  0.00000000000E+00  0.93574964040E+03  0.93574964040E+03  0.00000000000E+00 0.  1.
         -2   -1    0    0    0  501 -0.00000000000E+00 -0.00000000000E+00 -0.60017230982E+01  0.60017230982E+01  0.00000000000E+00 0.  1.
          2    1    1    2  502    0 -0.33596685643E+02  0.67913204856E+01  0.88361073479E+03  0.88427529082E+03  0.00000000000E+00 0.  1.
         -2    1    1    2    0  502  0.33596685643E+02 -0.67913204856E+01  0.46137182504E+02  0.57476072669E+02  0.00000000000E+00 0.  1.
</event>
<event>
 4    1  0.5573045E+003  0.2271891E+02  0.7546771E-02  0.1496058E+00
          2   -1    0    0  501    0  0.00000000000E+00  0.00000000000E+00  0.95175929376E+01  0.95175929376E+01  0.00000000000E+00 0.  1.
         -2   -1    0    0    0  501 -0.00000000000E+00 -0.00000000000E+00 -0.48083032881E+03  0.48083032881E+03  0.00000000000E+00 0. -1.
          2    1    1    2  502    0 -0.11796173982E+02  0.19416461925E+02 -0.47220406754E+01  0.23204447472E+02  0.00000000000E+00 0.  1.
         -2    1    1    2    0  502  0.11796173982E+02 -0.19416461925E+02 -0.46659069520E+03  0.46714347427E+03  0.00000000000E+00 0. -1.
</event>
<event>
 4    1  0.5573045E+003  0.2162126E+02  0.7546771E-02  0.1510577E+00
          2   -1    0    0  501    0  0.00000000000E+00  0.00000000000E+00  0.11283235953E+02  0.11283235953E+02  0.00000000000E+00 0. -1.
         -2   -1    0    0    0  501 -0.00000000000E+00 -0.00000000000E+00 -0.71546370422E+03  0.71546370422E+03  0.00000000000E+00 0.  1.
          2    1    1    2  502    0 -0.19353248116E+02  0.96400659659E+01  0.60517136805E+00  0.21629732242E+02  0.00000000000E+00 0. -1.
         -2    1    1    2    0  502  0.19353248116E+02 -0.96400659659E+01 -0.70478563963E+03  0.70511720793E+03  0.00000000000E+00 0.  1.
</event>
<event>
 4    1  0.5606372E+003  0.2391639E+02  0.7546771E-02  0.1481301E+00
          2   -1    0    0  501    0  0.00000000000E+00  0.00000000000E+00  0.78693499169E+03  0.78693499169E+03  0.00000000000E+00 0. -1.
         -2   -1    0    0    0  501 -0.00000000000E+00 -0.00000000000E+00 -0.80722310291E+02  0.80722310291E+02  0.00000000000E+00 0.  1.
          2    1    1    2  502    0  0.11920440126E+01  0.23886667665E+02  0.78497737288E+03  0.78534162617E+03  0.00000000000E+00 0. -1.
         -2    1    1    2    0  502 -0.11920440126E+01 -0.23886667665E+02 -0.78764691479E+02  0.82315675815E+02  0.00000000000E+00 0.  1.
</event>
<event>
 4    1  0.5573045E+003  0.3023813E+02  0.7546771E-02  0.1417538E+00
          2   -1    0    0  501    0  0.00000000000E+00  0.00000000000E+00  0.21187627587E+03  0.21187627587E+03  0.00000000000E+00 0.  1.
         -2   -1    0    0    0  501 -0.00000000000E+00 -0.00000000000E+00 -0.17815736706E+02  0.17815736706E+02  0.00000000000E+00 0.  1.
          2    1    1    2  502    0  0.57733141052E+01 -0.29681866314E+02  0.19700385842E+03  0.19931097455E+03  0.00000000000E+00 0.  1.
         -2    1    1    2    0  502 -0.57733141052E+01  0.29681866314E+02 -0.29433192508E+01  0.30381038031E+02  0.00000000000E+00 0.  1.
</event>
<event>
 4    1  0.5573045E+003  0.2730959E+02  0.7546771E-02  0.1444523E+00
          2   -1    0    0  501    0  0.00000000000E+00  0.00000000000E+00  0.11611119939E+04  0.11611119939E+04  0.00000000000E+00 0. -1.
         -2   -1    0    0    0  501 -0.00000000000E+00 -0.00000000000E+00 -0.39493336866E+01  0.39493336866E+01  0.00000000000E+00 0. -1.
          2    1    1    2  502    0  0.22450825144E+02 -0.15549088036E+02  0.11116392581E+04  0.11119746642E+04  0.00000000000E+00 0. -1.
         -2    1    1    2    0  502 -0.22450825144E+02  0.15549088036E+02  0.45523402085E+02  0.53086663352E+02  0.00000000000E+00 0. -1.
</event>
<event>
 4    1  0.5573045E+003  0.2245975E+02  0.7546771E-02  0.1499396E+00
          2   -1    0    0  501    0  0.00000000000E+00  0.00000000000E+00  0.66619299938E+03  0.66619299938E+03  0.00000000000E+00 0.  1.
         -2   -1    0    0    0  501 -0.00000000000E+00 -0.00000000000E+00 -0.10097135205E+01  0.10097135205E+01  0.00000000000E+00 0. -1.
          2    1    1    2  502    0  0.13810856476E+02 -0.17711600902E+02  0.49942083329E+03  0.49992560375E+03  0.00000000000E+00 0.  1.
         -2    1    1    2    0  502 -0.13810856476E+02  0.17711600902E+02  0.16576245257E+03  0.16727710915E+03  0.00000000000E+00 0. -1.
</event>
<event>
 4    1  0.5573045E+003  0.4368875E+02  0.7546771E-02  0.1328128E+00
          2   -1    0    0  501    0  0.00000000000E+00  0.00000000000E+00  0.19413962295E+02  0.19413962295E+02  0.00000000000E+00 0. -1.
         -2   -1    0    0    0  501 -0.00000000000E+00 -0.00000000000E+00 -0.24066667976E+03  0.24066667976E+03  0.00000000000E+00 0. -1.
          2    1    1    2  502    0 -0.42480666224E+02 -0.10202920664E+02 -0.10614948938E+02  0.44959801310E+02  0.00000000000E+00 0. -1.
         -2    1    1    2    0  502  0.42480666224E+02  0.10202920664E+02 -0.21063776853E+03  0.21512084075E+03  0.00000000000E+00 0. -1.
</event>
<event>
 4    1  0.5573045E+003  0.2968209E+02  0.7546771E-02  0.1422380E+00
          2   -1    0    0  501    0  0.00000000000E+00  0.00000000000E+00  0.46275919072E+02  0.46275919072E+02  0.00000000000E+00 0.  1.
         -2   -1    0    0    0  501 -0.00000000000E+00 -0.00000000000E+00 -0.22258594784E+02  0.22258594784E+02  0.00000000000E+00 0. -1.
          2    1    1    2  502    0 -0.29031726522E+02 -0.61794183167E+01  0.25042175115E+02  0.38834738187E+02  0.00000000000E+00 0.  1.
         -2    1    1    2    0  502  0.29031726522E+02  0.61794183167E+01 -0.10248508276E+01  0.29699775669E+02  0.00000000000E+00 0. -1.
</event>
<event>
 4    1  0.5573045E+003  0.2318726E+02  0.7546771E-02  0.1490160E+00
          2   -1    0    0  501    0  0.00000000000E+00  0.00000000000E+00  0.20293065859E+02  0.20293065859E+02  0.00000000000E+00 0.  1.
         -2   -1    0    0    0  501 -0.00000000000E+00 -0.00000000000E+00 -0.37433004568E+02  0.37433004568E+02  0.00000000000E+00 0.  1.
          2    1    1    2  502    0  0.22512994861E+02 -0.55510610388E+01  0.70327009303E+01  0.24230313630E+02  0.00000000000E+00 0.  1.
         -2    1    1    2    0  502 -0.22512994861E+02  0.55510610388E+01 -0.24172639640E+02  0.33495756797E+02  0.00000000000E+00 0.  1.
</event>
<event>
 4    1  0.5573045E+003  0.2559212E+02  0.7546771E-02  0.1462287E+00
          2   -1    0    0  501    0  0.00000000000E+00  0.00000000000E+00  0.12782688006E+03  0.12782688006E+03  0.00000000000E+00 0.  1.
         -2   -1    0    0    0  501 -0.00000000000E+00 -0.00000000000E+00 -0.50407390023E+02  0.50407390023E+02  0.00000000000E+00 0. -1.
          2    1    1    2  502    0  0.21767616464E+02 -0.13458366755E+02  0.12317627116E+03  0.12580679846E+03  0.00000000000E+00 0.  1.
         -2    1    1    2    0  502 -0.21767616464E+02  0.13458366755E+02 -0.45756781121E+02  0.52427471623E+02  0.00000000000E+00 0. -1.
</event>
<event>
 4    1  0.5573045E+003  0.2544276E+02  0.7546771E-02  0.1463911E+00
          2   -1    0    0  501    0  0.00000000000E+00  0.00000000000E+00  0.17091853306E+03  0.17091853306E+03  0.00000000000E+00 0. -1.
         -2   -1    0    0    0  501 -0.00000000000E+00 -0.00000000000E+00 -0.48127618005E+01  0.48127618005E+01  0.00000000000E+00 0. -1.
          2    1    1    2  502    0  0.79229450551E+00 -0.25430424998E+02  0.12360968977E+03  0.12620098910E+03  0.00000000000E+00 0. -1.
         -2    1    1    2    0  502 -0.79229450551E+00  0.25430424998E+02  0.42496081488E+02  0.49530305753E+02  0.00000000000E+00 0. -1.
</event>
<event>
 4    1  0.5573045E+003  0.2297555E+02  0.7546771E-02  0.1492805E+00
          2   -1    0    0  501    0  0.00000000000E+00  0.00000000000E+00  0.16912150077E+04  0.16912150077E+04  0.00000000000E+00 0. -1.
         -2   -1    0    0    0  501 -0.00000000000E+00 -0.00000000000E+00 -0.46482691871E+00  0.46482691871E+00  0.00000000000E+00 0.  1.
          2    1    1    2  502    0 -0.22686666635E+02  0.36319788445E+01  0.13301722373E+04  0.13303706465E+04  0.00000000000E+00 0. -1.
         -2    1    1    2    0  502  0.22686666635E+02 -0.36319788445E+01  0.36057794351E+03  0.36130918817E+03  0.00000000000E+00 0.  1.
</event>
<event>
 4    1  0.5573045E+003  0.3153056E+02  0.7546771E-02  0.1406746E+00
          2   -1    0    0  501    0  0.00000000000E+00  0.00000000000E+00  0.27129358128E+03  0.27129358128E+03  0.00000000000E+00 0.  1.
         -2   -1    0    0    0  501 -0.00000000000E+00 -0.00000000000E+00 -0.70319964653E+01  0.70319964653E+01  0.00000000000E+00 0. -1.
          2    1    1    2  502    0 -0.12091766480E+02 -0.29119843567E+02  0.22843215617E+03  0.23059797501E+03  0.00000000000E+00 0.  1.
         -2    1    1    2    0  502  0.12091766480E+02  0.29119843567E+02  0.35829428647E+02  0.47727602738E+02  0.00000000000E+00 0. -1.
</event>
<event>
 4    1  0.5573045E+003  0.2492288E+02  0.7546771E-02  0.1469668E+00
          2   -1    0    0  501    0  0.00000000000E+00  0.00000000000E+00  0.21128918508E+02  0.21128918508E+02  0.00000000000E+00 0. -1.
         -2   -1    0    0    0  501 -0.00000000000E+00 -0.00000000000E+00 -0.26881316639E+03  0.26881316639E+03  0.00000000000E+00 0.  1.
          2    1    1    2  502    0 -0.24647678940E+02  0.36934647629E+01  0.12972255517E+02  0.28096782241E+02  0.00000000000E+00 0. -1.
         -2    1    1    2    0  502  0.24647678940E+02 -0.36934647629E+01 -0.26065650340E+03  0.26184530266E+03  0.00000000000E+00 0.  1.
</event>
<event>
 4    1  0.5573045E+003  0.2123541E+02  0.7546771E-02  0.1515930E+00
          2   -1    0    0  501    0  0.00000000000E+00  0.00000000000E+00  0.48907485171E+02  0.48907485171E+02  0.00000000000E+00 0.  1.
         -2   -1    0    0    0  501 -0.00000000000E+00 -0.00000000000E+00 -0.54671887503E+02  0.54671887503E+02  0.00000000000E+00 0.  1.
          2    1    1    2  502    0 -0.18625571632E+02 -0.10199550489E+02  0.44338852257E+02  0.49161738866E+02  0.00000000000E+00 0.  1.
         -2    1    1    2    0  502  0.18625571632E+02  0.10199550489E+02 -0.50103254590E+02  0.54417633808E+02  0.00000000000E+00 0.  1.
</event>
<event>
 4    1  0.5573045E+003  0.2011101E+02  0.7546771E-02  0.1532346E+00
          2   -1    0    0  501    0  0.00000000000E+00  0.00000000000E+00  0.91645008343E+03  0.91645008343E+03  0.00000000000E+00 0.  1.
         -2   -1    0    0    0  501 -0.00000000000E+00 -0.00000000000E+00 -0.46040860498E+01  0.46040860498E+01  0.00000000000E+00 0. -1.
          2    1    1    2  502    0  0.18705455429E+02 -0.73863768749E+01  0.89382223290E+03  0.89404845319E+03  0.00000000000E+00 0.  1.
         -2    1    1    2    0  502 -0.18705455429E+02  0.73863768749E+01  0.18023764474E+02  0.27005716283E+02  0.00000000000E+00 0. -1.
</event>
<event>
 4    1  0.5573045E+003  0.2301228E+02  0.7546771E-02  0.1492344E+00
          2   -1    0    0  501    0  0.00000000000E+00  0.00000000000E+00  0.72362823931E+03  0.72362823931E+03  0.00000000000E+00 0. -1.
         -2   -1    0    0    0  501 -0.00000000000E+00 -0.00000000000E+00 -0.27340929912E+01  0.27340929912E+01  0.00000000000E+00 0. -1.
          2    1    1    2  502    0  0.21705406071E+02 -0.76446250740E+01  0.67124522201E+03  0.67163957077E+03  0.00000000000E+00 0. -1.
         -2    1    1    2    0  502 -0.21705406071E+02  0.76446250740E+01  0.49648924311E+02  0.54722761539E+02  0.00000000000E+00 0. -1.
</event>
<event>
 4    1  0.5573045E+003  0.2861357E+02  0.7546771E-02  0.1432040E+00
          2   -1    0    0  501    0  0.00000000000E+00  0.00000000000E+00  0.16120696248E+02  0.16120696248E+02  0.00000000000E+00 0.  1.
         -2   -1    0    0    0  501 -0.00000000000E+00 -0.00000000000E+00 -0.51412111043E+02  0.51412111043E+02  0.00000000000E+00 0.  1.
          2    1    1    2  502    0  0.15905237555E+02  0.23785691923E+02 -0.21366457323E+02  0.35710799773E+02  0.00000000000E+00 0.  1.
         -2    1    1    2    0  502 -0.15905237555E+02 -0.23785691923E+02 -0.13924957472E+02  0.31822007519E+02  0.00000000000E+00 0.  1.
</event>
<event>
 4    1  0.5573045E+003  0.2702802E+02  0.7546771E-02  0.1447327E+00
          2   -1    0    0  501    0  0.00000000000E+00  0.00000000000E+00  0.52858384715E+03  0.52858384715E+03  0.00000000000E+00 0. -1.
         -2   -1    0    0    0  501 -0.00000000000E+00 -0.00000000000E+00 -0.77743297528E+02  0.77743297528E+02  0.00000000000E+00 0.  1.
          2    1    1    2  502    0 -0.26803304500E+02  0.34780076982E+01  0.52587713795E+03  0.52657124673E+03  0.00000000000E+00 0. -1.
         -2    1    1    2    0  502  0.26803304500E+02 -0.34780076982E+01 -0.75036588325E+02  0.79755897946E+02  0.00000000000E+00 0.  1.
</event>
<event>
 4    1  0.5573045E+003  0.2946441E+02  0.7546771E-02  0.1424309E+00
          2   -1    0    0  501    0  0.00000000000E+00  0.00000000000E+00  0.18565530837E+04  0.18565530837E+04  0.00000000000E+00 0.  1.
         -2   -1    0    0    0  501 -0.00000000000E+00 -0.00000000000E+00 -0.10714953247E+01  0.10714953247E+01  0.00000000000E+00 0.  1.
          2    1    1    2  502    0 -0.21382632575E+02 -0.20271516502E+02  0.16250226925E+04  0.16252897904E+04  0.00000000000E+00 0.  1.
         -2    1    1    2    0  502  0.21382632575E+02  0.20271516502E+02  0.23045889580E+03  0.23233478864E+03  0.00000000000E+00 0.  1.
</event>
<event>
 4    1  0.5573045E+003  0.2278664E+02  0.7546771E-02  0.1495195E+00
          2   -1    0    0  501    0  0.00000000000E+00  0.00000000000E+00  0.73693835664E+03  0.73693835664E+03  0.00000000000E+00 0. -1.
         -2   -1    0    0    0  501 -0.00000000000E+00 -0.00000000000E+00 -0.19597858157E+02  0.19597858157E+02  0.00000000000E+00 0.  1.
          2    1    1    2  502    0 -0.13333535219E+02  0.18478302225E+02  0.73007640683E+03  0.73043192059E+03  0.00000000000E+00 0. -1.
         -2    1    1    2    0  502  0.13333535219E+02 -0.18478302225E+02 -0.12735908344E+02  0.26104294205E+02  0.00000000000E+00 0.  1.
</event>
<event>
 4    1  0.5573045E+003  0.2341622E+02  0.7546771E-02  0.1487337E+00
          2   -1    0    0  501    0  0.00000000000E+00  0.00000000000E+00  0.34929222649E+03  0.34929222649E+03  0.00000000000E+00 0. -1.
         -2   -1    0    0    0  501 -0.00000000000E+00 -0.00000000000E+00 -0.12114191634E+03  0.12114191634E+03  0.00000000000E+00 0.  1.
          2    1    1    2  502    0  0.22429332487E+02 -0.67263874642E+01  0.34776324301E+03  0.34855070281E+03  0.00000000000E+00 0. -1.
         -2    1    1    2    0  502 -0.22429332487E+02  0.67263874642E+01 -0.11961293286E+03  0.12188344002E+03  0.00000000000E+00 0.  1.
</event>
<event>
 4    1  0.5573045E+003  0.2490522E+02  0.7546771E-02  0.1469867E+00
          2   -1    0    0  501    0  0.00000000000E+00  0.00000000000E+00  0.29981925124E+03  0.29981925124E+03  0.00000000000E+00 0. -1.
         -2   -1    0    0    0  501 -0.00000000000E+00 -0.00000000000E+00 -0.61955159226E+02  0.61955159226E+02  0.00000000000E+00 0.  1.
          2    1    1    2  502    0 -0.20501759918E+02 -0.14140283743E+02  0.29677350830E+03  0.29781669700E+03  0.00000000000E+00 0. -1.
         -2    1    1    2    0  502  0.20501759918E+02  0.14140283743E+02 -0.58909416288E+02  0.63957713464E+02  0.00000000000E+00 0.  1.
</event>
<event>
 4    1  0.5573045E+003  0.3149221E+02  0.7546771E-02  0.1407058E+00
          2   -1    0    0  501    0  0.00000000000E+00  0.00000000000E+00  0.38218249613E+03  0.38218249613E+03  0.00000000000E+00 0.  1.
         -2   -1    0    0    0  501 -0.00000000000E+00 -0.00000000000E+00 -0.43380925393E+01  0.43380925393E+01  0.00000000000E+00 0.  1.
          2    1    1    2  502    0  0.30410555224E+02 -0.81827325767E+01  0.31142752225E+03  0.31301575136E+03  0.00000000000E+00 0.  1.
         -2    1    1    2    0  502 -0.30410555224E+02  0.81827325767E+01  0.66416881331E+02  0.73504837305E+02  0.00000000000E+00 0.  1.
</event>
<event>
 4    1  0.5573045E+003  0.3240078E+02  0.7546771E-02  0.1399819E+00
          2   -1    0    0  501    0  0.00000000000E+00  0.00000000000E+00  0.54158216614E+03  0.54158216614E+03  0.00000000000E+00 0.  1.
         -2   -1    0    0    0  501 -0.00000000000E+00 -0.00000000000E+00 -0.28571004254E+01  0.28571004254E+01  0.00000000000E+00 0.  1.
          2    1    1    2  502    0 -0.31198540983E+02 -0.87442210280E+01  0.42372452739E+03  0.42496151058E+03  0.00000000000E+00 0.  1.
         -2    1    1    2    0  502  0.31198540983E+02  0.87442210280E+01  0.11500053833E+03  0.11947775599E+03  0.00000000000E+00 0.  1.
</event>
<event>
 4    1  0.5573045E+003  0.4348187E+02  0.7546771E-02  0.1329207E+00
          2   -1    0    0  501    0  0.00000000000E+00  0.00000000000E+00  0.81499848867E+02  0.81499848867E+02  0.00000000000E+00 0. -1.
         -2   -1    0    0    0  501 -0.00000000000E+00 -0.00000000000E+00 -0.47698418830E+02  0.47698418830E+02  0.00000000000E+00 0. -1.
          2    1    1    2  502    0  0.15148593400E+02 -0.40757740082E+02  0.63198171650E+02  0.76711682021E+02  0.00000000000E+00 0. -1.
         -2    1    1    2    0  502 -0.15148593400E+02  0.40757740082E+02 -0.29396741612E+02  0.52486585676E+02  0.00000000000E+00 0. -1.
</event>
<event>
 4    1  0.5573045E+003  0.2062729E+02  0.7546771E-02  0.1524653E+00
          2   -1    0    0  501    0  0.00000000000E+00  0.00000000000E+00  0.77261645505E+03  0.77261645505E+03  0.00000000000E+00 0. -1.
         -2   -1    0    0    0  501 -0.00000000000E+00 -0.00000000000E+00 -0.55493633607E+00  0.55493633607E+00  0.00000000000E+00 0. -1.
          2    1    1    2  502    0 -0.12257584424E+02 -0.16590263730E+02  0.41978003998E+03  0.42028652987E+03  0.00000000000E+00 0. -1.
         -2    1    1    2    0  502  0.12257584424E+02  0.16590263730E+02  0.35228147874E+03  0.35288486152E+03  0.00000000000E+00 0. -1.
</event>
<event>
 4    1  0.5573045E+003  0.3862607E+02  0.7546771E-02  0.1356731E+00
          2   -1    0    0  501    0  0.00000000000E+00  0.00000000000E+00  0.13659902095E+04  0.13659902095E+04  0.00000000000E+00 0.  1.
         -2   -1    0    0    0  501 -0.00000000000E+00 -0.00000000000E+00 -0.12737921985E+03  0.12737921985E+03  0.00000000000E+00 0.  1.
          2    1    1    2  502    0  0.13899476729E+02 -0.36038561908E+02  0.13627820484E+04  0.13633293384E+04  0.00000000000E+00 0.  1.
         -2    1    1    2    0  502 -0.13899476729E+02  0.36038561908E+02 -0.12417105882E+03  0.13004009092E+03  0.00000000000E+00 0.  1.
</event>
<event>
 4    1  0.5573045E+003  0.2249598E+02  0.7546771E-02  0.1498926E+00
          2   -1    0    0  501    0  0.00000000000E+00  0.00000000000E+00  0.16362888453E+03  0.16362888453E+03  0.00000000000E+00 0.  1.
         -2   -1    0    0    0  501 -0.00000000000E+00 -0.00000000000E+00 -0.69588387333E+01  0.69588387333E+01  0.00000000000E+00 0.  1.
          2    1    1    2  502    0 -0.21751263738E+02  0.57403450520E+01  0.14190957485E+03  0.14368158014E+03  0.00000000000E+00 0.  1.
         -2    1    1    2    0  502  0.21751263738E+02 -0.57403450520E+01  0.14760470944E+02  0.26906143127E+02  0.00000000000E+00 0.  1.
</event>
<event>
 4    1  0.5573045E+003  0.9296506E+02  0.7546771E-02  0.1176590E+00
          2   -1    0    0  501    0  0.00000000000E+00  0.00000000000E+00  0.18341394827E+04  0.18341394827E+04  0.00000000000E+00 0. -1.
         -2   -1    0    0    0  501 -0.00000000000E+00 -0.00000000000E+00 -0.47576709753E+01  0.47576709753E+01  0.00000000000E+00 0. -1.
          2    1    1    2  502    0 -0.76690427112E+02  0.52545984456E+02  0.10047556539E+04  0.10090472864E+04  0.00000000000E+00 0. -1.
         -2    1    1    2    0  502  0.76690427112E+02 -0.52545984456E+02  0.82462615787E+03  0.82984986734E+03  0.00000000000E+00 0. -1.
</event>
<event>
 4    1  0.5573045E+003  0.2147681E+02  0.7546771E-02  0.1512565E+00
          2   -1    0    0  501    0  0.00000000000E+00  0.00000000000E+00  0.12464270170E+04  0.12464270170E+04  0.00000000000E+00 0. -1.
         -2   -1    0    0    0  501 -0.00000000000E+00 -0.00000000000E+00 -0.39009306734E+00  0.39009306734E+00  0.00000000000E+00 0. -1.
          2    1    1    2  502    0  0.17672528547E+02  0.12203893688E+02  0.76429107553E+03  0.76459276835E+03  0.00000000000E+00 0. -1.
         -2    1    1    2    0  502 -0.17672528547E+02 -0.12203893688E+02  0.48174584836E+03  0.48222434167E+03  0.00000000000E+00 0. -1.
</event>
<event>
 4    1  0.5573045E+003  0.2005343E+02  0.7546771E-02  0.1533220E+00
          2   -1    0    0  501    0  0.00000000000E+00  0.00000000000E+00  0.91095765613E+03  0.91095765613E+03  0.00000000000E+00 0. -1.
         -2   -1    0    0    0  501 -0.00000000000E+00 -0.00000000000E+00 -0.46472093648E+02  0.46472093648E+02  0.00000000000E+00 0.  1.
          2    1    1    2  502    0  0.17313692427E+02  0.10118111326E+02  0.90867852686E+03  0.90889977737E+03  0.00000000000E+00 0. -1.
         -2    1    1    2    0  502 -0.17313692427E+02 -0.10118111326E+02 -0.44192964375E+02  0.48529972413E+02  0.00000000000E+00 0.  1.
</event>
<event>
 4    1  0.5573045E+003  0.4982094E+02  0.7546771E-02  0.1298951E+00
          2   -1    0    0  501    0  0.00000000000E+00  0.00000000000E+00  0.25390628595E+02  0.25390628595E+02  0.00000000000E+00 0.  1.
         -2   -1    0    0    0  501 -0.00000000000E+00 -0.00000000000E+00 -0.24250122112E+03  0.24250122112E+03  0.00000000000E+00 0.  1.
          2    1    1    2  502    0  0.45546819490E+02  0.20189427214E+02 -0.50715061201E+01  0.50078397651E+02  0.00000000000E+00 0.  1.
         -2    1    1    2    0  502 -0.45546819490E+02 -0.20189427214E+02 -0.21203908641E+03  0.21781345207E+03  0.00000000000E+00 0.  1.
</event>
<event>
 4    1  0.5573045E+003  0.3104650E+02  0.7546771E-02  0.1410715E+00
          2   -1    0    0  501    0  0.00000000000E+00  0.00000000000E+00  0.31939827361E+03  0.31939827361E+03  0.00000000000E+00 0.  1.
         -2   -1    0    0    0  501 -0.00000000000E+00 -0.00000000000E+00 -0.66179455592E+01  0.66179455592E+01  0.00000000000E+00 0. -1.
          2    1    1    2  502    0  0.26463662175E+02 -0.16234530797E+02  0.27661844728E+03  0.27835526002E+03  0.00000000000E+00 0.  1.
         -2    1    1    2    0  502 -0.26463662175E+02  0.16234530797E+02  0.36161880765E+02  0.47660959142E+02  0.00000000000E+00 0. -1.
</event>
<event>
 4    1  0.5573045E+003  0.3239838E+02  0.7546771E-02  0.1399838E+00
          2   -1    0    0  501    0  0.00000000000E+00  0.00000000000E+00  0.13797969219E+04  0.13797969219E+04  0.00000000000E+00 0.  1.
         -2   -1    0    0    0  501 -0.00000000000E+00 -0.00000000000E+00 -0.14944230527E+01  0.14944230527E+01  0.00000000000E+00 0.  1.
          2    1    1    2  502    0  0.28698297755E+02 -0.15035383584E+02  0.11730731308E+04  0.11735204409E+04  0.00000000000E+00 0.  1.
         -2    1    1    2    0  502 -0.28698297755E+02  0.15035383584E+02  0.20522936811E+03  0.20777090409E+03  0.00000000000E+00 0.  1.
</event>
<event>
 4    1  0.5573045E+003  0.2049709E+02  0.7546771E-02  0.1526568E+00
          2   -1    0    0  501    0  0.00000000000E+00  0.00000000000E+00  0.12501386574E+04  0.12501386574E+04  0.00000000000E+00 0.  1.
         -2   -1    0    0    0  501 -0.00000000000E+00 -0.00000000000E+00 -0.44780342188E+00  0.44780342188E+00  0.00000000000E+00 0. -1.
          2    1    1    2  502    0  0.20382911889E+02 -0.21604605509E+01  0.93719209424E+03  0.93741621076E+03  0.00000000000E+00 0.  1.
         -2    1    1    2    0  502 -0.20382911889E+02  0.21604605509E+01  0.31249875971E+03  0.31317025003E+03  0.00000000000E+00 0. -1.
</event>
<event>
 4    1  0.5573045E+003  0.2853215E+02  0.7546771E-02  0.1432796E+00
          2   -1    0    0  501    0  0.00000000000E+00  0.00000000000E+00  0.43530892802E+02  0.43530892802E+02  0.00000000000E+00 0. -1.
         -2   -1    0    0    0  501 -0.00000000000E+00 -0.00000000000E+00 -0.40635078849E+03  0.40635078849E+03  0.00000000000E+00 0. -1.
          2    1    1    2  502    0 -0.21892074931E+02  0.18298098502E+02  0.38293756803E+02  0.47754530295E+02  0.00000000000E+00 0. -1.
         -2    1    1    2    0  502  0.21892074931E+02 -0.18298098502E+02 -0.40111365249E+03  0.40212715100E+03  0.00000000000E+00 0. -1.
</event>
<event>
 4    1  0.5573045E+003  0.2541387E+02  0.7546771E-02  0.1464226E+00
          2   -1    0    0  501    0  0.00000000000E+00  0.00000000000E+00  0.65827002754E+03  0.65827002754E+03  0.00000000000E+00 0. -1.
         -2   -1    0    0    0  501 -0.00000000000E+00 -0.00000000000E+00 -0.17093468156E+02  0.17093468156E+02  0.00000000000E+00 0.  1.
          2    1    1    2  502    0 -0.67043789652E+01  0.24513594420E+02  0.64843544949E+03  0.64893327635E+03  0.00000000000E+00 0. -1.
         -2    1    1    2    0  502  0.67043789652E+01 -0.24513594420E+02 -0.72588901066E+01  0.26430219338E+02  0.00000000000E+00 0.  1.
</event>
<event>
 4    1  0.5573045E+003  0.2067040E+02  0.7546771E-02  0.1524023E+00
          2   -1    0    0  501    0  0.00000000000E+00  0.00000000000E+00  0.87170321450E+03  0.87170321450E+03  0.00000000000E+00 0.  1.
         -2   -1    0    0    0  501 -0.00000000000E+00 -0.00000000000E+00 -0.87297818678E+01  0.87297818678E+01  0.00000000000E+00 0.  1.
          2    1    1    2  502    0  0.12250459823E+02 -0.16649075360E+02  0.85916629998E+03  0.85941491521E+03  0.00000000000E+00 0.  1.
         -2    1    1    2    0  502 -0.12250459823E+02  0.16649075360E+02  0.38071326517E+01  0.21018081150E+02  0.00000000000E+00 0.  1.
</event>
<event>
 4    1  0.5573045E+003  0.2035237E+02  0.7546771E-02  0.1528715E+00
          2   -1    0    0  501    0  0.00000000000E+00  0.00000000000E+00  0.26072724578E+03  0.26072724578E+03  0.00000000000E+00 0. -1.
         -2   -1    0    0    0  501 -0.00000000000E+00 -0.00000000000E+00 -0.25734120547E+01  0.25734120547E+01  0.00000000000E+00 0. -1.
          2    1    1    2  502    0 -0.14781028815E+02  0.13990718321E+02  0.21051368424E+03  0.21149522516E+03  0.00000000000E+00 0. -1.
         -2    1    1    2    0  502  0.14781028815E+02 -0.13990718321E+02  0.47640149488E+02  0.51805432681E+02  0.00000000000E+00 0. -1.
</event>
<event>
 4    1  0.5573045E+003  0.3427677E+02  0.7546771E-02  0.1385720E+00
          2   -1    0    0  501    0  0.00000000000E+00  0.00000000000E+00  0.13370840421E+04  0.13370840421E+04  0.00000000000E+00 0. -1.
         -2   -1    0    0    0  501 -0.00000000000E+00 -0.00000000000E+00 -0.47895204528E+01  0.47895204528E+01  0.00000000000E+00 0. -1.
          2    1    1    2  502    0 -0.90761314998E+01  0.33053306516E+02  0.12724219840E+04  0.12728835778E+04  0.00000000000E+00 0. -1.
         -2    1    1    2    0  502  0.90761314998E+01 -0.33053306516E+02  0.59872537705E+02  0.68989984824E+02  0.00000000000E+00 0. -1.
</event>
<event>
 4    1  0.5573045E+003  0.2053468E+02  0.7546771E-02  0.1526013E+00
          2   -1    0    0  501    0  0.00000000000E+00  0.00000000000E+00  0.13936188630E+03  0.13936188630E+03  0.00000000000E+00 0. -1.
         -2   -1    0    0    0  501 -0.00000000000E+00 -0.00000000000E+00 -0.60916757279E+01  0.60916757279E+01  0.00000000000E+00 0.  1.
          2    1    1    2  502    0 -0.20462679457E+02 -0.17180597538E+01  0.11823008262E+03  0.12000010590E+03  0.00000000000E+00 0. -1.
         -2    1    1    2    0  502  0.20462679457E+02  0.17180597538E+01  0.15040127947E+02  0.25453456122E+02  0.00000000000E+00 0.  1.
</event>
<event>
 4    1  0.5573045E+003  0.2003242E+02  0.7546771E-02  0.1533541E+00
          2   -1    0    0  501    0  0.00000000000E+00  0.00000000000E+00  0.12462250178E+03  0.12462250178E+03  0.00000000000E+00 0.  1.
         -2   -1    0    0    0  501 -0.00000000000E+00 -0.00000000000E+00 -0.44333316019E+01  0.44333316019E+01  0.00000000000E+00 0. -1.
          2    1    1    2  502    0  0.18100032612E+02 -0.85840877453E+01  0.93850758394E+02  0.95964902928E+02  0.00000000000E+00 0.  1.
         -2    1    1    2    0  502 -0.18100032612E+02  0.85840877453E+01  0.26338411785E+02  0.33090930454E+02  0.00000000000E+00 0. -1.
</event>
<event>
 4    1  0.5573045E+003  0.2263231E+02  0.7546771E-02  0.1497168E+00
          2   -1    0    0  501    0  0.00000000000E+00  0.00000000000E+00  0.73252390044E+02  0.73252390044E+02  0.00000000000E+00 0. -1.
         -2   -1    0    0    0  501 -0.00000000000E+00 -0.00000000000E+00 -0.35008928009E+02  0.35008928009E+02  0.00000000000E+00 0. -1.
          2    1    1    2  502    0 -0.60933577973E+01  0.21796615295E+02  0.67545641170E+02  0.71236473022E+02  0.00000000000E+00 0. -1.
         -2    1    1    2    0  502  0.60933577973E+01 -0.21796615295E+02 -0.29302179134E+02  0.37024845031E+02  0.00000000000E+00 0. -1.
</event>
<event>
 4    1  0.5573045E+003  0.2465870E+02  0.7546771E-02  0.1472658E+00
          2   -1    0    0  501    0  0.00000000000E+00  0.00000000000E+00  0.22303149879E+02  0.22303149879E+02  0.00000000000E+00 0. -1.
         -2   -1    0    0    0  501 -0.00000000000E+00 -0.00000000000E+00 -0.11427566336E+03  0.11427566336E+03  0.00000000000E+00 0. -1.
          2    1    1    2  502    0 -0.24651800026E+02  0.58312726040E+00  0.13602954642E+02  0.28161883050E+02  0.00000000000E+00 0. -1.
         -2    1    1    2    0  502  0.24651800026E+02 -0.58312726040E+00 -0.10557546812E+03  0.10841693019E+03  0.00000000000E+00 0. -1.
</event>
<event>
 4    1  0.5573045E+003  0.2596755E+02  0.7546771E-02  0.1458264E+00
          2   -1    0    0  501    0  0.00000000000E+00  0.00000000000E+00  0.17434867924E+03  0.17434867924E+03  0.00000000000E+00 0.  1.
         -2   -1    0    0    0  501 -0.00000000000E+00 -0.00000000000E+00 -0.13424079579E+03  0.13424079579E+03  0.00000000000E+00 0.  1.
          2    1    1    2  502    0  0.28501868733E+01 -0.25810660642E+02  0.17210973936E+03  0.17405768053E+03  0.00000000000E+00 0.  1.
         -2    1    1    2    0  502 -0.28501868733E+01  0.25810660642E+02 -0.13200185591E+03  0.13453179450E+03  0.00000000000E+00 0.  1.
</event>
<event>
 4    1  0.5573045E+003  0.3104102E+02  0.7546771E-02  0.1410760E+00
          2   -1    0    0  501    0  0.00000000000E+00  0.00000000000E+00  0.44834207981E+03  0.44834207981E+03  0.00000000000E+00 0. -1.
         -2   -1    0    0    0  501 -0.00000000000E+00 -0.00000000000E+00 -0.82516140533E+01  0.82516140533E+01  0.00000000000E+00 0. -1.
          2    1    1    2  502    0  0.24441507394E+02 -0.19135251819E+02  0.41637394054E+03  0.41752940436E+03  0.00000000000E+00 0. -1.
         -2    1    1    2    0  502 -0.24441507394E+02  0.19135251819E+02  0.23716525215E+02  0.39064289500E+02  0.00000000000E+00 0. -1.
</event>
<event>
 4    1  0.5573045E+003  0.5232782E+02  0.7546771E-02  0.1288383E+00
          2   -1    0    0  501    0  0.00000000000E+00  0.00000000000E+00  0.27439811181E+03  0.27439811181E+03  0.00000000000E+00 0.  1.
         -2   -1    0    0    0  501 -0.00000000000E+00 -0.00000000000E+00 -0.19259006763E+02  0.19259006763E+02  0.00000000000E+00 0.  1.
          2    1    1    2  502    0 -0.39165347782E+02  0.34702681174E+02  0.22949187091E+03  0.23538207103E+03  0.00000000000E+00 0.  1.
         -2    1    1    2    0  502  0.39165347782E+02 -0.34702681174E+02  0.25647234137E+02  0.58275047546E+02  0.00000000000E+00 0.  1.
</event>
<event>
 4    1  0.5573045E+003  0.3954698E+02  0.7546771E-02  0.1351161E+00
          2   -1    0    0  501    0  0.00000000000E+00  0.00000000000E+00  0.41854434827E+03  0.41854434827E+03  0.00000000000E+00 0. -1.
         -2   -1    0    0    0  501 -0.00000000000E+00 -0.00000000000E+00 -0.47429511278E+01  0.47429511278E+01  0.00000000000E+00 0. -1.
          2    1    1    2  502    0  0.38571396341E+02 -0.87298879109E+01  0.30438615609E+03  0.30694445031E+03  0.00000000000E+00 0. -1.
         -2    1    1    2    0  502 -0.38571396341E+02  0.87298879109E+01  0.10941524105E+03  0.11634284908E+03  0.00000000000E+00 0. -1.
</event>
<event>
 4    1  0.5573045E+003  0.2211034E+02  0.7546771E-02  0.1503982E+00
          2   -1    0    0  501    0  0.00000000000E+00  0.00000000000E+00  0.10272116320E+04  0.10272116320E+04  0.00000000000E+00 0. -1.
         -2   -1    0    0    0  501 -0.00000000000E+00 -0.00000000000E+00 -0.81361823846E+02  0.81361823846E+02  0.00000000000E+00 0.  1.
          2    1    1    2  502    0  0.60160194783E+01 -0.21276156766E+02  0.10255881353E+04  0.10258264428E+04  0.00000000000E+00 0. -1.
         -2    1    1    2    0  502 -0.60160194783E+01  0.21276156766E+02 -0.79738327228E+02  0.82747013035E+02  0.00000000000E+00 0.  1.
</event>
<event>
 4    1  0.5573045E+003  0.2469962E+02  0.7546771E-02  0.1472192E+00
          2   -1    0    0  501    0  0.00000000000E+00  0.00000000000E+00  0.38318808220E+03  0.38318808220E+03  0.00000000000E+00 0. -1.
         -2   -1    0    0    0  501 -0.00000000000E+00 -0.00000000000E+00 -0.26541559932E+02  0.26541559932E+02  0.00000000000E+00 0.  1.
          2    1    1    2  502    0  0.21874195423E+02 -0.11471311464E+02  0.37694866543E+03  0.37775702215E+03  0.00000000000E+00 0. -1.
         -2    1    1    2    0  502 -0.21874195423E+02  0.11471311464E+02 -0.20302143159E+02  0.31972619989E+02  0.00000000000E+00 0.  1.
</event>
<event>
 4    1  0.5573045E+003  0.3541726E+02  0.7546771E-02  0.1377653E+00
          2   -1    0    0  501    0  0.00000000000E+00  0.00000000000E+00  0.15894392583E+03  0.15894392583E+03  0.00000000000E+00 0. -1.
         -2   -1    0    0    0  501 -0.00000000000E+00 -0.00000000000E+00 -0.16085183246E+02  0.16085183246E+02  0.00000000000E+00 0. -1.
          2    1    1    2  502    0  0.34037992645E+02 -0.97876256128E+01  0.13388823780E+03  0.13849347559E+03  0.00000000000E+00 0. -1.
         -2    1    1    2    0  502 -0.34037992645E+02  0.97876256128E+01  0.89705047831E+01  0.36535633490E+02  0.00000000000E+00 0. -1.
</event>
<event>
 4    1  0.5573045E+003  0.2054863E+02  0.7546771E-02  0.1525808E+00
          2   -1    0    0  501    0  0.00000000000E+00  0.00000000000E+00  0.20206998416E+03  0.20206998416E+03  0.00000000000E+00 0.  1.
         -2   -1    0    0    0  501 -0.00000000000E+00 -0.00000000000E+00 -0.68647951278E+01  0.68647951278E+01  0.00000000000E+00 0. -1.
          2    1    1    2  502    0 -0.16535041409E+02  0.12199939500E+02  0.18473152060E+03  0.18587087137E+03  0.00000000000E+00 0.  1.
         -2    1    1    2    0  502  0.16535041409E+02 -0.12199939500E+02  0.10473668427E+02  0.23063907919E+02  0.00000000000E+00 0. -1.
</event>
<event>
 4    1  0.5573045E+003  0.5067864E+02  0.7546771E-02  0.1295257E+00
          2   -1    0    0  501    0  0.00000000000E+00  0.00000000000E+00  0.93805365959E+03  0.93805365959E+03  0.00000000000E+00 0.  1.
         -2   -1    0    0    0  501 -0.00000000000E+00 -0.00000000000E+00 -0.60442870244E+01  0.60442870244E+01  0.00000000000E+00 0. -1.
          2    1    1    2  502    0 -0.19341527493E+02 -0.46842605958E+02  0.81513652046E+03  0.81671039629E+03  0.00000000000E+00 0.  1.
         -2    1    1    2    0  502  0.19341527493E+02  0.46842605958E+02  0.11687285211E+03  0.12738755033E+03  0.00000000000E+00 0. -1.
</event>
<event>
 4    1  0.5573045E+003  0.3330918E+02  0.7546771E-02  0.1392856E+00
          2   -1    0    0  501    0  0.00000000000E+00  0.00000000000E+00  0.57419020567E+03  0.57419020567E+03  0.00000000000E+00 0. -1.
         -2   -1    0    0    0  501 -0.00000000000E+00 -0.00000000000E+00 -0.11865937789E+02  0.11865937789E+02  0.00000000000E+00 0. -1.
          2    1    1    2  502    0  0.47781102061E+01 -0.32964697640E+02  0.54927187072E+03  0.55028091880E+03  0.00000000000E+00 0. -1.
         -2    1    1    2    0  502 -0.47781102061E+01  0.32964697640E+02  0.13052397154E+02  0.35775224655E+02  0.00000000000E+00 0. -1.
</event>
<event>
 4    1  0.5573045E+003  0.4767523E+02  0.7546771E-02  0.1308579E+00
          2   -1    0    0  501    0  0.00000000000E+00  0.00000000000E+00  0.22115107653E+04  0.22115107653E+04  0.00000000000E+00 0. -1.
         -2   -1    0    0    0  501 -0.00000000000E+00 -0.00000000000E+00 -0.18068059557E+01  0.18068059557E+01  0.00000000000E+00 0.  1.
          2    1    1    2  502    0 -0.28842241244E+02 -0.37961194602E+02  0.18315205613E+04  0.18321409589E+04  0.00000000000E+00 0. -1.
         -2    1    1    2    0  502  0.28842241244E+02  0.37961194602E+02  0.37818339806E+03  0.38117661227E+03  0.00000000000E+00 0.  1.
</event>
<event>
 4    1  0.5573045E+003  0.2974425E+02  0.7546771E-02  0.1421832E+00
          2   -1    0    0  501    0  0.00000000000E+00  0.00000000000E+00  0.10015730660E+04  0.10015730660E+04  0.00000000000E+00 0. -1.
         -2   -1    0    0    0  501 -0.00000000000E+00 -0.00000000000E+00 -0.21331992964E+01  0.21331992964E+01  0.00000000000E+00 0. -1.
          2    1    1    2  502    0  0.17552996182E+01  0.29692407348E+02  0.88386310715E+03  0.88436345035E+03  0.00000000000E+00 0. -1.
         -2    1    1    2    0  502 -0.17552996182E+01 -0.29692407348E+02  0.11557675955E+03  0.11934281495E+03  0.00000000000E+00 0. -1.
</event>
<event>
 4    1  0.5573045E+003  0.2789582E+02  0.7546771E-02  0.1438811E+00
          2   -1    0    0  501    0  0.00000000000E+00  0.00000000000E+00  0.33395973325E+03  0.33395973325E+03  0.00000000000E+00 0.  1.
         -2   -1    0    0    0  501 -0.00000000000E+00 -0.00000000000E+00 -0.29987682464E+01  0.29987682464E+01  0.00000000000E+00 0.  1.
          2    1    1    2  502    0 -0.46085921105E+01  0.27512487287E+02  0.85926070172E+02  0.90340830266E+02  0.00000000000E+00 0.  1.
         -2    1    1    2    0  502  0.46085921105E+01 -0.27512487287E+02  0.24503489483E+03  0.24661767123E+03  0.00000000000E+00 0.  1.
</event>
<event>
 4    1  0.5573045E+003  0.2663998E+02  0.7546771E-02  0.1451258E+00
          2   -1    0    0  501    0  0.00000000000E+00  0.00000000000E+00  0.10336203677E+04  0.10336203677E+04  0.00000000000E+00 0. -1.
         -2   -1    0    0    0  501 -0.00000000000E+00 -0.00000000000E+00 -0.35626641423E+01  0.35626641423E+01  0.00000000000E+00 0. -1.
          2    1    1    2  502    0 -0.18034283176E+02 -0.19607480811E+02  0.98097624870E+03  0.98133790775E+03  0.00000000000E+00 0. -1.
         -2    1    1    2    0  502  0.18034283176E+02  0.19607480811E+02  0.49081454818E+02  0.55845124053E+02  0.00000000000E+00 0. -1.
</event>
<event>
 4    1  0.5573045E+003  0.2050444E+02  0.7546771E-02  0.1526459E+00
          2   -1    0    0  501    0  0.00000000000E+00  0.00000000000E+00  0.32993122564E+02  0.32993122564E+02  0.00000000000E+00 0.  1.
         -2   -1    0    0    0  501 -0.00000000000E+00 -0.00000000000E+00 -0.14343839240E+03  0.14343839240E+03  0.00000000000E+00 0.  1.
          2    1    1    2  502    0 -0.39540819560E+01 -0.20119570579E+02  0.28983469285E+02  0.35503146005E+02  0.00000000000E+00 0.  1.
         -2    1    1    2    0  502  0.39540819560E+01  0.20119570579E+02 -0.13942873912E+03  0.14092836896E+03  0.00000000000E+00 0.  1.
</event>
<event>
 4    1  0.5573045E+003  0.2187002E+02  0.7546771E-02  0.1507197E+00
          2   -1    0    0  501    0  0.00000000000E+00  0.00000000000E+00  0.78511265031E+03  0.78511265031E+03  0.00000000000E+00 0. -1.
         -2   -1    0    0    0  501 -0.00000000000E+00 -0.00000000000E+00 -0.46004308674E+01  0.46004308674E+01  0.00000000000E+00 0. -1.
          2    1    1    2  502    0  0.21835922963E+02 -0.12207906076E+01  0.75804025667E+03  0.75835567420E+03  0.00000000000E+00 0. -1.
         -2    1    1    2    0  502 -0.21835922963E+02  0.12207906076E+01  0.22471962771E+02  0.31357406974E+02  0.00000000000E+00 0. -1.
</event>
<event>
 4    1  0.5573045E+003  0.2424720E+02  0.7546771E-02  0.1477404E+00
          2   -1    0    0  501    0  0.00000000000E+00  0.00000000000E+00  0.48319211105E+03  0.48319211105E+03  0.00000000000E+00 0. -1.
         -2   -1    0    0    0  501 -0.00000000000E+00 -0.00000000000E+00 -0.63377635786E+02  0.63377635786E+02  0.00000000000E+00 0.  1.
          2    1    1    2  502    0 -0.10881737608E+02 -0.21668279791E+02  0.48055606842E+03  0.48116739442E+03  0.00000000000E+00 0. -1.
         -2    1    1    2    0  502  0.10881737608E+02  0.21668279791E+02 -0.60741593153E+02  0.65402352414E+02  0.00000000000E+00 0.  1.
</event>
<event>
 4    1  0.5573045E+003  0.2014098E+02  0.7546771E-02  0.1531891E+00
          2   -1    0    0  501    0  0.00000000000E+00  0.00000000000E+00  0.48646429924E+03  0.48646429924E+03  0.00000000000E+00 0. -1.
         -2   -1    0    0    0  501 -0.00000000000E+00 -0.00000000000E+00 -0.24342580351E+01  0.24342580351E+01  0.00000000000E+00 0.  1.
          2    1    1    2  502    0  0.91734626182E+01  0.17930605339E+02  0.44022021083E+03  0.44068071554E+03  0.00000000000E+00 0. -1.
         -2    1    1    2    0  502 -0.91734626182E+01 -0.17930605339E+02  0.43809830371E+02  0.48217841732E+02  0.00000000000E+00 0.  1.
</event>
<event>
 4    1  0.5573045E+003  0.2031677E+02  0.7546771E-02  0.1529247E+00
          2   -1    0    0  501    0  0.00000000000E+00  0.00000000000E+00  0.34765193126E+03  0.34765193126E+03  0.00000000000E+00 0.  1.
         -2   -1    0    0    0  501 -0.00000000000E+00 -0.00000000000E+00 -0.35814051380E+01  0.35814051380E+01  0.00000000000E+00 0. -1.
          2    1    1    2  502    0  0.13240864457E+00 -0.20316339398E+02  0.31562042504E+03  0.31627365348E+03  0.00000000000E+00 0.  1.
         -2    1    1    2    0  502 -0.13240864457E+00  0.20316339398E+02  0.28450101075E+02  0.34959682918E+02  0.00000000000E+00 0. -1.
</event>
<event>
 4    1  0.5573045E+003  0.2434588E+02  0.7546771E-02  0.1476256E+00
          2   -1    0    0  501    0  0.00000000000E+00  0.00000000000E+00  0.11269950118E+04  0.11269950118E+04  0.00000000000E+00 0.  1.
         -2   -1    0    0    0  501 -0.00000000000E+00 -0.00000000000E+00 -0.43098280251E+01  0.43098280251E+01  0.00000000000E+00 0. -1.
          2    1    1    2  502    0 -0.71396922273E+01  0.23275455318E+02  0.10913589975E+04  0.10916305159E+04  0.00000000000E+00 0.  1.
         -2    1    1    2    0  502  0.71396922273E+01 -0.23275455318E+02  0.31326186300E+02  0.39674323856E+02  0.00000000000E+00 0. -1.
</event>
<event>
 4    1  0.5573045E+003  0.5400950E+02  0.7546771E-02  0.1281666E+00
          2   -1    0    0  501    0  0.00000000000E+00  0.00000000000E+00  0.64625673216E+01  0.64625673216E+01  0.00000000000E+00 0. -1.
         -2   -1    0    0    0  501 -0.00000000000E+00 -0.00000000000E+00 -0.58951034596E+03  0.58951034596E+03  0.00000000000E+00 0. -1.
          2    1    1    2  502    0  0.29938221242E+02 -0.44952515074E+02 -0.14727681274E+03  0.15686773178E+03  0.00000000000E+00 0. -1.
         -2    1    1    2    0  502 -0.29938221242E+02  0.44952515074E+02 -0.43577096589E+03  0.43910518150E+03  0.00000000000E+00 0. -1.
</event>
<event>
 4    1  0.5573045E+003  0.2079958E+02  0.7546771E-02  0.1522146E+00
          2   -1    0    0  501    0  0.00000000000E+00  0.00000000000E+00  0.19657372679E+02  0.19657372679E+02  0.00000000000E+00 0. -1.
         -2   -1    0    0    0  501 -0.00000000000E+00 -0.00000000000E+00 -0.28208408618E+02  0.28208408618E+02  0.00000000000E+00 0. -1.
          2    1    1    2  502    0 -0.20077329692E+02 -0.54335388893E+01  0.69449398415E+01  0.21928399436E+02  0.00000000000E+00 0. -1.
         -2    1    1    2    0  502  0.20077329692E+02  0.54335388893E+01 -0.15495975781E+02  0.25937381861E+02  0.00000000000E+00 0. -1.
</event>
<event>
 4    1  0.5573045E+003  0.4860801E+02  0.7546771E-02  0.1304323E+00
          2   -1    0    0  501    0  0.00000000000E+00  0.00000000000E+00  0.11009615308E+04  0.11009615308E+04  0.00000000000E+00 0.  1.
         -2   -1    0    0    0  501 -0.00000000000E+00 -0.00000000000E+00 -0.36961371270E+03  0.36961371270E+03  0.00000000000E+00 0. -1.
          2    1    1    2  502    0  0.24586498943E+02 -0.41931408302E+02  0.10988237924E+04  0.10998983888E+04  0.00000000000E+00 0.  1.
         -2    1    1    2    0  502 -0.24586498943E+02  0.41931408302E+02 -0.36747597430E+03  0.37067685471E+03  0.00000000000E+00 0. -1.
</event>
<event>
 4    1  0.5573045E+003  0.2081036E+02  0.7546771E-02  0.1521990E+00
          2   -1    0    0  501    0  0.00000000000E+00  0.00000000000E+00  0.48932679524E+03  0.48932679524E+03  0.00000000000E+00 0.  1.
         -2   -1    0    0    0  501 -0.00000000000E+00 -0.00000000000E+00 -0.97361488464E+02  0.97361488464E+02  0.00000000000E+00 0.  1.
          2    1    1    2  502    0  0.64557041694E+01  0.19783699635E+02  0.48799047499E+03  0.48843400227E+03  0.00000000000E+00 0.  1.
         -2    1    1    2    0  502 -0.64557041694E+01 -0.19783699635E+02 -0.96025168221E+02  0.98254281431E+02  0.00000000000E+00 0.  1.
</event>
<event>
 4    1  0.5573045E+003  0.3322348E+02  0.7546771E-02  0.1393502E+00
          2   -1    0    0  501    0  0.00000000000E+00  0.00000000000E+00  0.13408999266E+04  0.13408999266E+04  0.00000000000E+00 0. -1.
         -2   -1    0    0    0  501 -0.00000000000E+00 -0.00000000000E+00 -0.51955949496E+02  0.51955949496E+02  0.00000000000E+00 0. -1.
          2    1    1    2  502    0  0.27827605060E+02  0.18150037027E+02  0.13353608773E+04  0.13357741096E+04  0.00000000000E+00 0. -1.
         -2    1    1    2    0  502 -0.27827605060E+02 -0.18150037027E+02 -0.46416900132E+02  0.57081766488E+02  0.00000000000E+00 0. -1.
</event>
<event>
 4    1  0.5573045E+003  0.7701769E+02  0.7546771E-02  0.1210946E+00
          2   -1    0    0  501    0  0.00000000000E+00  0.00000000000E+00  0.36735105958E+03  0.36735105958E+03  0.00000000000E+00 0.  1.
         -2   -1    0    0    0  501 -0.00000000000E+00 -0.00000000000E+00 -0.61818633068E+02  0.61818633068E+02  0.00000000000E+00 0.  1.
          2    1    1    2  502    0  0.94469867325E+01  0.76436105647E+02  0.33720881761E+03  0.34589233944E+03  0.00000000000E+00 0.  1.
         -2    1    1    2    0  502 -0.94469867325E+01 -0.76436105647E+02 -0.31676391102E+02  0.83277353212E+02  0.00000000000E+00 0.  1.
</event>
<event>
 4    1  0.5573045E+003  0.2486161E+02  0.7546771E-02  0.1470358E+00
          2   -1    0    0  501    0  0.00000000000E+00  0.00000000000E+00  0.31151780772E+03  0.31151780772E+03  0.00000000000E+00 0.  1.
         -2   -1    0    0    0  501 -0.00000000000E+00 -0.00000000000E+00 -0.15357017163E+02  0.15357017163E+02  0.00000000000E+00 0.  1.
          2    1    1    2  502    0 -0.21852660254E+02  0.11855831462E+02  0.30059457850E+03  0.30162095438E+03  0.00000000000E+00 0.  1.
         -2    1    1    2    0  502  0.21852660254E+02 -0.11855831462E+02 -0.44337879396E+01  0.25253870502E+02  0.00000000000E+00 0.  1.
</event>
<event>
 4    1  0.5573045E+003  0.2597606E+02  0.7546771E-02  0.1458174E+00
          2   -1    0    0  501    0  0.00000000000E+00  0.00000000000E+00  0.31434571825E+04  0.31434571825E+04  0.00000000000E+00 0.  1.
         -2   -1    0    0    0  501 -0.00000000000E+00 -0.00000000000E+00 -0.21738257398E+00  0.21738257398E+00  0.00000000000E+00 0.  1.
          2    1    1    2  502    0 -0.13491297755E+02  0.22197765755E+02  0.17477187283E+04  0.17479117567E+04  0.00000000000E+00 0.  1.
         -2    1    1    2    0  502  0.13491297755E+02 -0.22197765755E+02  0.13955210716E+04  0.13957628083E+04  0.00000000000E+00 0.  1.
</event>
<event>
 4    1  0.5573045E+003  0.2025094E+02  0.7546771E-02  0.1530234E+00
          2   -1    0    0  501    0  0.00000000000E+00  0.00000000000E+00  0.90043826453E+03  0.90043826453E+03  0.00000000000E+00 0.  1.
         -2   -1    0    0    0  501 -0.00000000000E+00 -0.00000000000E+00 -0.62517054776E+01  0.62517054776E+01  0.00000000000E+00 0.  1.
          2    1    1    2  502    0  0.13319319851E+02  0.15254386625E+02  0.88361261721E+03  0.88384464579E+03  0.00000000000E+00 0.  1.
         -2    1    1    2    0  502 -0.13319319851E+02 -0.15254386625E+02  0.10573941839E+02  0.22845324218E+02  0.00000000000E+00 0.  1.
</event>
<event>
 4    1  0.5573045E+003  0.2149720E+02  0.7546771E-02  0.1512283E+00
          2   -1    0    0  501    0  0.00000000000E+00  0.00000000000E+00  0.55898047808E+02  0.55898047808E+02  0.00000000000E+00 0. -1.
         -2   -1    0    0    0  501 -0.00000000000E+00 -0.00000000000E+00 -0.19045866132E+03  0.19045866132E+03  0.00000000000E+00 0. -1.
          2    1    1    2  502    0 -0.16535700480E+02  0.13736820014E+02  0.53194946126E+02  0.57374488301E+02  0.00000000000E+00 0. -1.
         -2    1    1    2    0  502  0.16535700480E+02 -0.13736820014E+02 -0.18775555963E+03  0.18898222082E+03  0.00000000000E+00 0. -1.
</event>
<event>
 4    1  0.5573045E+003  0.2106825E+02  0.7546771E-02  0.1518293E+00
          2   -1    0    0  501    0  0.00000000000E+00  0.00000000000E+00  0.11619212516E+02  0.11619212516E+02  0.00000000000E+00 0.  1.
         -2   -1    0    0    0  501 -0.00000000000E+00 -0.00000000000E+00 -0.47668210750E+02  0.47668210750E+02  0.00000000000E+00 0.  1.
          2    1    1    2  502    0  0.21013998640E+02  0.15109389423E+01 -0.48140298660E+01  0.21611246121E+02  0.00000000000E+00 0.  1.
         -2    1    1    2    0  502 -0.21013998640E+02 -0.15109389423E+01 -0.31234968368E+02  0.37676177145E+02  0.00000000000E+00 0.  1.
</event>
<event>
 4    1  0.5573045E+003  0.5048580E+02  0.7546771E-02  0.1296080E+00
          2   -1    0    0  501    0  0.00000000000E+00  0.00000000000E+00  0.50004418786E+03  0.50004418786E+03  0.00000000000E+00 0. -1.
         -2   -1    0    0    0  501 -0.00000000000E+00 -0.00000000000E+00 -0.47169191525E+02  0.47169191525E+02  0.00000000000E+00 0.  1.
          2    1    1    2  502    0  0.31867852471E+02  0.39156809998E+02  0.48483846130E+03  0.48745989512E+03  0.00000000000E+00 0. -1.
         -2    1    1    2    0  502 -0.31867852471E+02 -0.39156809998E+02 -0.31963464962E+02  0.59753484272E+02  0.00000000000E+00 0.  1.
</event>
<event>
 4    1  0.5573045E+003  0.2258340E+02  0.7546771E-02  0.1497797E+00
          2   -1    0    0  501    0  0.00000000000E+00  0.00000000000E+00  0.41375449253E+03  0.41375449253E+03  0.00000000000E+00 0.  1.
         -2   -1    0    0    0  501 -0.00000000000E+00 -0.00000000000E+00 -0.17747285722E+02  0.17747285722E+02  0.00000000000E+00 0.  1.
          2    1    1    2  502    0  0.22174269676E+02 -0.42792008765E+01  0.40612717562E+03  0.40675458519E+03  0.00000000000E+00 0.  1.
         -2    1    1    2    0  502 -0.22174269676E+02  0.42792008765E+01 -0.10119968811E+02  0.24747193064E+02  0.00000000000E+00 0.  1.
</event>
<event>
 4    1  0.5573045E+003  0.4159523E+02  0.7546771E-02  0.1339383E+00
          2   -1    0    0  501    0  0.00000000000E+00  0.00000000000E+00  0.10193884852E+04  0.10193884852E+04  0.00000000000E+00 0. -1.
         -2   -1    0    0    0  501 -0.00000000000E+00 -0.00000000000E+00 -0.12499680319E+02  0.12499680319E+02  0.00000000000E+00 0.  1.
          2    1    1    2  502    0  0.39188194727E+02  0.13944477036E+02  0.98308264462E+03  0.98396221940E+03  0.00000000000E+00 0. -1.
         -2    1    1    2    0  502 -0.39188194727E+02 -0.13944477036E+02  0.23806160267E+02  0.47925946130E+02  0.00000000000E+00 0.  1.
</event>
<event>
 4    1  0.5573045E+003  0.2525064E+02  0.7546771E-02  0.1466019E+00
          2   -1    0    0  501    0  0.00000000000E+00  0.00000000000E+00  0.84700624407E+02  0.84700624407E+02  0.00000000000E+00 0. -1.
         -2   -1    0    0    0  501 -0.00000000000E+00 -0.00000000000E+00 -0.17847873356E+02  0.17847873356E+02  0.00000000000E+00 0. -1.
          2    1    1    2  502    0 -0.14372397800E+02 -0.20761243625E+02  0.72416176206E+02  0.76692226670E+02  0.00000000000E+00 0. -1.
         -2    1    1    2    0  502  0.14372397800E+02  0.20761243625E+02 -0.55634251553E+01  0.25856271093E+02  0.00000000000E+00 0. -1.
</event>
<event>
 4    1  0.5573045E+003  0.2403326E+02  0.7546771E-02  0.1479916E+00
          2   -1    0    0  501    0  0.00000000000E+00  0.00000000000E+00  0.58006054906E+01  0.58006054906E+01  0.00000000000E+00 0.  1.
         -2   -1    0    0    0  501 -0.00000000000E+00 -0.00000000000E+00 -0.20803637524E+03  0.20803637524E+03  0.00000000000E+00 0. -1.
          2    1    1    2  502    0 -0.18836556984E+02  0.14925873339E+02 -0.23917414810E+02  0.33906346089E+02  0.00000000000E+00 0.  1.
         -2    1    1    2    0  502  0.18836556984E+02 -0.14925873339E+02 -0.17831835494E+03  0.17993063464E+03  0.00000000000E+00 0. -1.
</event>
<event>
 4    1  0.5573045E+003  0.3312722E+02  0.7546771E-02  0.1394230E+00
          2   -1    0    0  501    0  0.00000000000E+00  0.00000000000E+00  0.11716277729E+04  0.11716277729E+04  0.00000000000E+00 0. -1.
         -2   -1    0    0    0  501 -0.00000000000E+00 -0.00000000000E+00 -0.10774380815E+02  0.10774380815E+02  0.00000000000E+00 0. -1.
          2    1    1    2  502    0  0.21186827439E+02 -0.25466277633E+02  0.11453459492E+04  0.11458249239E+04  0.00000000000E+00 0. -1.
         -2    1    1    2    0  502 -0.21186827439E+02  0.25466277633E+02  0.15507442876E+02  0.36577229774E+02  0.00000000000E+00 0. -1.
</event>
<event>
 4    1  0.5573045E+003  0.2385599E+02  0.7546771E-02  0.1482020E+00
          2   -1    0    0  501    0  0.00000000000E+00  0.00000000000E+00  0.16021358127E+04  0.16021358127E+04  0.00000000000E+00 0. -1.
         -2   -1    0    0    0  501 -0.00000000000E+00 -0.00000000000E+00 -0.46295503440E+00  0.46295503440E+00  0.00000000000E+00 0. -1.
          2    1    1    2  502    0  0.89103024486E+01  0.22129501222E+02  0.11873874824E+04  0.11876271055E+04  0.00000000000E+00 0. -1.
         -2    1    1    2    0  502 -0.89103024486E+01 -0.22129501222E+02  0.41428537530E+03  0.41497166228E+03  0.00000000000E+00 0. -1.
</event>
<event>
 4    1  0.5573045E+003  0.2567687E+02  0.7546771E-02  0.1461372E+00
          2   -1    0    0  501    0  0.00000000000E+00  0.00000000000E+00  0.24872660908E+02  0.24872660908E+02  0.00000000000E+00 0. -1.
         -2   -1    0    0    0  501 -0.00000000000E+00 -0.00000000000E+00 -0.39471618803E+03  0.39471618803E+03  0.00000000000E+00 0. -1.
          2    1    1    2  502    0 -0.18694646012E+02 -0.17601467518E+02  0.17705901777E+02  0.31189748413E+02  0.00000000000E+00 0. -1.
         -2    1    1    2    0  502  0.18694646012E+02  0.17601467518E+02 -0.38754942890E+03  0.38839910053E+03  0.00000000000E+00 0. -1.
</event>
<event>
 4    1  0.5573045E+003  0.2230508E+02  0.7546771E-02  0.1501414E+00
          2   -1    0    0  501    0  0.00000000000E+00  0.00000000000E+00  0.12978063527E+04  0.12978063527E+04  0.00000000000E+00 0.  1.
         -2   -1    0    0    0  501 -0.00000000000E+00 -0.00000000000E+00 -0.16023557732E+01  0.16023557732E+01  0.00000000000E+00 0. -1.
          2    1    1    2  502    0  0.18754385961E+02 -0.12074340507E+02  0.12147832226E+04  0.12149879813E+04  0.00000000000E+00 0.  1.
         -2    1    1    2    0  502 -0.18754385961E+02  0.12074340507E+02  0.81420774313E+02  0.84420727201E+02  0.00000000000E+00 0. -1.
</event>
<event>
 4    1  0.5573045E+003  0.2054129E+02  0.7546771E-02  0.1525916E+00
          2   -1    0    0  501    0  0.00000000000E+00  0.00000000000E+00  0.15018959614E+04  0.15018959614E+04  0.00000000000E+00 0.  1.
         -2   -1    0    0    0  501 -0.00000000000E+00 -0.00000000000E+00 -0.19394532926E+02  0.19394532926E+02  0.00000000000E+00 0. -1.
          2    1    1    2  502    0  0.14484478295E+02 -0.14565184599E+02  0.14963666646E+04  0.14965076477E+04  0.00000000000E+00 0.  1.
         -2    1    1    2    0  502 -0.14484478295E+02  0.14565184599E+02 -0.13865236125E+02  0.24782846622E+02  0.00000000000E+00 0. -1.
</event>
<event>
 4    1  0.8738289E+003  0.2093393E+02  0.7546771E-02  0.1520210E+00
          2   -1    0    0  501    0  0.00000000000E+00  0.00000000000E+00  0.91867306410E+03  0.91867306410E+03  0.00000000000E+00 0.  1.
         -2   -1    0    0    0  501 -0.00000000000E+00 -0.00000000000E+00 -0.28437778147E+03  0.28437778147E+03  0.00000000000E+00 0. -1.
          2    1    1    2  502    0 -0.58375941275E+01  0.20103529123E+02  0.91816834344E+03  0.91840695570E+03  0.00000000000E+00 0.  1.
         -2    1    1    2    0  502  0.58375941275E+01 -0.20103529123E+02 -0.28387306080E+03  0.28464388987E+03  0.00000000000E+00 0. -1.
</event>
<event>
 4    1  0.5573045E+003  0.2047581E+02  0.7546771E-02  0.1526882E+00
          2   -1    0    0  501    0  0.00000000000E+00  0.00000000000E+00  0.60331483099E+03  0.60331483099E+03  0.00000000000E+00 0.  1.
         -2   -1    0    0    0  501 -0.00000000000E+00 -0.00000000000E+00 -0.17831797345E+01  0.17831797345E+01  0.00000000000E+00 0.  1.
          2    1    1    2  502    0  0.99224806362E+01 -0.17910978107E+02  0.53712005940E+03  0.53751020174E+03  0.00000000000E+00 0.  1.
         -2    1    1    2    0  502 -0.99224806362E+01  0.17910978107E+02  0.64411591856E+02  0.67587808990E+02  0.00000000000E+00 0.  1.
</event>
<event>
 4    1  0.5573045E+003  0.3854966E+02  0.7546771E-02  0.1357201E+00
          2   -1    0    0  501    0  0.00000000000E+00  0.00000000000E+00  0.20810789451E+03  0.20810789451E+03  0.00000000000E+00 0. -1.
         -2   -1    0    0    0  501 -0.00000000000E+00 -0.00000000000E+00 -0.25010712236E+02  0.25010712236E+02  0.00000000000E+00 0.  1.
          2    1    1    2  502    0 -0.38536295450E+02  0.10150871506E+01  0.19007303177E+03  0.19394286240E+03  0.00000000000E+00 0. -1.
         -2    1    1    2    0  502  0.38536295450E+02 -0.10150871506E+01 -0.69758494979E+01  0.39175744347E+02  0.00000000000E+00 0.  1.
</event>
<event>
 4    1  0.5573045E+003  0.3376006E+02  0.7546771E-02  0.1389496E+00
          2   -1    0    0  501    0  0.00000000000E+00  0.00000000000E+00  0.44813855070E+02  0.44813855070E+02  0.00000000000E+00 0.  1.
         -2   -1    0    0    0  501 -0.00000000000E+00 -0.00000000000E+00 -0.63099193014E+02  0.63099193014E+02  0.00000000000E+00 0.  1.
          2    1    1    2  502    0 -0.26166648977E+02 -0.21331854154E+02  0.32545144405E+02  0.46892728057E+02  0.00000000000E+00 0.  1.
         -2    1    1    2    0  502  0.26166648977E+02  0.21331854154E+02 -0.50830482348E+02  0.61020320026E+02  0.00000000000E+00 0.  1.
</event>
<event>
 4    1  0.5573045E+003  0.2843137E+02  0.7546771E-02  0.1433736E+00
          2   -1    0    0  501    0  0.00000000000E+00  0.00000000000E+00  0.56784276491E+03  0.56784276491E+03  0.00000000000E+00 0.  1.
         -2   -1    0    0    0  501 -0.00000000000E+00 -0.00000000000E+00 -0.21461264146E+02  0.21461264146E+02  0.00000000000E+00 0.  1.
          2    1    1    2  502    0 -0.23951239653E+02  0.15319297589E+02  0.55790292621E+03  0.55862690397E+03  0.00000000000E+00 0.  1.
         -2    1    1    2    0  502  0.23951239653E+02 -0.15319297589E+02 -0.11521425447E+02  0.30677125091E+02  0.00000000000E+00 0.  1.
</event>
<event>
 4    1  0.5573045E+003  0.2273364E+02  0.7546771E-02  0.1495870E+00
          2   -1    0    0  501    0  0.00000000000E+00  0.00000000000E+00  0.31235655706E+03  0.31235655706E+03  0.00000000000E+00 0.  1.
         -2   -1    0    0    0  501 -0.00000000000E+00 -0.00000000000E+00 -0.17065149142E+01  0.17065149142E+01  0.00000000000E+00 0. -1.
          2    1    1    2  502    0 -0.21337946203E+01 -0.22633264165E+02  0.12792963547E+03  0.12993386533E+03  0.00000000000E+00 0.  1.
         -2    1    1    2    0  502  0.21337946203E+01  0.22633264165E+02  0.18272040667E+03  0.18412920664E+03  0.00000000000E+00 0. -1.
</event>
<event>
 4    1  0.5573045E+003  0.2671300E+02  0.7546771E-02  0.1450513E+00
          2   -1    0    0  501    0  0.00000000000E+00  0.00000000000E+00  0.37312987727E+03  0.37312987727E+03  0.00000000000E+00 0.  1.
         -2   -1    0    0    0  501 -0.00000000000E+00 -0.00000000000E+00 -0.19485394845E+01  0.19485394845E+01  0.00000000000E+00 0. -1.
          2    1    1    2  502    0 -0.20310738829E+02 -0.17351035888E+02  0.21112071212E+03  0.21280399348E+03  0.00000000000E+00 0.  1.
         -2    1    1    2    0  502  0.20310738829E+02  0.17351035888E+02  0.16006062567E+03  0.16227442327E+03  0.00000000000E+00 0. -1.
</event>
<event>
 4    1  0.5573045E+003  0.2888813E+02  0.7546771E-02  0.1429511E+00
          2   -1    0    0  501    0  0.00000000000E+00  0.00000000000E+00  0.50417698066E+01  0.50417698066E+01  0.00000000000E+00 0.  1.
         -2   -1    0    0    0  501 -0.00000000000E+00 -0.00000000000E+00 -0.34505303076E+03  0.34505303076E+03  0.00000000000E+00 0. -1.
          2    1    1    2  502    0 -0.21244273256E+02  0.19575621265E+02 -0.43740788678E+02  0.52419277831E+02  0.00000000000E+00 0.  1.
         -2    1    1    2    0  502  0.21244273256E+02 -0.19575621265E+02 -0.29627047228E+03  0.29767552274E+03  0.00000000000E+00 0. -1.
</event>
<event>
 4    1  0.5573045E+003  0.5450254E+02  0.7546771E-02  0.1279749E+00
          2   -1    0    0  501    0  0.00000000000E+00  0.00000000000E+00  0.37524281385E+03  0.37524281385E+03  0.00000000000E+00 0.  1.
         -2   -1    0    0    0  501 -0.00000000000E+00 -0.00000000000E+00 -0.10858764584E+02  0.10858764584E+02  0.00000000000E+00 0.  1.
          2    1    1    2  502    0  0.33985272762E+02  0.42609008167E+02  0.28268567824E+03  0.28789185300E+03  0.00000000000E+00 0.  1.
         -2    1    1    2    0  502 -0.33985272762E+02 -0.42609008167E+02  0.81698371029E+02  0.98209725437E+02  0.00000000000E+00 0.  1.
</event>
<event>
 4    1  0.5573045E+003  0.2529849E+02  0.7546771E-02  0.1465492E+00
          2   -1    0    0  501    0  0.00000000000E+00  0.00000000000E+00  0.11564268949E+04  0.11564268949E+04  0.00000000000E+00 0. -1.
         -2   -1    0    0    0  501 -0.00000000000E+00 -0.00000000000E+00 -0.68745430981E+00  0.68745430981E+00  0.00000000000E+00 0. -1.
          2    1    1    2  502    0 -0.13145556307E+02  0.21614990170E+02  0.83331576384E+03  0.83369969157E+03  0.00000000000E+00 0. -1.
         -2    1    1    2    0  502  0.13145556307E+02 -0.21614990170E+02  0.32242367677E+03  0.32341465767E+03  0.00000000000E+00 0. -1.
</event>
<event>
 4    1  0.5573045E+003  0.3033252E+02  0.7546771E-02  0.1416728E+00
          2   -1    0    0  501    0  0.00000000000E+00  0.00000000000E+00  0.39447987524E+03  0.39447987524E+03  0.00000000000E+00 0.  1.
         -2   -1    0    0    0  501 -0.00000000000E+00 -0.00000000000E+00 -0.81133036683E+02  0.81133036683E+02  0.00000000000E+00 0.  1.
          2    1    1    2  502    0  0.34327995712E+01 -0.30137647964E+02  0.39103682389E+03  0.39221149852E+03  0.00000000000E+00 0.  1.
         -2    1    1    2    0  502 -0.34327995712E+01  0.30137647964E+02 -0.77689985326E+02  0.83401413403E+02  0.00000000000E+00 0.  1.
</event>
<event>
 4    1  0.5573045E+003  0.3516693E+02  0.7546771E-02  0.1379393E+00
          2   -1    0    0  501    0  0.00000000000E+00  0.00000000000E+00  0.13035111161E+04  0.13035111161E+04  0.00000000000E+00 0. -1.
         -2   -1    0    0    0  501 -0.00000000000E+00 -0.00000000000E+00 -0.12597256055E+03  0.12597256055E+03  0.00000000000E+00 0.  1.
          2    1    1    2  502    0 -0.30942534925E+02 -0.16711458579E+02  0.13008145095E+04  0.13012897838E+04  0.00000000000E+00 0. -1.
         -2    1    1    2    0  502  0.30942534925E+02  0.16711458579E+02 -0.12327595400E+03  0.12819389279E+03  0.00000000000E+00 0.  1.
</event>
<event>
 4    1  0.5573045E+003  0.3243603E+02  0.7546771E-02  0.1399544E+00
          2   -1    0    0  501    0  0.00000000000E+00  0.00000000000E+00  0.11900803367E+03  0.11900803367E+03  0.00000000000E+00 0. -1.
         -2   -1    0    0    0  501 -0.00000000000E+00 -0.00000000000E+00 -0.93099931683E+01  0.93099931683E+01  0.00000000000E+00 0. -1.
          2    1    1    2  502    0 -0.10306077381E+02 -0.30755153834E+02  0.40441762567E+02  0.51842365666E+02  0.00000000000E+00 0. -1.
         -2    1    1    2    0  502  0.10306077381E+02  0.30755153834E+02  0.69256277938E+02  0.76475661175E+02  0.00000000000E+00 0. -1.
</event>
<event>
 4    1  0.5573045E+003  0.3038725E+02  0.7546771E-02  0.1416260E+00
          2   -1    0    0  501    0  0.00000000000E+00  0.00000000000E+00  0.38613894788E+03  0.38613894788E+03  0.00000000000E+00 0. -1.
         -2   -1    0    0    0  501 -0.00000000000E+00 -0.00000000000E+00 -0.25950523143E+02  0.25950523143E+02  0.00000000000E+00 0.  1.
          2    1    1    2  502    0  0.76836923801E+01  0.29399761902E+02  0.37641608266E+03  0.37764063925E+03  0.00000000000E+00 0. -1.
         -2    1    1    2    0  502 -0.76836923801E+01 -0.29399761902E+02 -0.16227657927E+02  0.34448831769E+02  0.00000000000E+00 0.  1.
</event>
<event>
 4    1  0.5573045E+003  0.2422715E+02  0.7546771E-02  0.1477638E+00
          2   -1    0    0  501    0  0.00000000000E+00  0.00000000000E+00  0.94012512780E+02  0.94012512780E+02  0.00000000000E+00 0. -1.
         -2   -1    0    0    0  501 -0.00000000000E+00 -0.00000000000E+00 -0.34171543997E+02  0.34171543997E+02  0.00000000000E+00 0. -1.
          2    1    1    2  502    0  0.23104984771E+02 -0.72879519173E+01  0.87862421970E+02  0.91141427238E+02  0.00000000000E+00 0. -1.
         -2    1    1    2    0  502 -0.23104984771E+02  0.72879519173E+01 -0.28021453188E+02  0.37042629539E+02  0.00000000000E+00 0. -1.
</event>
<event>
 4    1  0.5573045E+003  0.2536217E+02  0.7546771E-02  0.1464792E+00
          2   -1    0    0  501    0  0.00000000000E+00  0.00000000000E+00  0.95207462099E+02  0.95207462099E+02  0.00000000000E+00 0.  1.
         -2   -1    0    0    0  501 -0.00000000000E+00 -0.00000000000E+00 -0.78611575720E+01  0.78611575720E+01  0.00000000000E+00 0.  1.
          2    1    1    2  502    0 -0.14011524830E+01  0.25323434254E+02  0.62994094183E+02  0.67907992554E+02  0.00000000000E+00 0.  1.
         -2    1    1    2    0  502  0.14011524830E+01 -0.25323434254E+02  0.24352210344E+02  0.35160627118E+02  0.00000000000E+00 0.  1.
</event>
<event>
 4    1  0.5573045E+003  0.2345772E+02  0.7546771E-02  0.1486829E+00
          2   -1    0    0  501    0  0.00000000000E+00  0.00000000000E+00  0.80646766052E+03  0.80646766052E+03  0.00000000000E+00 0. -1.
         -2   -1    0    0    0  501 -0.00000000000E+00 -0.00000000000E+00 -0.23736703362E+02  0.23736703362E+02  0.00000000000E+00 0.  1.
          2    1    1    2  502    0 -0.59735538076E+01 -0.22684382427E+02  0.80045807737E+03  0.80080172213E+03  0.00000000000E+00 0. -1.
         -2    1    1    2    0  502  0.59735538076E+01  0.22684382427E+02 -0.17727120205E+02  0.29402641751E+02  0.00000000000E+00 0.  1.
</event>
<event>
 4    1  0.5573045E+003  0.2422821E+02  0.7546771E-02  0.1477626E+00
          2   -1    0    0  501    0  0.00000000000E+00  0.00000000000E+00  0.11470666374E+03  0.11470666374E+03  0.00000000000E+00 0. -1.
         -2   -1    0    0    0  501 -0.00000000000E+00 -0.00000000000E+00 -0.10198509853E+02  0.10198509853E+02  0.00000000000E+00 0. -1.
          2    1    1    2  502    0 -0.48182423677E+01  0.23744274979E+02  0.96335850989E+02  0.99335805426E+02  0.00000000000E+00 0. -1.
         -2    1    1    2    0  502  0.48182423677E+01 -0.23744274979E+02  0.81723028970E+01  0.25569368166E+02  0.00000000000E+00 0. -1.
</event>
<event>
 4    1  0.5573045E+003  0.2878553E+02  0.7546771E-02  0.1430452E+00
          2   -1    0    0  501    0  0.00000000000E+00  0.00000000000E+00  0.77409364278E+03  0.77409364278E+03  0.00000000000E+00 0. -1.
         -2   -1    0    0    0  501 -0.00000000000E+00 -0.00000000000E+00 -0.25412195714E+01  0.25412195714E+01  0.00000000000E+00 0.  1.
          2    1    1    2  502    0  0.28720018271E+02 -0.19408806781E+01  0.68119786080E+03  0.68180578761E+03  0.00000000000E+00 0. -1.
         -2    1    1    2    0  502 -0.28720018271E+02  0.19408806781E+01  0.90354562411E+02  0.94829074738E+02  0.00000000000E+00 0.  1.
</event>
<event>
 4    1  0.5573045E+003  0.2009369E+02  0.7546771E-02  0.1532608E+00
          2   -1    0    0  501    0  0.00000000000E+00  0.00000000000E+00  0.11639821520E+02  0.11639821520E+02  0.00000000000E+00 0. -1.
         -2   -1    0    0    0  501 -0.00000000000E+00 -0.00000000000E+00 -0.49218216769E+03  0.49218216769E+03  0.00000000000E+00 0. -1.
          2    1    1    2  502    0  0.12667732728E+02  0.15597597270E+02  0.26006853579E+01  0.20261294564E+02  0.00000000000E+00 0. -1.
         -2    1    1    2    0  502 -0.12667732728E+02 -0.15597597270E+02 -0.48314303153E+03  0.48356069465E+03  0.00000000000E+00 0. -1.
</event>
<event>
 4    1  0.5573045E+003  0.2228042E+02  0.7546771E-02  0.1501737E+00
          2   -1    0    0  501    0  0.00000000000E+00  0.00000000000E+00  0.49078458525E+03  0.49078458525E+03  0.00000000000E+00 0. -1.
         -2   -1    0    0    0  501 -0.00000000000E+00 -0.00000000000E+00 -0.36554388502E+03  0.36554388502E+03  0.00000000000E+00 0.  1.
          2    1    1    2  502    0 -0.15339715070E+02  0.16158909868E+02  0.49019179979E+03  0.49069788853E+03  0.00000000000E+00 0. -1.
         -2    1    1    2    0  502  0.15339715070E+02 -0.16158909868E+02 -0.36495109957E+03  0.36563058174E+03  0.00000000000E+00 0.  1.
</event>
<event>
 4    1  0.5573045E+003  0.2206378E+02  0.7546771E-02  0.1504601E+00
          2   -1    0    0  501    0  0.00000000000E+00  0.00000000000E+00  0.15971937333E+04  0.15971937333E+04  0.00000000000E+00 0.  1.
         -2   -1    0    0    0  501 -0.00000000000E+00 -0.00000000000E+00 -0.48986305109E+02  0.48986305109E+02  0.00000000000E+00 0. -1.
          2    1    1    2  502    0 -0.18761791854E+02 -0.11610575198E+02  0.15946291197E+04  0.15947817530E+04  0.00000000000E+00 0.  1.
         -2    1    1    2    0  502  0.18761791854E+02  0.11610575198E+02 -0.46421691564E+02  0.51398285358E+02  0.00000000000E+00 0. -1.
</event>
<event>
 4    1  0.5573045E+003  0.3613912E+02  0.7546771E-02  0.1372727E+00
          2   -1    0    0  501    0  0.00000000000E+00  0.00000000000E+00  0.28514188532E+03  0.28514188532E+03  0.00000000000E+00 0.  1.
         -2   -1    0    0    0  501 -0.00000000000E+00 -0.00000000000E+00 -0.13814920979E+03  0.13814920979E+03  0.00000000000E+00 0.  1.
          2    1    1    2  502    0 -0.28137001359E+02  0.22679172362E+02  0.28160378537E+03  0.28391323964E+03  0.00000000000E+00 0.  1.
         -2    1    1    2    0  502  0.28137001359E+02 -0.22679172362E+02 -0.13461110984E+03  0.13937785548E+03  0.00000000000E+00 0.  1.
</event>
<event>
 4    1  0.5573045E+003  0.2062799E+02  0.7546771E-02  0.1524643E+00
          2   -1    0    0  501    0  0.00000000000E+00  0.00000000000E+00  0.18430376419E+03  0.18430376419E+03  0.00000000000E+00 0. -1.
         -2   -1    0    0    0  501 -0.00000000000E+00 -0.00000000000E+00 -0.12280447382E+03  0.12280447382E+03  0.00000000000E+00 0. -1.
          2    1    1    2  502    0  0.11500921339E+02 -0.17124330940E+02  0.18285348172E+03  0.18401334104E+03  0.00000000000E+00 0. -1.
         -2    1    1    2    0  502 -0.11500921339E+02  0.17124330940E+02 -0.12135419136E+03  0.12309489698E+03  0.00000000000E+00 0. -1.
</event>
<event>
 4    1  0.5573045E+003  0.6743725E+02  0.7546771E-02  0.1236462E+00
          2   -1    0    0  501    0  0.00000000000E+00  0.00000000000E+00  0.24198877042E+04  0.24198877042E+04  0.00000000000E+00 0.  1.
         -2   -1    0    0    0  501 -0.00000000000E+00 -0.00000000000E+00 -0.65535938978E+02  0.65535938978E+02  0.00000000000E+00 0. -1.
          2    1    1    2  502    0 -0.62736496275E+02 -0.24736918527E+02  0.24019398321E+04  0.24028863352E+04  0.00000000000E+00 0.  1.
         -2    1    1    2    0  502  0.62736496275E+02  0.24736918527E+02 -0.47588066830E+02  0.82537307975E+02  0.00000000000E+00 0. -1.
</event>
<event>
 4    1  0.5573045E+003  0.2478584E+02  0.7546771E-02  0.1471213E+00
          2   -1    0    0  501    0  0.00000000000E+00  0.00000000000E+00  0.71467348798E+02  0.71467348798E+02  0.00000000000E+00 0.  1.
         -2   -1    0    0    0  501 -0.00000000000E+00 -0.00000000000E+00 -0.41246237892E+02  0.41246237892E+02  0.00000000000E+00 0. -1.
          2    1    1    2  502    0  0.19708208160E+02  0.15030786770E+02  0.65251999996E+02  0.69800870505E+02  0.00000000000E+00 0.  1.
         -2    1    1    2    0  502 -0.19708208160E+02 -0.15030786770E+02 -0.35030889091E+02  0.42912716184E+02  0.00000000000E+00 0. -1.
</event>
<event>
 4    1  0.5573045E+003  0.6057149E+02  0.7546771E-02  0.1257903E+00
          2   -1    0    0  501    0  0.00000000000E+00  0.00000000000E+00  0.41278223444E+03  0.41278223444E+03  0.00000000000E+00 0. -1.
         -2   -1    0    0    0  501 -0.00000000000E+00 -0.00000000000E+00 -0.20711027887E+02  0.20711027887E+02  0.00000000000E+00 0. -1.
          2    1    1    2  502    0 -0.58859260553E+02  0.14300119641E+02  0.35979700583E+03  0.36485996132E+03  0.00000000000E+00 0. -1.
         -2    1    1    2    0  502  0.58859260553E+02 -0.14300119641E+02  0.32274200731E+02  0.68633301009E+02  0.00000000000E+00 0. -1.
</event>
<event>
 4    1  0.5573045E+003  0.2494431E+02  0.7546771E-02  0.1469427E+00
          2   -1    0    0  501    0  0.00000000000E+00  0.00000000000E+00  0.11464348116E+03  0.11464348116E+03  0.00000000000E+00 0. -1.
         -2   -1    0    0    0  501 -0.00000000000E+00 -0.00000000000E+00 -0.28596089152E+02  0.28596089152E+02  0.00000000000E+00 0.  1.
          2    1    1    2  502    0  0.19161658687E+02 -0.15970272217E+02  0.10748961839E+03  0.11034598688E+03  0.00000000000E+00 0. -1.
         -2    1    1    2    0  502 -0.19161658687E+02  0.15970272217E+02 -0.21442226388E+02  0.32893583429E+02  0.00000000000E+00 0.  1.
</event>
<event>
 4    1  0.5573045E+003  0.2371484E+02  0.7546771E-02  0.1483712E+00
          2   -1    0    0  501    0  0.00000000000E+00  0.00000000000E+00  0.70549702785E+02  0.70549702785E+02  0.00000000000E+00 0.  1.
         -2   -1    0    0    0  501 -0.00000000000E+00 -0.00000000000E+00 -0.34311948414E+02  0.34311948414E+02  0.00000000000E+00 0.  1.
          2    1    1    2  502    0  0.20754071277E+02 -0.11474408664E+02  0.64057166669E+02  0.68306032899E+02  0.00000000000E+00 0.  1.
         -2    1    1    2    0  502 -0.20754071277E+02  0.11474408664E+02 -0.27819412297E+02  0.36555618300E+02  0.00000000000E+00 0.  1.
</event>
<event>
 4    1  0.5573045E+003  0.4465062E+02  0.7546771E-02  0.1323196E+00
          2   -1    0    0  501    0  0.00000000000E+00  0.00000000000E+00  0.30700875634E+03  0.30700875634E+03  0.00000000000E+00 0. -1.
         -2   -1    0    0    0  501 -0.00000000000E+00 -0.00000000000E+00 -0.65856228856E+01  0.65856228856E+01  0.00000000000E+00 0.  1.
          2    1    1    2  502    0  0.16807268235E+02  0.41366548743E+02  0.13170420292E+03  0.13906715172E+03  0.00000000000E+00 0.  1.
         -2    1    1    2    0  502 -0.16807268235E+02 -0.41366548743E+02  0.16871893053E+03  0.17452722750E+03  0.00000000000E+00 0. -1.
</event>
<event>
 4    1  0.5573045E+003  0.2129613E+02  0.7546771E-02  0.1515079E+00
          2   -1    0    0  501    0  0.00000000000E+00  0.00000000000E+00  0.15586631965E+02  0.15586631965E+02  0.00000000000E+00 0.  1.
         -2   -1    0    0    0  501 -0.00000000000E+00 -0.00000000000E+00 -0.29876997316E+02  0.29876997316E+02  0.00000000000E+00 0.  1.
          2    1    1    2  502    0 -0.20824761570E+02  0.44557716751E+01 -0.10818053545E+02  0.23886290591E+02  0.00000000000E+00 0.  1.
         -2    1    1    2    0  502  0.20824761570E+02 -0.44557716751E+01 -0.34723118061E+01  0.21577338690E+02  0.00000000000E+00 0.  1.
</event>
<event>
 4    1  0.5573045E+003  0.2434353E+02  0.7546771E-02  0.1476283E+00
          2   -1    0    0  501    0  0.00000000000E+00  0.00000000000E+00  0.69029048776E+03  0.69029048776E+03  0.00000000000E+00 0. -1.
         -2   -1    0    0    0  501 -0.00000000000E+00 -0.00000000000E+00 -0.25167469648E+02  0.25167469648E+02  0.00000000000E+00 0. -1.
          2    1    1    2  502    0  0.18766301285E+02 -0.15505914373E+02  0.68413628719E+03  0.68456925646E+03  0.00000000000E+00 0. -1.
         -2    1    1    2    0  502 -0.18766301285E+02  0.15505914373E+02 -0.19013269083E+02  0.30888700939E+02  0.00000000000E+00 0. -1.
</event>
<event>
 4    1  0.5573045E+003  0.3462203E+02  0.7546771E-02  0.1383240E+00
          2   -1    0    0  501    0  0.00000000000E+00  0.00000000000E+00  0.42833706665E+02  0.42833706665E+02  0.00000000000E+00 0. -1.
         -2   -1    0    0    0  501 -0.00000000000E+00 -0.00000000000E+00 -0.44019991379E+03  0.44019991379E+03  0.00000000000E+00 0. -1.
          2    1    1    2  502    0  0.31336878569E+02  0.14720230924E+02  0.35030739143E+02  0.49252795269E+02  0.00000000000E+00 0. -1.
         -2    1    1    2    0  502 -0.31336878569E+02 -0.14720230924E+02 -0.43239694627E+03  0.43378082519E+03  0.00000000000E+00 0. -1.
</event>
<event>
 4    1  0.5573045E+003  0.2474040E+02  0.7546771E-02  0.1471729E+00
          2   -1    0    0  501    0  0.00000000000E+00  0.00000000000E+00  0.27192701703E+03  0.27192701703E+03  0.00000000000E+00 0.  1.
         -2   -1    0    0    0  501 -0.00000000000E+00 -0.00000000000E+00 -0.35446620908E+01  0.35446620908E+01  0.00000000000E+00 0.  1.
          2    1    1    2  502    0  0.17784781936E+02  0.17198517079E+02  0.21740250873E+03  0.21880570893E+03  0.00000000000E+00 0.  1.
         -2    1    1    2    0  502 -0.17784781936E+02 -0.17198517079E+02  0.50979846214E+02  0.56665970196E+02  0.00000000000E+00 0.  1.
</event>
<event>
 4    1  0.5573045E+003  0.3443015E+02  0.7546771E-02  0.1384614E+00
          2   -1    0    0  501    0  0.00000000000E+00  0.00000000000E+00  0.21021142030E+03  0.21021142030E+03  0.00000000000E+00 0.  1.
         -2   -1    0    0    0  501 -0.00000000000E+00 -0.00000000000E+00 -0.26410271292E+02  0.26410271292E+02  0.00000000000E+00 0. -1.
          2    1    1    2  502    0  0.13909898600E+01 -0.34402036600E+02  0.19682269092E+03  0.19981142769E+03  0.00000000000E+00 0.  1.
         -2    1    1    2    0  502 -0.13909898600E+01  0.34402036600E+02 -0.13021541908E+02  0.36810263904E+02  0.00000000000E+00 0. -1.
</event>
<event>
 4    1  0.5573045E+003  0.3485147E+02  0.7546771E-02  0.1381610E+00
          2   -1    0    0  501    0  0.00000000000E+00  0.00000000000E+00  0.11417197472E+04  0.11417197472E+04  0.00000000000E+00 0. -1.
         -2   -1    0    0    0  501 -0.00000000000E+00 -0.00000000000E+00 -0.87198147271E+01  0.87198147271E+01  0.00000000000E+00 0. -1.
          2    1    1    2  502    0 -0.16665024694E+02 -0.30608852627E+02  0.11054890727E+04  0.11060382971E+04  0.00000000000E+00 0. -1.
         -2    1    1    2    0  502  0.16665024694E+02  0.30608852627E+02  0.27510859744E+02  0.44401264746E+02  0.00000000000E+00 0. -1.
</event>
<event>
 4    1  0.5573045E+003  0.2300223E+02  0.7546771E-02  0.1492470E+00
          2   -1    0    0  501    0  0.00000000000E+00  0.00000000000E+00  0.76010967334E+03  0.76010967334E+03  0.00000000000E+00 0. -1.
         -2   -1    0    0    0  501 -0.00000000000E+00 -0.00000000000E+00 -0.11019529834E+02  0.11019529834E+02  0.00000000000E+00 0.  1.
          2    1    1    2  502    0  0.22307428997E+02 -0.56107998807E+01  0.74773326977E+03  0.74808699039E+03  0.00000000000E+00 0. -1.
         -2    1    1    2    0  502 -0.22307428997E+02  0.56107998807E+01  0.13568737328E+01  0.23042212786E+02  0.00000000000E+00 0.  1.
</event>
<event>
 4    1  0.5573045E+003  0.3030459E+02  0.7546771E-02  0.1416968E+00
          2   -1    0    0  501    0  0.00000000000E+00  0.00000000000E+00  0.62161221690E+03  0.62161221690E+03  0.00000000000E+00 0.  1.
         -2   -1    0    0    0  501 -0.00000000000E+00 -0.00000000000E+00 -0.16124004851E+03  0.16124004851E+03  0.00000000000E+00 0. -1.
          2    1    1    2  502    0  0.36694957048E+01 -0.30081605834E+02  0.61981482630E+03  0.62055522487E+03  0.00000000000E+00 0.  1.
         -2    1    1    2    0  502 -0.36694957048E+01  0.30081605834E+02 -0.15944265791E+03  0.16229704054E+03  0.00000000000E+00 0. -1.
</event>
<event>
 4    1  0.5573045E+003  0.2030303E+02  0.7546771E-02  0.1529453E+00
          2   -1    0    0  501    0  0.00000000000E+00  0.00000000000E+00  0.24542773451E+03  0.24542773451E+03  0.00000000000E+00 0. -1.
         -2   -1    0    0    0  501 -0.00000000000E+00 -0.00000000000E+00 -0.23532199902E+01  0.23532199902E+01  0.00000000000E+00 0.  1.
          2    1    1    2  502    0  0.20249648510E+02  0.14713340542E+01  0.18782355721E+03  0.18891771154E+03  0.00000000000E+00 0. -1.
         -2    1    1    2    0  502 -0.20249648510E+02 -0.14713340542E+01  0.55250957307E+02  0.58863242962E+02  0.00000000000E+00 0.  1.
</event>
<event>
 4    1  0.5573045E+003  0.2167374E+02  0.7546771E-02  0.1509859E+00
          2   -1    0    0  501    0  0.00000000000E+00  0.00000000000E+00  0.33423692613E+03  0.33423692613E+03  0.00000000000E+00 0.  1.
         -2   -1    0    0    0  501 -0.00000000000E+00 -0.00000000000E+00 -0.45533025945E+01  0.45533025945E+01  0.00000000000E+00 0.  1.
          2    1    1    2  502    0 -0.16516642217E+02 -0.14033947959E+02  0.30568805114E+03  0.30645543848E+03  0.00000000000E+00 0.  1.
         -2    1    1    2    0  502  0.16516642217E+02  0.14033947959E+02  0.23995572394E+02  0.32334790241E+02  0.00000000000E+00 0.  1.
</event>
<event>
 4    1  0.5573045E+003  0.2238202E+02  0.7546771E-02  0.1500407E+00
          2   -1    0    0  501    0  0.00000000000E+00  0.00000000000E+00  0.44051449516E+01  0.44051449516E+01  0.00000000000E+00 0. -1.
         -2   -1    0    0    0  501 -0.00000000000E+00 -0.00000000000E+00 -0.85240258032E+03  0.85240258032E+03  0.00000000000E+00 0. -1.
          2    1    1    2  502    0 -0.21721122270E+02  0.53988760097E+01 -0.25194447369E+02  0.33700373782E+02  0.00000000000E+00 0. -1.
         -2    1    1    2    0  502  0.21721122270E+02 -0.53988760097E+01 -0.82280298800E+03  0.82310735149E+03  0.00000000000E+00 0. -1.
</event>
<event>
 4    1  0.5573045E+003  0.2032821E+02  0.7546771E-02  0.1529076E+00
          2   -1    0    0  501    0  0.00000000000E+00  0.00000000000E+00  0.16947255427E+02  0.16947255427E+02  0.00000000000E+00 0.  1.
         -2   -1    0    0    0  501 -0.00000000000E+00 -0.00000000000E+00 -0.62037652061E+02  0.62037652061E+02  0.00000000000E+00 0.  1.
          2    1    1    2  502    0  0.13166354585E+02 -0.15488160644E+02  0.82222861157E+01  0.21928109863E+02  0.00000000000E+00 0.  1.
         -2    1    1    2    0  502 -0.13166354585E+02  0.15488160644E+02 -0.53312682750E+02  0.57056797625E+02  0.00000000000E+00 0.  1.
</event>
<event>
 4    1  0.5573045E+003  0.4410544E+02  0.7546771E-02  0.1325973E+00
          2   -1    0    0  501    0  0.00000000000E+00  0.00000000000E+00  0.98786334937E+02  0.98786334937E+02  0.00000000000E+00 0. -1.
         -2   -1    0    0    0  501 -0.00000000000E+00 -0.00000000000E+00 -0.15676166437E+03  0.15676166437E+03  0.00000000000E+00 0.  1.
          2    1    1    2  502    0  0.36738644641E+02 -0.24404131784E+02  0.90491837704E+02  0.10066808009E+03  0.00000000000E+00 0. -1.
         -2    1    1    2    0  502 -0.36738644641E+02  0.24404131784E+02 -0.14846716713E+03  0.15487991921E+03  0.00000000000E+00 0.  1.
</event>
<event>
 4    1  0.5573045E+003  0.2086712E+02  0.7546771E-02  0.1521171E+00
          2   -1    0    0  501    0  0.00000000000E+00  0.00000000000E+00  0.13774696435E+04  0.13774696435E+04  0.00000000000E+00 0.  1.
         -2   -1    0    0    0  501 -0.00000000000E+00 -0.00000000000E+00 -0.74354621138E+00  0.74354621138E+00  0.00000000000E+00 0. -1.
          2    1    1    2  502    0  0.20529021954E+02 -0.37411080167E+01  0.12108390479E+04  0.12110188423E+04  0.00000000000E+00 0.  1.
         -2    1    1    2    0  502 -0.20529021954E+02  0.37411080167E+01  0.16588704947E+03  0.16719434743E+03  0.00000000000E+00 0. -1.
</event>
<event>
 4    1  0.5573045E+003  0.2595504E+02  0.7546771E-02  0.1458397E+00
          2   -1    0    0  501    0  0.00000000000E+00  0.00000000000E+00  0.45922781437E+03  0.45922781437E+03  0.00000000000E+00 0.  1.
         -2   -1    0    0    0  501 -0.00000000000E+00 -0.00000000000E+00 -0.15212448594E+04  0.15212448594E+04  0.00000000000E+00 0. -1.
          2    1    1    2  502    0 -0.97087926097E+01 -0.24070801790E+02  0.45875025241E+03  0.45948390422E+03  0.00000000000E+00 0.  1.
         -2    1    1    2    0  502  0.97087926097E+01  0.24070801790E+02 -0.15207672974E+04  0.15209887695E+04  0.00000000000E+00 0. -1.
</event>
<event>
 4    1  0.5573045E+003  0.2810642E+02  0.7546771E-02  0.1436800E+00
          2   -1    0    0  501    0  0.00000000000E+00  0.00000000000E+00  0.10153061127E+04  0.10153061127E+04  0.00000000000E+00 0.  1.
         -2   -1    0    0    0  501 -0.00000000000E+00 -0.00000000000E+00 -0.12116939839E+02  0.12116939839E+02  0.00000000000E+00 0. -1.
          2    1    1    2  502    0 -0.27193483791E+02 -0.71052962491E+01  0.99853907505E+03  0.99893456002E+03  0.00000000000E+00 0.  1.
         -2    1    1    2    0  502  0.27193483791E+02  0.71052962491E+01  0.46500977913E+01  0.28488492501E+02  0.00000000000E+00 0. -1.
</event>
<event>
 4    1  0.5573045E+003  0.2199465E+02  0.7546771E-02  0.1505524E+00
          2   -1    0    0  501    0  0.00000000000E+00  0.00000000000E+00  0.49680963815E+00  0.49680963815E+00  0.00000000000E+00 0. -1.
         -2   -1    0    0    0  501 -0.00000000000E+00 -0.00000000000E+00 -0.11546006818E+04  0.11546006818E+04  0.00000000000E+00 0. -1.
          2    1    1    2  502    0 -0.62375939792E+01  0.21091618132E+02 -0.80563474892E+03  0.80593493075E+03  0.00000000000E+00 0. -1.
         -2    1    1    2    0  502  0.62375939792E+01 -0.21091618132E+02 -0.34846912327E+03  0.34916256072E+03  0.00000000000E+00 0. -1.
</event>
<event>
 4    1  0.5573045E+003  0.2819291E+02  0.7546771E-02  0.1435980E+00
          2   -1    0    0  501    0  0.00000000000E+00  0.00000000000E+00  0.33314975508E+03  0.33314975508E+03  0.00000000000E+00 0. -1.
         -2   -1    0    0    0  501 -0.00000000000E+00 -0.00000000000E+00 -0.41797473615E+02  0.41797473615E+02  0.00000000000E+00 0. -1.
          2    1    1    2  502    0 -0.38651110663E+01  0.27926713090E+02  0.32772056488E+03  0.32893100954E+03  0.00000000000E+00 0. -1.
         -2    1    1    2    0  502  0.38651110663E+01 -0.27926713090E+02 -0.36368283414E+02  0.46016219162E+02  0.00000000000E+00 0. -1.
</event>
<event>
 4    1  0.5573045E+003  0.2168797E+02  0.7546771E-02  0.1509665E+00
          2   -1    0    0  501    0  0.00000000000E+00  0.00000000000E+00  0.64306873190E+03  0.64306873190E+03  0.00000000000E+00 0.  1.
         -2   -1    0    0    0  501 -0.00000000000E+00 -0.00000000000E+00 -0.22823906394E+01  0.22823906394E+01  0.00000000000E+00 0. -1.
          2    1    1    2  502    0 -0.13268631672E+02  0.17155510472E+02  0.58638583072E+03  0.58678676756E+03  0.00000000000E+00 0.  1.
         -2    1    1    2    0  502  0.13268631672E+02 -0.17155510472E+02  0.54400510549E+02  0.58564354978E+02  0.00000000000E+00 0. -1.
</event>
<event>
 4    1  0.5573045E+003  0.3189430E+02  0.7546771E-02  0.1403819E+00
          2   -1    0    0  501    0  0.00000000000E+00  0.00000000000E+00  0.56521872038E+03  0.56521872038E+03  0.00000000000E+00 0. -1.
         -2   -1    0    0    0  501 -0.00000000000E+00 -0.00000000000E+00 -0.92588981485E+01  0.92588981485E+01  0.00000000000E+00 0. -1.
          2    1    1    2  502    0 -0.19166637653E+02  0.25492868869E+02  0.53579503568E+03  0.53674348307E+03  0.00000000000E+00 0. -1.
         -2    1    1    2    0  502  0.19166637653E+02 -0.25492868869E+02  0.20164786556E+02  0.37734135460E+02  0.00000000000E+00 0. -1.
</event>
<event>
 4    1  0.5573045E+003  0.2129694E+02  0.7546771E-02  0.1515067E+00
          2   -1    0    0  501    0  0.00000000000E+00  0.00000000000E+00  0.47147001715E+03  0.47147001715E+03  0.00000000000E+00 0.  1.
         -2   -1    0    0    0  501 -0.00000000000E+00 -0.00000000000E+00 -0.75539079321E+01  0.75539079321E+01  0.00000000000E+00 0.  1.
          2    1    1    2  502    0  0.15622993146E+02  0.14473489703E+02  0.45569955009E+03  0.45619693091E+03  0.00000000000E+00 0.  1.
         -2    1    1    2    0  502 -0.15622993146E+02 -0.14473489703E+02  0.82165591270E+01  0.22826994172E+02  0.00000000000E+00 0.  1.
</event>
<event>
 4    1  0.5573045E+003  0.2819503E+02  0.7546771E-02  0.1435960E+00
          2   -1    0    0  501    0  0.00000000000E+00  0.00000000000E+00  0.75863086027E+02  0.75863086027E+02  0.00000000000E+00 0. -1.
         -2   -1    0    0    0  501 -0.00000000000E+00 -0.00000000000E+00 -0.44419040045E+03  0.44419040045E+03  0.00000000000E+00 0.  1.
          2    1    1    2  502    0  0.25082789208E+02  0.12876849800E+02  0.72777641753E+02  0.78048348569E+02  0.00000000000E+00 0. -1.
         -2    1    1    2    0  502 -0.25082789208E+02 -0.12876849800E+02 -0.44110495618E+03  0.44200513791E+03  0.00000000000E+00 0.  1.
</event>
<event>
 4    1  0.5573045E+003  0.2381008E+02  0.7546771E-02  0.1482569E+00
          2   -1    0    0  501    0  0.00000000000E+00  0.00000000000E+00  0.15151324705E+03  0.15151324705E+03  0.00000000000E+00 0. -1.
         -2   -1    0    0    0  501 -0.00000000000E+00 -0.00000000000E+00 -0.99840582690E+01  0.99840582690E+01  0.00000000000E+00 0. -1.
          2    1    1    2  502    0  0.40615802913E+01 -0.23461103126E+02  0.13461379461E+03  0.13670330462E+03  0.00000000000E+00 0. -1.
         -2    1    1    2    0  502 -0.40615802913E+01  0.23461103126E+02  0.69153941751E+01  0.24794000704E+02  0.00000000000E+00 0. -1.
</event>
<event>
 4    1  0.5739662E+003  0.2466713E+02  0.7546771E-02  0.1472562E+00
          2   -1    0    0  501    0  0.00000000000E+00  0.00000000000E+00  0.12737448539E+04  0.12737448539E+04  0.00000000000E+00 0. -1.
         -2   -1    0    0    0  501 -0.00000000000E+00 -0.00000000000E+00 -0.82741757724E+02  0.82741757724E+02  0.00000000000E+00 0. -1.
          2    1    1    2  502    0 -0.58909934309E+01  0.23953357157E+02  0.12717841426E+04  0.12720233381E+04  0.00000000000E+00 0. -1.
         -2    1    1    2    0  502  0.58909934309E+01 -0.23953357157E+02 -0.80781046431E+02  0.84463273588E+02  0.00000000000E+00 0. -1.
</event>
<event>
 4    1  0.5573045E+003  0.2549291E+02  0.7546771E-02  0.1463364E+00
          2   -1    0    0  501    0  0.00000000000E+00  0.00000000000E+00  0.12869005228E+04  0.12869005228E+04  0.00000000000E+00 0. -1.
         -2   -1    0    0    0  501 -0.00000000000E+00 -0.00000000000E+00 -0.88886796286E+00  0.88886796286E+00  0.00000000000E+00 0.  1.
          2    1    1    2  502    0 -0.32680787139E+01  0.25282563274E+02  0.10661472880E+04  0.10664520281E+04  0.00000000000E+00 0. -1.
         -2    1    1    2    0  502  0.32680787139E+01 -0.25282563274E+02  0.21986436684E+03  0.22133736275E+03  0.00000000000E+00 0.  1.
</event>
<event>
 4    1  0.5573045E+003  0.2193539E+02  0.7546771E-02  0.1506317E+00
          2   -1    0    0  501    0  0.00000000000E+00  0.00000000000E+00  0.14824485809E+04  0.14824485809E+04  0.00000000000E+00 0.  1.
         -2   -1    0    0    0  501 -0.00000000000E+00 -0.00000000000E+00 -0.58350582344E+00  0.58350582344E+00  0.00000000000E+00 0.  1.
          2    1    1    2  502    0 -0.11766095469E+02  0.18512705074E+02  0.12348932112E+04  0.12350880148E+04  0.00000000000E+00 0.  1.
         -2    1    1    2    0  502  0.11766095469E+02 -0.18512705074E+02  0.24697186381E+03  0.24794407185E+03  0.00000000000E+00 0.  1.
</event>
<event>
 4    1  0.5573045E+003  0.2089030E+02  0.7546771E-02  0.1520837E+00
          2   -1    0    0  501    0  0.00000000000E+00  0.00000000000E+00  0.21849558294E+03  0.21849558294E+03  0.00000000000E+00 0.  1.
         -2   -1    0    0    0  501 -0.00000000000E+00 -0.00000000000E+00 -0.43307882790E+01  0.43307882790E+01  0.00000000000E+00 0.  1.
          2    1    1    2  502    0  0.15236087660E+02  0.14292173904E+02  0.18886378784E+03  0.19001561768E+03  0.00000000000E+00 0.  1.
         -2    1    1    2    0  502 -0.15236087660E+02 -0.14292173904E+02  0.25301006816E+02  0.32810753541E+02  0.00000000000E+00 0.  1.
</event>
<event>
 4    1  0.5573045E+003  0.3180882E+02  0.7546771E-02  0.1404503E+00
          2   -1    0    0  501    0  0.00000000000E+00  0.00000000000E+00  0.46937500952E+03  0.46937500952E+03  0.00000000000E+00 0. -1.
         -2   -1    0    0    0  501 -0.00000000000E+00 -0.00000000000E+00 -0.17212295718E+03  0.17212295718E+03  0.00000000000E+00 0.  1.
          2    1    1    2  502    0  0.24162807843E+02 -0.20687181654E+02  0.46736018271E+03  0.46844139564E+03  0.00000000000E+00 0. -1.
         -2    1    1    2    0  502 -0.24162807843E+02  0.20687181654E+02 -0.17010813038E+03  0.17305657106E+03  0.00000000000E+00 0.  1.
</event>
<event>
 4    1  0.5573045E+003  0.2045846E+02  0.7546771E-02  0.1527139E+00
          2   -1    0    0  501    0  0.00000000000E+00  0.00000000000E+00  0.28633205504E+03  0.28633205504E+03  0.00000000000E+00 0.  1.
         -2   -1    0    0    0  501 -0.00000000000E+00 -0.00000000000E+00 -0.12596525496E+03  0.12596525496E+03  0.00000000000E+00 0. -1.
          2    1    1    2  502    0  0.89507507845E+01 -0.18396534162E+02  0.28513244271E+03  0.28586545488E+03  0.00000000000E+00 0.  1.
         -2    1    1    2    0  502 -0.89507507845E+01  0.18396534162E+02 -0.12476564263E+03  0.12643185512E+03  0.00000000000E+00 0. -1.
</event>
<event>
 4    1  0.5573045E+003  0.3933642E+02  0.7546771E-02  0.1352419E+00
          2   -1    0    0  501    0  0.00000000000E+00  0.00000000000E+00  0.30354144462E+01  0.30354144462E+01  0.00000000000E+00 0.  1.
         -2   -1    0    0    0  501 -0.00000000000E+00 -0.00000000000E+00 -0.58069402502E+03  0.58069402502E+03  0.00000000000E+00 0. -1.
          2    1    1    2  502    0 -0.29480098133E+02 -0.26043767696E+02 -0.18682608342E+03  0.19092233884E+03  0.00000000000E+00 0.  1.
         -2    1    1    2    0  502  0.29480098133E+02  0.26043767696E+02 -0.39083252716E+03  0.39280710063E+03  0.00000000000E+00 0. -1.
</event>
<event>
 4    1  0.5573045E+003  0.2748357E+02  0.7546771E-02  0.1442810E+00
          2   -1    0    0  501    0  0.00000000000E+00  0.00000000000E+00  0.63996917126E+03  0.63996917126E+03  0.00000000000E+00 0.  1.
         -2   -1    0    0    0  501 -0.00000000000E+00 -0.00000000000E+00 -0.26534792631E+02  0.26534792631E+02  0.00000000000E+00 0.  1.
          2    1    1    2  502    0  0.25960908779E+02  0.90209694748E+01  0.63247322693E+03  0.63307008258E+03  0.00000000000E+00 0.  1.
         -2    1    1    2    0  502 -0.25960908779E+02 -0.90209694748E+01 -0.19038848301E+02  0.33433881311E+02  0.00000000000E+00 0.  1.
</event>
<event>
 4    1  0.5573045E+003  0.2811346E+02  0.7546771E-02  0.1436733E+00
          2   -1    0    0  501    0  0.00000000000E+00  0.00000000000E+00  0.31063717620E+03  0.31063717620E+03  0.00000000000E+00 0. -1.
         -2   -1    0    0    0  501 -0.00000000000E+00 -0.00000000000E+00 -0.24891593536E+02  0.24891593536E+02  0.00000000000E+00 0.  1.
          2    1    1    2  502    0 -0.78182233814E+01 -0.27004478764E+02  0.30183192962E+03  0.30313838462E+03  0.00000000000E+00 0. -1.
         -2    1    1    2    0  502  0.78182233814E+01  0.27004478764E+02 -0.16086346952E+02  0.32390385123E+02  0.00000000000E+00 0.  1.
</event>
<event>
 4    1  0.5573045E+003  0.2842756E+02  0.7546771E-02  0.1433772E+00
          2   -1    0    0  501    0  0.00000000000E+00  0.00000000000E+00  0.15723919492E+03  0.15723919492E+03  0.00000000000E+00 0.  1.
         -2   -1    0    0    0  501 -0.00000000000E+00 -0.00000000000E+00 -0.25666114645E+03  0.25666114645E+03  0.00000000000E+00 0. -1.
          2    1    1    2  502    0  0.11410770733E+02 -0.26036904776E+02  0.15515669684E+03  0.15773942650E+03  0.00000000000E+00 0.  1.
         -2    1    1    2    0  502 -0.11410770733E+02  0.26036904776E+02 -0.25457864837E+03  0.25616091487E+03  0.00000000000E+00 0. -1.
</event>
<event>
 4    1  0.5573045E+003  0.2000617E+02  0.7546771E-02  0.1533941E+00
          2   -1    0    0  501    0  0.00000000000E+00  0.00000000000E+00  0.51307480903E+03  0.51307480903E+03  0.00000000000E+00 0.  1.
         -2   -1    0    0    0  501 -0.00000000000E+00 -0.00000000000E+00 -0.21104039369E+01  0.21104039369E+01  0.00000000000E+00 0.  1.
          2    1    1    2  502    0  0.19729309290E+02 -0.33167937490E+01  0.45999804612E+03  0.46043289326E+03  0.00000000000E+00 0.  1.
         -2    1    1    2    0  502 -0.19729309290E+02  0.33167937490E+01  0.50966358980E+02  0.54752319709E+02  0.00000000000E+00 0.  1.
</event>
<event>
 4    1  0.5573045E+003  0.2788209E+02  0.7546771E-02  0.1438943E+00
          2   -1    0    0  501    0  0.00000000000E+00  0.00000000000E+00  0.29094730579E+01  0.29094730579E+01  0.00000000000E+00 0.  1.
         -2   -1    0    0    0  501 -0.00000000000E+00 -0.00000000000E+00 -0.28276893054E+03  0.28276893054E+03  0.00000000000E+00 0.  1.
          2    1    1    2  502    0 -0.23329368682E+02 -0.15269281912E+02 -0.17344669772E+03  0.17567346802E+03  0.00000000000E+00 0.  1.
         -2    1    1    2    0  502  0.23329368682E+02  0.15269281912E+02 -0.10641275976E+03  0.11000493559E+03  0.00000000000E+00 0.  1.
</event>
<event>
 4    1  0.5573045E+003  0.2178708E+02  0.7546771E-02  0.1508317E+00
          2   -1    0    0  501    0  0.00000000000E+00  0.00000000000E+00  0.42839386690E+02  0.42839386690E+02  0.00000000000E+00 0. -1.
         -2   -1    0    0    0  501 -0.00000000000E+00 -0.00000000000E+00 -0.44991700140E+02  0.44991700140E+02  0.00000000000E+00 0.  1.
          2    1    1    2  502    0  0.14154914657E+02 -0.16562468109E+02  0.37050117402E+02  0.42981253569E+02  0.00000000000E+00 0. -1.
         -2    1    1    2    0  502 -0.14154914657E+02  0.16562468109E+02 -0.39202430853E+02  0.44849833262E+02  0.00000000000E+00 0.  1.
</event>
<event>
 4    1  0.5573045E+003  0.2326156E+02  0.7546771E-02  0.1489240E+00
          2   -1    0    0  501    0  0.00000000000E+00  0.00000000000E+00  0.70568667978E+01  0.70568667978E+01  0.00000000000E+00 0. -1.
         -2   -1    0    0    0  501 -0.00000000000E+00 -0.00000000000E+00 -0.47601789459E+03  0.47601789459E+03  0.00000000000E+00 0. -1.
          2    1    1    2  502    0 -0.23174099023E+02  0.20152196734E+01 -0.13250238594E+02  0.26770670493E+02  0.00000000000E+00 0. -1.
         -2    1    1    2    0  502  0.23174099023E+02 -0.20152196734E+01 -0.45571078920E+03  0.45630409090E+03  0.00000000000E+00 0. -1.
</event>
<event>
 4    1  0.5573045E+003  0.4606925E+02  0.7546771E-02  0.1316178E+00
          2   -1    0    0  501    0  0.00000000000E+00  0.00000000000E+00  0.88966592816E+03  0.88966592816E+03  0.00000000000E+00 0.  1.
         -2   -1    0    0    0  501 -0.00000000000E+00 -0.00000000000E+00 -0.28803736413E+03  0.28803736413E+03  0.00000000000E+00 0. -1.
          2    1    1    2  502    0  0.17615919700E+02 -0.42568238670E+02  0.88722236040E+03  0.88841763398E+03  0.00000000000E+00 0.  1.
         -2    1    1    2    0  502 -0.17615919700E+02  0.42568238670E+02 -0.28559379638E+03  0.28928565830E+03  0.00000000000E+00 0. -1.
</event>
<event>
 4    1  0.5573045E+003  0.2021960E+02  0.7546771E-02  0.1530705E+00
          2   -1    0    0  501    0  0.00000000000E+00  0.00000000000E+00  0.11622315418E+04  0.11622315418E+04  0.00000000000E+00 0. -1.
         -2   -1    0    0    0  501 -0.00000000000E+00 -0.00000000000E+00 -0.92315320128E+00  0.92315320128E+00  0.00000000000E+00 0. -1.
          2    1    1    2  502    0  0.19962829414E+02  0.32120848900E+01  0.10382018501E+04  0.10383987257E+04  0.00000000000E+00 0. -1.
         -2    1    1    2    0  502 -0.19962829414E+02 -0.32120848900E+01  0.12310653849E+03  0.12475596926E+03  0.00000000000E+00 0. -1.
</event>
<event>
 4    1  0.5573045E+003  0.2350425E+02  0.7546771E-02  0.1486261E+00
          2   -1    0    0  501    0  0.00000000000E+00  0.00000000000E+00  0.66252766902E+02  0.66252766902E+02  0.00000000000E+00 0. -1.
         -2   -1    0    0    0  501 -0.00000000000E+00 -0.00000000000E+00 -0.15271540985E+03  0.15271540985E+03  0.00000000000E+00 0.  1.
          2    1    1    2  502    0  0.15703637676E+02  0.17488440666E+02  0.63221805191E+02  0.67449584467E+02  0.00000000000E+00 0. -1.
         -2    1    1    2    0  502 -0.15703637676E+02 -0.17488440666E+02 -0.14968444814E+03  0.15151859228E+03  0.00000000000E+00 0.  1.
</event>
<event>
 4    1  0.5573045E+003  0.3867499E+02  0.7546771E-02  0.1356430E+00
          2   -1    0    0  501    0  0.00000000000E+00  0.00000000000E+00  0.12788740497E+04  0.12788740497E+04  0.00000000000E+00 0.  1.
         -2   -1    0    0    0  501 -0.00000000000E+00 -0.00000000000E+00 -0.48370116422E+01  0.48370116422E+01  0.00000000000E+00 0.  1.
          2    1    1    2  502    0 -0.15840155139E+02  0.35282349424E+02  0.11959123424E+04  0.11965375403E+04  0.00000000000E+00 0.  1.
         -2    1    1    2    0  502  0.15840155139E+02 -0.35282349424E+02  0.78124695673E+02  0.87173521035E+02  0.00000000000E+00 0.  1.
</event>
<event>
 4    1  0.5573045E+003  0.3140651E+02  0.7546771E-02  0.1407755E+00
          2   -1    0    0  501    0  0.00000000000E+00  0.00000000000E+00  0.11610733126E+03  0.11610733126E+03  0.00000000000E+00 0. -1.
         -2   -1    0    0    0  501 -0.00000000000E+00 -0.00000000000E+00 -0.86128649447E+01  0.86128649447E+01  0.00000000000E+00 0.  1.
          2    1    1    2  502    0 -0.47965949212E+01 -0.31038070825E+02  0.61032262241E+02  0.68638955394E+02  0.00000000000E+00 0. -1.
         -2    1    1    2    0  502  0.47965949212E+01  0.31038070825E+02  0.46462204071E+02  0.56081240807E+02  0.00000000000E+00 0.  1.
</event>
<event>
 4    1  0.5573045E+003  0.2793396E+02  0.7546771E-02  0.1438445E+00
          2   -1    0    0  501    0  0.00000000000E+00  0.00000000000E+00  0.17994117164E+04  0.17994117164E+04  0.00000000000E+00 0.  1.
         -2   -1    0    0    0  501 -0.00000000000E+00 -0.00000000000E+00 -0.51792807494E+01  0.51792807494E+01  0.00000000000E+00 0.  1.
          2    1    1    2  502    0  0.15355003577E+02 -0.23335168301E+02  0.17608129103E+04  0.17610344720E+04  0.00000000000E+00 0.  1.
         -2    1    1    2    0  502 -0.15355003577E+02  0.23335168301E+02  0.33419525309E+02  0.43556525187E+02  0.00000000000E+00 0.  1.
</event>
<event>
 4    1  0.5573045E+003  0.7677309E+02  0.7546771E-02  0.1211544E+00
          2   -1    0    0  501    0  0.00000000000E+00  0.00000000000E+00  0.22066504811E+03  0.22066504811E+03  0.00000000000E+00 0. -1.
         -2   -1    0    0    0  501 -0.00000000000E+00 -0.00000000000E+00 -0.65883316338E+02  0.65883316338E+02  0.00000000000E+00 0. -1.
          2    1    1    2  502    0  0.22143155887E+02  0.73510466349E+02  0.18786783477E+03  0.20294933199E+03  0.00000000000E+00 0. -1.
         -2    1    1    2    0  502 -0.22143155887E+02 -0.73510466349E+02 -0.33086102998E+02  0.83599032453E+02  0.00000000000E+00 0. -1.
</event>
<event>
 4    1  0.5573045E+003  0.2283028E+02  0.7546771E-02  0.1494640E+00
          2   -1    0    0  501    0  0.00000000000E+00  0.00000000000E+00  0.32770658086E+02  0.32770658086E+02  0.00000000000E+00 0.  1.
         -2   -1    0    0    0  501 -0.00000000000E+00 -0.00000000000E+00 -0.17929439973E+02  0.17929439973E+02  0.00000000000E+00 0.  1.
          2    1    1    2  502    0 -0.21831419437E+02 -0.66791085811E+01 -0.10973321744E+01  0.22856629322E+02  0.00000000000E+00 0.  1.
         -2    1    1    2    0  502  0.21831419437E+02  0.66791085811E+01  0.15938550287E+02  0.27843468737E+02  0.00000000000E+00 0.  1.
</event>
<event>
 4    1  0.5573045E+003  0.2183271E+02  0.7546771E-02  0.1507700E+00
          2   -1    0    0  501    0  0.00000000000E+00  0.00000000000E+00  0.75784862821E+03  0.75784862821E+03  0.00000000000E+00 0.  1.
         -2   -1    0    0    0  501 -0.00000000000E+00 -0.00000000000E+00 -0.27982112737E+02  0.27982112737E+02  0.00000000000E+00 0.  1.
          2    1    1    2  502    0  0.18783013780E+02  0.11129484149E+02  0.75340761077E+03  0.75372388511E+03  0.00000000000E+00 0.  1.
         -2    1    1    2    0  502 -0.18783013780E+02 -0.11129484149E+02 -0.23541095294E+02  0.32106855837E+02  0.00000000000E+00 0.  1.
</event>
<event>
 4    1  0.5573045E+003  0.4584795E+02  0.7546771E-02  0.1317253E+00
          2   -1    0    0  501    0  0.00000000000E+00  0.00000000000E+00  0.15074132805E+03  0.15074132805E+03  0.00000000000E+00 0. -1.
         -2   -1    0    0    0  501 -0.00000000000E+00 -0.00000000000E+00 -0.58895404166E+02  0.58895404166E+02  0.00000000000E+00 0. -1.
          2    1    1    2  502    0  0.22050968176E+02 -0.40196882045E+02  0.13749548725E+03  0.14493806794E+03  0.00000000000E+00 0. -1.
         -2    1    1    2    0  502 -0.22050968176E+02  0.40196882045E+02 -0.45649563366E+02  0.64698664277E+02  0.00000000000E+00 0. -1.
</event>
<event>
 4    1  0.5573045E+003  0.3297115E+02  0.7546771E-02  0.1395416E+00
          2   -1    0    0  501    0  0.00000000000E+00  0.00000000000E+00  0.20806031784E+03  0.20806031784E+03  0.00000000000E+00 0. -1.
         -2   -1    0    0    0  501 -0.00000000000E+00 -0.00000000000E+00 -0.20440434086E+02  0.20440434086E+02  0.00000000000E+00 0. -1.
          2    1    1    2  502    0  0.17857681427E+02  0.27716418211E+02  0.19238249959E+03  0.19518740424E+03  0.00000000000E+00 0. -1.
         -2    1    1    2    0  502 -0.17857681427E+02 -0.27716418211E+02 -0.47626158386E+01  0.33313347686E+02  0.00000000000E+00 0. -1.
</event>
<event>
 4    1  0.5573045E+003  0.1613822E+03  0.7546771E-02  0.1086491E+00
          2   -1    0    0  501    0  0.00000000000E+00  0.00000000000E+00  0.38082782307E+04  0.38082782307E+04  0.00000000000E+00 0.  1.
         -2   -1    0    0    0  501 -0.00000000000E+00 -0.00000000000E+00 -0.15271978110E+02  0.15271978110E+02  0.00000000000E+00 0. -1.
          2    1    1    2  502    0 -0.15862981918E+03 -0.29677991730E+02  0.33171422819E+04  0.33210656605E+04  0.00000000000E+00 0.  1.
         -2    1    1    2    0  502  0.15862981918E+03  0.29677991730E+02  0.47586397063E+03  0.50248454829E+03  0.00000000000E+00 0. -1.
</event>
<event>
 4    1  0.5573045E+003  0.3441845E+02  0.7546771E-02  0.1384698E+00
          2   -1    0    0  501    0  0.00000000000E+00  0.00000000000E+00  0.96015687742E+01  0.96015687742E+01  0.00000000000E+00 0. -1.
         -2   -1    0    0    0  501 -0.00000000000E+00 -0.00000000000E+00 -0.15138171158E+03  0.15138171158E+03  0.00000000000E+00 0. -1.
          2    1    1    2  502    0 -0.12661196293E+02  0.32005062085E+02 -0.36270970754E+02  0.50002132055E+02  0.00000000000E+00 0. -1.
         -2    1    1    2    0  502  0.12661196293E+02 -0.32005062085E+02 -0.10550917205E+03  0.11098114829E+03  0.00000000000E+00 0. -1.
</event>
<event>
 4    1  0.5573045E+003  0.3108491E+02  0.7546771E-02  0.1410397E+00
          2   -1    0    0  501    0  0.00000000000E+00  0.00000000000E+00  0.35149452704E+03  0.35149452704E+03  0.00000000000E+00 0.  1.
         -2   -1    0    0    0  501 -0.00000000000E+00 -0.00000000000E+00 -0.44229783951E+03  0.44229783951E+03  0.00000000000E+00 0. -1.
          2    1    1    2  502    0 -0.12991649886E+02 -0.28239837050E+02  0.35025917979E+03  0.35163584060E+03  0.00000000000E+00 0.  1.
         -2    1    1    2    0  502  0.12991649886E+02  0.28239837050E+02 -0.44106249226E+03  0.44215652596E+03  0.00000000000E+00 0. -1.
</event>
<event>
 4    1  0.5573045E+003  0.2648080E+02  0.7546771E-02  0.1452894E+00
          2   -1    0    0  501    0  0.00000000000E+00  0.00000000000E+00  0.14629720803E+02  0.14629720803E+02  0.00000000000E+00 0.  1.
         -2   -1    0    0    0  501 -0.00000000000E+00 -0.00000000000E+00 -0.14034770466E+03  0.14034770466E+03  0.00000000000E+00 0.  1.
          2    1    1    2  502    0  0.21455430623E+02  0.15520859716E+02  0.20431152714E-01  0.26480804500E+02  0.00000000000E+00 0.  1.
         -2    1    1    2    0  502 -0.21455430623E+02 -0.15520859716E+02 -0.12573841501E+03  0.12849662096E+03  0.00000000000E+00 0.  1.
</event>
<event>
 4    1  0.5573045E+003  0.2282687E+02  0.7546771E-02  0.1494684E+00
          2   -1    0    0  501    0  0.00000000000E+00  0.00000000000E+00  0.19169791782E+04  0.19169791782E+04  0.00000000000E+00 0.  1.
         -2   -1    0    0    0  501 -0.00000000000E+00 -0.00000000000E+00 -0.56039770080E+00  0.56039770080E+00  0.00000000000E+00 0.  1.
          2    1    1    2  502    0  0.17075468037E+02 -0.15149074529E+02  0.16462283140E+04  0.16463865670E+04  0.00000000000E+00 0.  1.
         -2    1    1    2    0  502 -0.17075468037E+02  0.15149074529E+02  0.27019046646E+03  0.27115300890E+03  0.00000000000E+00 0.  1.
</event>
<event>
 4    1  0.5573045E+003  0.2275983E+02  0.7546771E-02  0.1495536E+00
          2   -1    0    0  501    0  0.00000000000E+00  0.00000000000E+00  0.87233288784E+02  0.87233288784E+02  0.00000000000E+00 0. -1.
         -2   -1    0    0    0  501 -0.00000000000E+00 -0.00000000000E+00 -0.44234009305E+03  0.44234009305E+03  0.00000000000E+00 0. -1.
          2    1    1    2  502    0  0.79079256788E+01 -0.21341849140E+02  0.85449963626E+02  0.88429102093E+02  0.00000000000E+00 0. -1.
         -2    1    1    2    0  502 -0.79079256788E+01  0.21341849140E+02 -0.44055676790E+03  0.44114427975E+03  0.00000000000E+00 0. -1.
</event>
<event>
 4    1  0.5573045E+003  0.2456167E+02  0.7546771E-02  0.1473767E+00
          2   -1    0    0  501    0  0.00000000000E+00  0.00000000000E+00  0.14744302454E+04  0.14744302454E+04  0.00000000000E+00 0. -1.
         -2   -1    0    0    0  501 -0.00000000000E+00 -0.00000000000E+00 -0.17320205940E+02  0.17320205940E+02  0.00000000000E+00 0. -1.
          2    1    1    2  502    0 -0.15671001650E+02 -0.18912834961E+02  0.14655676167E+04  0.14657734186E+04  0.00000000000E+00 0. -1.
         -2    1    1    2    0  502  0.15671001650E+02  0.18912834961E+02 -0.84575771981E+01  0.25977032761E+02  0.00000000000E+00 0. -1.
</event>
<event>
 4    1  0.5573045E+003  0.4191677E+02  0.7546771E-02  0.1337605E+00
          2   -1    0    0  501    0  0.00000000000E+00  0.00000000000E+00  0.82370351823E+03  0.82370351823E+03  0.00000000000E+00 0. -1.
         -2   -1    0    0    0  501 -0.00000000000E+00 -0.00000000000E+00 -0.23116575307E+01  0.23116575307E+01  0.00000000000E+00 0.  1.
          2    1    1    2  502    0  0.33396669233E+02 -0.25331361677E+02  0.52549136065E+03  0.52716049313E+03  0.00000000000E+00 0. -1.
         -2    1    1    2    0  502 -0.33396669233E+02  0.25331361677E+02  0.29590050005E+03  0.29885468263E+03  0.00000000000E+00 0.  1.
</event>
<event>
 4    1  0.5573045E+003  0.2025164E+02  0.7546771E-02  0.1530223E+00
          2   -1    0    0  501    0  0.00000000000E+00  0.00000000000E+00  0.22787502008E+03  0.22787502008E+03  0.00000000000E+00 0.  1.
         -2   -1    0    0    0  501 -0.00000000000E+00 -0.00000000000E+00 -0.49084519052E+01  0.49084519052E+01  0.00000000000E+00 0.  1.
          2    1    1    2  502    0 -0.20018091178E+02  0.30667658616E+01  0.20410995510E+03  0.20511217126E+03  0.00000000000E+00 0.  1.
         -2    1    1    2    0  502  0.20018091178E+02 -0.30667658616E+01  0.18856613073E+02  0.27671300725E+02  0.00000000000E+00 0.  1.
</event>
<event>
 4    1  0.5573045E+003  0.6482379E+02  0.7546771E-02  0.1244269E+00
          2   -1    0    0  501    0  0.00000000000E+00  0.00000000000E+00  0.53427458222E+03  0.53427458222E+03  0.00000000000E+00 0.  1.
         -2   -1    0    0    0  501 -0.00000000000E+00 -0.00000000000E+00 -0.31459538375E+03  0.31459538375E+03  0.00000000000E+00 0. -1.
          2    1    1    2  502    0 -0.62296054488E+02 -0.17925561434E+02  0.52893541625E+03  0.53289285858E+03  0.00000000000E+00 0.  1.
         -2    1    1    2    0  502  0.62296054488E+02  0.17925561434E+02 -0.30925621778E+03  0.31597710739E+03  0.00000000000E+00 0. -1.
</event>
<event>
 4    1  0.5573045E+003  0.3179608E+02  0.7546771E-02  0.1404605E+00
          2   -1    0    0  501    0  0.00000000000E+00  0.00000000000E+00  0.10772170178E+04  0.10772170178E+04  0.00000000000E+00 0.  1.
         -2   -1    0    0    0  501 -0.00000000000E+00 -0.00000000000E+00 -0.21512470822E+01  0.21512470822E+01  0.00000000000E+00 0.  1.
          2    1    1    2  502    0 -0.24980491569E+02 -0.19671449344E+02  0.94273886623E+03  0.94327491262E+03  0.00000000000E+00 0.  1.
         -2    1    1    2    0  502  0.24980491569E+02  0.19671449344E+02  0.13232690445E+03  0.13609335223E+03  0.00000000000E+00 0.  1.
</event>
<event>
 4    1  0.5573045E+003  0.5812270E+02  0.7546771E-02  0.1266348E+00
          2   -1    0    0  501    0  0.00000000000E+00  0.00000000000E+00  0.80380145250E+03  0.80380145250E+03  0.00000000000E+00 0. -1.
         -2   -1    0    0    0  501 -0.00000000000E+00 -0.00000000000E+00 -0.78365481361E+01  0.78365481361E+01  0.00000000000E+00 0.  1.
          2    1    1    2  502    0 -0.25293542333E+02  0.52330541195E+02  0.67432324539E+03  0.67682352803E+03  0.00000000000E+00 0. -1.
         -2    1    1    2    0  502  0.25293542333E+02 -0.52330541195E+02  0.12164165898E+03  0.13481447261E+03  0.00000000000E+00 0.  1.
</event>
<event>
 4    1  0.5573045E+003  0.2029191E+02  0.7546771E-02  0.1529619E+00
          2   -1    0    0  501    0  0.00000000000E+00  0.00000000000E+00  0.80451097194E+03  0.80451097194E+03  0.00000000000E+00 0.  1.
         -2   -1    0    0    0  501 -0.00000000000E+00 -0.00000000000E+00 -0.50272781531E+01  0.50272781531E+01  0.00000000000E+00 0. -1.
          2    1    1    2  502    0  0.18538983801E+02 -0.82503222412E+01  0.78335369738E+03  0.78361647312E+03  0.00000000000E+00 0.  1.
         -2    1    1    2    0  502 -0.18538983801E+02  0.82503222412E+01  0.16129996398E+02  0.25921776970E+02  0.00000000000E+00 0. -1.
</event>
<event>
 4    1  0.5573045E+003  0.3155591E+02  0.7546771E-02  0.1406541E+00
          2   -1    0    0  501    0  0.00000000000E+00  0.00000000000E+00  0.14747542270E+02  0.14747542270E+02  0.00000000000E+00 0.  1.
         -2   -1    0    0    0  501 -0.00000000000E+00 -0.00000000000E+00 -0.54585369900E+03  0.54585369900E+03  0.00000000000E+00 0.  1.
          2    1    1    2  502    0 -0.23340090884E+02  0.21237131196E+02 -0.31609773760E+01  0.31713835496E+02  0.00000000000E+00 0.  1.
         -2    1    1    2    0  502  0.23340090884E+02 -0.21237131196E+02 -0.52794517935E+03  0.52888740577E+03  0.00000000000E+00 0.  1.
</event>
<event>
 4    1  0.5573045E+003  0.2135226E+02  0.7546771E-02  0.1514294E+00
          2   -1    0    0  501    0  0.00000000000E+00  0.00000000000E+00  0.12283715793E+03  0.12283715793E+03  0.00000000000E+00 0.  1.
         -2   -1    0    0    0  501 -0.00000000000E+00 -0.00000000000E+00 -0.37201831982E+01  0.37201831982E+01  0.00000000000E+00 0.  1.
          2    1    1    2  502    0 -0.19841973181E+02  0.78876572148E+01  0.62602808937E+02  0.66144015019E+02  0.00000000000E+00 0.  1.
         -2    1    1    2    0  502  0.19841973181E+02 -0.78876572148E+01  0.56514165791E+02  0.60413326105E+02  0.00000000000E+00 0.  1.
</event>
<event>
 4    1  0.5573045E+003  0.2583267E+02  0.7546771E-02  0.1459700E+00
          2   -1    0    0  501    0  0.00000000000E+00  0.00000000000E+00  0.14047663554E+02  0.14047663554E+02  0.00000000000E+00 0. -1.
         -2   -1    0    0    0  501 -0.00000000000E+00 -0.00000000000E+00 -0.17971587814E+03  0.17971587814E+03  0.00000000000E+00 0. -1.
          2    1    1    2  502    0 -0.18609643531E+02 -0.17916697137E+02  0.26250190540E+00  0.25834004256E+02  0.00000000000E+00 0. -1.
         -2    1    1    2    0  502  0.18609643531E+02  0.17916697137E+02 -0.16593071649E+03  0.16792953744E+03  0.00000000000E+00 0. -1.
</event>
<event>
 4    1  0.5573045E+003  0.2675270E+02  0.7546771E-02  0.1450108E+00
          2   -1    0    0  501    0  0.00000000000E+00  0.00000000000E+00  0.19831163012E+03  0.19831163012E+03  0.00000000000E+00 0. -1.
         -2   -1    0    0    0  501 -0.00000000000E+00 -0.00000000000E+00 -0.51536010892E+01  0.51536010892E+01  0.00000000000E+00 0.  1.
          2    1    1    2  502    0  0.24323076642E+02  0.11139796679E+02  0.15227355913E+03  0.15460576942E+03  0.00000000000E+00 0. -1.
         -2    1    1    2    0  502 -0.24323076642E+02 -0.11139796679E+02  0.40884469901E+02  0.48859461791E+02  0.00000000000E+00 0.  1.
</event>
<event>
 4    1  0.5573045E+003  0.3372745E+02  0.7546771E-02  0.1389737E+00
          2   -1    0    0  501    0  0.00000000000E+00  0.00000000000E+00  0.21917931628E+03  0.21917931628E+03  0.00000000000E+00 0. -1.
         -2   -1    0    0    0  501 -0.00000000000E+00 -0.00000000000E+00 -0.75344463126E+01  0.75344463126E+01  0.00000000000E+00 0. -1.
          2    1    1    2  502    0 -0.13469690600E+02 -0.30921001450E+02  0.16905521276E+03  0.17238679142E+03  0.00000000000E+00 0. -1.
         -2    1    1    2    0  502  0.13469690600E+02  0.30921001450E+02  0.42589657209E+02  0.54326971171E+02  0.00000000000E+00 0. -1.
</event>
<event>
 4    1  0.5573045E+003  0.2415794E+02  0.7546771E-02  0.1478448E+00
          2   -1    0    0  501    0  0.00000000000E+00  0.00000000000E+00  0.47619886717E+03  0.47619886717E+03  0.00000000000E+00 0. -1.
         -2   -1    0    0    0  501 -0.00000000000E+00 -0.00000000000E+00 -0.13039640898E+01  0.13039640898E+01  0.00000000000E+00 0. -1.
          2    1    1    2  502    0  0.17353448629E+02 -0.16806662192E+02  0.29599476671E+03  0.29697896894E+03  0.00000000000E+00 0. -1.
         -2    1    1    2    0  502 -0.17353448629E+02  0.16806662192E+02  0.17890013638E+03  0.18052386232E+03  0.00000000000E+00 0. -1.
</event>
<event>
 4    1  0.5573045E+003  0.2004239E+02  0.7546771E-02  0.1533389E+00
          2   -1    0    0  501    0  0.00000000000E+00  0.00000000000E+00  0.13610464423E+04  0.13610464423E+04  0.00000000000E+00 0.  1.
         -2   -1    0    0    0  501 -0.00000000000E+00 -0.00000000000E+00 -0.10372722284E+01  0.10372722284E+01  0.00000000000E+00 0. -1.
          2    1    1    2  502    0  0.11822418022E+02  0.16184189540E+02  0.12560655379E+04  0.12562254308E+04  0.00000000000E+00 0.  1.
         -2    1    1    2    0  502 -0.11822418022E+02 -0.16184189540E+02  0.10394363217E+03  0.10585828370E+03  0.00000000000E+00 0. -1.
</event>
<event>
 4    1  0.5573045E+003  0.2065050E+02  0.7546771E-02  0.1524314E+00
          2   -1    0    0  501    0  0.00000000000E+00  0.00000000000E+00  0.16373685949E+03  0.16373685949E+03  0.00000000000E+00 0. -1.
         -2   -1    0    0    0  501 -0.00000000000E+00 -0.00000000000E+00 -0.35559494013E+03  0.35559494013E+03  0.00000000000E+00 0.  1.
          2    1    1    2  502    0 -0.87953176617E+01 -0.18683829898E+02  0.16278419187E+03  0.16408880594E+03  0.00000000000E+00 0. -1.
         -2    1    1    2    0  502  0.87953176617E+01  0.18683829898E+02 -0.35464227250E+03  0.35524299368E+03  0.00000000000E+00 0.  1.
</event>
<event>
 4    1  0.5573045E+003  0.2608904E+02  0.7546771E-02  0.1456980E+00
          2   -1    0    0  501    0  0.00000000000E+00  0.00000000000E+00  0.54384920023E+02  0.54384920023E+02  0.00000000000E+00 0. -1.
         -2   -1    0    0    0  501 -0.00000000000E+00 -0.00000000000E+00 -0.17173571952E+03  0.17173571952E+03  0.00000000000E+00 0.  1.
          2    1    1    2  502    0 -0.25985356814E+02  0.23236245343E+01  0.50187378744E+02  0.56563336049E+02  0.00000000000E+00 0. -1.
         -2    1    1    2    0  502  0.25985356814E+02 -0.23236245343E+01 -0.16753817824E+03  0.16955730349E+03  0.00000000000E+00 0.  1.
</event>
<event>
 4    1  0.5573045E+003  0.2199291E+02  0.7546771E-02  0.1505547E+00
          2   -1    0    0  501    0  0.00000000000E+00  0.00000000000E+00  0.17605626623E+02  0.17605626623E+02  0.00000000000E+00 0. -1.
         -2   -1    0    0    0  501 -0.00000000000E+00 -0.00000000000E+00 -0.24494900767E+03  0.24494900767E+03  0.00000000000E+00 0.  1.
          2    1    1    2  502    0  0.89995597743E+01 -0.20067285658E+02  0.10024702498E+02  0.24169871534E+02  0.00000000000E+00 0. -1.
         -2    1    1    2    0  502 -0.89995597743E+01  0.20067285658E+02 -0.23736808354E+03  0.23838476276E+03  0.00000000000E+00 0.  1.
</event>
<event>
 4    1  0.5573045E+003  0.4102591E+02  0.7546771E-02  0.1342577E+00
          2   -1    0    0  501    0  0.00000000000E+00  0.00000000000E+00  0.17912362049E+02  0.17912362049E+02  0.00000000000E+00 0.  1.
         -2   -1    0    0    0  501 -0.00000000000E+00 -0.00000000000E+00 -0.16407156573E+03  0.16407156573E+03  0.00000000000E+00 0.  1.
          2    1    1    2  502    0  0.13217603060E+02 -0.38838381194E+02 -0.13600077026E+02  0.43221371792E+02  0.00000000000E+00 0.  1.
         -2    1    1    2    0  502 -0.13217603060E+02  0.38838381194E+02 -0.13255912666E+03  0.13876255599E+03  0.00000000000E+00 0.  1.
</event>
<event>
 4    1  0.5573045E+003  0.2359825E+02  0.7546771E-02  0.1485119E+00
          2   -1    0    0  501    0  0.00000000000E+00  0.00000000000E+00  0.30758754757E+03  0.30758754757E+03  0.00000000000E+00 0.  1.
         -2   -1    0    0    0  501 -0.00000000000E+00 -0.00000000000E+00 -0.30411841718E+01  0.30411841718E+01  0.00000000000E+00 0.  1.
          2    1    1    2  502    0 -0.88355812916E+01  0.21881728577E+02  0.25107595752E+03  0.25218250135E+03  0.00000000000E+00 0.  1.
         -2    1    1    2    0  502  0.88355812916E+01 -0.21881728577E+02  0.53470405879E+02  0.58446230393E+02  0.00000000000E+00 0.  1.
</event>
<event>
 4    1  0.5573045E+003  0.2017221E+02  0.7546771E-02  0.1531419E+00
          2   -1    0    0  501    0  0.00000000000E+00  0.00000000000E+00  0.71511609947E+03  0.71511609947E+03  0.00000000000E+00 0. -1.
         -2   -1    0    0    0  501 -0.00000000000E+00 -0.00000000000E+00 -0.10164047319E+04  0.10164047319E+04  0.00000000000E+00 0. -1.
          2    1    1    2  502    0 -0.11839268245E+02 -0.16332473216E+02  0.71487372206E+03  0.71515827370E+03  0.00000000000E+00 0. -1.
         -2    1    1    2    0  502  0.11839268245E+02  0.16332473216E+02 -0.10161623544E+04  0.10163625576E+04  0.00000000000E+00 0. -1.
</event>
<event>
 4    1  0.5573045E+003  0.2212985E+02  0.7546771E-02  0.1503723E+00
          2   -1    0    0  501    0  0.00000000000E+00  0.00000000000E+00  0.58479121774E+03  0.58479121774E+03  0.00000000000E+00 0.  1.
         -2   -1    0    0    0  501 -0.00000000000E+00 -0.00000000000E+00 -0.16964943928E+01  0.16964943928E+01  0.00000000000E+00 0.  1.
          2    1    1    2  502    0  0.33333551264E+01  0.21877367157E+02  0.50021821331E+03  0.50070749083E+03  0.00000000000E+00 0.  1.
         -2    1    1    2    0  502 -0.33333551264E+01 -0.21877367157E+02  0.82876510039E+02  0.85780221300E+02  0.00000000000E+00 0.  1.
</event>
<event>
 4    1  0.5573045E+003  0.3396671E+02  0.7546771E-02  0.1387977E+00
          2   -1    0    0  501    0  0.00000000000E+00  0.00000000000E+00  0.73912541458E+03  0.73912541458E+03  0.00000000000E+00 0.  1.
         -2   -1    0    0    0  501 -0.00000000000E+00 -0.00000000000E+00 -0.97119924103E+02  0.97119924103E+02  0.00000000000E+00 0. -1.
          2    1    1    2  502    0 -0.19404266216E+02  0.27878524660E+02  0.73575168726E+03  0.73653532365E+03  0.00000000000E+00 0.  1.
         -2    1    1    2    0  502  0.19404266216E+02 -0.27878524660E+02 -0.93746196786E+02  0.99710015026E+02  0.00000000000E+00 0. -1.
</event>
<event>
 4    1  0.5573045E+003  0.2055125E+02  0.7546771E-02  0.1525769E+00
          2   -1    0    0  501    0  0.00000000000E+00  0.00000000000E+00  0.15028161022E+03  0.15028161022E+03  0.00000000000E+00 0.  1.
         -2   -1    0    0    0  501 -0.00000000000E+00 -0.00000000000E+00 -0.37933676327E+01  0.37933676327E+01  0.00000000000E+00 0. -1.
          2    1    1    2  502    0  0.12155775415E+02 -0.16570785429E+02  0.11245944268E+03  0.11432182667E+03  0.00000000000E+00 0.  1.
         -2    1    1    2    0  502 -0.12155775415E+02  0.16570785429E+02  0.34028799907E+02  0.39753151180E+02  0.00000000000E+00 0. -1.
</event>
<event>
 4    1  0.5573045E+003  0.5598694E+02  0.7546771E-02  0.1274113E+00
          2   -1    0    0  501    0  0.00000000000E+00  0.00000000000E+00  0.30388052845E+04  0.30388052845E+04  0.00000000000E+00 0.  1.
         -2   -1    0    0    0  501 -0.00000000000E+00 -0.00000000000E+00 -0.57504778395E+01  0.57504778395E+01  0.00000000000E+00 0. -1.
          2    1    1    2  502    0 -0.53383473794E+02  0.16874293101E+02  0.28955322633E+04  0.28960734841E+04  0.00000000000E+00 0.  1.
         -2    1    1    2    0  502  0.53383473794E+02 -0.16874293101E+02  0.13752254335E+03  0.14848227831E+03  0.00000000000E+00 0. -1.
</event>
<event>
 4    1  0.5573045E+003  0.2023848E+02  0.7546771E-02  0.1530421E+00
          2   -1    0    0  501    0  0.00000000000E+00  0.00000000000E+00  0.27667852935E+03  0.27667852935E+03  0.00000000000E+00 0. -1.
         -2   -1    0    0    0  501 -0.00000000000E+00 -0.00000000000E+00 -0.41880455136E+02  0.41880455136E+02  0.00000000000E+00 0. -1.
          2    1    1    2  502    0  0.18027686582E+01 -0.20158028408E+02  0.27383806983E+03  0.27458493143E+03  0.00000000000E+00 0. -1.
         -2    1    1    2    0  502 -0.18027686582E+01  0.20158028408E+02 -0.39039995614E+02  0.43974053050E+02  0.00000000000E+00 0. -1.
</event>
<event>
 4    1  0.5573045E+003  0.2179924E+02  0.7546771E-02  0.1508153E+00
          2   -1    0    0  501    0  0.00000000000E+00  0.00000000000E+00  0.15289273377E+04  0.15289273377E+04  0.00000000000E+00 0.  1.
         -2   -1    0    0    0  501 -0.00000000000E+00 -0.00000000000E+00 -0.32133487336E+01  0.32133487336E+01  0.00000000000E+00 0.  1.
          2    1    1    2  502    0 -0.18239039619E+02 -0.11939199301E+02  0.14909362810E+04  0.14910956378E+04  0.00000000000E+00 0.  1.
         -2    1    1    2    0  502  0.18239039619E+02  0.11939199301E+02  0.34777707946E+02  0.41045048619E+02  0.00000000000E+00 0.  1.
</event>
<event>
 4    1  0.5573045E+003  0.4948204E+02  0.7546771E-02  0.1300434E+00
          2   -1    0    0  501    0  0.00000000000E+00  0.00000000000E+00  0.26841592688E+03  0.26841592688E+03  0.00000000000E+00 0.  1.
         -2   -1    0    0    0  501 -0.00000000000E+00 -0.00000000000E+00 -0.11340425045E+02  0.11340425045E+02  0.00000000000E+00 0. -1.
          2    1    1    2  502    0 -0.79609879507E+01  0.48837437621E+02  0.19040545998E+03  0.19673004812E+03  0.00000000000E+00 0.  1.
         -2    1    1    2    0  502  0.79609879507E+01 -0.48837437621E+02  0.66670041848E+02  0.83026303799E+02  0.00000000000E+00 0. -1.
</event>
<event>
 4    1  0.5573045E+003  0.2048614E+02  0.7546771E-02  0.1526729E+00
          2   -1    0    0  501    0  0.00000000000E+00  0.00000000000E+00  0.39180206487E+02  0.39180206487E+02  0.00000000000E+00 0.  1.
         -2   -1    0    0    0  501 -0.00000000000E+00 -0.00000000000E+00 -0.50021086393E+02  0.50021086393E+02  0.00000000000E+00 0.  1.
          2    1    1    2  502    0 -0.17988863257E+02  0.98021727495E+01  0.34117442531E+02  0.39795498197E+02  0.00000000000E+00 0.  1.
         -2    1    1    2    0  502  0.17988863257E+02 -0.98021727495E+01 -0.44958322437E+02  0.49405794683E+02  0.00000000000E+00 0.  1.
</event>
<event>
 4    1  0.5573045E+003  0.2398324E+02  0.7546771E-02  0.1480507E+00
          2   -1    0    0  501    0  0.00000000000E+00  0.00000000000E+00  0.11140560035E+04  0.11140560035E+04  0.00000000000E+00 0.  1.
         -2   -1    0    0    0  501 -0.00000000000E+00 -0.00000000000E+00 -0.15645538193E+01  0.15645538193E+01  0.00000000000E+00 0. -1.
          2    1    1    2  502    0  0.13620331274E+02  0.19740378368E+02  0.10128319875E+04  0.10131159020E+04  0.00000000000E+00 0.  1.
         -2    1    1    2    0  502 -0.13620331274E+02 -0.19740378368E+02  0.99659462207E+02  0.10250465536E+03  0.00000000000E+00 0. -1.
</event>
<event>
 4    1  0.5573045E+003  0.2435919E+02  0.7546771E-02  0.1476101E+00
          2   -1    0    0  501    0  0.00000000000E+00  0.00000000000E+00  0.41203845699E+02  0.41203845699E+02  0.00000000000E+00 0.  1.
         -2   -1    0    0    0  501 -0.00000000000E+00 -0.00000000000E+00 -0.55045783272E+02  0.55045783272E+02  0.00000000000E+00 0. -1.
          2    1    1    2  502    0 -0.23968046504E+02  0.43477423493E+01  0.34432341948E+02  0.42177675242E+02  0.00000000000E+00 0.  1.
         -2    1    1    2    0  502  0.23968046504E+02 -0.43477423493E+01 -0.48274279522E+02  0.54071953729E+02  0.00000000000E+00 0. -1.
</event>
<event>
 4    1  0.5573045E+003  0.2911244E+02  0.7546771E-02  0.1427469E+00
          2   -1    0    0  501    0  0.00000000000E+00  0.00000000000E+00  0.73898513895E+03  0.73898513895E+03  0.00000000000E+00 0. -1.
         -2   -1    0    0    0  501 -0.00000000000E+00 -0.00000000000E+00 -0.21617396054E+02  0.21617396054E+02  0.00000000000E+00 0.  1.
          2    1    1    2  502    0  0.20047579542E+02  0.21109914399E+02  0.72875941292E+03  0.72934067202E+03  0.00000000000E+00 0. -1.
         -2    1    1    2    0  502 -0.20047579542E+02 -0.21109914399E+02 -0.11391670028E+02  0.31261862988E+02  0.00000000000E+00 0.  1.
</event>
<event>
 4    1  0.5573045E+003  0.2578631E+02  0.7546771E-02  0.1460196E+00
          2   -1    0    0  501    0  0.00000000000E+00  0.00000000000E+00  0.18018795321E+04  0.18018795321E+04  0.00000000000E+00 0. -1.
         -2   -1    0    0    0  501 -0.00000000000E+00 -0.00000000000E+00 -0.23155826211E+02  0.23155826211E+02  0.00000000000E+00 0.  1.
          2    1    1    2  502    0  0.21696290941E+02  0.13935734622E+02  0.17945791710E+04  0.17947644232E+04  0.00000000000E+00 0. -1.
         -2    1    1    2    0  502 -0.21696290941E+02 -0.13935734622E+02 -0.15855465107E+02  0.30270935132E+02  0.00000000000E+00 0.  1.
</event>
<event>
 4    1  0.5573045E+003  0.2155040E+02  0.7546771E-02  0.1511550E+00
          2   -1    0    0  501    0  0.00000000000E+00  0.00000000000E+00  0.53994904731E+03  0.53994904731E+03  0.00000000000E+00 0.  1.
         -2   -1    0    0    0  501 -0.00000000000E+00 -0.00000000000E+00 -0.18511974139E+02  0.18511974139E+02  0.00000000000E+00 0. -1.
          2    1    1    2  502    0  0.18918665754E+02  0.10320059907E+02  0.53338498462E+03  0.53382015826E+03  0.00000000000E+00 0.  1.
         -2    1    1    2    0  502 -0.18918665754E+02 -0.10320059907E+02 -0.11947911450E+02  0.24640863184E+02  0.00000000000E+00 0. -1.
</event>
<event>
 4    1  0.5573045E+003  0.3030259E+02  0.7546771E-02  0.1416985E+00
          2   -1    0    0  501    0  0.00000000000E+00  0.00000000000E+00  0.34512509573E+02  0.34512509573E+02  0.00000000000E+00 0.  1.
         -2   -1    0    0    0  501 -0.00000000000E+00 -0.00000000000E+00 -0.27079258768E+03  0.27079258768E+03  0.00000000000E+00 0.  1.
          2    1    1    2  502    0 -0.27085989932E+02 -0.13586618838E+02  0.26819363351E+02  0.40466347903E+02  0.00000000000E+00 0.  1.
         -2    1    1    2    0  502  0.27085989932E+02  0.13586618838E+02 -0.26309944146E+03  0.26483874935E+03  0.00000000000E+00 0.  1.
</event>
<event>
 4    1  0.5573045E+003  0.2099867E+02  0.7546771E-02  0.1519284E+00
          2   -1    0    0  501    0  0.00000000000E+00  0.00000000000E+00  0.83985207326E+03  0.83985207326E+03  0.00000000000E+00 0. -1.
         -2   -1    0    0    0  501 -0.00000000000E+00 -0.00000000000E+00 -0.26701190126E+01  0.26701190126E+01  0.00000000000E+00 0. -1.
          2    1    1    2  502    0  0.20141511055E+02 -0.59383096467E+01  0.79617110599E+03  0.79644797319E+03  0.00000000000E+00 0. -1.
         -2    1    1    2    0  502 -0.20141511055E+02  0.59383096467E+01  0.41010848255E+02  0.46074219077E+02  0.00000000000E+00 0. -1.
</event>
<event>
 4    1  0.5573045E+003  0.6178330E+02  0.7546771E-02  0.1253891E+00
          2   -1    0    0  501    0  0.00000000000E+00  0.00000000000E+00  0.32310144574E+02  0.32310144574E+02  0.00000000000E+00 0.  1.
         -2   -1    0    0    0  501 -0.00000000000E+00 -0.00000000000E+00 -0.13953155246E+03  0.13953155246E+03  0.00000000000E+00 0.  1.
          2    1    1    2  502    0 -0.61776329238E+02  0.92819962734E+00 -0.19969934237E+02  0.64930537362E+02  0.00000000000E+00 0.  1.
         -2    1    1    2    0  502  0.61776329238E+02 -0.92819962734E+00 -0.87251473653E+02  0.10691115968E+03  0.00000000000E+00 0.  1.
</event>
<event>
 4    1  0.5573045E+003  0.2403474E+02  0.7546771E-02  0.1479898E+00
          2   -1    0    0  501    0  0.00000000000E+00  0.00000000000E+00  0.34174297426E+03  0.34174297426E+03  0.00000000000E+00 0.  1.
         -2   -1    0    0    0  501 -0.00000000000E+00 -0.00000000000E+00 -0.59250498441E+01  0.59250498441E+01  0.00000000000E+00 0.  1.
          2    1    1    2  502    0 -0.17674379128E+02 -0.16287568019E+02  0.31486910625E+03  0.31578508929E+03  0.00000000000E+00 0.  1.
         -2    1    1    2    0  502  0.17674379128E+02  0.16287568019E+02  0.20948818163E+02  0.31882934808E+02  0.00000000000E+00 0.  1.
</event>
<event>
 4    1  0.5573045E+003  0.2251729E+02  0.7546771E-02  0.1498650E+00
          2   -1    0    0  501    0  0.00000000000E+00  0.00000000000E+00  0.84029362361E+03  0.84029362361E+03  0.00000000000E+00 0. -1.
         -2   -1    0    0    0  501 -0.00000000000E+00 -0.00000000000E+00 -0.45165685993E+01  0.45165685993E+01  0.00000000000E+00 0. -1.
          2    1    1    2  502    0  0.20970583964E+02  0.82013930656E+01  0.81106674495E+03  0.81137925350E+03  0.00000000000E+00 0. -1.
         -2    1    1    2    0  502 -0.20970583964E+02 -0.82013930656E+01  0.24710310065E+02  0.33430938717E+02  0.00000000000E+00 0. -1.
</event>
<event>
 4    1  0.5573045E+003  0.2214479E+02  0.7546771E-02  0.1503526E+00
          2   -1    0    0  501    0  0.00000000000E+00  0.00000000000E+00  0.22048946123E+02  0.22048946123E+02  0.00000000000E+00 0. -1.
         -2   -1    0    0    0  501 -0.00000000000E+00 -0.00000000000E+00 -0.22832174140E+02  0.22832174140E+02  0.00000000000E+00 0.  1.
          2    1    1    2  502    0  0.57756382372E+00  0.22137244354E+02 -0.40024560975E+01  0.22503573547E+02  0.00000000000E+00 0.  1.
         -2    1    1    2    0  502 -0.57756382372E+00 -0.22137244354E+02  0.32192280807E+01  0.22377546716E+02  0.00000000000E+00 0. -1.
</event>
<event>
 4    1  0.5573045E+003  0.2260550E+02  0.7546771E-02  0.1497512E+00
          2   -1    0    0  501    0  0.00000000000E+00  0.00000000000E+00  0.72364534373E+03  0.72364534373E+03  0.00000000000E+00 0. -1.
         -2   -1    0    0    0  501 -0.00000000000E+00 -0.00000000000E+00 -0.12723250873E+02  0.12723250873E+02  0.00000000000E+00 0.  1.
          2    1    1    2  502    0 -0.15350123043E+02 -0.16594650549E+02  0.71328211390E+03  0.71364023339E+03  0.00000000000E+00 0. -1.
         -2    1    1    2    0  502  0.15350123043E+02  0.16594650549E+02 -0.23600210381E+01  0.22728361216E+02  0.00000000000E+00 0.  1.
</event>
<event>
 4    1  0.5573045E+003  0.4554796E+02  0.7546771E-02  0.1318722E+00
          2   -1    0    0  501    0  0.00000000000E+00  0.00000000000E+00  0.16798994647E+04  0.16798994647E+04  0.00000000000E+00 0.  1.
         -2   -1    0    0    0  501 -0.00000000000E+00 -0.00000000000E+00 -0.12806182111E+01  0.12806182111E+01  0.00000000000E+00 0. -1.
          2    1    1    2  502    0 -0.44169600626E+02 -0.11120308763E+02  0.68059508108E+03  0.68211749668E+03  0.00000000000E+00 0. -1.
         -2    1    1    2    0  502  0.44169600626E+02  0.11120308763E+02  0.99802376546E+03  0.99906258628E+03  0.00000000000E+00 0.  1.
</event>
<event>
 4    1  0.5573045E+003  0.3450038E+02  0.7546771E-02  0.1384110E+00
          2   -1    0    0  501    0  0.00000000000E+00  0.00000000000E+00  0.79794170670E+03  0.79794170670E+03  0.00000000000E+00 0.  1.
         -2   -1    0    0    0  501 -0.00000000000E+00 -0.00000000000E+00 -0.77918715466E+02  0.77918715466E+02  0.00000000000E+00 0.  1.
          2    1    1    2  502    0 -0.34487597466E+02 -0.93893891017E+00  0.79372956223E+03  0.79447900787E+03  0.00000000000E+00 0.  1.
         -2    1    1    2    0  502  0.34487597466E+02  0.93893891017E+00 -0.73706570996E+02  0.81381414298E+02  0.00000000000E+00 0.  1.
</event>
<event>
 4    1  0.5573045E+003  0.2863547E+02  0.7546771E-02  0.1431837E+00
          2   -1    0    0  501    0  0.00000000000E+00  0.00000000000E+00  0.48515852846E+03  0.48515852846E+03  0.00000000000E+00 0.  1.
         -2   -1    0    0    0  501 -0.00000000000E+00 -0.00000000000E+00 -0.73600483131E+01  0.73600483131E+01  0.00000000000E+00 0. -1.
          2    1    1    2  502    0  0.44026238308E+01 -0.28294996908E+02  0.45504164584E+03  0.45594176097E+03  0.00000000000E+00 0.  1.
         -2    1    1    2    0  502 -0.44026238308E+01  0.28294996908E+02  0.22756834303E+02  0.36576815800E+02  0.00000000000E+00 0. -1.
</event>
<event>
 4    1  0.5573045E+003  0.3566326E+02  0.7546771E-02  0.1375959E+00
          2   -1    0    0  501    0  0.00000000000E+00  0.00000000000E+00  0.72967319591E+03  0.72967319591E+03  0.00000000000E+00 0.  1.
         -2   -1    0    0    0  501 -0.00000000000E+00 -0.00000000000E+00 -0.39767915477E+01  0.39767915477E+01  0.00000000000E+00 0. -1.
          2    1    1    2  502    0  0.17218900855E+02 -0.31231039423E+02  0.63776889736E+03  0.63876524233E+03  0.00000000000E+00 0.  1.
         -2    1    1    2    0  502 -0.17218900855E+02  0.31231039423E+02  0.87927506996E+02  0.94884745120E+02  0.00000000000E+00 0. -1.
</event>
<event>
 4    1  0.5573045E+003  0.4876878E+02  0.7546771E-02  0.1303601E+00
          2   -1    0    0  501    0  0.00000000000E+00  0.00000000000E+00  0.11753033072E+04  0.11753033072E+04  0.00000000000E+00 0. -1.
         -2   -1    0    0    0  501 -0.00000000000E+00 -0.00000000000E+00 -0.28783643645E+03  0.28783643645E+03  0.00000000000E+00 0. -1.
          2    1    1    2  502    0 -0.40374735149E+02 -0.27354605318E+02  0.11727271096E+04  0.11737407155E+04  0.00000000000E+00 0. -1.
         -2    1    1    2    0  502  0.40374735149E+02  0.27354605318E+02 -0.28526023880E+03  0.28939902818E+03  0.00000000000E+00 0. -1.
</event>
<event>
 4    1  0.5573045E+003  0.2014928E+02  0.7546771E-02  0.1531766E+00
          2   -1    0    0  501    0  0.00000000000E+00  0.00000000000E+00  0.10078450669E+03  0.10078450669E+03  0.00000000000E+00 0.  1.
         -2   -1    0    0    0  501 -0.00000000000E+00 -0.00000000000E+00 -0.10666412530E+03  0.10666412530E+03  0.00000000000E+00 0.  1.
          2    1    1    2  502    0  0.15058677902E+01 -0.20092930772E+02  0.98807003065E+02  0.10084055414E+03  0.00000000000E+00 0.  1.
         -2    1    1    2    0  502 -0.15058677902E+01  0.20092930772E+02 -0.10468662167E+03  0.10660807785E+03  0.00000000000E+00 0.  1.
</event>
<event>
 4    1  0.5573045E+003  0.4218074E+02  0.7546771E-02  0.1336160E+00
          2   -1    0    0  501    0  0.00000000000E+00  0.00000000000E+00  0.19494392349E+02  0.19494392349E+02  0.00000000000E+00 0.  1.
         -2   -1    0    0    0  501 -0.00000000000E+00 -0.00000000000E+00 -0.91945289992E+02  0.91945289992E+02  0.00000000000E+00 0.  1.
          2    1    1    2  502    0 -0.22160505556E+01 -0.42122482721E+02 -0.31443238454E+02  0.52610756268E+02  0.00000000000E+00 0.  1.
         -2    1    1    2    0  502  0.22160505556E+01  0.42122482721E+02 -0.41007659190E+02  0.58828926073E+02  0.00000000000E+00 0.  1.
</event>
<event>
 4    1  0.5937711E+003  0.2118603E+02  0.7546771E-02  0.1516625E+00
          2   -1    0    0  501    0  0.00000000000E+00  0.00000000000E+00  0.97593026506E+03  0.97593026506E+03  0.00000000000E+00 0.  1.
         -2   -1    0    0    0  501 -0.00000000000E+00 -0.00000000000E+00 -0.10719154957E+03  0.10719154957E+03  0.00000000000E+00 0.  1.
          2    1    1    2  502    0 -0.10389733135E+02 -0.18463512439E+02  0.97476720077E+03  0.97499740694E+03  0.00000000000E+00 0.  1.
         -2    1    1    2    0  502  0.10389733135E+02  0.18463512439E+02 -0.10602848528E+03  0.10812440769E+03  0.00000000000E+00 0.  1.
</event>
<event>
 4    1  0.5573045E+003  0.2114528E+02  0.7546771E-02  0.1517201E+00
          2   -1    0    0  501    0  0.00000000000E+00  0.00000000000E+00  0.48352357115E+03  0.48352357115E+03  0.00000000000E+00 0.  1.
         -2   -1    0    0    0  501 -0.00000000000E+00 -0.00000000000E+00 -0.11264319443E+03  0.11264319443E+03  0.00000000000E+00 0. -1.
          2    1    1    2  502    0  0.20968174368E+02  0.27310273026E+01  0.48229752705E+03  0.48276083877E+03  0.00000000000E+00 0.  1.
         -2    1    1    2    0  502 -0.20968174368E+02 -0.27310273026E+01 -0.11141715033E+03  0.11340592681E+03  0.00000000000E+00 0. -1.
</event>
<event>
 4    1  0.5573045E+003  0.2249058E+02  0.7546771E-02  0.1498996E+00
          2   -1    0    0  501    0  0.00000000000E+00  0.00000000000E+00  0.32648674210E+02  0.32648674210E+02  0.00000000000E+00 0.  1.
         -2   -1    0    0    0  501 -0.00000000000E+00 -0.00000000000E+00 -0.59667589365E+02  0.59667589365E+02  0.00000000000E+00 0.  1.
          2    1    1    2  502    0  0.70588197708E+01  0.21354134599E+02  0.26206516948E+02  0.34534150222E+02  0.00000000000E+00 0.  1.
         -2    1    1    2    0  502 -0.70588197708E+01 -0.21354134599E+02 -0.53225432103E+02  0.57782113353E+02  0.00000000000E+00 0.  1.
</event>
<event>
 4    1  0.5573045E+003  0.3288012E+02  0.7546771E-02  0.1396112E+00
          2   -1    0    0  501    0  0.00000000000E+00  0.00000000000E+00  0.34297949702E+03  0.34297949702E+03  0.00000000000E+00 0. -1.
         -2   -1    0    0    0  501 -0.00000000000E+00 -0.00000000000E+00 -0.24196768119E+02  0.24196768119E+02  0.00000000000E+00 0.  1.
          2    1    1    2  502    0  0.86717546091E+01  0.31715977616E+02  0.33060449062E+03  0.33223550650E+03  0.00000000000E+00 0. -1.
         -2    1    1    2    0  502 -0.86717546091E+01 -0.31715977616E+02 -0.11821761716E+02  0.34940758638E+02  0.00000000000E+00 0.  1.
</event>
<event>
 4    1  0.5573045E+003  0.4473983E+02  0.7546771E-02  0.1322745E+00
          2   -1    0    0  501    0  0.00000000000E+00  0.00000000000E+00  0.44322331925E+03  0.44322331925E+03  0.00000000000E+00 0. -1.
         -2   -1    0    0    0  501 -0.00000000000E+00 -0.00000000000E+00 -0.86326074493E+01  0.86326074493E+01  0.00000000000E+00 0. -1.
          2    1    1    2  502    0  0.38094308029E+02  0.23462235710E+02  0.37330879789E+03  0.37598020080E+03  0.00000000000E+00 0. -1.
         -2    1    1    2    0  502 -0.38094308029E+02 -0.23462235710E+02  0.61281913912E+02  0.75875725904E+02  0.00000000000E+00 0. -1.
</event>
<event>
 4    1  0.5573045E+003  0.2049432E+02  0.7546771E-02  0.1526609E+00
          2   -1    0    0  501    0  0.00000000000E+00  0.00000000000E+00  0.33516245697E+03  0.33516245697E+03  0.00000000000E+00 0. -1.
         -2   -1    0    0    0  501 -0.00000000000E+00 -0.00000000000E+00 -0.13646365144E+02  0.13646365144E+02  0.00000000000E+00 0.  1.
          2    1    1    2  502    0  0.27320974537E+01  0.20311394628E+02  0.32696168669E+03  0.32760336028E+03  0.00000000000E+00 0. -1.
         -2    1    1    2    0  502 -0.27320974537E+01 -0.20311394628E+02 -0.54455948579E+01  0.21205461834E+02  0.00000000000E+00 0.  1.
</event>
<event>
 4    1  0.5573045E+003  0.3931210E+02  0.7546771E-02  0.1352565E+00
          2   -1    0    0  501    0  0.00000000000E+00  0.00000000000E+00  0.95723221048E+03  0.95723221048E+03  0.00000000000E+00 0.  1.
         -2   -1    0    0    0  501 -0.00000000000E+00 -0.00000000000E+00 -0.17230118050E+01  0.17230118050E+01  0.00000000000E+00 0. -1.
          2    1    1    2  502    0  0.55480935245E+00 -0.39308184457E+02  0.59808741401E+03  0.59937800758E+03  0.00000000000E+00 0.  1.
         -2    1    1    2    0  502 -0.55480935245E+00  0.39308184457E+02  0.35742178467E+03  0.35957721471E+03  0.00000000000E+00 0. -1.
</event>
<event>
 4    1  0.5573045E+003  0.2570749E+02  0.7546771E-02  0.1461042E+00
          2   -1    0    0  501    0  0.00000000000E+00  0.00000000000E+00  0.12401223868E+04  0.12401223868E+04  0.00000000000E+00 0.  1.
         -2   -1    0    0    0  501 -0.00000000000E+00 -0.00000000000E+00 -0.94972860447E+01  0.94972860447E+01  0.00000000000E+00 0.  1.
          2    1    1    2  502    0  0.13387440986E+02 -0.21946559421E+02  0.12223396841E+04  0.12226099862E+04  0.00000000000E+00 0.  1.
         -2    1    1    2    0  502 -0.13387440986E+02  0.21946559421E+02  0.82854167467E+01  0.27009686729E+02  0.00000000000E+00 0.  1.
</event>
<event>
 4    1  0.5573045E+003  0.2418795E+02  0.7546771E-02  0.1478096E+00
          2   -1    0    0  501    0  0.00000000000E+00  0.00000000000E+00  0.54957928908E+02  0.54957928908E+02  0.00000000000E+00 0.  1.
         -2   -1    0    0    0  501 -0.00000000000E+00 -0.00000000000E+00 -0.29951994652E+02  0.29951994652E+02  0.00000000000E+00 0.  1.
          2    1    1    2  502    0  0.10311683306E+02  0.21879811662E+02  0.46588243159E+02  0.52493060223E+02  0.00000000000E+00 0.  1.
         -2    1    1    2    0  502 -0.10311683306E+02 -0.21879811662E+02 -0.21582308903E+02  0.32416863336E+02  0.00000000000E+00 0.  1.
</event>
<event>
 4    1  0.5573045E+003  0.2390624E+02  0.7546771E-02  0.1481422E+00
          2   -1    0    0  501    0  0.00000000000E+00  0.00000000000E+00  0.87985139903E+03  0.87985139903E+03  0.00000000000E+00 0. -1.
         -2   -1    0    0    0  501 -0.00000000000E+00 -0.00000000000E+00 -0.11815943077E+02  0.11815943077E+02  0.00000000000E+00 0. -1.
          2    1    1    2  502    0  0.10761723651E+02  0.21346982884E+02  0.86742391419E+03  0.86775328019E+03  0.00000000000E+00 0. -1.
         -2    1    1    2    0  502 -0.10761723651E+02 -0.21346982884E+02  0.61154176722E+00  0.23914061921E+02  0.00000000000E+00 0. -1.
</event>
<event>
 4    1  0.5573045E+003  0.3220568E+02  0.7546771E-02  0.1401350E+00
          2   -1    0    0  501    0  0.00000000000E+00  0.00000000000E+00  0.10945791873E+02  0.10945791873E+02  0.00000000000E+00 0.  1.
         -2   -1    0    0    0  501 -0.00000000000E+00 -0.00000000000E+00 -0.19156374210E+03  0.19156374210E+03  0.00000000000E+00 0.  1.
          2    1    1    2  502    0  0.26287247432E+02  0.18606078949E+02 -0.18329525751E+02  0.37056403841E+02  0.00000000000E+00 0.  1.
         -2    1    1    2    0  502 -0.26287247432E+02 -0.18606078949E+02 -0.16228842448E+03  0.16545313013E+03  0.00000000000E+00 0.  1.
</event>
<event>
 4    1  0.5573045E+003  0.2316643E+02  0.7546771E-02  0.1490419E+00
          2   -1    0    0  501    0  0.00000000000E+00  0.00000000000E+00  0.41252204817E+02  0.41252204817E+02  0.00000000000E+00 0. -1.
         -2   -1    0    0    0  501 -0.00000000000E+00 -0.00000000000E+00 -0.32283637614E+03  0.32283637614E+03  0.00000000000E+00 0.  1.
          2    1    1    2  502    0  0.23163046220E+02 -0.39608505236E+00  0.37546432355E+02  0.44118229522E+02  0.00000000000E+00 0. -1.
         -2    1    1    2    0  502 -0.23163046220E+02  0.39608505236E+00 -0.31913060368E+03  0.31997035143E+03  0.00000000000E+00 0.  1.
</event>
<event>
 4    1  0.5573045E+003  0.2523326E+02  0.7546771E-02  0.1466211E+00
          2   -1    0    0  501    0  0.00000000000E+00  0.00000000000E+00  0.16194158285E+02  0.16194158285E+02  0.00000000000E+00 0. -1.
         -2   -1    0    0    0  501 -0.00000000000E+00 -0.00000000000E+00 -0.80880781532E+02  0.80880781532E+02  0.00000000000E+00 0.  1.
          2    1    1    2  502    0 -0.19023332323E+02 -0.16578001186E+02  0.24510006836E+01  0.25352015706E+02  0.00000000000E+00 0. -1.
         -2    1    1    2    0  502  0.19023332323E+02  0.16578001186E+02 -0.67137623930E+02  0.71722924111E+02  0.00000000000E+00 0.  1.
</event>
<event>
 4    1  0.5573045E+003  0.2151478E+02  0.7546771E-02  0.1512040E+00
          2   -1    0    0  501    0  0.00000000000E+00  0.00000000000E+00  0.11263819588E+02  0.11263819588E+02  0.00000000000E+00 0. -1.
         -2   -1    0    0    0  501 -0.00000000000E+00 -0.00000000000E+00 -0.31103220822E+03  0.31103220822E+03  0.00000000000E+00 0.  1.
          2    1    1    2  502    0 -0.20780846014E+02 -0.55715677738E+01  0.24104202990E+00  0.21516134173E+02  0.00000000000E+00 0. -1.
         -2    1    1    2    0  502  0.20780846014E+02  0.55715677738E+01 -0.30000943066E+03  0.30077989363E+03  0.00000000000E+00 0.  1.
</event>
<event>
 4    1  0.5573045E+003  0.2137789E+02  0.7546771E-02  0.1513937E+00
          2   -1    0    0  501    0  0.00000000000E+00  0.00000000000E+00  0.11626513116E+04  0.11626513116E+04  0.00000000000E+00 0. -1.
         -2   -1    0    0    0  501 -0.00000000000E+00 -0.00000000000E+00 -0.21280557951E+02  0.21280557951E+02  0.00000000000E+00 0. -1.
          2    1    1    2  502    0  0.14770937891E+02  0.15454239199E+02  0.11571586433E+04  0.11573560990E+04  0.00000000000E+00 0. -1.
         -2    1    1    2    0  502 -0.14770937891E+02 -0.15454239199E+02 -0.15787889718E+02  0.26575770490E+02  0.00000000000E+00 0. -1.
</event>
<event>
 4    1  0.5573045E+003  0.2664127E+02  0.7546771E-02  0.1451245E+00
          2   -1    0    0  501    0  0.00000000000E+00  0.00000000000E+00  0.58621698832E+03  0.58621698832E+03  0.00000000000E+00 0. -1.
         -2   -1    0    0    0  501 -0.00000000000E+00 -0.00000000000E+00 -0.27986415863E+01  0.27986415863E+01  0.00000000000E+00 0.  1.
          2    1    1    2  502    0 -0.26292249125E+02 -0.42982351354E+01  0.51354657970E+03  0.51423715026E+03  0.00000000000E+00 0. -1.
         -2    1    1    2    0  502  0.26292249125E+02  0.42982351354E+01  0.69871767036E+02  0.74778479646E+02  0.00000000000E+00 0.  1.
</event>
<event>
 4    1  0.5573045E+003  0.2401966E+02  0.7546771E-02  0.1480076E+00
          2   -1    0    0  501    0  0.00000000000E+00  0.00000000000E+00  0.31817965714E+02  0.31817965714E+02  0.00000000000E+00 0.  1.
         -2   -1    0    0    0  501 -0.00000000000E+00 -0.00000000000E+00 -0.52456811592E+03  0.52456811592E+03  0.00000000000E+00 0. -1.
          2    1    1    2  502    0 -0.54428700252E+01  0.23394858856E+02  0.26967555491E+02  0.36113616603E+02  0.00000000000E+00 0.  1.
         -2    1    1    2    0  502  0.54428700252E+01 -0.23394858856E+02 -0.51971770569E+03  0.52027246503E+03  0.00000000000E+00 0. -1.
</event>
<event>
 4    1  0.5573045E+003  0.2222902E+02  0.7546771E-02  0.1502413E+00
          2   -1    0    0  501    0  0.00000000000E+00  0.00000000000E+00  0.10835447217E+03  0.10835447217E+03  0.00000000000E+00 0.  1.
         -2   -1    0    0    0  501 -0.00000000000E+00 -0.00000000000E+00 -0.13764901063E+02  0.13764901063E+02  0.00000000000E+00 0.  1.
          2    1    1    2  502    0  0.19765588967E+02  0.10171077659E+02  0.97225803000E+02  0.99734578242E+02  0.00000000000E+00 0.  1.
         -2    1    1    2    0  502 -0.19765588967E+02 -0.10171077659E+02 -0.26362318975E+01  0.22384794986E+02  0.00000000000E+00 0.  1.
</event>
<event>
 4    1  0.5573045E+003  0.3791429E+02  0.7546771E-02  0.1361161E+00
          2   -1    0    0  501    0  0.00000000000E+00  0.00000000000E+00  0.11847181123E+04  0.11847181123E+04  0.00000000000E+00 0. -1.
         -2   -1    0    0    0  501 -0.00000000000E+00 -0.00000000000E+00 -0.40985108421E+02  0.40985108421E+02  0.00000000000E+00 0. -1.
          2    1    1    2  502    0  0.23706088741E+01  0.37840110296E+02  0.11755782262E+04  0.11761894659E+04  0.00000000000E+00 0. -1.
         -2    1    1    2    0  502 -0.23706088741E+01 -0.37840110296E+02 -0.31845222321E+02  0.49513754840E+02  0.00000000000E+00 0. -1.
</event>
<event>
 4    1  0.5573045E+003  0.2247465E+02  0.7546771E-02  0.1499203E+00
          2   -1    0    0  501    0  0.00000000000E+00  0.00000000000E+00  0.30779511039E+03  0.30779511039E+03  0.00000000000E+00 0. -1.
         -2   -1    0    0    0  501 -0.00000000000E+00 -0.00000000000E+00 -0.14430122412E+03  0.14430122412E+03  0.00000000000E+00 0. -1.
          2    1    1    2  502    0 -0.19653647737E+02  0.10901552288E+02  0.30650607444E+03  0.30732894979E+03  0.00000000000E+00 0. -1.
         -2    1    1    2    0  502  0.19653647737E+02 -0.10901552288E+02 -0.14301218818E+03  0.14476738472E+03  0.00000000000E+00 0. -1.
</event>
<event>
 4    1  0.5573045E+003  0.2112205E+02  0.7546771E-02  0.1517529E+00
          2   -1    0    0  501    0  0.00000000000E+00  0.00000000000E+00  0.13235295840E+03  0.13235295840E+03  0.00000000000E+00 0.  1.
         -2   -1    0    0    0  501 -0.00000000000E+00 -0.00000000000E+00 -0.17178356089E+02  0.17178356089E+02  0.00000000000E+00 0. -1.
          2    1    1    2  502    0 -0.19365895855E+02  0.84322691829E+01  0.12461727990E+03  0.12639464995E+03  0.00000000000E+00 0.  1.
         -2    1    1    2    0  502  0.19365895855E+02 -0.84322691829E+01 -0.94426775914E+01  0.23136664538E+02  0.00000000000E+00 0. -1.
</event>
<event>
 4    1  0.5573045E+003  0.2257743E+02  0.7546771E-02  0.1497874E+00
          2   -1    0    0  501    0  0.00000000000E+00  0.00000000000E+00  0.12475231834E+04  0.12475231834E+04  0.00000000000E+00 0. -1.
         -2   -1    0    0    0  501 -0.00000000000E+00 -0.00000000000E+00 -0.65591185258E+00  0.65591185258E+00  0.00000000000E+00 0. -1.
          2    1    1    2  502    0  0.20360841739E+02 -0.97558536649E+01  0.10066506793E+04  0.10069038339E+04  0.00000000000E+00 0. -1.
         -2    1    1    2    0  502 -0.20360841739E+02  0.97558536649E+01  0.24021659225E+03  0.24127526137E+03  0.00000000000E+00 0. -1.
</event>
<event>
 4    1  0.5573045E+003  0.2285801E+02  0.7546771E-02  0.1494289E+00
          2   -1    0    0  501    0  0.00000000000E+00  0.00000000000E+00  0.18104534083E+01  0.18104534083E+01  0.00000000000E+00 0. -1.
         -2   -1    0    0    0  501 -0.00000000000E+00 -0.00000000000E+00 -0.29071708556E+03  0.29071708556E+03  0.00000000000E+00 0. -1.
          2    1    1    2  502    0 -0.90443253265E+01 -0.20992576982E+02 -0.15694915853E+03  0.15860493836E+03  0.00000000000E+00 0. -1.
         -2    1    1    2    0  502  0.90443253265E+01  0.20992576982E+02 -0.13195747362E+03  0.13392260060E+03  0.00000000000E+00 0. -1.
</event>
<event>
 4    1  0.5573045E+003  0.2216694E+02  0.7546771E-02  0.1503232E+00
          2   -1    0    0  501    0  0.00000000000E+00  0.00000000000E+00  0.89539496065E+02  0.89539496065E+02  0.00000000000E+00 0.  1.
         -2   -1    0    0    0  501 -0.00000000000E+00 -0.00000000000E+00 -0.67106046232E+01  0.67106046232E+01  0.00000000000E+00 0.  1.
          2    1    1    2  502    0  0.17937941598E+02 -0.13023198260E+02  0.61957815954E+02  0.65803832711E+02  0.00000000000E+00 0.  1.
         -2    1    1    2    0  502 -0.17937941598E+02  0.13023198260E+02  0.20871075487E+02  0.30446267977E+02  0.00000000000E+00 0.  1.
</event>
<event>
 4    1  0.5573045E+003  0.2044702E+02  0.7546771E-02  0.1527308E+00
          2   -1    0    0  501    0  0.00000000000E+00  0.00000000000E+00  0.42054702723E+02  0.42054702723E+02  0.00000000000E+00 0.  1.
         -2   -1    0    0    0  501 -0.00000000000E+00 -0.00000000000E+00 -0.48164208731E+02  0.48164208731E+02  0.00000000000E+00 0. -1.
          2    1    1    2  502    0  0.80096008790E+01  0.18812950725E+02  0.37130519157E+02  0.42388161957E+02  0.00000000000E+00 0.  1.
         -2    1    1    2    0  502 -0.80096008790E+01 -0.18812950725E+02 -0.43240025165E+02  0.47830749497E+02  0.00000000000E+00 0. -1.
</event>
<event>
 4    1  0.5573045E+003  0.2272722E+02  0.7546771E-02  0.1495952E+00
          2   -1    0    0  501    0  0.00000000000E+00  0.00000000000E+00  0.12812204984E+03  0.12812204984E+03  0.00000000000E+00 0.  1.
         -2   -1    0    0    0  501 -0.00000000000E+00 -0.00000000000E+00 -0.14067436488E+02  0.14067436488E+02  0.00000000000E+00 0.  1.
          2    1    1    2  502    0  0.11033801885E+02  0.19869120565E+02  0.11707668361E+03  0.11926221775E+03  0.00000000000E+00 0.  1.
         -2    1    1    2    0  502 -0.11033801885E+02 -0.19869120565E+02 -0.30220702587E+01  0.22927268584E+02  0.00000000000E+00 0.  1.
</event>
<event>
 4    1  0.5573045E+003  0.2003987E+02  0.7546771E-02  0.1533427E+00
          2   -1    0    0  501    0  0.00000000000E+00  0.00000000000E+00  0.13040089930E+03  0.13040089930E+03  0.00000000000E+00 0. -1.
         -2   -1    0    0    0  501 -0.00000000000E+00 -0.00000000000E+00 -0.37696183066E+02  0.37696183066E+02  0.00000000000E+00 0. -1.
          2    1    1    2  502    0 -0.18873841973E+02  0.67360467822E+01  0.12689445536E+03  0.12846711267E+03  0.00000000000E+00 0. -1.
         -2    1    1    2    0  502  0.18873841973E+02 -0.67360467822E+01 -0.34189739121E+02  0.39629969698E+02  0.00000000000E+00 0. -1.
</event>
<event>
 4    1  0.5573045E+003  0.2109506E+02  0.7546771E-02  0.1517912E+00
          2   -1    0    0  501    0  0.00000000000E+00  0.00000000000E+00  0.57345433260E+01  0.57345433260E+01  0.00000000000E+00 0. -1.
         -2   -1    0    0    0  501 -0.00000000000E+00 -0.00000000000E+00 -0.19474334698E+03  0.19474334698E+03  0.00000000000E+00 0.  1.
          2    1    1    2  502    0  0.12923608736E+02  0.16672788699E+02 -0.16760976920E+02  0.26943123298E+02  0.00000000000E+00 0. -1.
         -2    1    1    2    0  502 -0.12923608736E+02 -0.16672788699E+02 -0.17224782673E+03  0.17353476701E+03  0.00000000000E+00 0.  1.
</event>
<event>
 4    1  0.5573045E+003  0.3887721E+02  0.7546771E-02  0.1355194E+00
          2   -1    0    0  501    0  0.00000000000E+00  0.00000000000E+00  0.59959582833E+03  0.59959582833E+03  0.00000000000E+00 0. -1.
         -2   -1    0    0    0  501 -0.00000000000E+00 -0.00000000000E+00 -0.30210514547E+01  0.30210514547E+01  0.00000000000E+00 0. -1.
          2    1    1    2  502    0 -0.37077739564E+02 -0.11690977906E+02  0.42090232453E+03  0.42269398450E+03  0.00000000000E+00 0. -1.
         -2    1    1    2    0  502  0.37077739564E+02  0.11690977906E+02  0.17567245235E+03  0.17992289529E+03  0.00000000000E+00 0. -1.
</event>
<event>
 4    1  0.5573045E+003  0.2209025E+02  0.7546771E-02  0.1504249E+00
          2   -1    0    0  501    0  0.00000000000E+00  0.00000000000E+00  0.70071214705E+02  0.70071214705E+02  0.00000000000E+00 0. -1.
         -2   -1    0    0    0  501 -0.00000000000E+00 -0.00000000000E+00 -0.93417025379E+01  0.93417025379E+01  0.00000000000E+00 0.  1.
          2    1    1    2  502    0  0.21513391074E+02  0.50152949881E+01  0.50396680601E+02  0.55025490411E+02  0.00000000000E+00 0. -1.
         -2    1    1    2    0  502 -0.21513391074E+02 -0.50152949881E+01  0.10332831567E+02  0.24387426833E+02  0.00000000000E+00 0.  1.
</event>
<event>
 4    1  0.5573045E+003  0.3339921E+02  0.7546771E-02  0.1392180E+00
          2   -1    0    0  501    0  0.00000000000E+00  0.00000000000E+00  0.32289176332E+03  0.32289176332E+03  0.00000000000E+00 0.  1.
         -2   -1    0    0    0  501 -0.00000000000E+00 -0.00000000000E+00 -0.38257537792E+01  0.38257537792E+01  0.00000000000E+00 0.  1.
          2    1    1    2  502    0  0.21671566262E+02  0.25413593753E+02  0.21040492561E+03  0.21303929274E+03  0.00000000000E+00 0.  1.
         -2    1    1    2    0  502 -0.21671566262E+02 -0.25413593753E+02  0.10866108393E+03  0.11367822436E+03  0.00000000000E+00 0.  1.
</event>
<event>
 4    1  0.9182115E+003  0.2069644E+02  0.7546771E-02  0.1523643E+00
          2   -1    0    0  501    0  0.00000000000E+00  0.00000000000E+00  0.94821158537E+03  0.94821158537E+03  0.00000000000E+00 0. -1.
         -2   -1    0    0    0  501 -0.00000000000E+00 -0.00000000000E+00 -0.23385555985E+03  0.23385555985E+03  0.00000000000E+00 0. -1.
          2    1    1    2  502    0  0.71301812800E+01  0.19429442614E+02  0.94764046128E+03  0.94786643921E+03  0.00000000000E+00 0. -1.
         -2    1    1    2    0  502 -0.71301812800E+01 -0.19429442614E+02 -0.23328443576E+03  0.23420070601E+03  0.00000000000E+00 0. -1.
</event>
<event>
 4    1  0.5573045E+003  0.2949951E+02  0.7546771E-02  0.1423996E+00
          2   -1    0    0  501    0  0.00000000000E+00  0.00000000000E+00  0.13776278738E+04  0.13776278738E+04  0.00000000000E+00 0.  1.
         -2   -1    0    0    0  501 -0.00000000000E+00 -0.00000000000E+00 -0.26970131916E+01  0.26970131916E+01  0.00000000000E+00 0.  1.
          2    1    1    2  502    0  0.93747148070E+01 -0.27970266171E+02  0.12914206879E+04  0.12917575679E+04  0.00000000000E+00 0.  1.
         -2    1    1    2    0  502 -0.93747148070E+01  0.27970266171E+02  0.83510172761E+02  0.88567319153E+02  0.00000000000E+00 0.  1.
</event>
<event>
 4    1  0.5573045E+003  0.3003435E+02  0.7546771E-02  0.1419298E+00
          2   -1    0    0  501    0  0.00000000000E+00  0.00000000000E+00  0.88337973329E+03  0.88337973329E+03  0.00000000000E+00 0.  1.
         -2   -1    0    0    0  501 -0.00000000000E+00 -0.00000000000E+00 -0.10772453810E+01  0.10772453810E+01  0.00000000000E+00 0.  1.
          2    1    1    2  502    0  0.28798458138E+02 -0.85270779754E+01  0.54206658116E+03  0.54289800208E+03  0.00000000000E+00 0.  1.
         -2    1    1    2    0  502 -0.28798458138E+02  0.85270779754E+01  0.34023590675E+03  0.34155897660E+03  0.00000000000E+00 0.  1.
</event>
<event>
 4    1  0.5573045E+003  0.2356008E+02  0.7546771E-02  0.1485582E+00
          2   -1    0    0  501    0  0.00000000000E+00  0.00000000000E+00  0.81103884472E+01  0.81103884472E+01  0.00000000000E+00 0.  1.
         -2   -1    0    0    0  501 -0.00000000000E+00 -0.00000000000E+00 -0.13314702884E+04  0.13314702884E+04  0.00000000000E+00 0.  1.
          2    1    1    2  502    0  0.21867727425E+01 -0.23458376288E+02 -0.93309958054E+01  0.25340577654E+02  0.00000000000E+00 0.  1.
         -2    1    1    2    0  502 -0.21867727425E+01  0.23458376288E+02 -0.13140289042E+04  0.13142400992E+04  0.00000000000E+00 0.  1.
</event>
<event>
 4    1  0.5573045E+003  0.3605592E+02  0.7546771E-02  0.1373288E+00
          2   -1    0    0  501    0  0.00000000000E+00  0.00000000000E+00  0.65488422496E+02  0.65488422496E+02  0.00000000000E+00 0. -1.
         -2   -1    0    0    0  501 -0.00000000000E+00 -0.00000000000E+00 -0.12982149934E+03  0.12982149934E+03  0.00000000000E+00 0.  1.
          2    1    1    2  502    0 -0.94334404181E+01  0.34799994202E+02  0.57712524194E+02  0.68049723317E+02  0.00000000000E+00 0. -1.
         -2    1    1    2    0  502  0.94334404181E+01 -0.34799994202E+02 -0.12204560104E+03  0.12726019852E+03  0.00000000000E+00 0.  1.
</event>
<event>
 4    1  0.5573045E+003  0.2415430E+02  0.7546771E-02  0.1478491E+00
          2   -1    0    0  501    0  0.00000000000E+00  0.00000000000E+00  0.67788720128E+03  0.67788720128E+03  0.00000000000E+00 0. -1.
         -2   -1    0    0    0  501 -0.00000000000E+00 -0.00000000000E+00 -0.40692655771E+02  0.40692655771E+02  0.00000000000E+00 0. -1.
          2    1    1    2  502    0 -0.20380497155E+02  0.12964002409E+02  0.67406736156E+03  0.67449999106E+03  0.00000000000E+00 0. -1.
         -2    1    1    2    0  502  0.20380497155E+02 -0.12964002409E+02 -0.36872816047E+02  0.44079865993E+02  0.00000000000E+00 0. -1.
</event>
<event>
 4    1  0.5573045E+003  0.2356286E+02  0.7546771E-02  0.1485549E+00
          2   -1    0    0  501    0  0.00000000000E+00  0.00000000000E+00  0.26250390810E+03  0.26250390810E+03  0.00000000000E+00 0. -1.
         -2   -1    0    0    0  501 -0.00000000000E+00 -0.00000000000E+00 -0.34172338384E+03  0.34172338384E+03  0.00000000000E+00 0. -1.
          2    1    1    2  502    0 -0.14901958637E+02 -0.18252124509E+02  0.26156751224E+03  0.26262667778E+03  0.00000000000E+00 0. -1.
         -2    1    1    2    0  502  0.14901958637E+02  0.18252124509E+02 -0.34078698798E+03  0.34160061417E+03  0.00000000000E+00 0. -1.
</event>
<event>
 4    1  0.5573045E+003  0.2468592E+02  0.7546771E-02  0.1472348E+00
          2   -1    0    0  501    0  0.00000000000E+00  0.00000000000E+00  0.13909365894E+04  0.13909365894E+04  0.00000000000E+00 0. -1.
         -2   -1    0    0    0  501 -0.00000000000E+00 -0.00000000000E+00 -0.87359211397E+00  0.87359211397E+00  0.00000000000E+00 0.  1.
          2    1    1    2  502    0 -0.19664244920E+02 -0.14923549933E+02  0.11863653071E+04  0.11866221121E+04  0.00000000000E+00 0. -1.
         -2    1    1    2    0  502  0.19664244920E+02  0.14923549933E+02  0.20369769017E+03  0.20518806947E+03  0.00000000000E+00 0.  1.
</event>
<event>
 4    1  0.5573045E+003  0.2358017E+02  0.7546771E-02  0.1485339E+00
          2   -1    0    0  501    0  0.00000000000E+00  0.00000000000E+00  0.67232586686E+03  0.67232586686E+03  0.00000000000E+00 0.  1.
         -2   -1    0    0    0  501 -0.00000000000E+00 -0.00000000000E+00 -0.10179353705E+01  0.10179353705E+01  0.00000000000E+00 0.  1.
          2    1    1    2  502    0 -0.43567903098E+01  0.23174183394E+02  0.48145866257E+03  0.48203575403E+03  0.00000000000E+00 0.  1.
         -2    1    1    2    0  502  0.43567903098E+01 -0.23174183394E+02  0.18984926892E+03  0.19130804820E+03  0.00000000000E+00 0.  1.
</event>
<event>
 4    1  0.5573045E+003  0.2694895E+02  0.7546771E-02  0.1448122E+00
          2   -1    0    0  501    0  0.00000000000E+00  0.00000000000E+00  0.16563841402E+04  0.16563841402E+04  0.00000000000E+00 0.  1.
         -2   -1    0    0    0  501 -0.00000000000E+00 -0.00000000000E+00 -0.90084784007E+01  0.90084784007E+01  0.00000000000E+00 0. -1.
          2    1    1    2  502    0 -0.26759759044E+02  0.31876834499E+01  0.16358672539E+04  0.16360892147E+04  0.00000000000E+00 0.  1.
         -2    1    1    2    0  502  0.26759759044E+02 -0.31876834499E+01  0.11508407936E+02  0.29303403951E+02  0.00000000000E+00 0. -1.
</event>
<event>
 4    1  0.5573045E+003  0.3493456E+02  0.7546771E-02  0.1381024E+00
          2   -1    0    0  501    0  0.00000000000E+00  0.00000000000E+00  0.11695588303E+04  0.11695588303E+04  0.00000000000E+00 0.  1.
         -2   -1    0    0    0  501 -0.00000000000E+00 -0.00000000000E+00 -0.15434664930E+03  0.15434664930E+03  0.00000000000E+00 0. -1.
          2    1    1    2  502    0 -0.26629901481E+02  0.22611327081E+02  0.11673174050E+04  0.11678400352E+04  0.00000000000E+00 0.  1.
         -2    1    1    2    0  502  0.26629901481E+02 -0.22611327081E+02 -0.15210522401E+03  0.15606544441E+03  0.00000000000E+00 0. -1.
</event>
<event>
 4    1  0.5573045E+003  0.2343996E+02  0.7546771E-02  0.1487046E+00
          2   -1    0    0  501    0  0.00000000000E+00  0.00000000000E+00  0.37250196814E+03  0.37250196814E+03  0.00000000000E+00 0. -1.
         -2   -1    0    0    0  501 -0.00000000000E+00 -0.00000000000E+00 -0.19915006618E+01  0.19915006618E+01  0.00000000000E+00 0.  1.
          2    1    1    2  502    0 -0.40138241057E+01 -0.23093732552E+02  0.89894457668E+02  0.92900187226E+02  0.00000000000E+00 0.  1.
         -2    1    1    2    0  502  0.40138241057E+01  0.23093732552E+02  0.28061600981E+03  0.28159328158E+03  0.00000000000E+00 0. -1.
</event>
<event>
 4    1  0.5573045E+003  0.2130191E+02  0.7546771E-02  0.1514998E+00
          2   -1    0    0  501    0  0.00000000000E+00  0.00000000000E+00  0.56575565797E+03  0.56575565797E+03  0.00000000000E+00 0.  1.
         -2   -1    0    0    0  501 -0.00000000000E+00 -0.00000000000E+00 -0.80465487629E+00  0.80465487629E+00  0.00000000000E+00 0.  1.
          2    1    1    2  502    0 -0.17857158566E+02  0.11614353316E+02  0.29855500199E+03  0.29931398318E+03  0.00000000000E+00 0.  1.
         -2    1    1    2    0  502  0.17857158566E+02 -0.11614353316E+02  0.26639600110E+03  0.26724632966E+03  0.00000000000E+00 0.  1.
</event>
<event>
 4    1  0.5573045E+003  0.2482100E+02  0.7546771E-02  0.1470816E+00
          2   -1    0    0  501    0  0.00000000000E+00  0.00000000000E+00  0.93453430060E+03  0.93453430060E+03  0.00000000000E+00 0. -1.
         -2   -1    0    0    0  501 -0.00000000000E+00 -0.00000000000E+00 -0.24577405253E+01  0.24577405253E+01  0.00000000000E+00 0. -1.
          2    1    1    2  502    0  0.22875381970E+02 -0.96332247036E+01  0.86680644028E+03  0.86716174214E+03  0.00000000000E+00 0. -1.
         -2    1    1    2    0  502 -0.22875381970E+02  0.96332247036E+01  0.65270119792E+02  0.69830298984E+02  0.00000000000E+00 0. -1.
</event>
<event>
 4    1  0.5573045E+003  0.7570694E+02  0.7546771E-02  0.1214181E+00
          2   -1    0    0  501    0  0.00000000000E+00  0.00000000000E+00  0.29791107514E+03  0.29791107514E+03  0.00000000000E+00 0. -1.
         -2   -1    0    0    0  501 -0.00000000000E+00 -0.00000000000E+00 -0.29332222509E+02  0.29332222509E+02  0.00000000000E+00 0. -1.
          2    1    1    2  502    0  0.64135332867E+02  0.40226846830E+02  0.23026950734E+03  0.24239551592E+03  0.00000000000E+00 0. -1.
         -2    1    1    2    0  502 -0.64135332867E+02 -0.40226846830E+02  0.38309345295E+02  0.84847781731E+02  0.00000000000E+00 0. -1.
</event>
<event>
 4    1  0.5573045E+003  0.2402122E+02  0.7546771E-02  0.1480058E+00
          2   -1    0    0  501    0  0.00000000000E+00  0.00000000000E+00  0.71003633631E+02  0.71003633631E+02  0.00000000000E+00 0. -1.
         -2   -1    0    0    0  501 -0.00000000000E+00 -0.00000000000E+00 -0.45302971924E+02  0.45302971924E+02  0.00000000000E+00 0.  1.
          2    1    1    2  502    0 -0.10388640108E+02 -0.21658609632E+02  0.65530171372E+02  0.69794144271E+02  0.00000000000E+00 0. -1.
         -2    1    1    2    0  502  0.10388640108E+02  0.21658609632E+02 -0.39829509665E+02  0.46512461283E+02  0.00000000000E+00 0.  1.
</event>
<event>
 4    1  0.5573045E+003  0.2852821E+02  0.7546771E-02  0.1432833E+00
          2   -1    0    0  501    0  0.00000000000E+00  0.00000000000E+00  0.17128118484E+04  0.17128118484E+04  0.00000000000E+00 0. -1.
         -2   -1    0    0    0  501 -0.00000000000E+00 -0.00000000000E+00 -0.40021886767E+01  0.40021886767E+01  0.00000000000E+00 0.  1.
          2    1    1    2  502    0  0.19383667851E+02 -0.20931601899E+02  0.16602451932E+04  0.16604902770E+04  0.00000000000E+00 0. -1.
         -2    1    1    2    0  502 -0.19383667851E+02  0.20931601899E+02  0.48564466478E+02  0.56323760010E+02  0.00000000000E+00 0.  1.
</event>
<event>
 4    1  0.5573045E+003  0.2575110E+02  0.7546771E-02  0.1460574E+00
          2   -1    0    0  501    0  0.00000000000E+00  0.00000000000E+00  0.17729796546E+03  0.17729796546E+03  0.00000000000E+00 0. -1.
         -2   -1    0    0    0  501 -0.00000000000E+00 -0.00000000000E+00 -0.10263019262E+02  0.10263019262E+02  0.00000000000E+00 0. -1.
          2    1    1    2  502    0 -0.23478661119E+02 -0.10576932342E+02  0.15828183680E+03  0.16036289747E+03  0.00000000000E+00 0. -1.
         -2    1    1    2    0  502  0.23478661119E+02  0.10576932342E+02  0.87531093975E+01  0.27198087246E+02  0.00000000000E+00 0. -1.
</event>
<event>
 4    1  0.5573045E+003  0.2091043E+02  0.7546771E-02  0.1520548E+00
          2   -1    0    0  501    0  0.00000000000E+00  0.00000000000E+00  0.11320427732E+03  0.11320427732E+03  0.00000000000E+00 0.  1.
         -2   -1    0    0    0  501 -0.00000000000E+00 -0.00000000000E+00 -0.11151449660E+03  0.11151449660E+03  0.00000000000E+00 0. -1.
          2    1    1    2  502    0 -0.13469058597E+02  0.15994703043E+02  0.11124127186E+03  0.11318951643E+03  0.00000000000E+00 0.  1.
         -2    1    1    2    0  502  0.13469058597E+02 -0.15994703043E+02 -0.10955149114E+03  0.11152925749E+03  0.00000000000E+00 0. -1.
</event>
<event>
 4    1  0.5573045E+003  0.2321863E+02  0.7546771E-02  0.1489771E+00
          2   -1    0    0  501    0  0.00000000000E+00  0.00000000000E+00  0.95563916769E+02  0.95563916769E+02  0.00000000000E+00 0.  1.
         -2   -1    0    0    0  501 -0.00000000000E+00 -0.00000000000E+00 -0.22770735042E+02  0.22770735042E+02  0.00000000000E+00 0. -1.
          2    1    1    2  502    0 -0.22184487561E+02 -0.68522402688E+01  0.87714025930E+02  0.90735081583E+02  0.00000000000E+00 0.  1.
         -2    1    1    2    0  502  0.22184487561E+02  0.68522402688E+01 -0.14920844203E+02  0.27599570229E+02  0.00000000000E+00 0. -1.
</event>
<event>
 4    1  0.5573045E+003  0.2306448E+02  0.7546771E-02  0.1491690E+00
          2   -1    0    0  501    0  0.00000000000E+00  0.00000000000E+00  0.86002540178E+02  0.86002540178E+02  0.00000000000E+00 0.  1.
         -2   -1    0    0    0  501 -0.00000000000E+00 -0.00000000000E+00 -0.62098169622E+01  0.62098169622E+01  0.00000000000E+00 0.  1.
          2    1    1    2  502    0  0.18700630121E+02  0.13500239954E+02  0.42780631447E+02  0.48601980132E+02  0.00000000000E+00 0.  1.
         -2    1    1    2    0  502 -0.18700630121E+02 -0.13500239954E+02  0.37012091769E+02  0.43610377009E+02  0.00000000000E+00 0.  1.
</event>
<event>
 4    1  0.5573045E+003  0.3084897E+02  0.7546771E-02  0.1412359E+00
          2   -1    0    0  501    0  0.00000000000E+00  0.00000000000E+00  0.11062560899E+03  0.11062560899E+03  0.00000000000E+00 0. -1.
         -2   -1    0    0    0  501 -0.00000000000E+00 -0.00000000000E+00 -0.11368714417E+02  0.11368714417E+02  0.00000000000E+00 0. -1.
          2    1    1    2  502    0  0.30831086230E+02 -0.10502646384E+01  0.79716588274E+02  0.85477443692E+02  0.00000000000E+00 0. -1.
         -2    1    1    2    0  502 -0.30831086230E+02  0.10502646384E+01  0.19540306302E+02  0.36516879718E+02  0.00000000000E+00 0. -1.
</event>
<event>
 4    1  0.5573045E+003  0.3742880E+02  0.7546771E-02  0.1364249E+00
          2   -1    0    0  501    0  0.00000000000E+00  0.00000000000E+00  0.70127534858E+03  0.70127534858E+03  0.00000000000E+00 0.  1.
         -2   -1    0    0    0  501 -0.00000000000E+00 -0.00000000000E+00 -0.19988921811E+01  0.19988921811E+01  0.00000000000E+00 0. -1.
          2    1    1    2  502    0 -0.29434682185E+02 -0.23119574975E+02  0.35834061158E+03  0.36029003479E+03  0.00000000000E+00 0.  1.
         -2    1    1    2    0  502  0.29434682185E+02  0.23119574975E+02  0.34093584482E+03  0.34298420597E+03  0.00000000000E+00 0. -1.
</event>
<event>
 4    1  0.5573045E+003  0.2550442E+02  0.7546771E-02  0.1463239E+00
          2   -1    0    0  501    0  0.00000000000E+00  0.00000000000E+00  0.38872586815E+03  0.38872586815E+03  0.00000000000E+00 0.  1.
         -2   -1    0    0    0  501 -0.00000000000E+00 -0.00000000000E+00 -0.24215753001E+01  0.24215753001E+01  0.00000000000E+00 0.  1.
          2    1    1    2  502    0 -0.24729350362E+02 -0.62397561506E+01  0.30186403435E+03  0.30293954935E+03  0.00000000000E+00 0.  1.
         -2    1    1    2    0  502  0.24729350362E+02  0.62397561506E+01  0.84440258507E+02  0.88207894107E+02  0.00000000000E+00 0.  1.
</event>
<event>
 4    1  0.5573045E+003  0.2106218E+02  0.7546771E-02  0.1518379E+00
          2   -1    0    0  501    0  0.00000000000E+00  0.00000000000E+00  0.32670003775E+03  0.32670003775E+03  0.00000000000E+00 0. -1.
         -2   -1    0    0    0  501 -0.00000000000E+00 -0.00000000000E+00 -0.32513046008E+01  0.32513046008E+01  0.00000000000E+00 0.  1.
          2    1    1    2  502    0 -0.15659727109E+02 -0.14085046134E+02  0.28762167365E+03  0.28839182154E+03  0.00000000000E+00 0. -1.
         -2    1    1    2    0  502  0.15659727109E+02  0.14085046134E+02  0.35827059503E+02  0.41559520815E+02  0.00000000000E+00 0.  1.
</event>
<event>
 4    1  0.5573045E+003  0.6182703E+02  0.7546771E-02  0.1253748E+00
          2   -1    0    0  501    0  0.00000000000E+00  0.00000000000E+00  0.10484454756E+04  0.10484454756E+04  0.00000000000E+00 0. -1.
         -2   -1    0    0    0  501 -0.00000000000E+00 -0.00000000000E+00 -0.21530428163E+02  0.21530428163E+02  0.00000000000E+00 0. -1.
          2    1    1    2  502    0  0.39019720799E+01  0.61703782358E+02  0.10010486322E+04  0.10029561039E+04  0.00000000000E+00 0. -1.
         -2    1    1    2    0  502 -0.39019720799E+01 -0.61703782358E+02  0.25866415177E+02  0.67019799892E+02  0.00000000000E+00 0. -1.
</event>
<event>
 4    1  0.5573045E+003  0.2147616E+02  0.7546771E-02  0.1512574E+00
          2   -1    0    0  501    0  0.00000000000E+00  0.00000000000E+00  0.42699319621E+01  0.42699319621E+01  0.00000000000E+00 0. -1.
         -2   -1    0    0    0  501 -0.00000000000E+00 -0.00000000000E+00 -0.20701402171E+03  0.20701402171E+03  0.00000000000E+00 0.  1.
          2    1    1    2  502    0  0.19936909958E+02  0.79840491034E+01 -0.28317437459E+02  0.35540155922E+02  0.00000000000E+00 0. -1.
         -2    1    1    2    0  502 -0.19936909958E+02 -0.79840491034E+01 -0.17442665229E+03  0.17574379775E+03  0.00000000000E+00 0.  1.
</event>
<event>
 4    1  0.5573045E+003  0.2066101E+02  0.7546771E-02  0.1524160E+00
          2   -1    0    0  501    0  0.00000000000E+00  0.00000000000E+00  0.32301472657E+02  0.32301472657E+02  0.00000000000E+00 0.  1.
         -2   -1    0    0    0  501 -0.00000000000E+00 -0.00000000000E+00 -0.66678276162E+02  0.66678276162E+02  0.00000000000E+00 0.  1.
          2    1    1    2  502    0  0.17015103187E+02  0.11720220894E+02  0.27126549414E+02  0.34098782931E+02  0.00000000000E+00 0.  1.
         -2    1    1    2    0  502 -0.17015103187E+02 -0.11720220894E+02 -0.61503352919E+02  0.64880965888E+02  0.00000000000E+00 0.  1.
</event>
<event>
 4    1  0.5573045E+003  0.2089989E+02  0.7546771E-02  0.1520699E+00
          2   -1    0    0  501    0  0.00000000000E+00  0.00000000000E+00  0.58108127598E+02  0.58108127598E+02  0.00000000000E+00 0. -1.
         -2   -1    0    0    0  501 -0.00000000000E+00 -0.00000000000E+00 -0.18058708581E+02  0.18058708581E+02  0.00000000000E+00 0. -1.
          2    1    1    2  502    0  0.93245257339E+01 -0.18704512964E+02  0.49121539178E+02  0.53382873627E+02  0.00000000000E+00 0. -1.
         -2    1    1    2    0  502 -0.93245257339E+01  0.18704512964E+02 -0.90721201609E+01  0.22783962552E+02  0.00000000000E+00 0. -1.
</event>
<event>
 4    1  0.5573045E+003  0.2841742E+02  0.7546771E-02  0.1433867E+00
          2   -1    0    0  501    0  0.00000000000E+00  0.00000000000E+00  0.13056324326E+04  0.13056324326E+04  0.00000000000E+00 0.  1.
         -2   -1    0    0    0  501 -0.00000000000E+00 -0.00000000000E+00 -0.13688058514E+02  0.13688058514E+02  0.00000000000E+00 0. -1.
          2    1    1    2  502    0 -0.10817032229E+02  0.26278153663E+02  0.12905563666E+04  0.12908691975E+04  0.00000000000E+00 0.  1.
         -2    1    1    2    0  502  0.10817032229E+02 -0.26278153663E+02  0.13880074800E+01  0.28451293661E+02  0.00000000000E+00 0. -1.
</event>
<event>
 4    1  0.5573045E+003  0.2080292E+02  0.7546771E-02  0.1522097E+00
          2   -1    0    0  501    0  0.00000000000E+00  0.00000000000E+00  0.10205846318E+04  0.10205846318E+04  0.00000000000E+00 0. -1.
         -2   -1    0    0    0  501 -0.00000000000E+00 -0.00000000000E+00 -0.16381012089E+01  0.16381012089E+01  0.00000000000E+00 0.  1.
          2    1    1    2  502    0  0.59027429436E+01  0.19947906443E+02  0.94948752943E+03  0.94971539415E+03  0.00000000000E+00 0. -1.
         -2    1    1    2    0  502 -0.59027429436E+01 -0.19947906443E+02  0.69459001138E+02  0.72507338834E+02  0.00000000000E+00 0.  1.
</event>
<event>
 4    1  0.5573045E+003  0.2358875E+02  0.7546771E-02  0.1485235E+00
          2   -1    0    0  501    0  0.00000000000E+00  0.00000000000E+00  0.11968173644E+03  0.11968173644E+03  0.00000000000E+00 0. -1.
         -2   -1    0    0    0  501 -0.00000000000E+00 -0.00000000000E+00 -0.12066935232E+02  0.12066935232E+02  0.00000000000E+00 0.  1.
          2    1    1    2  502    0  0.23461404209E+02  0.24478223795E+01  0.10545524512E+03  0.10806126987E+03  0.00000000000E+00 0. -1.
         -2    1    1    2    0  502 -0.23461404209E+02 -0.24478223795E+01  0.21595560890E+01  0.23687401807E+02  0.00000000000E+00 0.  1.
</event>
<event>
 4    1  0.5573045E+003  0.2392466E+02  0.7546771E-02  0.1481202E+00
          2   -1    0    0  501    0  0.00000000000E+00  0.00000000000E+00  0.63517474518E+03  0.63517474518E+03  0.00000000000E+00 0.  1.
         -2   -1    0    0    0  501 -0.00000000000E+00 -0.00000000000E+00 -0.42467105782E+01  0.42467105782E+01  0.00000000000E+00 0. -1.
          2    1    1    2  502    0 -0.23889753188E+02  0.12918577622E+01  0.59923316439E+03  0.59971057562E+03  0.00000000000E+00 0.  1.
         -2    1    1    2    0  502  0.23889753188E+02 -0.12918577622E+01  0.31694870219E+02  0.39710880147E+02  0.00000000000E+00 0. -1.
</event>
<event>
 4    1  0.5573045E+003  0.2004787E+02  0.7546771E-02  0.1533305E+00
          2   -1    0    0  501    0  0.00000000000E+00  0.00000000000E+00  0.72994622207E+03  0.72994622207E+03  0.00000000000E+00 0. -1.
         -2   -1    0    0    0  501 -0.00000000000E+00 -0.00000000000E+00 -0.23768820924E+01  0.23768820924E+01  0.00000000000E+00 0.  1.
          2    1    1    2  502    0  0.18809604399E+02  0.69365483535E+01  0.68474507674E+03  0.68503849311E+03  0.00000000000E+00 0. -1.
         -2    1    1    2    0  502 -0.18809604399E+02 -0.69365483535E+01  0.42824263242E+02  0.47284611058E+02  0.00000000000E+00 0.  1.
</event>
<event>
 4    1  0.5573045E+003  0.2268135E+02  0.7546771E-02  0.1496539E+00
          2   -1    0    0  501    0  0.00000000000E+00  0.00000000000E+00  0.87870064146E+03  0.87870064146E+03  0.00000000000E+00 0. -1.
         -2   -1    0    0    0  501 -0.00000000000E+00 -0.00000000000E+00 -0.16673111644E+01  0.16673111644E+01  0.00000000000E+00 0. -1.
          2    1    1    2  502    0 -0.27891944428E+01 -0.22509196316E+02  0.79309303129E+03  0.79341729235E+03  0.00000000000E+00 0. -1.
         -2    1    1    2    0  502  0.27891944428E+01  0.22509196316E+02  0.83940299002E+02  0.86950660268E+02  0.00000000000E+00 0. -1.
</event>
<event>
 4    1  0.5573045E+003  0.2036234E+02  0.7546771E-02  0.1528567E+00
          2   -1    0    0  501    0  0.00000000000E+00  0.00000000000E+00  0.37553712426E+01  0.37553712426E+01  0.00000000000E+00 0.  1.
         -2   -1    0    0    0  501 -0.00000000000E+00 -0.00000000000E+00 -0.18522988239E+03  0.18522988239E+03  0.00000000000E+00 0.  1.
          2    1    1    2  502    0 -0.18354562324E+02 -0.88167504796E+01 -0.30681428620E+02  0.36823567308E+02  0.00000000000E+00 0.  1.
         -2    1    1    2    0  502  0.18354562324E+02  0.88167504796E+01 -0.15079308253E+03  0.15216168633E+03  0.00000000000E+00 0.  1.
</event>
<event>
 4    1  0.5573045E+003  0.4275383E+02  0.7546771E-02  0.1333063E+00
          2   -1    0    0  501    0  0.00000000000E+00  0.00000000000E+00  0.19384827845E+03  0.19384827845E+03  0.00000000000E+00 0. -1.
         -2   -1    0    0    0  501 -0.00000000000E+00 -0.00000000000E+00 -0.95378075951E+01  0.95378075951E+01  0.00000000000E+00 0. -1.
          2    1    1    2  502    0  0.16590744862E+02 -0.39403515167E+02  0.10299256980E+03  0.11151394198E+03  0.00000000000E+00 0. -1.
         -2    1    1    2    0  502 -0.16590744862E+02  0.39403515167E+02  0.81317901054E+02  0.91872144062E+02  0.00000000000E+00 0. -1.
</event>
<event>
 4    1  0.5573045E+003  0.2027220E+02  0.7546771E-02  0.1529915E+00
          2   -1    0    0  501    0  0.00000000000E+00  0.00000000000E+00  0.71102233433E+00  0.71102233433E+00  0.00000000000E+00 0. -1.
         -2   -1    0    0    0  501 -0.00000000000E+00 -0.00000000000E+00 -0.69876909353E+03  0.69876909353E+03  0.00000000000E+00 0. -1.
          2    1    1    2  502    0  0.19484413136E+02 -0.55963930142E+01 -0.20362413586E+03  0.20463076669E+03  0.00000000000E+00 0. -1.
         -2    1    1    2    0  502 -0.19484413136E+02  0.55963930142E+01 -0.49443393534E+03  0.49484934918E+03  0.00000000000E+00 0. -1.
</event>
<event>
 4    1  0.5573045E+003  0.2970363E+02  0.7546771E-02  0.1422190E+00
          2   -1    0    0  501    0  0.00000000000E+00  0.00000000000E+00  0.86066931940E+03  0.86066931940E+03  0.00000000000E+00 0. -1.
         -2   -1    0    0    0  501 -0.00000000000E+00 -0.00000000000E+00 -0.21401711563E+01  0.21401711563E+01  0.00000000000E+00 0. -1.
          2    1    1    2  502    0 -0.25771842584E+02  0.14768807198E+02  0.74065438258E+03  0.74124976896E+03  0.00000000000E+00 0. -1.
         -2    1    1    2    0  502  0.25771842584E+02 -0.14768807198E+02  0.11787476566E+03  0.12155972160E+03  0.00000000000E+00 0. -1.
</event>
<event>
 4    1  0.5573045E+003  0.3476015E+02  0.7546771E-02  0.1382257E+00
          2   -1    0    0  501    0  0.00000000000E+00  0.00000000000E+00  0.43764907848E+03  0.43764907848E+03  0.00000000000E+00 0. -1.
         -2   -1    0    0    0  501 -0.00000000000E+00 -0.00000000000E+00 -0.60381507716E+01  0.60381507716E+01  0.00000000000E+00 0. -1.
          2    1    1    2  502    0 -0.43007902375E+01 -0.34493062295E+02  0.37924436173E+03  0.38083402428E+03  0.00000000000E+00 0. -1.
         -2    1    1    2    0  502  0.43007902375E+01  0.34493062295E+02  0.52366565977E+02  0.62853204973E+02  0.00000000000E+00 0. -1.
</event>
<event>
 4    1  0.5573045E+003  0.3148887E+02  0.7546771E-02  0.1407085E+00
          2   -1    0    0  501    0  0.00000000000E+00  0.00000000000E+00  0.20466979720E+04  0.20466979720E+04  0.00000000000E+00 0. -1.
         -2   -1    0    0    0  501 -0.00000000000E+00 -0.00000000000E+00 -0.62013604660E+02  0.62013604660E+02  0.00000000000E+00 0.  1.
          2    1    1    2  502    0 -0.29976075812E+02  0.96428161258E+01  0.20425714768E+04  0.20428141832E+04  0.00000000000E+00 0. -1.
         -2    1    1    2    0  502  0.29976075812E+02 -0.96428161258E+01 -0.57887109486E+02  0.65897393488E+02  0.00000000000E+00 0.  1.
</event>
<event>
 4    1  0.5573045E+003  0.3778050E+02  0.7546771E-02  0.1362007E+00
          2   -1    0    0  501    0  0.00000000000E+00  0.00000000000E+00  0.17847564226E+04  0.17847564226E+04  0.00000000000E+00 0. -1.
         -2   -1    0    0    0  501 -0.00000000000E+00 -0.00000000000E+00 -0.28276649974E+02  0.28276649974E+02  0.00000000000E+00 0. -1.
          2    1    1    2  502    0 -0.18551621010E+02  0.32912060105E+02  0.17718448787E+04  0.17722476239E+04  0.00000000000E+00 0. -1.
         -2    1    1    2    0  502  0.18551621010E+02 -0.32912060105E+02 -0.15365106023E+02  0.40785448699E+02  0.00000000000E+00 0. -1.
</event>
<event>
 4    1  0.5573045E+003  0.3941862E+02  0.7546771E-02  0.1351927E+00
          2   -1    0    0  501    0  0.00000000000E+00  0.00000000000E+00  0.18672391338E+04  0.18672391338E+04  0.00000000000E+00 0. -1.
         -2   -1    0    0    0  501 -0.00000000000E+00 -0.00000000000E+00 -0.43910708865E+01  0.43910708865E+01  0.00000000000E+00 0. -1.
          2    1    1    2  502    0 -0.39299111611E+02 -0.30671897329E+01  0.17739122498E+04  0.17743501622E+04  0.00000000000E+00 0. -1.
         -2    1    1    2    0  502  0.39299111611E+02  0.30671897329E+01  0.88935813039E+02  0.97280042491E+02  0.00000000000E+00 0. -1.
</event>
<event>
 4    1  0.5573045E+003  0.2347819E+02  0.7546771E-02  0.1486579E+00
          2   -1    0    0  501    0  0.00000000000E+00  0.00000000000E+00  0.77661503475E+03  0.77661503475E+03  0.00000000000E+00 0. -1.
         -2   -1    0    0    0  501 -0.00000000000E+00 -0.00000000000E+00 -0.11153301595E+01  0.11153301595E+01  0.00000000000E+00 0. -1.
          2    1    1    2  502    0  0.24067739401E+01 -0.23354487875E+02  0.15326196102E+03  0.15504984154E+03  0.00000000000E+00 0. -1.
         -2    1    1    2    0  502 -0.24067739401E+01  0.23354487875E+02  0.62223774357E+03  0.62268052337E+03  0.00000000000E+00 0. -1.
</event>
<event>
 4    1  0.5573045E+003  0.2251561E+02  0.7546771E-02  0.1498672E+00
          2   -1    0    0  501    0  0.00000000000E+00  0.00000000000E+00  0.28721850701E+04  0.28721850701E+04  0.00000000000E+00 0.  1.
         -2   -1    0    0    0  501 -0.00000000000E+00 -0.00000000000E+00 -0.17788683937E+00  0.17788683937E+00  0.00000000000E+00 0.  1.
          2    1    1    2  502    0  0.22359130594E+02  0.26498455652E+01  0.13093814437E+04  0.13095750141E+04  0.00000000000E+00 0.  1.
         -2    1    1    2    0  502 -0.22359130594E+02 -0.26498455652E+01  0.15626257395E+04  0.15627879428E+04  0.00000000000E+00 0.  1.
</event>
<event>
 4    1  0.5573045E+003  0.3784789E+02  0.7546771E-02  0.1361580E+00
          2   -1    0    0  501    0  0.00000000000E+00  0.00000000000E+00  0.47657048041E+01  0.47657048041E+01  0.00000000000E+00 0.  1.
         -2   -1    0    0    0  501 -0.00000000000E+00 -0.00000000000E+00 -0.94127161789E+03  0.94127161789E+03  0.00000000000E+00 0. -1.
          2    1    1    2  502    0  0.18353173530E+02 -0.33100212715E+02 -0.77999999766E+02  0.86697537589E+02  0.00000000000E+00 0.  1.
         -2    1    1    2    0  502 -0.18353173530E+02  0.33100212715E+02 -0.85850591332E+03  0.85933978510E+03  0.00000000000E+00 0. -1.
</event>
<event>
 4    1  0.5573045E+003  0.2264754E+02  0.7546771E-02  0.1496972E+00
          2   -1    0    0  501    0  0.00000000000E+00  0.00000000000E+00  0.20475619769E+04  0.20475619769E+04  0.00000000000E+00 0.  1.
         -2   -1    0    0    0  501 -0.00000000000E+00 -0.00000000000E+00 -0.32906106562E+00  0.32906106562E+00  0.00000000000E+00 0.  1.
          2    1    1    2  502    0  0.21456048174E+02 -0.72490876886E+01  0.15239346931E+04  0.15241029690E+04  0.00000000000E+00 0.  1.
         -2    1    1    2    0  502 -0.21456048174E+02  0.72490876886E+01  0.52329822271E+03  0.52378806895E+03  0.00000000000E+00 0.  1.
</event>
<event>
 4    1  0.5573045E+003  0.2690742E+02  0.7546771E-02  0.1448540E+00
          2   -1    0    0  501    0  0.00000000000E+00  0.00000000000E+00  0.31615380642E+02  0.31615380642E+02  0.00000000000E+00 0. -1.
         -2   -1    0    0    0  501 -0.00000000000E+00 -0.00000000000E+00 -0.50597428310E+02  0.50597428310E+02  0.00000000000E+00 0.  1.
          2    1    1    2  502    0 -0.14591551053E+02  0.22607426989E+02  0.20922084003E+02  0.34084347085E+02  0.00000000000E+00 0. -1.
         -2    1    1    2    0  502  0.14591551053E+02 -0.22607426989E+02 -0.39904131671E+02  0.48128461867E+02  0.00000000000E+00 0.  1.
</event>
<event>
 4    1  0.5573045E+003  0.2184908E+02  0.7546771E-02  0.1507479E+00
          2   -1    0    0  501    0  0.00000000000E+00  0.00000000000E+00  0.10020455175E+04  0.10020455175E+04  0.00000000000E+00 0.  1.
         -2   -1    0    0    0  501 -0.00000000000E+00 -0.00000000000E+00 -0.16658676681E+01  0.16658676681E+01  0.00000000000E+00 0. -1.
          2    1    1    2  502    0  0.21569134967E+02  0.34863629832E+01  0.92425587021E+03  0.92451408639E+03  0.00000000000E+00 0.  1.
         -2    1    1    2    0  502 -0.21569134967E+02 -0.34863629832E+01  0.76123779581E+02  0.79197298740E+02  0.00000000000E+00 0. -1.
</event>
<event>
 4    1  0.5573045E+003  0.2247826E+02  0.7546771E-02  0.1499156E+00
          2   -1    0    0  501    0  0.00000000000E+00  0.00000000000E+00  0.15244426199E+03  0.15244426199E+03  0.00000000000E+00 0.  1.
         -2   -1    0    0    0  501 -0.00000000000E+00 -0.00000000000E+00 -0.78098148222E+02  0.78098148222E+02  0.00000000000E+00 0. -1.
          2    1    1    2  502    0  0.17771465236E+02 -0.13763985312E+02  0.14997169857E+03  0.15164690119E+03  0.00000000000E+00 0.  1.
         -2    1    1    2    0  502 -0.17771465236E+02  0.13763985312E+02 -0.75625584799E+02  0.78895509026E+02  0.00000000000E+00 0. -1.
</event>
<event>
 4    1  0.6287124E+003  0.3027717E+02  0.7546771E-02  0.1417203E+00
          2   -1    0    0  501    0  0.00000000000E+00  0.00000000000E+00  0.83106111257E+03  0.83106111257E+03  0.00000000000E+00 0. -1.
         -2   -1    0    0    0  501 -0.00000000000E+00 -0.00000000000E+00 -0.17823854329E+03  0.17823854329E+03  0.00000000000E+00 0.  1.
          2    1    1    2  502    0 -0.22638721879E+02  0.20104606019E+02  0.82949713852E+03  0.83004952245E+03  0.00000000000E+00 0. -1.
         -2    1    1    2    0  502  0.22638721879E+02 -0.20104606019E+02 -0.17667456924E+03  0.17925013341E+03  0.00000000000E+00 0.  1.
</event>
<event>
 4    1  0.5573045E+003  0.2367717E+02  0.7546771E-02  0.1484166E+00
          2   -1    0    0  501    0  0.00000000000E+00  0.00000000000E+00  0.55297291400E+03  0.55297291400E+03  0.00000000000E+00 0. -1.
         -2   -1    0    0    0  501 -0.00000000000E+00 -0.00000000000E+00 -0.12726994166E+01  0.12726994166E+01  0.00000000000E+00 0. -1.
          2    1    1    2  502    0 -0.22026110003E+02 -0.86866983418E+01  0.40083811494E+03  0.40153680110E+03  0.00000000000E+00 0. -1.
         -2    1    1    2    0  502  0.22026110003E+02  0.86866983418E+01  0.15086209964E+03  0.15270881232E+03  0.00000000000E+00 0. -1.
</event>
<event>
 4    1  0.5573045E+003  0.7093179E+02  0.7546771E-02  0.1226625E+00
          2   -1    0    0  501    0  0.00000000000E+00  0.00000000000E+00  0.27084251431E+03  0.27084251431E+03  0.00000000000E+00 0. -1.
         -2   -1    0    0    0  501 -0.00000000000E+00 -0.00000000000E+00 -0.32865544433E+03  0.32865544433E+03  0.00000000000E+00 0. -1.
          2    1    1    2  502    0 -0.52748752717E+02 -0.47422441327E+02  0.26224796508E+03  0.27167133460E+03  0.00000000000E+00 0. -1.
         -2    1    1    2    0  502  0.52748752717E+02  0.47422441327E+02 -0.32006089510E+03  0.32782662404E+03  0.00000000000E+00 0. -1.
</event>
<event>
 4    1  0.5573045E+003  0.2018508E+02  0.7546771E-02  0.1531225E+00
          2   -1    0    0  501    0  0.00000000000E+00  0.00000000000E+00  0.17906511883E+03  0.17906511883E+03  0.00000000000E+00 0. -1.
         -2   -1    0    0    0  501 -0.00000000000E+00 -0.00000000000E+00 -0.25260374999E+01  0.25260374999E+01  0.00000000000E+00 0. -1.
          2    1    1    2  502    0  0.20120497199E+02  0.16134021504E+01  0.11687198380E+03  0.11860226841E+03  0.00000000000E+00 0. -1.
         -2    1    1    2    0  502 -0.20120497199E+02 -0.16134021504E+01  0.59667097525E+02  0.62988887917E+02  0.00000000000E+00 0. -1.
</event>
<event>
 4    1  0.5573045E+003  0.4697486E+02  0.7546771E-02  0.1311850E+00
          2   -1    0    0  501    0  0.00000000000E+00  0.00000000000E+00  0.16317965087E+04  0.16317965087E+04  0.00000000000E+00 0. -1.
         -2   -1    0    0    0  501 -0.00000000000E+00 -0.00000000000E+00 -0.15999487893E+01  0.15999487893E+01  0.00000000000E+00 0. -1.
          2    1    1    2  502    0 -0.38643908706E+02  0.26707409901E+02  0.11364263787E+04  0.11373968312E+04  0.00000000000E+00 0. -1.
         -2    1    1    2    0  502  0.38643908706E+02 -0.26707409901E+02  0.49377018114E+03  0.49599962621E+03  0.00000000000E+00 0. -1.
</event>
<event>
 4    1  0.5573045E+003  0.2597119E+02  0.7546771E-02  0.1458226E+00
          2   -1    0    0  501    0  0.00000000000E+00  0.00000000000E+00  0.83619223852E+02  0.83619223852E+02  0.00000000000E+00 0.  1.
         -2   -1    0    0    0  501 -0.00000000000E+00 -0.00000000000E+00 -0.11117023213E+02  0.11117023213E+02  0.00000000000E+00 0. -1.
          2    1    1    2  502    0 -0.20147404306E+02 -0.16388552289E+02  0.61064669688E+02  0.66358092427E+02  0.00000000000E+00 0.  1.
         -2    1    1    2    0  502  0.20147404306E+02  0.16388552289E+02  0.11437530950E+02  0.28378154638E+02  0.00000000000E+00 0. -1.
</event>
<event>
 4    1  0.5573045E+003  0.1021560E+03  0.7546771E-02  0.1160124E+00
          2   -1    0    0  501    0  0.00000000000E+00  0.00000000000E+00  0.91203250855E+03  0.91203250855E+03  0.00000000000E+00 0. -1.
         -2   -1    0    0    0  501 -0.00000000000E+00 -0.00000000000E+00 -0.34919222964E+02  0.34919222964E+02  0.00000000000E+00 0.  1.
          2    1    1    2  502    0 -0.60720197247E+02  0.82151767323E+02  0.82678305395E+03  0.83307026926E+03  0.00000000000E+00 0. -1.
         -2    1    1    2    0  502  0.60720197247E+02 -0.82151767323E+02  0.50330231634E+02  0.11388146225E+03  0.00000000000E+00 0.  1.
</event>
<event>
 4    1  0.5573045E+003  0.2284624E+02  0.7546771E-02  0.1494438E+00
          2   -1    0    0  501    0  0.00000000000E+00  0.00000000000E+00  0.13562128273E+04  0.13562128273E+04  0.00000000000E+00 0.  1.
         -2   -1    0    0    0  501 -0.00000000000E+00 -0.00000000000E+00 -0.83319939434E+02  0.83319939434E+02  0.00000000000E+00 0. -1.
          2    1    1    2  502    0  0.22613763285E+02  0.32509375353E+01  0.13545485842E+04  0.13547412364E+04  0.00000000000E+00 0.  1.
         -2    1    1    2    0  502 -0.22613763285E+02 -0.32509375353E+01 -0.81655696252E+02  0.84791530327E+02  0.00000000000E+00 0. -1.
</event>
<event>
 4    1  0.5573045E+003  0.2111346E+02  0.7546771E-02  0.1517651E+00
          2   -1    0    0  501    0  0.00000000000E+00  0.00000000000E+00  0.32678338489E+01  0.32678338489E+01  0.00000000000E+00 0.  1.
         -2   -1    0    0    0  501 -0.00000000000E+00 -0.00000000000E+00 -0.16454760929E+03  0.16454760929E+03  0.00000000000E+00 0.  1.
          2    1    1    2  502    0 -0.73784246154E+01  0.19782239958E+02 -0.45944707544E+02  0.50563764881E+02  0.00000000000E+00 0.  1.
         -2    1    1    2    0  502  0.73784246154E+01 -0.19782239958E+02 -0.11533506789E+03  0.11725167825E+03  0.00000000000E+00 0.  1.
</event>
<event>
 4    1  0.5573045E+003  0.2611261E+02  0.7546771E-02  0.1456732E+00
          2   -1    0    0  501    0  0.00000000000E+00  0.00000000000E+00  0.50608480726E+01  0.50608480726E+01  0.00000000000E+00 0.  1.
         -2   -1    0    0    0  501 -0.00000000000E+00 -0.00000000000E+00 -0.13537349924E+03  0.13537349924E+03  0.00000000000E+00 0.  1.
          2    1    1    2  502    0  0.21900594953E+02 -0.14220812203E+02 -0.69982983584E+02  0.74695954043E+02  0.00000000000E+00 0.  1.
         -2    1    1    2    0  502 -0.21900594953E+02  0.14220812203E+02 -0.60329667584E+02  0.65738393270E+02  0.00000000000E+00 0.  1.
</event>
<event>
 4    1  0.5573045E+003  0.2056112E+02  0.7546771E-02  0.1525624E+00
          2   -1    0    0  501    0  0.00000000000E+00  0.00000000000E+00  0.71721881050E+03  0.71721881050E+03  0.00000000000E+00 0.  1.
         -2   -1    0    0    0  501 -0.00000000000E+00 -0.00000000000E+00 -0.86870622635E+00  0.86870622635E+00  0.00000000000E+00 0.  1.
          2    1    1    2  502    0  0.97157745548E+01 -0.18120797395E+02  0.56174695047E+03  0.56212311457E+03  0.00000000000E+00 0.  1.
         -2    1    1    2    0  502 -0.97157745548E+01  0.18120797395E+02  0.15460315380E+03  0.15596440215E+03  0.00000000000E+00 0.  1.
</event>
<event>
 4    1  0.5573045E+003  0.2401865E+02  0.7546771E-02  0.1480088E+00
          2   -1    0    0  501    0  0.00000000000E+00  0.00000000000E+00  0.21798520257E+03  0.21798520257E+03  0.00000000000E+00 0.  1.
         -2   -1    0    0    0  501 -0.00000000000E+00 -0.00000000000E+00 -0.26466996396E+02  0.26466996396E+02  0.00000000000E+00 0. -1.
          2    1    1    2  502    0 -0.22507667143E+02  0.83845256426E+01  0.21171347594E+03  0.21307156367E+03  0.00000000000E+00 0.  1.
         -2    1    1    2    0  502  0.22507667143E+02 -0.83845256426E+01 -0.20195269768E+02  0.31380635294E+02  0.00000000000E+00 0. -1.
</event>
<event>
 4    1  0.5573045E+003  0.2007294E+02  0.7546771E-02  0.1532924E+00
          2   -1    0    0  501    0  0.00000000000E+00  0.00000000000E+00  0.15006950770E+04  0.15006950770E+04  0.00000000000E+00 0. -1.
         -2   -1    0    0    0  501 -0.00000000000E+00 -0.00000000000E+00 -0.56668187399E+00  0.56668187399E+00  0.00000000000E+00 0. -1.
          2    1    1    2  502    0  0.15804599474E+02 -0.12374868746E+02  0.12945720217E+04  0.12947276324E+04  0.00000000000E+00 0. -1.
         -2    1    1    2    0  502 -0.15804599474E+02  0.12374868746E+02  0.20555637352E+03  0.20653412656E+03  0.00000000000E+00 0. -1.
</event>
<event>
 4    1  0.5573045E+003  0.3798998E+02  0.7546771E-02  0.1360685E+00
          2   -1    0    0  501    0  0.00000000000E+00  0.00000000000E+00  0.19146572013E+04  0.19146572013E+04  0.00000000000E+00 0.  1.
         -2   -1    0    0    0  501 -0.00000000000E+00 -0.00000000000E+00 -0.21731331813E+01  0.21731331813E+01  0.00000000000E+00 0. -1.
          2    1    1    2  502    0 -0.37704975078E+02 -0.46446833891E+01  0.17308021156E+04  0.17312189930E+04  0.00000000000E+00 0.  1.
         -2    1    1    2    0  502  0.37704975078E+02  0.46446833891E+01  0.18168195254E+03  0.18561134154E+03  0.00000000000E+00 0. -1.
</event>
<event>
 4    1  0.5573045E+003  0.2101314E+02  0.7546771E-02  0.1519077E+00
          2   -1    0    0  501    0  0.00000000000E+00  0.00000000000E+00  0.24024613910E+03  0.24024613910E+03  0.00000000000E+00 0.  1.
         -2   -1    0    0    0  501 -0.00000000000E+00 -0.00000000000E+00 -0.10878459962E+02  0.10878459962E+02  0.00000000000E+00 0.  1.
          2    1    1    2  502    0  0.80495120744E+00 -0.20997715617E+02  0.22914887700E+03  0.23011032102E+03  0.00000000000E+00 0.  1.
         -2    1    1    2    0  502 -0.80495120744E+00  0.20997715617E+02  0.21880214090E+00  0.21014278050E+02  0.00000000000E+00 0.  1.
</event>
<event>
 4    1  0.5573045E+003  0.2693356E+02  0.7546771E-02  0.1448277E+00
          2   -1    0    0  501    0  0.00000000000E+00  0.00000000000E+00  0.10175174704E+04  0.10175174704E+04  0.00000000000E+00 0.  1.
         -2   -1    0    0    0  501 -0.00000000000E+00 -0.00000000000E+00 -0.25031361142E+01  0.25031361142E+01  0.00000000000E+00 0. -1.
          2    1    1    2  502    0  0.28757086764E+01  0.26779602658E+02  0.93881610965E+03  0.93920237678E+03  0.00000000000E+00 0.  1.
         -2    1    1    2    0  502 -0.28757086764E+01 -0.26779602658E+02  0.76198224624E+02  0.80818229718E+02  0.00000000000E+00 0. -1.
</event>
<event>
 4    1  0.5573045E+003  0.2363490E+02  0.7546771E-02  0.1484676E+00
          2   -1    0    0  501    0  0.00000000000E+00  0.00000000000E+00  0.10767613465E+04  0.10767613465E+04  0.00000000000E+00 0.  1.
         -2   -1    0    0    0  501 -0.00000000000E+00 -0.00000000000E+00 -0.19085580920E+01  0.19085580920E+01  0.00000000000E+00 0.  1.
          2    1    1    2  502    0 -0.18882577092E+02  0.14214669114E+02  0.99765932821E+03  0.99793924850E+03  0.00000000000E+00 0.  1.
         -2    1    1    2    0  502  0.18882577092E+02 -0.14214669114E+02  0.77193460233E+02  0.80730656125E+02  0.00000000000E+00 0.  1.
</event>
<event>
 4    1  0.5573045E+003  0.2609901E+02  0.7546771E-02  0.1456875E+00
          2   -1    0    0  501    0  0.00000000000E+00  0.00000000000E+00  0.11461943191E+04  0.11461943191E+04  0.00000000000E+00 0.  1.
         -2   -1    0    0    0  501 -0.00000000000E+00 -0.00000000000E+00 -0.55134970685E+01  0.55134970685E+01  0.00000000000E+00 0.  1.
          2    1    1    2  502    0 -0.20084740222E+02  0.16666185005E+02  0.11142751660E+04  0.11145807751E+04  0.00000000000E+00 0.  1.
         -2    1    1    2    0  502  0.20084740222E+02 -0.16666185005E+02  0.26405656008E+02  0.37127041111E+02  0.00000000000E+00 0.  1.
</event>
<event>
 4    1  0.5573045E+003  0.2146364E+02  0.7546771E-02  0.1512747E+00
          2   -1    0    0  501    0  0.00000000000E+00  0.00000000000E+00  0.11126772348E+03  0.11126772348E+03  0.00000000000E+00 0. -1.
         -2   -1    0    0    0  501 -0.00000000000E+00 -0.00000000000E+00 -0.64942308375E+02  0.64942308375E+02  0.00000000000E+00 0. -1.
          2    1    1    2  502    0  0.68840480009E+01  0.20329722042E+02  0.10841293462E+03  0.11051720277E+03  0.00000000000E+00 0. -1.
         -2    1    1    2    0  502 -0.68840480009E+01 -0.20329722042E+02 -0.62087519509E+02  0.65692829091E+02  0.00000000000E+00 0. -1.
</event>
<event>
 4    1  0.5573045E+003  0.3294764E+02  0.7546771E-02  0.1395596E+00
          2   -1    0    0  501    0  0.00000000000E+00  0.00000000000E+00  0.63633802722E+03  0.63633802722E+03  0.00000000000E+00 0. -1.
         -2   -1    0    0    0  501 -0.00000000000E+00 -0.00000000000E+00 -0.51947457348E+02  0.51947457348E+02  0.00000000000E+00 0.  1.
          2    1    1    2  502    0  0.28587301994E+02 -0.16380275500E+02  0.63064011947E+03  0.63150020392E+03  0.00000000000E+00 0. -1.
         -2    1    1    2    0  502 -0.28587301994E+02  0.16380275500E+02 -0.46249549598E+02  0.56785280653E+02  0.00000000000E+00 0.  1.
</event>
<event>
 4    1  0.5573045E+003  0.2769255E+02  0.7546771E-02  0.1440773E+00
          2   -1    0    0  501    0  0.00000000000E+00  0.00000000000E+00  0.23409857357E+03  0.23409857357E+03  0.00000000000E+00 0.  1.
         -2   -1    0    0    0  501 -0.00000000000E+00 -0.00000000000E+00 -0.16504119043E+02  0.16504119043E+02  0.00000000000E+00 0. -1.
          2    1    1    2  502    0  0.24682450590E+02  0.12556031217E+02  0.22097600126E+03  0.22270444634E+03  0.00000000000E+00 0.  1.
         -2    1    1    2    0  502 -0.24682450590E+02 -0.12556031217E+02 -0.33815467291E+01  0.27898246277E+02  0.00000000000E+00 0. -1.
</event>
<event>
 4    1  0.5573045E+003  0.6110172E+02  0.7546771E-02  0.1256135E+00
          2   -1    0    0  501    0  0.00000000000E+00  0.00000000000E+00  0.26521321015E+04  0.26521321015E+04  0.00000000000E+00 0. -1.
         -2   -1    0    0    0  501 -0.00000000000E+00 -0.00000000000E+00 -0.29831985819E+01  0.29831985819E+01  0.00000000000E+00 0. -1.
          2    1    1    2  502    0  0.27959050391E+02  0.54329652582E+02  0.22893374206E+04  0.22901526685E+04  0.00000000000E+00 0. -1.
         -2    1    1    2    0  502 -0.27959050391E+02 -0.54329652582E+02  0.35981148236E+03  0.36496263163E+03  0.00000000000E+00 0. -1.
</event>
<event>
 4    1  0.5573045E+003  0.3544562E+02  0.7546771E-02  0.1377457E+00
          2   -1    0    0  501    0  0.00000000000E+00  0.00000000000E+00  0.30203805321E+03  0.30203805321E+03  0.00000000000E+00 0. -1.
         -2   -1    0    0    0  501 -0.00000000000E+00 -0.00000000000E+00 -0.10871818927E+02  0.10871818927E+02  0.00000000000E+00 0. -1.
          2    1    1    2  502    0 -0.19833685468E+01  0.35390089251E+02  0.26851584141E+03  0.27084524965E+03  0.00000000000E+00 0. -1.
         -2    1    1    2    0  502  0.19833685468E+01 -0.35390089251E+02  0.22650392874E+02  0.42064622491E+02  0.00000000000E+00 0. -1.
</event>
<event>
 4    1  0.5573045E+003  0.4920342E+02  0.7546771E-02  0.1301664E+00
          2   -1    0    0  501    0  0.00000000000E+00  0.00000000000E+00  0.11646857457E+04  0.11646857457E+04  0.00000000000E+00 0. -1.
         -2   -1    0    0    0  501 -0.00000000000E+00 -0.00000000000E+00 -0.79475637271E+01  0.79475637271E+01  0.00000000000E+00 0. -1.
          2    1    1    2  502    0 -0.49184727283E+02 -0.13560021809E+01  0.10822106845E+04  0.10833286398E+04  0.00000000000E+00 0. -1.
         -2    1    1    2    0  502  0.49184727283E+02  0.13560021809E+01  0.74527497475E+02  0.89304669641E+02  0.00000000000E+00 0. -1.
</event>
<event>
 4    1  0.5573045E+003  0.4520780E+02  0.7546771E-02  0.1320404E+00
          2   -1    0    0  501    0  0.00000000000E+00  0.00000000000E+00  0.26985877472E+02  0.26985877472E+02  0.00000000000E+00 0. -1.
         -2   -1    0    0    0  501 -0.00000000000E+00 -0.00000000000E+00 -0.10882291147E+03  0.10882291147E+03  0.00000000000E+00 0. -1.
          2    1    1    2  502    0  0.21641899114E+00  0.45207279610E+02 -0.34747274030E+01  0.45341136923E+02  0.00000000000E+00 0. -1.
         -2    1    1    2    0  502 -0.21641899114E+00 -0.45207279610E+02 -0.78362306597E+02  0.90467652021E+02  0.00000000000E+00 0. -1.
</event>
<event>
 4    1  0.5573045E+003  0.2835713E+02  0.7546771E-02  0.1434432E+00
          2   -1    0    0  501    0  0.00000000000E+00  0.00000000000E+00  0.13745951772E+04  0.13745951772E+04  0.00000000000E+00 0. -1.
         -2   -1    0    0    0  501 -0.00000000000E+00 -0.00000000000E+00 -0.60865016309E+00  0.60865016309E+00  0.00000000000E+00 0.  1.
          2    1    1    2  502    0  0.26665065250E+02  0.96488870684E+01  0.82255800724E+03  0.82304665846E+03  0.00000000000E+00 0. -1.
         -2    1    1    2    0  502 -0.26665065250E+02 -0.96488870684E+01  0.55142851982E+03  0.55215716893E+03  0.00000000000E+00 0.  1.
</event>
<event>
 4    1  0.5573045E+003  0.3148267E+02  0.7546771E-02  0.1407135E+00
          2   -1    0    0  501    0  0.00000000000E+00  0.00000000000E+00  0.37225829810E+03  0.37225829810E+03  0.00000000000E+00 0.  1.
         -2   -1    0    0    0  501 -0.00000000000E+00 -0.00000000000E+00 -0.91708273861E+02  0.91708273861E+02  0.00000000000E+00 0.  1.
          2    1    1    2  502    0  0.30960092722E+02  0.57123748520E+01  0.36886592179E+03  0.37020700537E+03  0.00000000000E+00 0.  1.
         -2    1    1    2    0  502 -0.30960092722E+02 -0.57123748520E+01 -0.88315897549E+02  0.93759566593E+02  0.00000000000E+00 0.  1.
</event>
<event>
 4    1  0.5573045E+003  0.3133895E+02  0.7546771E-02  0.1408307E+00
          2   -1    0    0  501    0  0.00000000000E+00  0.00000000000E+00  0.24829376098E+01  0.24829376098E+01  0.00000000000E+00 0.  1.
         -2   -1    0    0    0  501 -0.00000000000E+00 -0.00000000000E+00 -0.51116656261E+03  0.51116656261E+03  0.00000000000E+00 0.  1.
          2    1    1    2  502    0 -0.30066907807E+02  0.88380452118E+01 -0.13220048275E+03  0.13586426177E+03  0.00000000000E+00 0.  1.
         -2    1    1    2    0  502  0.30066907807E+02 -0.88380452118E+01 -0.37648314226E+03  0.37778523845E+03  0.00000000000E+00 0.  1.
</event>
<event>
 4    1  0.5573045E+003  0.2462669E+02  0.7546771E-02  0.1473023E+00
          2   -1    0    0  501    0  0.00000000000E+00  0.00000000000E+00  0.10203608999E+04  0.10203608999E+04  0.00000000000E+00 0. -1.
         -2   -1    0    0    0  501 -0.00000000000E+00 -0.00000000000E+00 -0.60487823560E+00  0.60487823560E+00  0.00000000000E+00 0. -1.
          2    1    1    2  502    0 -0.17386525794E+02 -0.17440811493E+02  0.44259796870E+03  0.44328256799E+03  0.00000000000E+00 0. -1.
         -2    1    1    2    0  502  0.17386525794E+02  0.17440811493E+02  0.57715805301E+03  0.57768321019E+03  0.00000000000E+00 0. -1.
</event>
<event>
 4    1  0.5573045E+003  0.2571828E+02  0.7546771E-02  0.1460926E+00
          2   -1    0    0  501    0  0.00000000000E+00  0.00000000000E+00  0.73653378995E+03  0.73653378995E+03  0.00000000000E+00 0.  1.
         -2   -1    0    0    0  501 -0.00000000000E+00 -0.00000000000E+00 -0.75719517778E+02  0.75719517778E+02  0.00000000000E+00 0.  1.
          2    1    1    2  502    0 -0.15303212285E+02  0.20669824544E+02  0.73411828304E+03  0.73456863767E+03  0.00000000000E+00 0.  1.
         -2    1    1    2    0  502  0.15303212285E+02 -0.20669824544E+02 -0.73304010868E+02  0.77684670059E+02  0.00000000000E+00 0.  1.
</event>
<event>
 4    1  0.5573045E+003  0.2030338E+02  0.7546771E-02  0.1529447E+00
          2   -1    0    0  501    0  0.00000000000E+00  0.00000000000E+00  0.40693905665E+03  0.40693905665E+03  0.00000000000E+00 0. -1.
         -2   -1    0    0    0  501 -0.00000000000E+00 -0.00000000000E+00 -0.11776305326E+02  0.11776305326E+02  0.00000000000E+00 0. -1.
          2    1    1    2  502    0 -0.11999776846E+02 -0.16377810539E+02  0.39773216025E+03  0.39825004535E+03  0.00000000000E+00 0. -1.
         -2    1    1    2    0  502  0.11999776846E+02  0.16377810539E+02 -0.25694089267E+01  0.20465316627E+02  0.00000000000E+00 0. -1.
</event>
<event>
 4    1  0.5573045E+003  0.3062922E+02  0.7546771E-02  0.1414206E+00
          2   -1    0    0  501    0  0.00000000000E+00  0.00000000000E+00  0.32281965875E+03  0.32281965875E+03  0.00000000000E+00 0.  1.
         -2   -1    0    0    0  501 -0.00000000000E+00 -0.00000000000E+00 -0.14730263388E+02  0.14730263388E+02  0.00000000000E+00 0. -1.
          2    1    1    2  502    0 -0.28068134592E+02 -0.12260873303E+02  0.30525723529E+03  0.30679004041E+03  0.00000000000E+00 0.  1.
         -2    1    1    2    0  502  0.28068134592E+02  0.12260873303E+02  0.28321600698E+01  0.30759881734E+02  0.00000000000E+00 0. -1.
</event>
<event>
 4    1  0.5573045E+003  0.2048948E+02  0.7546771E-02  0.1526680E+00
          2   -1    0    0  501    0  0.00000000000E+00  0.00000000000E+00  0.38262613120E+03  0.38262613120E+03  0.00000000000E+00 0. -1.
         -2   -1    0    0    0  501 -0.00000000000E+00 -0.00000000000E+00 -0.48370125589E+02  0.48370125589E+02  0.00000000000E+00 0. -1.
          2    1    1    2  502    0 -0.86557765276E+01 -0.18571380840E+02  0.38016798650E+03  0.38071973499E+03  0.00000000000E+00 0. -1.
         -2    1    1    2    0  502  0.86557765276E+01  0.18571380840E+02 -0.45911980895E+02  0.50276521790E+02  0.00000000000E+00 0. -1.
</event>
<event>
 4    1  0.5573045E+003  0.3176398E+02  0.7546771E-02  0.1404863E+00
          2   -1    0    0  501    0  0.00000000000E+00  0.00000000000E+00  0.54429690732E+03  0.54429690732E+03  0.00000000000E+00 0.  1.
         -2   -1    0    0    0  501 -0.00000000000E+00 -0.00000000000E+00 -0.24699941788E+02  0.24699941788E+02  0.00000000000E+00 0.  1.
          2    1    1    2  502    0  0.29118070685E+02  0.12692071713E+02  0.53341323096E+03  0.53435814365E+03  0.00000000000E+00 0.  1.
         -2    1    1    2    0  502 -0.29118070685E+02 -0.12692071713E+02 -0.13816265433E+02  0.34638705450E+02  0.00000000000E+00 0.  1.
</event>
<event>
 4    1  0.5573045E+003  0.2199995E+02  0.7546771E-02  0.1505453E+00
          2   -1    0    0  501    0  0.00000000000E+00  0.00000000000E+00  0.25166126429E+03  0.25166126429E+03  0.00000000000E+00 0. -1.
         -2   -1    0    0    0  501 -0.00000000000E+00 -0.00000000000E+00 -0.42172295458E+02  0.42172295458E+02  0.00000000000E+00 0.  1.
          2    1    1    2  502    0  0.57553258468E+01  0.21233796728E+02  0.24827220232E+03  0.24924502873E+03  0.00000000000E+00 0. -1.
         -2    1    1    2    0  502 -0.57553258468E+01 -0.21233796728E+02 -0.38783233488E+02  0.44588531024E+02  0.00000000000E+00 0.  1.
</event>
<event>
 4    1  0.5573045E+003  0.2327636E+02  0.7546771E-02  0.1489057E+00
          2   -1    0    0  501    0  0.00000000000E+00  0.00000000000E+00  0.19943152462E+04  0.19943152462E+04  0.00000000000E+00 0.  1.
         -2   -1    0    0    0  501 -0.00000000000E+00 -0.00000000000E+00 -0.31812228266E+00  0.31812228266E+00  0.00000000000E+00 0.  1.
          2    1    1    2  502    0  0.10174738068E+02 -0.20934743671E+02  0.13781131664E+04  0.13783097215E+04  0.00000000000E+00 0.  1.
         -2    1    1    2    0  502 -0.10174738068E+02  0.20934743671E+02  0.61588395749E+03  0.61632364702E+03  0.00000000000E+00 0.  1.
</event>
<event>
 4    1  0.5573045E+003  0.4716535E+02  0.7546771E-02  0.1310954E+00
          2   -1    0    0  501    0  0.00000000000E+00  0.00000000000E+00  0.43618045559E+01  0.43618045559E+01  0.00000000000E+00 0. -1.
         -2   -1    0    0    0  501 -0.00000000000E+00 -0.00000000000E+00 -0.51175816099E+03  0.51175816099E+03  0.00000000000E+00 0. -1.
          2    1    1    2  502    0  0.43512984853E+02 -0.18198637787E+02 -0.23862174021E+03  0.24323837108E+03  0.00000000000E+00 0. -1.
         -2    1    1    2    0  502 -0.43512984853E+02  0.18198637787E+02 -0.26877461623E+03  0.27288159447E+03  0.00000000000E+00 0. -1.
</event>
<event>
 4    1  0.5573045E+003  0.4427312E+02  0.7546771E-02  0.1325114E+00
          2   -1    0    0  501    0  0.00000000000E+00  0.00000000000E+00  0.55320998291E+02  0.55320998291E+02  0.00000000000E+00 0. -1.
         -2   -1    0    0    0  501 -0.00000000000E+00 -0.00000000000E+00 -0.12288959773E+03  0.12288959773E+03  0.00000000000E+00 0. -1.
          2    1    1    2  502    0 -0.29536663946E+02 -0.32980212746E+02  0.41385924314E+02  0.60604485652E+02  0.00000000000E+00 0. -1.
         -2    1    1    2    0  502  0.29536663946E+02  0.32980212746E+02 -0.10895452375E+03  0.11760611036E+03  0.00000000000E+00 0. -1.
</event>
<event>
 4    1  0.5573045E+003  0.3571050E+02  0.7546771E-02  0.1375636E+00
          2   -1    0    0  501    0  0.00000000000E+00  0.00000000000E+00  0.85966807871E+00  0.85966807871E+00  0.00000000000E+00 0.  1.
         -2   -1    0    0    0  501 -0.00000000000E+00 -0.00000000000E+00 -0.15213057298E+04  0.15213057298E+04  0.00000000000E+00 0. -1.
          2    1    1    2  502    0  0.65626952306E+01  0.35102289410E+02 -0.64010110218E+03  0.64109645195E+03  0.00000000000E+00 0.  1.
         -2    1    1    2    0  502 -0.65626952306E+01 -0.35102289410E+02 -0.88034495953E+03  0.88106894592E+03  0.00000000000E+00 0. -1.
</event>
<event>
 4    1  0.5573045E+003  0.3632234E+02  0.7546771E-02  0.1371498E+00
          2   -1    0    0  501    0  0.00000000000E+00  0.00000000000E+00  0.28966301096E+03  0.28966301096E+03  0.00000000000E+00 0.  1.
         -2   -1    0    0    0  501 -0.00000000000E+00 -0.00000000000E+00 -0.50439706872E+02  0.50439706872E+02  0.00000000000E+00 0. -1.
          2    1    1    2  502    0 -0.25501213617E+01 -0.36232706981E+02  0.28180367507E+03  0.28413486842E+03  0.00000000000E+00 0.  1.
         -2    1    1    2    0  502  0.25501213617E+01  0.36232706981E+02 -0.42580370980E+02  0.55967849404E+02  0.00000000000E+00 0. -1.
</event>
<event>
 4    1  0.5573045E+003  0.2921669E+02  0.7546771E-02  0.1426528E+00
          2   -1    0    0  501    0  0.00000000000E+00  0.00000000000E+00  0.13562863595E+04  0.13562863595E+04  0.00000000000E+00 0.  1.
         -2   -1    0    0    0  501 -0.00000000000E+00 -0.00000000000E+00 -0.65452892023E+01  0.65452892023E+01  0.00000000000E+00 0. -1.
          2    1    1    2  502    0 -0.29204222280E+02  0.85337976570E+00  0.13226969772E+04  0.13230196175E+04  0.00000000000E+00 0.  1.
         -2    1    1    2    0  502  0.29204222280E+02 -0.85337976570E+00  0.27044093130E+02  0.39812031212E+02  0.00000000000E+00 0. -1.
</event>
<event>
 4    1  0.5573045E+003  0.2107092E+02  0.7546771E-02  0.1518255E+00
          2   -1    0    0  501    0  0.00000000000E+00  0.00000000000E+00  0.49428801475E+03  0.49428801475E+03  0.00000000000E+00 0. -1.
         -2   -1    0    0    0  501 -0.00000000000E+00 -0.00000000000E+00 -0.10378486861E+01  0.10378486861E+01  0.00000000000E+00 0.  1.
          2    1    1    2  502    0  0.18112014765E+02  0.10767452292E+02  0.15578665952E+03  0.15720517292E+03  0.00000000000E+00 0. -1.
         -2    1    1    2    0  502 -0.18112014765E+02 -0.10767452292E+02  0.33746350655E+03  0.33812069052E+03  0.00000000000E+00 0.  1.
</event>
<event>
 4    1  0.5573045E+003  0.2136164E+02  0.7546771E-02  0.1514164E+00
          2   -1    0    0  501    0  0.00000000000E+00  0.00000000000E+00  0.31399458408E+03  0.31399458408E+03  0.00000000000E+00 0.  1.
         -2   -1    0    0    0  501 -0.00000000000E+00 -0.00000000000E+00 -0.64049402812E+01  0.64049402812E+01  0.00000000000E+00 0. -1.
          2    1    1    2  502    0 -0.17419044759E+02  0.12365133052E+02  0.29465235638E+03  0.29542567722E+03  0.00000000000E+00 0.  1.
         -2    1    1    2    0  502  0.17419044759E+02 -0.12365133052E+02  0.12937287419E+02  0.24973847149E+02  0.00000000000E+00 0. -1.
</event>
<event>
 4    1  0.5573045E+003  0.2306639E+02  0.7546771E-02  0.1491666E+00
          2   -1    0    0  501    0  0.00000000000E+00  0.00000000000E+00  0.74739283226E+03  0.74739283226E+03  0.00000000000E+00 0. -1.
         -2   -1    0    0    0  501 -0.00000000000E+00 -0.00000000000E+00 -0.85028117451E+00  0.85028117451E+00  0.00000000000E+00 0.  1.
          2    1    1    2  502    0  0.11980180429E+02 -0.19711255174E+02  0.52420709742E+03  0.52471434065E+03  0.00000000000E+00 0. -1.
         -2    1    1    2    0  502 -0.11980180429E+02  0.19711255174E+02  0.22233545367E+03  0.22352877278E+03  0.00000000000E+00 0.  1.
</event>
<event>
 4    1  0.5573045E+003  0.2324206E+02  0.7546771E-02  0.1489481E+00
          2   -1    0    0  501    0  0.00000000000E+00  0.00000000000E+00  0.90662408004E+03  0.90662408004E+03  0.00000000000E+00 0. -1.
         -2   -1    0    0    0  501 -0.00000000000E+00 -0.00000000000E+00 -0.75286385613E+01  0.75286385613E+01  0.00000000000E+00 0.  1.
          2    1    1    2  502    0  0.47917629612E+01  0.22742748072E+02  0.88816440549E+03  0.88846846020E+03  0.00000000000E+00 0. -1.
         -2    1    1    2    0  502 -0.47917629612E+01 -0.22742748072E+02  0.10931035991E+02  0.25684258409E+02  0.00000000000E+00 0.  1.
</event>
<event>
 4    1  0.5573045E+003  0.2044748E+02  0.7546771E-02  0.1527302E+00
          2   -1    0    0  501    0  0.00000000000E+00  0.00000000000E+00  0.48264884263E+03  0.48264884263E+03  0.00000000000E+00 0. -1.
         -2   -1    0    0    0  501 -0.00000000000E+00 -0.00000000000E+00 -0.10628663617E+03  0.10628663617E+03  0.00000000000E+00 0. -1.
          2    1    1    2  502    0  0.40179036252E+01  0.20048837739E+02  0.48144639823E+03  0.48188041444E+03  0.00000000000E+00 0. -1.
         -2    1    1    2    0  502 -0.40179036252E+01 -0.20048837739E+02 -0.10508419178E+03  0.10705506437E+03  0.00000000000E+00 0. -1.
</event>
<event>
 4    1  0.5573045E+003  0.3437218E+02  0.7546771E-02  0.1385031E+00
          2   -1    0    0  501    0  0.00000000000E+00  0.00000000000E+00  0.12505757609E+03  0.12505757609E+03  0.00000000000E+00 0.  1.
         -2   -1    0    0    0  501 -0.00000000000E+00 -0.00000000000E+00 -0.52002158634E+02  0.52002158634E+02  0.00000000000E+00 0. -1.
          2    1    1    2  502    0  0.22995312416E+02  0.25547255284E+02  0.11661324782E+03  0.12157341902E+03  0.00000000000E+00 0.  1.
         -2    1    1    2    0  502 -0.22995312416E+02 -0.25547255284E+02 -0.43557830356E+02  0.55486315709E+02  0.00000000000E+00 0. -1.
</event>
<event>
 4    1  0.5573045E+003  0.2486615E+02  0.7546771E-02  0.1470306E+00
          2   -1    0    0  501    0  0.00000000000E+00  0.00000000000E+00  0.15792880458E+02  0.15792880458E+02  0.00000000000E+00 0. -1.
         -2   -1    0    0    0  501 -0.00000000000E+00 -0.00000000000E+00 -0.33371461869E+03  0.33371461869E+03  0.00000000000E+00 0. -1.
          2    1    1    2  502    0 -0.24755268091E+02 -0.23456677451E+01  0.52219020685E+01  0.25408536295E+02  0.00000000000E+00 0. -1.
         -2    1    1    2    0  502  0.24755268091E+02  0.23456677451E+01 -0.32314364030E+03  0.32409896285E+03  0.00000000000E+00 0. -1.
</event>
<event>
 4    1  0.5573045E+003  0.2356210E+02  0.7546771E-02  0.1485558E+00
          2   -1    0    0  501    0  0.00000000000E+00  0.00000000000E+00  0.20218970547E+04  0.20218970547E+04  0.00000000000E+00 0. -1.
         -2   -1    0    0    0  501 -0.00000000000E+00 -0.00000000000E+00 -0.30957251091E+00  0.30957251091E+00  0.00000000000E+00 0. -1.
          2    1    1    2  502    0 -0.69540267167E+01  0.22512529250E+02  0.13507335232E+04  0.13509390154E+04  0.00000000000E+00 0. -1.
         -2    1    1    2    0  502  0.69540267167E+01 -0.22512529250E+02  0.67085395894E+03  0.67126761183E+03  0.00000000000E+00 0. -1.
</event>
<event>
 4    1  0.5573045E+003  0.4641982E+02  0.7546771E-02  0.1314489E+00
          2   -1    0    0  501    0  0.00000000000E+00  0.00000000000E+00  0.17472706773E+04  0.17472706773E+04  0.00000000000E+00 0. -1.
         -2   -1    0    0    0  501 -0.00000000000E+00 -0.00000000000E+00 -0.17913289411E+01  0.17913289411E+01  0.00000000000E+00 0.  1.
          2    1    1    2  502    0  0.45269119867E+02  0.10271631005E+02  0.13608750059E+04  0.13616664722E+04  0.00000000000E+00 0. -1.
         -2    1    1    2    0  502 -0.45269119867E+02 -0.10271631005E+02  0.38460434238E+03  0.38739553404E+03  0.00000000000E+00 0.  1.
</event>
<event>
 4    1  0.5573045E+003  0.2270958E+02  0.7546771E-02  0.1496178E+00
          2   -1    0    0  501    0  0.00000000000E+00  0.00000000000E+00  0.12185698601E+04  0.12185698601E+04  0.00000000000E+00 0. -1.
         -2   -1    0    0    0  501 -0.00000000000E+00 -0.00000000000E+00 -0.20814444436E+02  0.20814444436E+02  0.00000000000E+00 0.  1.
          2    1    1    2  502    0  0.20921768392E+02  0.88320195902E+01  0.12122373840E+04  0.12124500815E+04  0.00000000000E+00 0. -1.
         -2    1    1    2    0  502 -0.20921768392E+02 -0.88320195902E+01 -0.14481968348E+02  0.26934223024E+02  0.00000000000E+00 0.  1.
</event>
<event>
 4    1  0.5573045E+003  0.2053366E+02  0.7546771E-02  0.1526028E+00
          2   -1    0    0  501    0  0.00000000000E+00  0.00000000000E+00  0.15076980052E+03  0.15076980052E+03  0.00000000000E+00 0.  1.
         -2   -1    0    0    0  501 -0.00000000000E+00 -0.00000000000E+00 -0.10714681649E+02  0.10714681649E+02  0.00000000000E+00 0.  1.
          2    1    1    2  502    0 -0.18239323727E+02 -0.94317596864E+01  0.13943775985E+03  0.14094154778E+03  0.00000000000E+00 0.  1.
         -2    1    1    2    0  502  0.18239323727E+02  0.94317596864E+01  0.61735902144E+00  0.20542934381E+02  0.00000000000E+00 0.  1.
</event>
<event>
 4    1  0.5573045E+003  0.2330856E+02  0.7546771E-02  0.1488659E+00
          2   -1    0    0  501    0  0.00000000000E+00  0.00000000000E+00  0.15921882339E+03  0.15921882339E+03  0.00000000000E+00 0.  1.
         -2   -1    0    0    0  501 -0.00000000000E+00 -0.00000000000E+00 -0.79364966347E+02  0.79364966347E+02  0.00000000000E+00 0.  1.
          2    1    1    2  502    0  0.15568123522E+02  0.17347114420E+02  0.15662623479E+03  0.15835108548E+03  0.00000000000E+00 0.  1.
         -2    1    1    2    0  502 -0.15568123522E+02 -0.17347114420E+02 -0.76772377742E+02  0.80232704260E+02  0.00000000000E+00 0.  1.
</event>
<event>
 4    1  0.5573045E+003  0.2089461E+02  0.7546771E-02  0.1520775E+00
          2   -1    0    0  501    0  0.00000000000E+00  0.00000000000E+00  0.65284944580E+03  0.65284944580E+03  0.00000000000E+00 0. -1.
         -2   -1    0    0    0  501 -0.00000000000E+00 -0.00000000000E+00 -0.26108178035E+01  0.26108178035E+01  0.00000000000E+00 0.  1.
          2    1    1    2  502    0 -0.16046610345E+02  0.13382491892E+02  0.60777758699E+03  0.60813664586E+03  0.00000000000E+00 0. -1.
         -2    1    1    2    0  502  0.16046610345E+02 -0.13382491892E+02  0.42461041009E+02  0.47323617744E+02  0.00000000000E+00 0.  1.
</event>
<event>
 4    1  0.5573045E+003  0.2350279E+02  0.7546771E-02  0.1486279E+00
          2   -1    0    0  501    0  0.00000000000E+00  0.00000000000E+00  0.37925718653E+03  0.37925718653E+03  0.00000000000E+00 0.  1.
         -2   -1    0    0    0  501 -0.00000000000E+00 -0.00000000000E+00 -0.13715687876E+03  0.13715687876E+03  0.00000000000E+00 0. -1.
          2    1    1    2  502    0 -0.10743968391E+02  0.20903313329E+02  0.37788256466E+03  0.37861274944E+03  0.00000000000E+00 0.  1.
         -2    1    1    2    0  502  0.10743968391E+02 -0.20903313329E+02 -0.13578225689E+03  0.13780131586E+03  0.00000000000E+00 0. -1.
</event>
<event>
 4    1  0.5573045E+003  0.2073947E+02  0.7546771E-02  0.1523017E+00
          2   -1    0    0  501    0  0.00000000000E+00  0.00000000000E+00  0.39011773356E+02  0.39011773356E+02  0.00000000000E+00 0.  1.
         -2   -1    0    0    0  501 -0.00000000000E+00 -0.00000000000E+00 -0.11932295850E+02  0.11932295850E+02  0.00000000000E+00 0. -1.
          2    1    1    2  502    0 -0.19591651252E+02  0.68038879686E+01  0.20561529791E+02  0.29204489340E+02  0.00000000000E+00 0.  1.
         -2    1    1    2    0  502  0.19591651252E+02 -0.68038879686E+01  0.65179477154E+01  0.21739579865E+02  0.00000000000E+00 0. -1.
</event>
<event>
 4    1  0.5573045E+003  0.2840077E+02  0.7546771E-02  0.1434023E+00
          2   -1    0    0  501    0  0.00000000000E+00  0.00000000000E+00  0.54045602143E+03  0.54045602143E+03  0.00000000000E+00 0.  1.
         -2   -1    0    0    0  501 -0.00000000000E+00 -0.00000000000E+00 -0.26743065404E+02  0.26743065404E+02  0.00000000000E+00 0.  1.
          2    1    1    2  502    0 -0.22374347687E+02  0.17492630410E+02  0.53242900470E+03  0.53318594186E+03  0.00000000000E+00 0.  1.
         -2    1    1    2    0  502  0.22374347687E+02 -0.17492630410E+02 -0.18716048673E+02  0.34013144974E+02  0.00000000000E+00 0.  1.
</event>
<event>
 4    1  0.5573045E+003  0.2999671E+02  0.7546771E-02  0.1419625E+00
          2   -1    0    0  501    0  0.00000000000E+00  0.00000000000E+00  0.53584891205E+03  0.53584891205E+03  0.00000000000E+00 0.  1.
         -2   -1    0    0    0  501 -0.00000000000E+00 -0.00000000000E+00 -0.17849877136E+01  0.17849877136E+01  0.00000000000E+00 0. -1.
          2    1    1    2  502    0  0.34693335324E+01 -0.29795409520E+02  0.33247096730E+03  0.33382142951E+03  0.00000000000E+00 0.  1.
         -2    1    1    2    0  502 -0.34693335324E+01  0.29795409520E+02  0.20159295704E+03  0.20381247025E+03  0.00000000000E+00 0. -1.
</event>
<event>
 4    1  0.5573045E+003  0.2341681E+02  0.7546771E-02  0.1487330E+00
          2   -1    0    0  501    0  0.00000000000E+00  0.00000000000E+00  0.82999568811E+03  0.82999568811E+03  0.00000000000E+00 0. -1.
         -2   -1    0    0    0  501 -0.00000000000E+00 -0.00000000000E+00 -0.95837457540E+01  0.95837457540E+01  0.00000000000E+00 0.  1.
          2    1    1    2  502    0  0.21161880533E+02  0.10026053453E+02  0.81526808921E+03  0.81560431842E+03  0.00000000000E+00 0. -1.
         -2    1    1    2    0  502 -0.21161880533E+02 -0.10026053453E+02  0.51438531459E+01  0.23975115447E+02  0.00000000000E+00 0.  1.
</event>
<event>
 4    1  0.5573045E+003  0.2501753E+02  0.7546771E-02  0.1468607E+00
          2   -1    0    0  501    0  0.00000000000E+00  0.00000000000E+00  0.61529076288E+02  0.61529076288E+02  0.00000000000E+00 0.  1.
         -2   -1    0    0    0  501 -0.00000000000E+00 -0.00000000000E+00 -0.10331137286E+02  0.10331137286E+02  0.00000000000E+00 0.  1.
          2    1    1    2  502    0  0.24978375940E+02  0.13989139590E+01  0.21140191650E+02  0.32753380403E+02  0.00000000000E+00 0.  1.
         -2    1    1    2    0  502 -0.24978375940E+02 -0.13989139590E+01  0.30057747352E+02  0.39106833172E+02  0.00000000000E+00 0.  1.
</event>
<event>
 4    1  0.5573045E+003  0.2223833E+02  0.7546771E-02  0.1502291E+00
          2   -1    0    0  501    0  0.00000000000E+00  0.00000000000E+00  0.37758684802E+03  0.37758684802E+03  0.00000000000E+00 0.  1.
         -2   -1    0    0    0  501 -0.00000000000E+00 -0.00000000000E+00 -0.42138050118E+01  0.42138050118E+01  0.00000000000E+00 0.  1.
          2    1    1    2  502    0 -0.18186253938E+02  0.12798572014E+02  0.34516565579E+03  0.34588129931E+03  0.00000000000E+00 0.  1.
         -2    1    1    2    0  502  0.18186253938E+02 -0.12798572014E+02  0.28207387222E+02  0.35919353721E+02  0.00000000000E+00 0.  1.
</event>
<event>
 4    1  0.5573045E+003  0.2139348E+02  0.7546771E-02  0.1513721E+00
          2   -1    0    0  501    0  0.00000000000E+00  0.00000000000E+00  0.14358813338E+04  0.14358813338E+04  0.00000000000E+00 0.  1.
         -2   -1    0    0    0  501 -0.00000000000E+00 -0.00000000000E+00 -0.26009627479E+01  0.26009627479E+01  0.00000000000E+00 0.  1.
          2    1    1    2  502    0  0.52928287830E+01 -0.20728407016E+02  0.13903702681E+04  0.13905348479E+04  0.00000000000E+00 0.  1.
         -2    1    1    2    0  502 -0.52928287830E+01  0.20728407016E+02  0.42910102993E+02  0.47947448658E+02  0.00000000000E+00 0.  1.
</event>
<event>
 4    1  0.5573045E+003  0.2008594E+02  0.7546771E-02  0.1532726E+00
          2   -1    0    0  501    0  0.00000000000E+00  0.00000000000E+00  0.99565971962E+03  0.99565971962E+03  0.00000000000E+00 0. -1.
         -2   -1    0    0    0  501 -0.00000000000E+00 -0.00000000000E+00 -0.13856249784E+03  0.13856249784E+03  0.00000000000E+00 0.  1.
          2    1    1    2  502    0 -0.85034758173E+01  0.18197141331E+02  0.99482989987E+03  0.99503265008E+03  0.00000000000E+00 0. -1.
         -2    1    1    2    0  502  0.85034758173E+01 -0.18197141331E+02 -0.13773267809E+03  0.13918956738E+03  0.00000000000E+00 0.  1.
</event>
<event>
 4    1  0.5573045E+003  0.2764777E+02  0.7546771E-02  0.1441207E+00
          2   -1    0    0  501    0  0.00000000000E+00  0.00000000000E+00  0.10319913160E+03  0.10319913160E+03  0.00000000000E+00 0.  1.
         -2   -1    0    0    0  501 -0.00000000000E+00 -0.00000000000E+00 -0.28876092860E+02  0.28876092860E+02  0.00000000000E+00 0. -1.
          2    1    1    2  502    0  0.20830715798E+02  0.18179115879E+02  0.94102992609E+02  0.98080437360E+02  0.00000000000E+00 0.  1.
         -2    1    1    2    0  502 -0.20830715798E+02 -0.18179115879E+02 -0.19779953870E+02  0.33994787099E+02  0.00000000000E+00 0. -1.
</event>
<event>
 4    1  0.5573045E+003  0.2405077E+02  0.7546771E-02  0.1479709E+00
          2   -1    0    0  501    0  0.00000000000E+00  0.00000000000E+00  0.70340797403E+02  0.70340797403E+02  0.00000000000E+00 0.  1.
         -2   -1    0    0    0  501 -0.00000000000E+00 -0.00000000000E+00 -0.93504942550E+01  0.93504942550E+01  0.00000000000E+00 0.  1.
          2    1    1    2  502    0 -0.95577776942E+01 -0.22070074478E+02  0.44329127725E+02  0.50433231770E+02  0.00000000000E+00 0.  1.
         -2    1    1    2    0  502  0.95577776942E+01  0.22070074478E+02  0.16661175422E+02  0.29258059887E+02  0.00000000000E+00 0.  1.
</event>
<event>
 4    1  0.5573045E+003  0.3007454E+02  0.7546771E-02  0.1418950E+00
          2   -1    0    0  501    0  0.00000000000E+00  0.00000000000E+00  0.16979408736E+04  0.16979408736E+04  0.00000000000E+00 0. -1.
         -2   -1    0    0    0  501 -0.00000000000E+00 -0.00000000000E+00 -0.88439574080E+00  0.88439574080E+00  0.00000000000E+00 0.  1.
          2    1    1    2  502    0  0.11035223416E+02  0.27976807231E+02  0.13841823948E+04  0.13845090755E+04  0.00000000000E+00 0. -1.
         -2    1    1    2    0  502 -0.11035223416E+02 -0.27976807231E+02  0.31287408302E+03  0.31431619386E+03  0.00000000000E+00 0.  1.
</event>
<event>
 4    1  0.5573045E+003  0.3022405E+02  0.7546771E-02  0.1417659E+00
          2   -1    0    0  501    0  0.00000000000E+00  0.00000000000E+00  0.73778120195E+02  0.73778120195E+02  0.00000000000E+00 0.  1.
         -2   -1    0    0    0  501 -0.00000000000E+00 -0.00000000000E+00 -0.19179051854E+02  0.19179051854E+02  0.00000000000E+00 0.  1.
          2    1    1    2  502    0 -0.23140578282E+02  0.19442397264E+02  0.54969686129E+02  0.62730850207E+02  0.00000000000E+00 0.  1.
         -2    1    1    2    0  502  0.23140578282E+02 -0.19442397264E+02 -0.37061778780E+00  0.30226321843E+02  0.00000000000E+00 0.  1.
</event>
<event>
 4    1  0.7215270E+003  0.2486924E+02  0.7546771E-02  0.1470272E+00
          2   -1    0    0  501    0  0.00000000000E+00  0.00000000000E+00  0.56910433228E+03  0.56910433228E+03  0.00000000000E+00 0. -1.
         -2   -1    0    0    0  501 -0.00000000000E+00 -0.00000000000E+00 -0.38744815097E+03  0.38744815097E+03  0.00000000000E+00 0.  1.
          2    1    1    2  502    0 -0.21193610681E+01  0.24778768525E+02  0.56843309945E+03  0.56897686035E+03  0.00000000000E+00 0. -1.
         -2    1    1    2    0  502  0.21193610681E+01 -0.24778768525E+02 -0.38677691814E+03  0.38757562290E+03  0.00000000000E+00 0.  1.
</event>
<event>
 4    1  0.5573045E+003  0.3273195E+02  0.7546771E-02  0.1397250E+00
          2   -1    0    0  501    0  0.00000000000E+00  0.00000000000E+00  0.16779231131E+04  0.16779231131E+04  0.00000000000E+00 0. -1.
         -2   -1    0    0    0  501 -0.00000000000E+00 -0.00000000000E+00 -0.76822693851E+00  0.76822693851E+00  0.00000000000E+00 0.  1.
          2    1    1    2  502    0 -0.23533876872E+02 -0.22749442012E+02  0.11834706738E+04  0.11839232307E+04  0.00000000000E+00 0. -1.
         -2    1    1    2    0  502  0.23533876872E+02  0.22749442012E+02  0.49368421230E+03  0.49476810927E+03  0.00000000000E+00 0.  1.
</event>
<event>
 4    1  0.5573045E+003  0.2014298E+02  0.7546771E-02  0.1531861E+00
          2   -1    0    0  501    0  0.00000000000E+00  0.00000000000E+00  0.14777346259E+01  0.14777346259E+01  0.00000000000E+00 0.  1.
         -2   -1    0    0    0  501 -0.00000000000E+00 -0.00000000000E+00 -0.40956399655E+03  0.40956399655E+03  0.00000000000E+00 0. -1.
          2    1    1    2  502    0 -0.19468501795E+02  0.51688709387E+01 -0.86050678202E+02  0.88376801300E+02  0.00000000000E+00 0.  1.
         -2    1    1    2    0  502  0.19468501795E+02 -0.51688709387E+01 -0.32203558372E+03  0.32266492988E+03  0.00000000000E+00 0. -1.
</event>
<event>
 4    1  0.5573045E+003  0.2014406E+02  0.7546771E-02  0.1531845E+00
          2   -1    0    0  501    0  0.00000000000E+00  0.00000000000E+00  0.14148621441E+02  0.14148621441E+02  0.00000000000E+00 0. -1.
         -2   -1    0    0    0  501 -0.00000000000E+00 -0.00000000000E+00 -0.22115411051E+03  0.22115411051E+03  0.00000000000E+00 0. -1.
          2    1    1    2  502    0  0.12365743170E+02  0.15901932638E+02  0.62551022481E+01  0.21092874861E+02  0.00000000000E+00 0. -1.
         -2    1    1    2    0  502 -0.12365743170E+02 -0.15901932638E+02 -0.21326059132E+03  0.21420985709E+03  0.00000000000E+00 0. -1.
</event>
<event>
 4    1  0.5573045E+003  0.4741577E+02  0.7546771E-02  0.1309783E+00
          2   -1    0    0  501    0  0.00000000000E+00  0.00000000000E+00  0.10987304263E+03  0.10987304263E+03  0.00000000000E+00 0.  1.
         -2   -1    0    0    0  501 -0.00000000000E+00 -0.00000000000E+00 -0.25576753237E+02  0.25576753237E+02  0.00000000000E+00 0.  1.
          2    1    1    2  502    0 -0.44351686253E+02 -0.16768503743E+02  0.72432992894E+02  0.86572473979E+02  0.00000000000E+00 0.  1.
         -2    1    1    2    0  502  0.44351686253E+02  0.16768503743E+02  0.11863296502E+02  0.48877321890E+02  0.00000000000E+00 0.  1.
</event>
<event>
 4    1  0.5573045E+003  0.2710905E+02  0.7546771E-02  0.1446516E+00
          2   -1    0    0  501    0  0.00000000000E+00  0.00000000000E+00  0.10011721921E+04  0.10011721921E+04  0.00000000000E+00 0. -1.
         -2   -1    0    0    0  501 -0.00000000000E+00 -0.00000000000E+00 -0.10837121784E+01  0.10837121784E+01  0.00000000000E+00 0.  1.
          2    1    1    2  502    0  0.19953000650E+02 -0.18351528642E+02  0.78470128756E+03  0.78516941582E+03  0.00000000000E+00 0. -1.
         -2    1    1    2    0  502 -0.19953000650E+02  0.18351528642E+02  0.21538719235E+03  0.21708648845E+03  0.00000000000E+00 0.  1.
</event>
<event>
 4    1  0.5573045E+003  0.2100999E+02  0.7546771E-02  0.1519122E+00
          2   -1    0    0  501    0  0.00000000000E+00  0.00000000000E+00  0.44472673481E+01  0.44472673481E+01  0.00000000000E+00 0. -1.
         -2   -1    0    0    0  501 -0.00000000000E+00 -0.00000000000E+00 -0.42041949471E+03  0.42041949471E+03  0.00000000000E+00 0. -1.
          2    1    1    2  502    0 -0.10894067642E+02 -0.17964935318E+02 -0.22315071111E+02  0.30649339462E+02  0.00000000000E+00 0. -1.
         -2    1    1    2    0  502  0.10894067642E+02  0.17964935318E+02 -0.39365715625E+03  0.39421742259E+03  0.00000000000E+00 0. -1.
</event>
<event>
 4    1  0.5573045E+003  0.2441846E+02  0.7546771E-02  0.1475415E+00
          2   -1    0    0  501    0  0.00000000000E+00  0.00000000000E+00  0.14138875231E+03  0.14138875231E+03  0.00000000000E+00 0. -1.
         -2   -1    0    0    0  501 -0.00000000000E+00 -0.00000000000E+00 -0.51879225973E+02  0.51879225973E+02  0.00000000000E+00 0. -1.
          2    1    1    2  502    0 -0.14999253372E+01  0.24372345917E+02  0.13737790967E+03  0.13953118321E+03  0.00000000000E+00 0. -1.
         -2    1    1    2    0  502  0.14999253372E+01 -0.24372345917E+02 -0.47868383337E+02  0.53736795074E+02  0.00000000000E+00 0. -1.
</event>
<event>
 4    1  0.5573045E+003  0.2354452E+02  0.7546771E-02  0.1485772E+00
          2   -1    0    0  501    0  0.00000000000E+00  0.00000000000E+00  0.12043978213E+03  0.12043978213E+03  0.00000000000E+00 0. -1.
         -2   -1    0    0    0  501 -0.00000000000E+00 -0.00000000000E+00 -0.84149252313E+01  0.84149252313E+01  0.00000000000E+00 0. -1.
          2    1    1    2  502    0  0.14991594918E+02 -0.18154786901E+02  0.99377125866E+02  0.10212814182E+03  0.00000000000E+00 0. -1.
         -2    1    1    2    0  502 -0.14991594918E+02  0.18154786901E+02  0.12647731036E+02  0.26726565548E+02  0.00000000000E+00 0. -1.
</event>
<event>
 4    1  0.5573045E+003  0.2601179E+02  0.7546771E-02  0.1457796E+00
          2   -1    0    0  501    0  0.00000000000E+00  0.00000000000E+00  0.21368523055E+03  0.21368523055E+03  0.00000000000E+00 0.  1.
         -2   -1    0    0    0  501 -0.00000000000E+00 -0.00000000000E+00 -0.21192409073E+02  0.21192409073E+02  0.00000000000E+00 0.  1.
          2    1    1    2  502    0 -0.23240173164E+02 -0.11683640244E+02  0.20455709418E+03  0.20620431101E+03  0.00000000000E+00 0.  1.
         -2    1    1    2    0  502  0.23240173164E+02  0.11683640244E+02 -0.12064272704E+02  0.28673328616E+02  0.00000000000E+00 0.  1.
</event>
<event>
 4    1  0.5573045E+003  0.6715968E+02  0.7546771E-02  0.1237272E+00
          2   -1    0    0  501    0  0.00000000000E+00  0.00000000000E+00  0.11827966608E+03  0.11827966608E+03  0.00000000000E+00 0. -1.
         -2   -1    0    0    0  501 -0.00000000000E+00 -0.00000000000E+00 -0.83496529959E+02  0.83496529959E+02  0.00000000000E+00 0.  1.
          2    1    1    2  502    0 -0.28237764775E+02 -0.60934812729E+02  0.91754506339E+02  0.11370713344E+03  0.00000000000E+00 0. -1.
         -2    1    1    2    0  502  0.28237764775E+02  0.60934812729E+02 -0.56971370220E+02  0.88069062596E+02  0.00000000000E+00 0.  1.
</event>
<event>
 4    1  0.5573045E+003  0.2392797E+02  0.7546771E-02  0.1481163E+00
          2   -1    0    0  501    0  0.00000000000E+00  0.00000000000E+00  0.37670278432E+03  0.37670278432E+03  0.00000000000E+00 0. -1.
         -2   -1    0    0    0  501 -0.00000000000E+00 -0.00000000000E+00 -0.82781195075E+01  0.82781195075E+01  0.00000000000E+00 0. -1.
          2    1    1    2  502    0  0.21543876187E+02 -0.10411966693E+02  0.35813642300E+03  0.35893487589E+03  0.00000000000E+00 0. -1.
         -2    1    1    2    0  502 -0.21543876187E+02  0.10411966693E+02  0.10288241810E+02  0.26046027934E+02  0.00000000000E+00 0. -1.
</event>
<event>
 4    1  0.5573045E+003  0.2341762E+02  0.7546771E-02  0.1487320E+00
          2   -1    0    0  501    0  0.00000000000E+00  0.00000000000E+00  0.34295926282E+02  0.34295926282E+02  0.00000000000E+00 0. -1.
         -2   -1    0    0    0  501 -0.00000000000E+00 -0.00000000000E+00 -0.16036352718E+02  0.16036352718E+02  0.00000000000E+00 0.  1.
          2    1    1    2  502    0 -0.26110718696E+01 -0.23271598597E+02  0.10485715723E+02  0.25658044193E+02  0.00000000000E+00 0.  1.
         -2    1    1    2    0  502  0.26110718696E+01  0.23271598597E+02  0.77738578419E+01  0.24674234807E+02  0.00000000000E+00 0. -1.
</event>
<event>
 4    1  0.5573045E+003  0.2114988E+02  0.7546771E-02  0.1517136E+00
          2   -1    0    0  501    0  0.00000000000E+00  0.00000000000E+00  0.34810365700E+03  0.34810365700E+03  0.00000000000E+00 0.  1.
         -2   -1    0    0    0  501 -0.00000000000E+00 -0.00000000000E+00 -0.41626875803E+03  0.41626875803E+03  0.00000000000E+00 0. -1.
          2    1    1    2  502    0  0.20489586257E+02  0.52435135532E+01  0.34751330080E+03  0.34815630370E+03  0.00000000000E+00 0.  1.
         -2    1    1    2    0  502 -0.20489586257E+02 -0.52435135532E+01 -0.41567840183E+03  0.41621611133E+03  0.00000000000E+00 0. -1.
</event>
<event>
 4    1  0.5573045E+003  0.3868501E+02  0.7546771E-02  0.1356369E+00
          2   -1    0    0  501    0  0.00000000000E+00  0.00000000000E+00  0.53557818844E+03  0.53557818844E+03  0.00000000000E+00 0.  1.
         -2   -1    0    0    0  501 -0.00000000000E+00 -0.00000000000E+00 -0.42694349492E+01  0.42694349492E+01  0.00000000000E+00 0. -1.
          2    1    1    2  502    0  0.37844304069E+02  0.80211558899E+01  0.42431959168E+03  0.42607938952E+03  0.00000000000E+00 0.  1.
         -2    1    1    2    0  502 -0.37844304069E+02 -0.80211558899E+01  0.10698916182E+03  0.11376823387E+03  0.00000000000E+00 0. -1.
</event>
<event>
 4    1  0.5573045E+003  0.2781052E+02  0.7546771E-02  0.1439632E+00
          2   -1    0    0  501    0  0.00000000000E+00  0.00000000000E+00  0.87368656547E+03  0.87368656547E+03  0.00000000000E+00 0.  1.
         -2   -1    0    0    0  501 -0.00000000000E+00 -0.00000000000E+00 -0.78956304839E+01  0.78956304839E+01  0.00000000000E+00 0. -1.
          2    1    1    2  502    0  0.75765488724E+01 -0.26758565330E+02  0.84824183765E+03  0.84869761402E+03  0.00000000000E+00 0.  1.
         -2    1    1    2    0  502 -0.75765488724E+01  0.26758565330E+02  0.17549097336E+02  0.32884581929E+02  0.00000000000E+00 0. -1.
</event>
<event>
 4    1  0.5573045E+003  0.2034294E+02  0.7546771E-02  0.1528856E+00
          2   -1    0    0  501    0  0.00000000000E+00  0.00000000000E+00  0.12135066281E+04  0.12135066281E+04  0.00000000000E+00 0. -1.
         -2   -1    0    0    0  501 -0.00000000000E+00 -0.00000000000E+00 -0.34659944882E+00  0.34659944882E+00  0.00000000000E+00 0. -1.
          2    1    1    2  502    0  0.81484633775E+01 -0.18639685829E+02  0.68355461363E+03  0.68385725496E+03  0.00000000000E+00 0. -1.
         -2    1    1    2    0  502 -0.81484633775E+01  0.18639685829E+02  0.52960541500E+03  0.52999597257E+03  0.00000000000E+00 0. -1.
</event>
<event>
 4    1  0.5573045E+003  0.3208204E+02  0.7546771E-02  0.1402326E+00
          2   -1    0    0  501    0  0.00000000000E+00  0.00000000000E+00  0.17881713111E+03  0.17881713111E+03  0.00000000000E+00 0.  1.
         -2   -1    0    0    0  501 -0.00000000000E+00 -0.00000000000E+00 -0.90337308708E+02  0.90337308708E+02  0.00000000000E+00 0. -1.
          2    1    1    2  502    0  0.27135030330E+02  0.17115706894E+02  0.17445921865E+03  0.17738454348E+03  0.00000000000E+00 0.  1.
         -2    1    1    2    0  502 -0.27135030330E+02 -0.17115706894E+02 -0.85979396251E+02  0.91769896334E+02  0.00000000000E+00 0. -1.
</event>
<event>
 4    1  0.5573045E+003  0.2068328E+02  0.7546771E-02  0.1523835E+00
          2   -1    0    0  501    0  0.00000000000E+00  0.00000000000E+00  0.52506259372E+03  0.52506259372E+03  0.00000000000E+00 0. -1.
         -2   -1    0    0    0  501 -0.00000000000E+00 -0.00000000000E+00 -0.15064447749E+01  0.15064447749E+01  0.00000000000E+00 0. -1.
          2    1    1    2  502    0 -0.20678612463E+02  0.43932312516E+00  0.44018183669E+03  0.44066750206E+03  0.00000000000E+00 0. -1.
         -2    1    1    2    0  502  0.20678612463E+02 -0.43932312516E+00  0.83374312253E+02  0.85901536435E+02  0.00000000000E+00 0. -1.
</event>
<event>
 4    1  0.5573045E+003  0.2678320E+02  0.7546771E-02  0.1449798E+00
          2   -1    0    0  501    0  0.00000000000E+00  0.00000000000E+00  0.17646031143E+03  0.17646031143E+03  0.00000000000E+00 0.  1.
         -2   -1    0    0    0  501 -0.00000000000E+00 -0.00000000000E+00 -0.97928048576E+02  0.97928048576E+02  0.00000000000E+00 0.  1.
          2    1    1    2  502    0  0.44686537915E+01  0.26407777630E+02  0.17358254693E+03  0.17563667095E+03  0.00000000000E+00 0.  1.
         -2    1    1    2    0  502 -0.44686537915E+01 -0.26407777630E+02 -0.95050284078E+02  0.98751689046E+02  0.00000000000E+00 0.  1.
</event>
<event>
 4    1  0.5573045E+003  0.4018242E+02  0.7546771E-02  0.1347420E+00
          2   -1    0    0  501    0  0.00000000000E+00  0.00000000000E+00  0.13330664380E+04  0.13330664380E+04  0.00000000000E+00 0. -1.
         -2   -1    0    0    0  501 -0.00000000000E+00 -0.00000000000E+00 -0.74989268378E+01  0.74989268378E+01  0.00000000000E+00 0. -1.
          2    1    1    2  502    0 -0.40153703504E+02  0.15187672735E+01  0.12765526102E+04  0.12771848704E+04  0.00000000000E+00 0. -1.
         -2    1    1    2    0  502  0.40153703504E+02 -0.15187672735E+01  0.49014900953E+02  0.63380494433E+02  0.00000000000E+00 0. -1.
</event>
<event>
 4    1  0.5573045E+003  0.2068868E+02  0.7546771E-02  0.1523756E+00
          2   -1    0    0  501    0  0.00000000000E+00  0.00000000000E+00  0.16420580824E+03  0.16420580824E+03  0.00000000000E+00 0. -1.
         -2   -1    0    0    0  501 -0.00000000000E+00 -0.00000000000E+00 -0.76049356594E+01  0.76049356594E+01  0.00000000000E+00 0. -1.
          2    1    1    2  502    0  0.18561648581E+02  0.91371100897E+01  0.14794456987E+03  0.14938412678E+03  0.00000000000E+00 0. -1.
         -2    1    1    2    0  502 -0.18561648581E+02 -0.91371100897E+01  0.86563027071E+01  0.22426617119E+02  0.00000000000E+00 0. -1.
</event>
<event>
 4    1  0.5573045E+003  0.2470965E+02  0.7546771E-02  0.1472078E+00
          2   -1    0    0  501    0  0.00000000000E+00  0.00000000000E+00  0.10476435486E+02  0.10476435486E+02  0.00000000000E+00 0.  1.
         -2   -1    0    0    0  501 -0.00000000000E+00 -0.00000000000E+00 -0.13276274252E+03  0.13276274252E+03  0.00000000000E+00 0. -1.
          2    1    1    2  502    0  0.20746900083E+02 -0.13421369534E+02 -0.74991174924E+01  0.25822544150E+02  0.00000000000E+00 0.  1.
         -2    1    1    2    0  502 -0.20746900083E+02  0.13421369534E+02 -0.11478718954E+03  0.11741663385E+03  0.00000000000E+00 0. -1.
</event>
<event>
 4    1  0.5573045E+003  0.2060602E+02  0.7546771E-02  0.1524965E+00
          2   -1    0    0  501    0  0.00000000000E+00  0.00000000000E+00  0.30204286570E+02  0.30204286570E+02  0.00000000000E+00 0.  1.
         -2   -1    0    0    0  501 -0.00000000000E+00 -0.00000000000E+00 -0.12738004901E+03  0.12738004901E+03  0.00000000000E+00 0.  1.
          2    1    1    2  502    0 -0.19973825674E+02 -0.50650087458E+01  0.25729397042E+02  0.32963766439E+02  0.00000000000E+00 0.  1.
         -2    1    1    2    0  502  0.19973825674E+02  0.50650087458E+01 -0.12290515948E+03  0.12462056914E+03  0.00000000000E+00 0.  1.
</event>
<event>
 4    1  0.5573045E+003  0.4164228E+02  0.7546771E-02  0.1339122E+00
          2   -1    0    0  501    0  0.00000000000E+00  0.00000000000E+00  0.61869935552E+03  0.61869935552E+03  0.00000000000E+00 0. -1.
         -2   -1    0    0    0  501 -0.00000000000E+00 -0.00000000000E+00 -0.15428778264E+02  0.15428778264E+02  0.00000000000E+00 0. -1.
          2    1    1    2  502    0 -0.82727462447E+01  0.40812265006E+02  0.58845836425E+03  0.58992993292E+03  0.00000000000E+00 0. -1.
         -2    1    1    2    0  502  0.82727462447E+01 -0.40812265006E+02  0.14812213012E+02  0.44198200864E+02  0.00000000000E+00 0. -1.
</event>
<event>
 4    1  0.5573045E+003  0.2402085E+02  0.7546771E-02  0.1480062E+00
          2   -1    0    0  501    0  0.00000000000E+00  0.00000000000E+00  0.57329431203E+03  0.57329431203E+03  0.00000000000E+00 0. -1.
         -2   -1    0    0    0  501 -0.00000000000E+00 -0.00000000000E+00 -0.38597307703E+01  0.38597307703E+01  0.00000000000E+00 0. -1.
          2    1    1    2  502    0  0.16017770747E+02  0.17900625421E+02  0.53283299821E+03  0.53337417012E+03  0.00000000000E+00 0. -1.
         -2    1    1    2    0  502 -0.16017770747E+02 -0.17900625421E+02  0.36601583053E+02  0.43779872684E+02  0.00000000000E+00 0. -1.
</event>
<event>
 4    1  0.5573045E+003  0.3071340E+02  0.7546771E-02  0.1413496E+00
          2   -1    0    0  501    0  0.00000000000E+00  0.00000000000E+00  0.10272601231E+04  0.10272601231E+04  0.00000000000E+00 0. -1.
         -2   -1    0    0    0  501 -0.00000000000E+00 -0.00000000000E+00 -0.49499790035E+02  0.49499790035E+02  0.00000000000E+00 0.  1.
          2    1    1    2  502    0 -0.10239266228E+02 -0.28956355438E+02  0.10222429476E+04  0.10227042373E+04  0.00000000000E+00 0. -1.
         -2    1    1    2    0  502  0.10239266228E+02  0.28956355438E+02 -0.44482614535E+02  0.54055675826E+02  0.00000000000E+00 0.  1.
</event>
<event>
 4    1  0.5573045E+003  0.3011392E+02  0.7546771E-02  0.1418609E+00
          2   -1    0    0  501    0  0.00000000000E+00  0.00000000000E+00  0.36932994558E+03  0.36932994558E+03  0.00000000000E+00 0.  1.
         -2   -1    0    0    0  501 -0.00000000000E+00 -0.00000000000E+00 -0.12150116928E+03  0.12150116928E+03  0.00000000000E+00 0.  1.
          2    1    1    2  502    0  0.17806849398E+02  0.24285063706E+02  0.36683751731E+03  0.36807147718E+03  0.00000000000E+00 0.  1.
         -2    1    1    2    0  502 -0.17806849398E+02 -0.24285063706E+02 -0.11900874102E+03  0.12275963768E+03  0.00000000000E+00 0.  1.
</event>
<event>
 4    1  0.5573045E+003  0.4475383E+02  0.7546771E-02  0.1322675E+00
          2   -1    0    0  501    0  0.00000000000E+00  0.00000000000E+00  0.18088740681E+03  0.18088740681E+03  0.00000000000E+00 0.  1.
         -2   -1    0    0    0  501 -0.00000000000E+00 -0.00000000000E+00 -0.40933842720E+02  0.40933842720E+02  0.00000000000E+00 0. -1.
          2    1    1    2  502    0 -0.12072656790E+02  0.43094732820E+02  0.16470631246E+03  0.17067827748E+03  0.00000000000E+00 0.  1.
         -2    1    1    2    0  502  0.12072656790E+02 -0.43094732820E+02 -0.24752748367E+02  0.51142972054E+02  0.00000000000E+00 0. -1.
</event>
<event>
 4    1  0.5573045E+003  0.1022558E+03  0.7546771E-02  0.1159955E+00
          2   -1    0    0  501    0  0.00000000000E+00  0.00000000000E+00  0.48379496134E+02  0.48379496134E+02  0.00000000000E+00 0.  1.
         -2   -1    0    0    0  501 -0.00000000000E+00 -0.00000000000E+00 -0.46939870982E+03  0.46939870982E+03  0.00000000000E+00 0.  1.
          2    1    1    2  502    0 -0.37181253566E+02 -0.95256556957E+02 -0.20343265372E+02  0.10425979909E+03  0.00000000000E+00 0.  1.
         -2    1    1    2    0  502  0.37181253566E+02  0.95256556957E+02 -0.40067594831E+03  0.41351840686E+03  0.00000000000E+00 0.  1.
</event>
<event>
 4    1  0.5573045E+003  0.3365347E+02  0.7546771E-02  0.1390285E+00
          2   -1    0    0  501    0  0.00000000000E+00  0.00000000000E+00  0.94331012877E+01  0.94331012877E+01  0.00000000000E+00 0. -1.
         -2   -1    0    0    0  501 -0.00000000000E+00 -0.00000000000E+00 -0.45536361501E+03  0.45536361501E+03  0.00000000000E+00 0. -1.
          2    1    1    2  502    0 -0.31797038407E+02 -0.11022913553E+02 -0.23543854789E+02  0.41071515348E+02  0.00000000000E+00 0. -1.
         -2    1    1    2    0  502  0.31797038407E+02  0.11022913553E+02 -0.42238665893E+03  0.42372520095E+03  0.00000000000E+00 0. -1.
</event>
<event>
 4    1  0.5573045E+003  0.3027289E+02  0.7546771E-02  0.1417240E+00
          2   -1    0    0  501    0  0.00000000000E+00  0.00000000000E+00  0.23848901453E+03  0.23848901453E+03  0.00000000000E+00 0.  1.
         -2   -1    0    0    0  501 -0.00000000000E+00 -0.00000000000E+00 -0.40238868192E+01  0.40238868192E+01  0.00000000000E+00 0. -1.
          2    1    1    2  502    0 -0.45741357189E+01 -0.29925325172E+02  0.14296108226E+03  0.14613117000E+03  0.00000000000E+00 0.  1.
         -2    1    1    2    0  502  0.45741357189E+01  0.29925325172E+02  0.91504045452E+02  0.96381731352E+02  0.00000000000E+00 0. -1.
</event>
<event>
 4    1  0.5573045E+003  0.2336201E+02  0.7546771E-02  0.1488002E+00
          2   -1    0    0  501    0  0.00000000000E+00  0.00000000000E+00  0.16642020447E+03  0.16642020447E+03  0.00000000000E+00 0. -1.
         -2   -1    0    0    0  501 -0.00000000000E+00 -0.00000000000E+00 -0.34091825052E+01  0.34091825052E+01  0.00000000000E+00 0. -1.
          2    1    1    2  502    0  0.28191656153E+01  0.23191278046E+02  0.64947132993E+02  0.69021106599E+02  0.00000000000E+00 0. -1.
         -2    1    1    2    0  502 -0.28191656153E+01 -0.23191278046E+02  0.98063888976E+02  0.10080828038E+03  0.00000000000E+00 0. -1.
</event>
<event>
 4    1  0.5573045E+003  0.2036450E+02  0.7546771E-02  0.1528535E+00
          2   -1    0    0  501    0  0.00000000000E+00  0.00000000000E+00  0.92413221963E+03  0.92413221963E+03  0.00000000000E+00 0. -1.
         -2   -1    0    0    0  501 -0.00000000000E+00 -0.00000000000E+00 -0.48726271964E+00  0.48726271964E+00  0.00000000000E+00 0.  1.
          2    1    1    2  502    0 -0.39515154938E+00  0.20360666049E+02  0.59178001708E+03  0.59213030786E+03  0.00000000000E+00 0. -1.
         -2    1    1    2    0  502  0.39515154938E+00 -0.20360666049E+02  0.33186493983E+03  0.33248917449E+03  0.00000000000E+00 0.  1.
</event>
<event>
 4    1  0.5573045E+003  0.2098992E+02  0.7546771E-02  0.1519409E+00
          2   -1    0    0  501    0  0.00000000000E+00  0.00000000000E+00  0.28492538441E+03  0.28492538441E+03  0.00000000000E+00 0. -1.
         -2   -1    0    0    0  501 -0.00000000000E+00 -0.00000000000E+00 -0.16459725703E+01  0.16459725703E+01  0.00000000000E+00 0.  1.
          2    1    1    2  502    0  0.18909944831E+02  0.91099342532E+01  0.17690145344E+03  0.17814236202E+03  0.00000000000E+00 0. -1.
         -2    1    1    2    0  502 -0.18909944831E+02 -0.91099342532E+01  0.10637795840E+03  0.10842899496E+03  0.00000000000E+00 0.  1.
</event>
<event>
 4    1  0.5573045E+003  0.2181266E+02  0.7546771E-02  0.1507971E+00
          2   -1    0    0  501    0  0.00000000000E+00  0.00000000000E+00  0.64512671450E+02  0.64512671450E+02  0.00000000000E+00 0. -1.
         -2   -1    0    0    0  501 -0.00000000000E+00 -0.00000000000E+00 -0.16497121342E+03  0.16497121342E+03  0.00000000000E+00 0. -1.
          2    1    1    2  502    0  0.21775107048E+02 -0.12794089262E+01  0.61918530134E+02  0.65648279095E+02  0.00000000000E+00 0. -1.
         -2    1    1    2    0  502 -0.21775107048E+02  0.12794089262E+01 -0.16237707210E+03  0.16383560577E+03  0.00000000000E+00 0. -1.
</event>
<event>
 4    1  0.5573045E+003  0.2747225E+02  0.7546771E-02  0.1442921E+00
          2   -1    0    0  501    0  0.00000000000E+00  0.00000000000E+00  0.21304825774E+02  0.21304825774E+02  0.00000000000E+00 0. -1.
         -2   -1    0    0    0  501 -0.00000000000E+00 -0.00000000000E+00 -0.39798818627E+02  0.39798818627E+02  0.00000000000E+00 0. -1.
          2    1    1    2  502    0  0.49908836937E+01  0.27015082609E+02 -0.19375191334E+02  0.33617281979E+02  0.00000000000E+00 0. -1.
         -2    1    1    2    0  502 -0.49908836937E+01 -0.27015082609E+02  0.88119848015E+00  0.27486362422E+02  0.00000000000E+00 0. -1.
</event>
<event>
 4    1  0.5573045E+003  0.2796369E+02  0.7546771E-02  0.1438161E+00
          2   -1    0    0  501    0  0.00000000000E+00  0.00000000000E+00  0.48487311481E+03  0.48487311481E+03  0.00000000000E+00 0. -1.
         -2   -1    0    0    0  501 -0.00000000000E+00 -0.00000000000E+00 -0.45432750302E+01  0.45432750302E+01  0.00000000000E+00 0.  1.
          2    1    1    2  502    0  0.25588620745E+02 -0.11277863308E+02  0.43669926674E+03  0.43759366687E+03  0.00000000000E+00 0. -1.
         -2    1    1    2    0  502 -0.25588620745E+02  0.11277863308E+02  0.43630573043E+02  0.51822722975E+02  0.00000000000E+00 0.  1.
</event>
<event>
 4    1  0.5573045E+003  0.2286555E+02  0.7546771E-02  0.1494193E+00
          2   -1    0    0  501    0  0.00000000000E+00  0.00000000000E+00  0.78873189496E+03  0.78873189496E+03  0.00000000000E+00 0. -1.
         -2   -1    0    0    0  501 -0.00000000000E+00 -0.00000000000E+00 -0.41996226863E+01  0.41996226863E+01  0.00000000000E+00 0. -1.
          2    1    1    2  502    0  0.20613488740E+02 -0.98953341930E+01  0.75609936580E+03  0.75644503073E+03  0.00000000000E+00 0. -1.
         -2    1    1    2    0  502 -0.20613488740E+02  0.98953341930E+01  0.28432906477E+02  0.36486486917E+02  0.00000000000E+00 0. -1.
</event>
<event>
 4    1  0.5573045E+003  0.2067974E+02  0.7546771E-02  0.1523887E+00
          2   -1    0    0  501    0  0.00000000000E+00  0.00000000000E+00  0.59323115105E+03  0.59323115105E+03  0.00000000000E+00 0. -1.
         -2   -1    0    0    0  501 -0.00000000000E+00 -0.00000000000E+00 -0.10361820958E+01  0.10361820958E+01  0.00000000000E+00 0. -1.
          2    1    1    2  502    0  0.20451100287E+02 -0.30666037375E+01  0.46000303563E+03  0.46046763659E+03  0.00000000000E+00 0. -1.
         -2    1    1    2    0  502 -0.20451100287E+02  0.30666037375E+01  0.13219193332E+03  0.13379969655E+03  0.00000000000E+00 0. -1.
</event>
<event>
 4    1  0.5573045E+003  0.4131139E+02  0.7546771E-02  0.1340968E+00
          2   -1    0    0  501    0  0.00000000000E+00  0.00000000000E+00  0.11831393491E+04  0.11831393491E+04  0.00000000000E+00 0.  1.
         -2   -1    0    0    0  501 -0.00000000000E+00 -0.00000000000E+00 -0.31335958315E+02  0.31335958315E+02  0.00000000000E+00 0. -1.
          2    1    1    2  502    0  0.36692964947E+02 -0.18980445470E+02  0.11689984877E+04  0.11697282142E+04  0.00000000000E+00 0.  1.
         -2    1    1    2    0  502 -0.36692964947E+02  0.18980445470E+02 -0.17195096926E+02  0.44747093147E+02  0.00000000000E+00 0. -1.
</event>
<event>
 4    1  0.5573045E+003  0.3060130E+02  0.7546771E-02  0.1414442E+00
          2   -1    0    0  501    0  0.00000000000E+00  0.00000000000E+00  0.22491498464E+04  0.22491498464E+04  0.00000000000E+00 0. -1.
         -2   -1    0    0    0  501 -0.00000000000E+00 -0.00000000000E+00 -0.46134418427E+00  0.46134418427E+00  0.00000000000E+00 0.  1.
          2    1    1    2  502    0  0.30243648098E+02 -0.46647871632E+01  0.77308116684E+03  0.77368658319E+03  0.00000000000E+00 0.  1.
         -2    1    1    2    0  502 -0.30243648098E+02  0.46647871632E+01  0.14756073354E+04  0.14759246074E+04  0.00000000000E+00 0. -1.
</event>
<event>
 4    1  0.5573045E+003  0.2604400E+02  0.7546771E-02  0.1457455E+00
          2   -1    0    0  501    0  0.00000000000E+00  0.00000000000E+00  0.33807878377E+02  0.33807878377E+02  0.00000000000E+00 0. -1.
         -2   -1    0    0    0  501 -0.00000000000E+00 -0.00000000000E+00 -0.19622881544E+03  0.19622881544E+03  0.00000000000E+00 0. -1.
          2    1    1    2  502    0  0.25380726091E+02 -0.58402698320E+01  0.27769444449E+02  0.38071407298E+02  0.00000000000E+00 0. -1.
         -2    1    1    2    0  502 -0.25380726091E+02  0.58402698320E+01 -0.19019038152E+03  0.19196528652E+03  0.00000000000E+00 0. -1.
</event>
<event>
 4    1  0.7040622E+003  0.2206552E+02  0.7546771E-02  0.1504578E+00
          2   -1    0    0  501    0  0.00000000000E+00  0.00000000000E+00  0.76875047102E+03  0.76875047102E+03  0.00000000000E+00 0.  1.
         -2   -1    0    0    0  501 -0.00000000000E+00 -0.00000000000E+00 -0.16671781603E+03  0.16671781603E+03  0.00000000000E+00 0.  1.
          2    1    1    2  502    0 -0.12866774744E+02 -0.17925767358E+02  0.76786118201E+03  0.76817815763E+03  0.00000000000E+00 0.  1.
         -2    1    1    2    0  502  0.12866774744E+02  0.17925767358E+02 -0.16582852702E+03  0.16729012942E+03  0.00000000000E+00 0.  1.
</event>
<event>
 4    1  0.5573045E+003  0.2144132E+02  0.7546771E-02  0.1513056E+00
          2   -1    0    0  501    0  0.00000000000E+00  0.00000000000E+00  0.45727646006E+03  0.45727646006E+03  0.00000000000E+00 0.  1.
         -2   -1    0    0    0  501 -0.00000000000E+00 -0.00000000000E+00 -0.45134514265E+01  0.45134514265E+01  0.00000000000E+00 0.  1.
          2    1    1    2  502    0 -0.21129778567E+01  0.21336949053E+02  0.42994277690E+03  0.43047708589E+03  0.00000000000E+00 0.  1.
         -2    1    1    2    0  502  0.21129778567E+01 -0.21336949053E+02  0.22820231734E+02  0.31312825594E+02  0.00000000000E+00 0.  1.
</event>
<event>
 4    1  0.5573045E+003  0.3009372E+02  0.7546771E-02  0.1418784E+00
          2   -1    0    0  501    0  0.00000000000E+00  0.00000000000E+00  0.20807550825E+04  0.20807550825E+04  0.00000000000E+00 0.  1.
         -2   -1    0    0    0  501 -0.00000000000E+00 -0.00000000000E+00 -0.86333520040E+01  0.86333520040E+01  0.00000000000E+00 0.  1.
          2    1    1    2  502    0 -0.85205318923E+01  0.28862303022E+02  0.20540809286E+04  0.20543013638E+04  0.00000000000E+00 0.  1.
         -2    1    1    2    0  502  0.85205318923E+01 -0.28862303022E+02  0.18040801915E+02  0.35087070741E+02  0.00000000000E+00 0.  1.
</event>
<event>
 4    1  0.5573045E+003  0.2224995E+02  0.7546771E-02  0.1502138E+00
          2   -1    0    0  501    0  0.00000000000E+00  0.00000000000E+00  0.28518436467E+02  0.28518436467E+02  0.00000000000E+00 0. -1.
         -2   -1    0    0    0  501 -0.00000000000E+00 -0.00000000000E+00 -0.25653400570E+02  0.25653400570E+02  0.00000000000E+00 0. -1.
          2    1    1    2  502    0 -0.21959298523E+02 -0.35846407431E+01  0.16833748659E+02  0.27900457609E+02  0.00000000000E+00 0. -1.
         -2    1    1    2    0  502  0.21959298523E+02  0.35846407431E+01 -0.13968712762E+02  0.26271379429E+02  0.00000000000E+00 0. -1.
</event>
<event>
 4    1  0.5573045E+003  0.3023519E+02  0.7546771E-02  0.1417563E+00
          2   -1    0    0  501    0  0.00000000000E+00  0.00000000000E+00  0.14338358733E+04  0.14338358733E+04  0.00000000000E+00 0.  1.
         -2   -1    0    0    0  501 -0.00000000000E+00 -0.00000000000E+00 -0.10724914803E+02  0.10724914803E+02  0.00000000000E+00 0.  1.
          2    1    1    2  502    0 -0.23426603608E+02 -0.19114411901E+02  0.14120381528E+04  0.14123618203E+04  0.00000000000E+00 0.  1.
         -2    1    1    2    0  502  0.23426603608E+02  0.19114411901E+02  0.11072805646E+02  0.32198967745E+02  0.00000000000E+00 0.  1.
</event>
<event>
 4    1  0.5573045E+003  0.2144942E+02  0.7546771E-02  0.1512944E+00
          2   -1    0    0  501    0  0.00000000000E+00  0.00000000000E+00  0.15355111314E+03  0.15355111314E+03  0.00000000000E+00 0. -1.
         -2   -1    0    0    0  501 -0.00000000000E+00 -0.00000000000E+00 -0.31635136118E+01  0.31635136118E+01  0.00000000000E+00 0. -1.
          2    1    1    2  502    0 -0.77649526866E+01  0.19994581117E+02  0.93211251884E+02  0.95647348327E+02  0.00000000000E+00 0. -1.
         -2    1    1    2    0  502  0.77649526866E+01 -0.19994581117E+02  0.57176347646E+02  0.61067278426E+02  0.00000000000E+00 0. -1.
</event>
<event>
 4    1  0.5573045E+003  0.3268228E+02  0.7546771E-02  0.1397633E+00
          2   -1    0    0  501    0  0.00000000000E+00  0.00000000000E+00  0.84210065502E+02  0.84210065502E+02  0.00000000000E+00 0.  1.
         -2   -1    0    0    0  501 -0.00000000000E+00 -0.00000000000E+00 -0.62161736463E+02  0.62161736463E+02  0.00000000000E+00 0. -1.
          2    1    1    2  502    0 -0.21926097026E+02 -0.24235879638E+02  0.76317700231E+02  0.83021219945E+02  0.00000000000E+00 0.  1.
         -2    1    1    2    0  502  0.21926097026E+02  0.24235879638E+02 -0.54269371193E+02  0.63350582020E+02  0.00000000000E+00 0. -1.
</event>
<event>
 4    1  0.5573045E+003  0.2646249E+02  0.7546771E-02  0.1453083E+00
          2   -1    0    0  501    0  0.00000000000E+00  0.00000000000E+00  0.18294257364E+04  0.18294257364E+04  0.00000000000E+00 0. -1.
         -2   -1    0    0    0  501 -0.00000000000E+00 -0.00000000000E+00 -0.23259005957E+01  0.23259005957E+01  0.00000000000E+00 0.  1.
          2    1    1    2  502    0 -0.18433116026E+02 -0.18986411443E+02  0.17506765128E+04  0.17508764994E+04  0.00000000000E+00 0. -1.
         -2    1    1    2    0  502  0.18433116026E+02  0.18986411443E+02  0.76423322932E+02  0.80875137551E+02  0.00000000000E+00 0.  1.
</event>
<event>
 4    1  0.5573045E+003  0.2252430E+02  0.7546771E-02  0.1498559E+00
          2   -1    0    0  501    0  0.00000000000E+00  0.00000000000E+00  0.55611848006E+03  0.55611848006E+03  0.00000000000E+00 0.  1.
         -2   -1    0    0    0  501 -0.00000000000E+00 -0.00000000000E+00 -0.11387058335E+01  0.11387058335E+01  0.00000000000E+00 0.  1.
          2    1    1    2  502    0  0.45623155059E+01 -0.22057410767E+02  0.40173191712E+03  0.40236286772E+03  0.00000000000E+00 0.  1.
         -2    1    1    2    0  502 -0.45623155059E+01  0.22057410767E+02  0.15324785710E+03  0.15489431816E+03  0.00000000000E+00 0.  1.
</event>
<event>
 4    1  0.5573045E+003  0.5407605E+02  0.7546771E-02  0.1281406E+00
          2   -1    0    0  501    0  0.00000000000E+00  0.00000000000E+00  0.27405528084E+01  0.27405528084E+01  0.00000000000E+00 0. -1.
         -2   -1    0    0    0  501 -0.00000000000E+00 -0.00000000000E+00 -0.13099340003E+04  0.13099340003E+04  0.00000000000E+00 0.  1.
          2    1    1    2  502    0 -0.54063894593E+02 -0.11466491355E+01 -0.37095887579E+03  0.37487959004E+03  0.00000000000E+00 0. -1.
         -2    1    1    2    0  502  0.54063894593E+02  0.11466491355E+01 -0.93623457169E+03  0.93779496306E+03  0.00000000000E+00 0.  1.
</event>
<event>
 4    1  0.5573045E+003  0.2624099E+02  0.7546771E-02  0.1455385E+00
          2   -1    0    0  501    0  0.00000000000E+00  0.00000000000E+00  0.44091440249E+03  0.44091440249E+03  0.00000000000E+00 0. -1.
         -2   -1    0    0    0  501 -0.00000000000E+00 -0.00000000000E+00 -0.42577116358E+02  0.42577116358E+02  0.00000000000E+00 0.  1.
          2    1    1    2  502    0  0.21669519792E+02  0.14799368769E+02  0.43643936083E+03  0.43722752096E+03  0.00000000000E+00 0. -1.
         -2    1    1    2    0  502 -0.21669519792E+02 -0.14799368769E+02 -0.38102074699E+02  0.46263997886E+02  0.00000000000E+00 0.  1.
</event>
<event>
 4    1  0.5573045E+003  0.2717216E+02  0.7546771E-02  0.1445886E+00
          2   -1    0    0  501    0  0.00000000000E+00  0.00000000000E+00  0.15956639922E+02  0.15956639922E+02  0.00000000000E+00 0. -1.
         -2   -1    0    0    0  501 -0.00000000000E+00 -0.00000000000E+00 -0.25587172993E+03  0.25587172993E+03  0.00000000000E+00 0.  1.
          2    1    1    2  502    0  0.12360056917E+02 -0.24198246952E+02  0.30552415400E+01  0.27343384271E+02  0.00000000000E+00 0. -1.
         -2    1    1    2    0  502 -0.12360056917E+02  0.24198246952E+02 -0.24297033155E+03  0.24448498558E+03  0.00000000000E+00 0.  1.
</event>
<event>
 4    1  0.5573045E+003  0.2045812E+02  0.7546771E-02  0.1527144E+00
          2   -1    0    0  501    0  0.00000000000E+00  0.00000000000E+00  0.85264138720E+03  0.85264138720E+03  0.00000000000E+00 0.  1.
         -2   -1    0    0    0  501 -0.00000000000E+00 -0.00000000000E+00 -0.17100688363E+01  0.17100688363E+01  0.00000000000E+00 0. -1.
          2    1    1    2  502    0 -0.13118149916E+01 -0.20416015652E+02  0.78615836520E+03  0.78642450987E+03  0.00000000000E+00 0.  1.
         -2    1    1    2    0  502  0.13118149916E+01  0.20416015652E+02  0.64772953172E+02  0.67926946172E+02  0.00000000000E+00 0. -1.
</event>
<event>
 4    1  0.5573045E+003  0.5805308E+02  0.7546771E-02  0.1266595E+00
          2   -1    0    0  501    0  0.00000000000E+00  0.00000000000E+00  0.29263502433E+04  0.29263502433E+04  0.00000000000E+00 0.  1.
         -2   -1    0    0    0  501 -0.00000000000E+00 -0.00000000000E+00 -0.25145435505E+01  0.25145435505E+01  0.00000000000E+00 0.  1.
          2    1    1    2  502    0  0.46783186640E+02 -0.34372862869E+02  0.25400428965E+04  0.25407062161E+04  0.00000000000E+00 0.  1.
         -2    1    1    2    0  502 -0.46783186640E+02  0.34372862869E+02  0.38379280327E+03  0.38815857082E+03  0.00000000000E+00 0.  1.
</event>
<event>
 4    1  0.5573045E+003  0.2354483E+02  0.7546771E-02  0.1485768E+00
          2   -1    0    0  501    0  0.00000000000E+00  0.00000000000E+00  0.21219517588E+03  0.21219517588E+03  0.00000000000E+00 0.  1.
         -2   -1    0    0    0  501 -0.00000000000E+00 -0.00000000000E+00 -0.80762949539E+02  0.80762949539E+02  0.00000000000E+00 0. -1.
          2    1    1    2  502    0 -0.39078101851E+01  0.23218267494E+02  0.20980657045E+03  0.21112355607E+03  0.00000000000E+00 0.  1.
         -2    1    1    2    0  502  0.39078101851E+01 -0.23218267494E+02 -0.78374344106E+02  0.81834569346E+02  0.00000000000E+00 0. -1.
</event>
<event>
 4    1  0.5573045E+003  0.2204315E+02  0.7546771E-02  0.1504876E+00
          2   -1    0    0  501    0  0.00000000000E+00  0.00000000000E+00  0.89581040144E+03  0.89581040144E+03  0.00000000000E+00 0.  1.
         -2   -1    0    0    0  501 -0.00000000000E+00 -0.00000000000E+00 -0.21505403816E+02  0.21505403816E+02  0.00000000000E+00 0. -1.
          2    1    1    2  502    0 -0.18595893786E+02  0.11836095397E+02  0.88998927280E+03  0.89026221200E+03  0.00000000000E+00 0.  1.
         -2    1    1    2    0  502  0.18595893786E+02 -0.11836095397E+02 -0.15684275178E+02  0.27053593251E+02  0.00000000000E+00 0. -1.
</event>
<event>
 4    1  0.5573045E+003  0.2940610E+02  0.7546771E-02  0.1424829E+00
          2   -1    0    0  501    0  0.00000000000E+00  0.00000000000E+00  0.43194085688E+02  0.43194085688E+02  0.00000000000E+00 0.  1.
         -2   -1    0    0    0  501 -0.00000000000E+00 -0.00000000000E+00 -0.27973338704E+02  0.27973338704E+02  0.00000000000E+00 0. -1.
          2    1    1    2  502    0  0.27966849126E+02 -0.90870306774E+01  0.26584893187E+02  0.39641838030E+02  0.00000000000E+00 0.  1.
         -2    1    1    2    0  502 -0.27966849126E+02  0.90870306774E+01 -0.11364146204E+02  0.31525586363E+02  0.00000000000E+00 0. -1.
</event>
<event>
 4    1  0.5573045E+003  0.2227959E+02  0.7546771E-02  0.1501748E+00
          2   -1    0    0  501    0  0.00000000000E+00  0.00000000000E+00  0.16560403300E+02  0.16560403300E+02  0.00000000000E+00 0. -1.
         -2   -1    0    0    0  501 -0.00000000000E+00 -0.00000000000E+00 -0.72665483428E+03  0.72665483428E+03  0.00000000000E+00 0. -1.
          2    1    1    2  502    0 -0.17683942645E+02 -0.13552058867E+02  0.88154392821E+01  0.23960219046E+02  0.00000000000E+00 0. -1.
         -2    1    1    2    0  502  0.17683942645E+02  0.13552058867E+02 -0.71890987027E+03  0.71925501854E+03  0.00000000000E+00 0. -1.
</event>
<event>
 4    1  0.5573045E+003  0.2281539E+02  0.7546771E-02  0.1494829E+00
          2   -1    0    0  501    0  0.00000000000E+00  0.00000000000E+00  0.57121539798E+02  0.57121539798E+02  0.00000000000E+00 0.  1.
         -2   -1    0    0    0  501 -0.00000000000E+00 -0.00000000000E+00 -0.33162934778E+02  0.33162934778E+02  0.00000000000E+00 0. -1.
          2    1    1    2  502    0 -0.34496300356E+01 -0.22553099304E+02  0.50422062227E+02  0.55343713237E+02  0.00000000000E+00 0.  1.
         -2    1    1    2    0  502  0.34496300356E+01  0.22553099304E+02 -0.26463457207E+02  0.34940761339E+02  0.00000000000E+00 0. -1.
</event>
<event>
 4    1  0.5573045E+003  0.2620762E+02  0.7546771E-02  0.1455734E+00
          2   -1    0    0  501    0  0.00000000000E+00  0.00000000000E+00  0.19292730504E+04  0.19292730504E+04  0.00000000000E+00 0.  1.
         -2   -1    0    0    0  501 -0.00000000000E+00 -0.00000000000E+00 -0.11560191090E+01  0.11560191090E+01  0.00000000000E+00 0. -1.
          2    1    1    2  502    0  0.51624776261E+01  0.25694123047E+02  0.17670094440E+04  0.17672037840E+04  0.00000000000E+00 0.  1.
         -2    1    1    2    0  502 -0.51624776261E+01 -0.25694123047E+02  0.16110758733E+03  0.16322528551E+03  0.00000000000E+00 0. -1.
</event>
<event>
 4    1  0.5573045E+003  0.6029858E+02  0.7546771E-02  0.1258821E+00
          2   -1    0    0  501    0  0.00000000000E+00  0.00000000000E+00  0.12173796652E+03  0.12173796652E+03  0.00000000000E+00 0.  1.
         -2   -1    0    0    0  501 -0.00000000000E+00 -0.00000000000E+00 -0.51668100942E+02  0.51668100942E+02  0.00000000000E+00 0. -1.
          2    1    1    2  502    0 -0.52924179344E+02 -0.28895497345E+02  0.91355193404E+02  0.10946090575E+03  0.00000000000E+00 0.  1.
         -2    1    1    2    0  502  0.52924179344E+02  0.28895497345E+02 -0.21285327823E+02  0.63945161714E+02  0.00000000000E+00 0. -1.
</event>
<event>
 4    1  0.5573045E+003  0.2859710E+02  0.7546771E-02  0.1432192E+00
          2   -1    0    0  501    0  0.00000000000E+00  0.00000000000E+00  0.69620064731E+02  0.69620064731E+02  0.00000000000E+00 0.  1.
         -2   -1    0    0    0  501 -0.00000000000E+00 -0.00000000000E+00 -0.14859028012E+03  0.14859028012E+03  0.00000000000E+00 0.  1.
          2    1    1    2  502    0  0.22947382512E+02 -0.17064927231E+02  0.65218735898E+02  0.71212903449E+02  0.00000000000E+00 0.  1.
         -2    1    1    2    0  502 -0.22947382512E+02  0.17064927231E+02 -0.14418895129E+03  0.14699744140E+03  0.00000000000E+00 0.  1.
</event>
